Membrane in water
40167
    1TCq1    O1    1   2.185   1.032  11.880  0.0450 -0.0339 -0.2751
    1TCq1    C1    2   2.116   0.918  11.903  0.3360  0.3034  0.5299
    1TCq1    O2    3   2.161   0.812  11.945 -0.1873  0.1395  0.0886
    1TCq1    C2    4   1.989   0.921  11.833  0.9758  0.0242  0.8087
    1TCq1    C3    5   1.937   1.039  11.783 -0.3906 -0.4755 -0.7744
    1TCq1    C4    6   1.821   1.029  11.707 -0.6595 -0.0234  0.0923
    1TCq1    C5    7   1.750   0.916  11.701  0.4282 -0.1509  0.3618
    1TCq1    C6    8   1.812   0.807  11.747  0.3384  0.1439  0.0835
    1TCq1    C7    9   1.927   0.800  11.807 -0.1046 -0.3233 -0.1193
    1TCq1    C8   10   1.746   0.682  11.722  0.3367 -0.0062  0.6112
    1TCq1    O4   11   1.623   0.678  11.746  0.4433 -0.3368  0.4442
    1TCq1    C9   12   1.783   1.153  11.628  0.1945  0.4215  0.3416
    1TCq1    O5   13   1.878   1.228  11.589  0.0882  0.3345 -0.5253
    1TCq1    O6   14   1.678   1.140  11.561 -0.0408  0.2590 -0.5671
    1TCq1    H1   15   2.157   1.104  11.820  1.2764  2.0005  1.5686
    1TCq1    H2   16   1.982   1.135  11.803 -0.1445 -0.6222 -0.6261
    1TCq1    H3   17   1.656   0.899  11.652  0.1200 -1.5428  1.4416
    1TCq1    H4   18   1.956   0.709  11.857 -2.1635 -1.2830 -0.6415
    2MPD2     C   19   1.768   0.170  11.629 -0.0087 -0.0092 -0.0714
    2MPD2    C1   20   1.675   0.241  11.700  0.2509  0.5449  0.5509
    2MPD2    C2   21   1.696   0.379  11.707  0.2821  0.3034 -0.1817
    2MPD2    C3   22   1.810   0.440  11.653 -0.0436 -0.1989  0.4321
    2MPD2    C4   23   1.903   0.360  11.596  0.0810 -0.5270 -0.4464
    2MPD2    C5   24   1.878   0.228  11.585 -0.0967 -0.0672  0.2829
    2MPD2     H   25   1.625   0.442  11.760 -1.6948  0.7117 -3.3280
    2MPD2    H1   26   1.991   0.398  11.545  0.2334  0.8426  0.8548
    2MPD2    H2   27   1.755   0.065  11.602 -2.0864  0.0529  0.6002
    2MPD2    H3   28   1.947   0.171  11.524 -0.3260  1.3527 -1.2986
    2MPD2     N   29   1.834   0.582  11.677  0.3032 -0.3538 -0.0758
    2MPD2    H5   30   1.923   0.616  11.642  1.3945 -0.6189  2.4328
    2MPD2    N1   31   1.557   0.184  11.757  0.8073  0.0828 -0.0572
    2MPD2    H7   32   1.493   0.253  11.795  0.0216  0.4520 -2.0407
    3TCq1    O1   33   0.321   0.674  11.212  0.1608 -0.3325 -0.6185
    3TCq1    C1   34   0.363   0.715  11.093 -0.1774 -0.3500 -0.9057
    3TCq1    O2   35   0.362   0.647  10.990  0.2208  0.5573 -0.0872
    3TCq1    C2   36   0.441   0.844  11.110 -0.1880 -0.2414  0.4284
    3TCq1    C3   37   0.529   0.891  11.016 -0.4210  0.1287 -1.0290
    3TCq1    C4   38   0.581   1.014  11.030  0.7072 -0.0088 -0.8256
    3TCq1    C5   39   0.565   1.087  11.143 -0.1127 -0.4169  0.2484
    3TCq1    C6   40   0.482   1.036  11.242  0.1040  0.6129  0.2062
    3TCq1    C7   41   0.416   0.916  11.222  0.1185 -0.1482  0.7912
    3TCq1    C8   42   0.436   1.127  11.348 -0.5413 -0.2177 -0.0997
    3TCq1    O4   43   0.385   1.068  11.444 -0.0287 -0.0414  0.3126
    3TCq1    C9   44   0.647   1.076  10.921  0.0907 -0.0164 -0.2143
    3TCq1    O5   45   0.668   1.199  10.930 -0.1134 -0.3845 -0.1017
    3TCq1    O6   46   0.663   1.010  10.810 -0.7713 -0.1874  0.4600
    3TCq1    H1   47   0.353   0.720  11.292 -1.4061 -1.7304  0.8034
    3TCq1    H2   48   0.535   0.842  10.919 -0.1455 -1.1263 -0.3741
    3TCq1    H3   49   0.619   1.181  11.147  0.1638 -0.5492 -0.2839
    3TCq1    H4   50   0.327   0.894  11.279 -0.5638 -1.5341 -0.8375
    4MPD2     C   51   0.355   1.597  11.555 -0.2930  0.4699 -0.2745
    4MPD2    C1   52   0.384   1.607  11.423  0.6747 -0.3164  0.0035
    4MPD2    C2   53   0.417   1.492  11.352  0.3542  0.9868  0.0549
    4MPD2    C3   54   0.420   1.370  11.413 -0.6306 -0.5021  0.3571
    4MPD2    C4   55   0.389   1.358  11.545  0.2607 -0.8858  0.2695
    4MPD2    C5   56   0.368   1.473  11.619 -0.3340  0.2411 -0.0630
    4MPD2     H   57   0.428   1.493  11.244 -2.0221 -0.8760 -0.2228
    4MPD2    H1   58   0.379   1.264  11.598 -0.0963 -1.2514 -0.4365
    4MPD2    H2   59   0.332   1.679  11.622  2.0104  0.5865  0.3510
    4MPD2    H3   60   0.360   1.451  11.725  0.1301  0.5401  0.0332
    4MPD2     N   61   0.441   1.262  11.319  1.1150 -0.0126  0.3827
    4MPD2    H5   62   0.465   1.292  11.225 -1.5797 -0.8375 -0.5601
    4MPD2    N1   63   0.396   1.727  11.342  0.2784  1.1898  0.1067
    4MPD2    H7   64   0.404   1.724  11.241 -0.2502  0.4498  0.0922
    5TCq1    O1   65   0.747   3.174  10.561  0.2951 -0.6400 -0.4697
    5TCq1    C1   66   0.637   3.120  10.509  0.3942 -0.3233  0.2611
    5TCq1    O2   67   0.546   3.175  10.450 -0.0662 -0.4323  0.6383
    5TCq1    C2   68   0.654   2.974  10.499 -0.1245  0.1304  0.1124
    5TCq1    C3   69   0.582   2.899  10.405  0.4852 -0.2149 -0.1237
    5TCq1    C4   70   0.606   2.767  10.395  0.5575  0.3566  0.6247
    5TCq1    C5   71   0.679   2.697  10.486  0.2855  0.7581 -0.1038
    5TCq1    C6   72   0.754   2.773  10.568 -0.1979  0.0051  0.3749
    5TCq1    C7   73   0.743   2.912  10.581 -0.1810 -0.1531  0.5548
    5TCq1    C8   74   0.858   2.693  10.642  0.2058  0.4684 -0.2715
    5TCq1    O4   75   0.851   2.570  10.644 -0.5943  0.7391 -0.3100
    5TCq1    C9   76   0.556   2.687  10.286 -0.1078 -0.3254  0.3928
    5TCq1    O5   77   0.545   2.565  10.308 -0.9237  0.1373  0.0385
    5TCq1    O6   78   0.521   2.746  10.176 -0.2170  0.2154 -0.2130
    5TCq1    H1   79   0.832   3.131  10.538  0.3737 -1.4624  1.3370
    5TCq1    H2   80   0.539   2.945  10.317  0.5245  0.3743  0.1644
    5TCq1    H3   81   0.703   2.592  10.472  0.5431  0.6808  0.9437
    5TCq1    H4   82   0.789   2.966  10.662 -0.9189  0.2980  0.6676
    6MPD2     C   83   1.171   2.855  10.756 -0.1027 -0.5917 -0.1332
    6MPD2    C1   84   1.088   2.748  10.716 -0.0368 -0.3448 -0.5013
    6MPD2    C2   85   1.137   2.623  10.738  0.0058 -0.0160 -0.7673
    6MPD2    C3   86   1.272   2.603  10.789  0.8587 -0.0327 -0.1807
    6MPD2    C4   87   1.349   2.714  10.814  0.5894  0.5401  0.0262
    6MPD2    C5   88   1.293   2.839  10.800  0.1749 -0.2941  0.4757
    6MPD2     H   89   1.080   2.534  10.713  1.2475 -0.9754 -0.2325
    6MPD2    H1   90   1.451   2.705  10.849  0.0714 -1.9399  0.8836
    6MPD2    H2   91   1.140   2.955  10.726 -0.2287 -0.8582 -0.8921
    6MPD2    H3   92   1.349   2.929  10.820 -2.9285  1.0865  2.9739
    6MPD2     N   93   1.314   2.466  10.803  0.2505  0.5446 -0.0514
    6MPD2    H5   94   1.250   2.397  10.766  1.7825 -0.6261 -0.5413
    6MPD2    N1   95   0.957   2.777  10.677 -0.0548  0.2081 -0.0636
    6MPD2    H7   96   0.936   2.876  10.668  0.8186  0.3245 -0.7119
    7TCq1    O1   97   3.322   2.598  12.995 -0.0345 -0.1365  0.3001
    7TCq1    C1   98   3.407   2.614  13.094 -0.2016  0.0411  0.3583
    7TCq1    O2   99   3.527   2.609  13.084  0.0553 -0.4246  0.2407
    7TCq1    C2  100   3.349   2.562  13.220 -0.1683  0.7835 -1.0847
    7TCq1    C3  101   3.231   2.609  13.262 -0.7677 -0.1410 -0.3250
    7TCq1    C4  102   3.166   2.561  13.370 -0.3991  0.4226  0.4410
    7TCq1    C5  103   3.215   2.454  13.442  0.4518 -0.3502  0.3072
    7TCq1    C6  104   3.338   2.408  13.398 -0.4444 -0.0856  0.2098
    7TCq1    C7  105   3.403   2.453  13.285 -0.1837  0.2334 -0.0954
    7TCq1    C8  106   3.385   2.282  13.458  0.5646  0.7139  0.3282
    7TCq1    O4  107   3.300   2.201  13.480 -0.0094  0.0602  0.6202
    7TCq1    C9  108   3.041   2.613  13.409 -0.0709 -0.1095  0.3032
    7TCq1    O5  109   2.966   2.663  13.322  0.3584 -0.3069 -0.2553
    7TCq1    O6  110   3.032   2.629  13.529  0.0235 -0.2039  0.2553
    7TCq1    H1  111   3.232   2.582  13.031  0.9187 -2.5180  1.6718
    7TCq1    H2  112   3.197   2.700  13.213  0.2190 -0.5818 -1.8255
    7TCq1    H3  113   3.165   2.406  13.526  3.8577 -0.8293  2.0450
    7TCq1    H4  114   3.499   2.408  13.263  0.5681  1.5374  0.5274
    8MPD2     C  115   3.751   1.935  13.554 -0.5814 -0.4483  0.3231
    8MPD2    C1  116   3.618   1.913  13.537 -0.5536  0.3070  0.1331
    8MPD2    C2  117   3.528   2.023  13.513 -0.3413 -0.2495  0.2796
    8MPD2    C3  118   3.582   2.153  13.501 -0.4657 -0.3109  0.0867
    8MPD2    C4  119   3.718   2.166  13.510  1.2560  0.1363 -0.2173
    8MPD2    C5  120   3.799   2.060  13.535 -0.1430 -0.1436  1.2053
    8MPD2     H  121   3.422   2.006  13.499 -0.2954 -0.5204  0.2659
    8MPD2    H1  122   3.756   2.266  13.490 -1.7827  1.5655  1.1088
    8MPD2    H2  123   3.820   1.856  13.583 -0.3880 -0.1198  0.7672
    8MPD2    H3  124   3.902   2.074  13.565 -0.7969 -0.1000  3.4106
    8MPD2     N  125   3.518   2.268  13.460 -0.1059  0.3360  0.3989
    8MPD2    H5  126   3.576   2.351  13.474 -0.1988  0.4209  0.2802
    8MPD2    N1  127   3.569   1.779  13.550 -1.0361  0.1379 -0.4064
    8MPD2    H7  128   3.637   1.708  13.576 -1.2022 -0.0889 -0.5944
    9TCq1    O1  129   0.937   0.701  10.932  0.1623  0.4721  0.0195
    9TCq1    C1  130   1.061   0.688  10.985 -0.0850  0.0489  0.6130
    9TCq1    O2  131   1.093   0.704  11.102 -0.0473 -0.5467 -0.5016
    9TCq1    C2  132   1.157   0.631  10.888  0.8768 -0.7438  0.1337
    9TCq1    C3  133   1.169   0.695  10.765  0.2461  0.6948  0.5484
    9TCq1    C4  134   1.290   0.691  10.703  0.5626 -0.6623  0.5965
    9TCq1    C5  135   1.396   0.622  10.758  0.4641  0.2922  0.2917
    9TCq1    C6  136   1.396   0.567  10.880 -1.0749 -0.1761  0.4062
    9TCq1    C7  137   1.270   0.578  10.944  0.1296 -0.3998 -0.4297
    9TCq1    C8  138   1.513   0.606  10.955 -0.0115 -0.2117  0.2882
    9TCq1    O4  139   1.628   0.577  10.917 -0.0543 -0.2531  0.0118
    9TCq1    C9  140   1.299   0.753  10.575  0.3026 -0.2718  0.0058
    9TCq1    O5  141   1.408   0.758  10.513 -0.3342 -0.3229 -0.3441
    9TCq1    O6  142   1.206   0.836  10.543  0.4159 -0.0100  0.0005
    9TCq1    H1  143   0.928   0.650  10.849 -0.1790  0.1361  0.2564
    9TCq1    H2  144   1.088   0.744  10.712 -0.4103 -0.2373  0.6666
    9TCq1    H3  145   1.490   0.622  10.705 -1.1236  0.8454 -2.5316
    9TCq1    H4  146   1.271   0.554  11.050  1.7491 -2.4272 -0.9197
   10MPD2     C  147   1.673   0.726  11.190 -0.4858  0.2293 -0.1019
   10MPD2    C1  148   1.541   0.749  11.162 -0.3839  1.2602  0.1992
   10MPD2    C2  149   1.475   0.836  11.238  0.1075 -0.4371  0.2510
   10MPD2    C3  150   1.532   0.896  11.347 -0.9033  0.3432 -0.4383
   10MPD2    C4  151   1.669   0.887  11.366 -0.3204 -0.4065  0.5688
   10MPD2    C5  152   1.742   0.810  11.274 -0.7965  1.1135  0.2072
   10MPD2     H  153   1.379   0.873  11.204 -0.1414  0.4891  1.9634
   10MPD2    H1  154   1.725   0.937  11.444  0.9812 -0.2040 -0.4922
   10MPD2    H2  155   1.731   0.666  11.122  1.8473  2.0451  0.2558
   10MPD2    H3  156   1.849   0.810  11.286 -0.7028  1.2126 -0.6360
   10MPD2     N  157   1.465   0.976  11.440  0.3671  0.0774 -0.2408
   10MPD2    H5  158   1.525   1.031  11.500  1.1000 -0.8522 -0.1311
   10MPD2    N1  159   1.472   0.699  11.046 -0.2705 -0.0611  0.2301
   10MPD2    H7  160   1.373   0.719  11.033  0.2235  1.8929 -0.5440
   11TCq1    O1  161   2.797   0.493  14.200 -0.3594 -0.2079 -0.2928
   11TCq1    C1  162   2.660   0.485  14.197 -0.5777  0.6183  0.3985
   11TCq1    O2  163   2.599   0.438  14.290 -0.2158 -0.7166  0.5204
   11TCq1    C2  164   2.602   0.572  14.093  0.1855  0.0675  0.0723
   11TCq1    C3  165   2.669   0.599  13.973  0.5143  0.2282 -0.4633
   11TCq1    C4  166   2.636   0.719  13.916  0.0365 -0.8223  0.2240
   11TCq1    C5  167   2.551   0.815  13.967  0.0052  0.2143  0.4792
   11TCq1    C6  168   2.480   0.774  14.072  1.4887 -0.2749 -0.0127
   11TCq1    C7  169   2.501   0.650  14.130  0.9222 -0.2465 -0.0218
   11TCq1    C8  170   2.354   0.838  14.097  0.2496  0.1134  0.2226
   11TCq1    O4  171   2.351   0.959  14.086 -0.0540  0.3482 -0.1382
   11TCq1    C9  172   2.706   0.739  13.791 -0.3616  0.5139 -0.4295
   11TCq1    O5  173   2.688   0.855  13.736 -0.0805  0.0011  0.2237
   11TCq1    O6  174   2.718   0.642  13.718 -0.4169 -0.6570 -0.4565
   11TCq1    H1  175   2.828   0.531  14.115  0.5617  0.2483  0.2458
   11TCq1    H2  176   2.743   0.534  13.929  0.7432 -1.4092  2.3514
   11TCq1    H3  177   2.533   0.908  13.913  1.1136 -1.5145 -2.9095
   11TCq1    H4  178   2.439   0.638  14.218 -0.5074 -1.3408 -1.1700
   12MPD2     C  179   2.072   0.904  14.124  0.2472  0.0603 -1.0031
   12MPD2    C1  180   2.120   0.784  14.090  0.1399  0.1547 -0.2165
   12MPD2    C2  181   2.023   0.698  14.036 -0.1320  0.6327  0.4251
   12MPD2    C3  182   1.893   0.731  14.029 -0.3304 -0.5354  0.7119
   12MPD2    C4  183   1.844   0.853  14.073  0.3887 -0.3298 -0.0485
   12MPD2    C5  184   1.941   0.937  14.121  0.0393 -0.0765  0.2945
   12MPD2     H  185   2.061   0.598  14.018  0.0011  1.0272 -1.5474
   12MPD2    H1  186   1.741   0.885  14.082  0.0986 -1.1313 -0.4626
   12MPD2    H2  187   2.139   0.974  14.173 -1.7051  1.4272 -0.2987
   12MPD2    H3  188   1.915   1.034  14.162 -2.7699 -0.8348  0.3388
   12MPD2     N  189   1.813   0.629  13.971 -0.8784 -0.2112  0.4234
   12MPD2    H5  190   1.860   0.551  13.926  1.3554  2.1113 -1.2836
   12MPD2    N1  191   2.249   0.748  14.104 -0.3653  1.0301  0.0699
   12MPD2    H7  192   2.267   0.649  14.088 -1.7565  0.8266 -0.3053
   13TCq1    O1  193   2.190   0.370  11.267  0.0345  0.3743 -0.1025
   13TCq1    C1  194   2.094   0.469  11.244 -0.3434  0.0139 -0.6499
   13TCq1    O2  195   2.093   0.583  11.290 -0.3077 -0.0843  0.2063
   13TCq1    C2  196   1.992   0.396  11.184  0.0476  0.0436 -0.6295
   13TCq1    C3  197   2.022   0.285  11.114  0.3865  0.0701 -0.2016
   13TCq1    C4  198   1.923   0.187  11.110  0.2736 -0.2861  0.0216
   13TCq1    C5  199   1.802   0.211  11.163  0.6867  0.4918 -0.0802
   13TCq1    C6  200   1.773   0.334  11.231  0.4148 -0.6410  0.1479
   13TCq1    C7  201   1.873   0.420  11.249 -0.0733  0.3329 -0.5773
   13TCq1    C8  202   1.630   0.381  11.243 -0.1609 -0.7815  0.3867
   13TCq1    O4  203   1.604   0.476  11.315  0.2450 -0.0451  0.4514
   13TCq1    C9  204   1.957   0.062  11.046 -0.0868  0.6472  0.0624
   13TCq1    O5  205   1.865   4.703  11.045  0.1587 -0.3499 -0.8708
   13TCq1    O6  206   2.072   0.050  10.998 -0.3366 -0.5125  0.1878
   13TCq1    H1  207   2.156   0.279  11.259  1.0022 -0.1318  1.5233
   13TCq1    H2  208   2.112   0.277  11.055  1.5193  0.4798  1.4740
   13TCq1    H3  209   1.727   0.134  11.150 -0.5271  1.9526 -1.7421
   13TCq1    H4  210   1.860   0.510  11.309  1.1369 -1.3024  2.1133
   14MPD2     C  211   1.337   0.242  11.052 -0.2983  0.1088 -0.9594
   14MPD2    C1  212   1.405   0.318  11.140  0.2302  0.0375 -0.7824
   14MPD2    C2  213   1.330   0.386  11.231 -0.5267  0.9786 -0.0348
   14MPD2    C3  214   1.191   0.366  11.232  0.8015 -0.3102 -0.5023
   14MPD2    C4  215   1.124   0.286  11.148 -0.3311 -0.2031  0.3748
   14MPD2    C5  216   1.201   0.227  11.064 -0.5235 -0.1884 -0.2580
   14MPD2     H  217   1.371   0.461  11.297  0.5391  0.2483  0.1369
   14MPD2    H1  218   1.016   0.275  11.143 -0.2561 -1.5165  1.6789
   14MPD2    H2  219   1.390   0.193  10.971 -0.5948 -0.7884 -0.6116
   14MPD2    H3  220   1.155   0.172  10.982  2.8486 -2.0751 -0.9030
   14MPD2     N  221   1.123   0.447  11.328  0.8000  0.2393 -0.2790
   14MPD2    H5  222   1.172   0.524  11.373 -0.4086  0.6798  0.2523
   14MPD2    N1  223   1.547   0.312  11.153 -0.6133 -0.1356 -0.5300
   14MPD2    H7  224   1.583   0.244  11.086  0.6762 -1.2471  1.2905
   15TCq1    O1  225   3.095   0.077   1.951 -0.8277 -0.8808  0.2248
   15TCq1    C1  226   3.014   0.003   2.025  0.6891 -0.1722  0.0594
   15TCq1    O2  227   2.943   0.046   2.114 -0.1003 -0.6496 -0.1826
   15TCq1    C2  228   2.973   4.623   1.936  0.1089 -0.3388  0.1955
   15TCq1    C3  229   2.838   4.605   1.917  0.3797  0.0433 -0.0307
   15TCq1    C4  230   2.792   4.499   1.844 -0.2345 -0.3965  0.5431
   15TCq1    C5  231   2.880   4.418   1.772  0.0804  0.4652 -0.5495
   15TCq1    C6  232   3.015   4.455   1.776  0.7897 -0.1483  0.5439
   15TCq1    C7  233   3.065   4.553   1.864 -0.5217 -1.0462 -0.0305
   15TCq1    C8  234   3.111   4.379   1.700  0.5115  0.1565 -0.0942
   15TCq1    O4  235   3.228   4.400   1.727 -0.2220 -0.3116  0.0581
   15TCq1    C9  236   2.654   4.465   1.839 -0.7765 -0.2552 -0.1410
   15TCq1    O5  237   2.610   4.421   1.727 -0.2714 -0.6737 -0.3755
   15TCq1    O6  238   2.583   4.498   1.936 -0.2995  0.1092 -0.0754
   15TCq1    H1  239   3.110   0.043   1.860 -0.9872  1.2459 -0.6073
   15TCq1    H2  240   2.758   4.658   1.969 -0.9523 -0.4158 -1.6215
   15TCq1    H3  241   2.847   4.323   1.731  1.0559  1.3354 -3.3516
   15TCq1    H4  242   3.170   4.580   1.867 -1.3134  1.9016  1.0543
   16MPD2     C  243   3.032   4.135   1.433 -0.3775 -0.3650 -0.0835
   16MPD2    C1  244   3.110   4.213   1.520  0.2998 -0.4850 -0.1186
   16MPD2    C2  245   3.244   4.194   1.510 -0.1207 -0.0539 -0.0556
   16MPD2    C3  246   3.303   4.112   1.414 -0.2326  0.7397 -0.7077
   16MPD2    C4  247   3.219   4.032   1.332  0.2170 -0.9972 -0.6744
   16MPD2    C5  248   3.083   4.046   1.342  0.4514 -0.6186  0.1855
   16MPD2     H  249   3.310   4.253   1.574 -2.0095  0.2948  1.5649
   16MPD2    H1  250   3.258   3.952   1.270  2.1158  0.8433 -1.8620
   16MPD2    H2  251   2.924   4.146   1.431 -0.3608 -0.4656 -1.2712
   16MPD2    H3  252   3.019   3.992   1.273  0.5998 -2.7401  1.7082
   16MPD2     N  253   3.440   4.099   1.418 -0.0593 -0.1135  0.1293
   16MPD2    H5  254   3.486   4.172   1.470  1.3927 -0.1687 -1.0758
   16MPD2    N1  255   3.049   4.311   1.602 -0.0625  0.7238  0.4182
   16MPD2    H7  256   2.948   4.313   1.610 -0.1329 -1.1348  0.0852
   17TCq1    O1  257   0.471   4.638  12.092 -0.3365  0.3841 -0.1667
   17TCq1    C1  258   0.485   4.527  12.019  0.2237  1.0844  0.3598
   17TCq1    O2  259   0.433   4.421  12.043  0.5919 -0.1125  0.2006
   17TCq1    C2  260   0.551   4.560  11.891  0.4610  0.1184 -0.1978
   17TCq1    C3  261   0.524   4.481  11.784  0.0163  0.4262 -0.2783
   17TCq1    C4  262   0.582   4.506  11.663 -0.4446  0.6195 -0.6680
   17TCq1    C5  263   0.677   4.605  11.652  0.3007 -0.0524  0.1477
   17TCq1    C6  264   0.712   4.673  11.771  0.5437  0.1232 -0.4806
   17TCq1    C7  265   0.650   4.654  11.888 -0.1634 -0.5236 -0.9241
   17TCq1    C8  266   0.814   0.047  11.769  0.6980 -0.7681 -0.3689
   17TCq1    O4  267   0.830   0.117  11.870 -0.7289 -0.4995 -0.3133
   17TCq1    C9  268   0.536   4.437  11.540 -0.5641 -0.0065  0.6432
   17TCq1    O5  269   0.583   4.475  11.430  0.8266 -0.0921  0.4350
   17TCq1    O6  270   0.444   4.352  11.545 -0.1027 -0.1285 -0.0347
   17TCq1    H1  271   0.482   4.722  12.044 -0.3741  1.4409  1.6543
   17TCq1    H2  272   0.451   4.402  11.788 -0.8784  1.2491 -0.2467
   17TCq1    H3  273   0.715   4.629  11.554  1.5593 -0.6889  0.4849
   17TCq1    H4  274   0.659   4.721  11.974 -2.3171 -3.0507  1.2538
   18MPD2     C  275   1.036   0.241  11.721  0.1316 -0.1963 -0.0279
   18MPD2    C1  276   1.014   0.124  11.654  0.7400  0.6346 -0.0670
   18MPD2    C2  277   1.122   0.071  11.582 -0.1870 -0.2604 -0.1149
   18MPD2    C3  278   1.241   0.139  11.552 -0.1836  0.1550 -0.0073
   18MPD2    C4  279   1.258   0.260  11.613  0.2735  0.0903 -0.3191
   18MPD2    C5  280   1.155   0.314  11.692 -0.2240  0.3859 -0.5802
   18MPD2     H  281   1.108   4.693  11.551 -1.3991  0.5087 -2.0891
   18MPD2    H1  282   1.347   0.319  11.597 -0.7207  1.2991 -1.4296
   18MPD2    H2  283   0.958   0.294  11.775 -2.2143 -1.8539 -1.8033
   18MPD2    H3  284   1.158   0.411  11.739  0.5856 -0.5382  1.2696
   18MPD2     N  285   1.342   0.095  11.461  0.0974  0.1491 -0.1700
   18MPD2    H5  286   1.433   0.141  11.463 -0.2023  0.7537 -0.4341
   18MPD2    N1  287   0.906   0.036  11.666  0.7339 -0.2998  0.0429
   18MPD2    H7  288   0.902   4.682  11.602  1.6114  0.6177 -1.1332
   19TMC2    C1  289   2.899   0.600  13.326  0.6277 -0.3856 -0.4478
   19TMC2    C2  290   2.917   0.606  13.188  0.2958 -0.1473 -0.0883
   19TMC2    C3  291   2.863   0.499  13.122 -0.3371  0.3511 -0.0386
   19TMC2    C4  292   2.829   0.516  13.400  0.0051 -0.2005 -0.1233
   19TMC2    C5  293   2.771   0.414  13.326 -0.7486 -0.0569  0.3212
   19TMC2    C6  294   2.797   0.402  13.194 -0.0750 -0.2213 -1.2894
   19TMC2     C  295   2.955   0.720  13.389  0.1154  1.1269  0.5735
   19TMC2     O  296   3.009   0.800  13.317 -0.3024 -0.0643  0.2232
   19TMC2     H  297   2.961   0.686  13.129 -0.1459  0.9050  1.0181
   19TMC2    H1  298   2.813   0.538  13.505 -3.4263 -0.0357 -0.6853
   19TMC2    H2  299   2.740   0.327  13.141 -0.8350 -1.1663  0.8641
   19TMC2    C7  300   2.681   0.317  13.387  0.3234 -0.6557 -0.5908
   19TMC2    C8  301   2.873   0.495  12.979  0.5456  0.8287 -0.6983
   19TMC2    O1  302   2.674   0.206  13.341  0.7338 -0.3128  0.1204
   19TMC2    O2  303   2.835   0.596  12.913  0.2668 -0.5262 -0.2795
   19TMC2    O5  304   2.967   0.406  12.940  0.1801  0.2668  0.3006
   19TMC2    H5  305   3.002   0.359  13.018 -0.1264 -0.4146  0.0223
   20MPD2     C  306   3.100   0.907  13.588  0.4257  0.3678  0.1083
   20MPD2    C1  307   3.038   0.790  13.620  0.1040  0.6227  0.3637
   20MPD2    C2  308   3.055   0.734  13.747 -0.1731  0.1641  0.1367
   20MPD2    C3  309   3.120   0.798  13.854  0.0462 -0.1892 -0.3407
   20MPD2    C4  310   3.183   0.919  13.819  0.3447 -0.0534 -0.5159
   20MPD2    C5  311   3.179   0.968  13.689 -0.5858  0.8682  0.5402
   20MPD2     H  312   3.024   0.631  13.758 -2.0202  0.6655 -0.2836
   20MPD2    H1  313   3.244   0.961  13.897 -0.9683  2.0704 -0.6445
   20MPD2    H2  314   3.079   0.951  13.491 -1.4255 -2.9479 -1.0136
   20MPD2    H3  315   3.223   1.066  13.676  0.2473  0.3093 -0.7716
   20MPD2     N  316   3.136   0.740  13.979  0.2593 -0.3547  0.1538
   20MPD2    H5  317   3.202   0.786  14.041  0.6836  0.4816 -0.9333
   20MPD2    N1  318   2.973   0.709  13.526 -0.8227  0.0150 -0.6525
   20MPD2    H7  319   2.929   0.630  13.572  0.0412 -0.0483  0.0662
   21MPD2     C  320   0.370   0.961  14.415  1.0410 -0.4209  0.1023
   21MPD2    C1  321   0.454   0.851  14.405 -1.1500 -0.2119  0.5645
   21MPD2    C2  322   0.410   0.744  14.335  0.0004 -0.7959  0.1260
   21MPD2    C3  323   0.279   0.738  14.291 -0.0013  0.1614  0.1427
   21MPD2    C4  324   0.195   0.848  14.308 -0.0607  0.9126 -0.4426
   21MPD2    C5  325   0.247   0.960  14.361  0.2061  0.0325 -0.2961
   21MPD2     H  326   0.478   0.668  14.298 -1.2397 -1.6101 -0.4838
   21MPD2    H1  327   0.102   0.852  14.254  0.2143  0.7256 -0.9267
   21MPD2    H2  328   0.413   1.057  14.444 -0.0396  0.5086 -1.3848
   21MPD2    H3  329   0.205   1.060  14.360  1.2168  0.4421 -2.0321
   21MPD2     N  330   0.218   0.631  14.216 -0.2638 -0.2571 -0.5232
   21MPD2    H5  331   0.127   0.646  14.173 -0.0405  0.7037 -0.6594
   21MPD2    N1  332   0.591   0.859  14.437 -0.4538  0.0762  0.4171
   21MPD2    H7  333   0.659   0.786  14.420 -2.1958 -1.0565 -1.5547
   22TCq2    C1  334   0.272   0.514  14.163 -0.4878 -0.1674 -0.6636
   22TCq2    O2  335   0.228   0.458  14.065  0.0418 -0.8440 -0.8245
   22TCq2    C2  336   0.376   0.446  14.241 -0.0194 -0.0742 -0.5592
   22TCq2    C3  337   0.468   0.377  14.173 -0.0509 -0.2875  0.4895
   22TCq2    C4  338   0.560   0.300  14.240  0.2362 -0.0664  0.0613
   22TCq2    C5  339   0.553   0.287  14.377  0.2860 -0.1957  0.0702
   22TCq2    C6  340   0.457   0.355  14.444  1.2169 -0.6360 -0.4702
   22TCq2    C7  341   0.364   0.432  14.376 -0.8189 -0.0849  0.1998
   22TCq2    C8  342   0.492   0.384  14.582  0.0578 -0.6557  0.4689
   22TCq2    O4  343   0.577   0.316  14.646  0.0248  0.2621  0.3984
   22TCq2    C9  344   0.672   0.252  14.169 -0.5175  0.5462 -0.7581
   22TCq2    O5  345   0.761   0.193  14.239  0.0801  0.5660 -0.1948
   22TCq2    O6  346   0.695   0.306  14.056 -0.1719 -0.2979  0.0106
   22TCq2    H2  347   0.460   0.385  14.066 -1.3556 -2.2644  0.4384
   22TCq2    H3  348   0.629   0.228  14.428  2.4196  2.0268 -0.5588
   22TCq2    H4  349   0.289   0.492  14.426 -0.3893 -0.0557  0.8144
   23MPD2     C  350   2.360   2.078  15.132  0.0604 -0.3108 -0.7982
   23MPD2    C1  351   2.283   1.967  15.110 -0.4587 -0.3708 -0.5470
   23MPD2    C2  352   2.204   1.949  14.998 -0.3035  0.2359  0.4646
   23MPD2    C3  353   2.198   2.053  14.904 -0.0204 -0.3528 -0.6513
   23MPD2    C4  354   2.279   2.163  14.930 -0.6526 -0.3659  1.1162
   23MPD2    C5  355   2.368   2.172  15.035 -0.1543 -0.2724 -0.0490
   23MPD2     H  356   2.143   1.863  14.976  1.1327 -0.9716  1.2360
   23MPD2    H1  357   2.293   2.244  14.860  0.3469 -1.6415 -0.1303
   23MPD2    H2  358   2.421   2.084  15.222 -0.8411 -1.0893 -0.1281
   23MPD2    H3  359   2.439   2.254  15.037  0.0938 -0.4623 -1.4135
   23MPD2     N  360   2.118   2.055  14.786 -0.0851 -0.0984  0.0193
   23MPD2    H5  361   2.125   2.138  14.729  0.2284 -0.2623 -0.1786
   23MPD2    N1  362   2.301   1.868  15.210 -0.3770 -0.2952  0.4896
   23MPD2    H7  363   2.358   1.892  15.290 -1.8145 -0.7471  1.6514
   24TCq2    C1  364   2.018   1.968  14.751 -0.3615 -0.5766  0.0720
   24TCq2    O2  365   1.966   1.873  14.808 -0.3433 -0.9543 -0.2448
   24TCq2    C2  366   1.980   2.004  14.615  0.2432  0.3063 -0.0520
   24TCq2    C3  367   2.069   2.046  14.523 -0.3714 -0.5390  0.5114
   24TCq2    C4  368   2.029   2.085  14.403  0.5699 -0.7065  0.4703
   24TCq2    C5  369   1.896   2.087  14.372  0.5711  0.1301  0.4173
   24TCq2    C6  370   1.810   2.032  14.467 -0.8455  0.0489 -0.2682
   24TCq2    C7  371   1.856   1.990  14.588 -0.2189  0.1861 -0.7541
   24TCq2    C8  372   1.666   2.041  14.435 -0.0108  0.1910  0.2723
   24TCq2    O4  373   1.589   1.974  14.500  0.0015 -0.0804  0.0657
   24TCq2    C9  374   2.136   2.125  14.322  0.7372  0.4938 -0.1132
   24TCq2    O5  375   2.249   2.080  14.351  0.4313 -0.2410  0.2437
   24TCq2    O6  376   2.105   2.162  14.206 -0.2159  0.5341 -0.5632
   24TCq2    H2  377   2.175   2.041  14.544  0.1882 -1.9631 -2.5829
   24TCq2    H3  378   1.868   2.120  14.273  2.2999 -0.4170 -0.2530
   24TCq2    H4  379   1.783   1.954  14.660 -1.0514  0.9044 -1.2359
   25TMC2    C1  380   4.721   0.142  11.145 -0.0590 -0.4825  0.5626
   25TMC2    C2  381   0.028   0.269  11.153 -0.0305 -0.2701  0.3198
   25TMC2    C3  382   0.042   0.315  11.279  0.4165 -0.4383  0.1073
   25TMC2    C4  383   4.677   0.073  11.253  0.2276  0.0544  0.2641
   25TMC2    C5  384   4.669   0.137  11.377 -0.1116 -0.4532 -0.4657
   25TMC2    C6  385   4.716   0.265  11.391 -0.0147  0.0302 -0.1640
   25TMC2     C  386   4.722   0.080  11.011  0.4117  0.7366  0.1938
   25TMC2     O  387   0.015   0.159  10.921  0.0786  0.2614  0.0794
   25TMC2     H  388   0.066   0.327  11.070 -0.5352 -0.6252 -0.1582
   25TMC2    H1  389   4.631   4.700  11.251 -0.6532  0.4858 -0.4693
   25TMC2    H2  390   0.012   0.318  11.483 -1.9308  0.5905 -0.0409
   25TMC2    C7  391   4.641   0.065  11.503 -0.1657  0.2952 -0.3305
   25TMC2    C8  392   0.111   0.438  11.300 -0.1450  0.1208 -0.3645
   25TMC2    O1  393   4.657   4.668  11.512  0.7965 -0.2003  0.7219
   25TMC2    O2  394   0.058   0.515  11.382  0.2456  0.2471  0.0452
   25TMC2    O5  395   0.229   0.378  11.331 -0.5399 -0.0104  0.0541
   25TMC2    H5  396   0.255   0.304  11.271  1.3409  0.3858  0.3794
   26MPD2     C  397   4.723   4.403  10.712 -0.2203 -0.6063 -0.0189
   26MPD2    C1  398   0.021   4.357  10.839  0.1183 -0.4553 -0.3229
   26MPD2    C2  399   0.018   4.447  10.942 -0.2933 -0.3088  0.2360
   26MPD2    C3  400   4.717   4.579  10.914  0.4191 -0.0313  0.8049
   26MPD2    C4  401   4.694   4.623  10.788  0.1229  0.6698  0.5714
   26MPD2    C5  402   4.699   4.533  10.692 -0.5186 -0.0113  0.0065
   26MPD2     H  403   0.019   4.402  11.040 -4.0580 -0.1488  0.3759
   26MPD2    H1  404   4.666   4.724  10.760  0.1536  1.2095  2.5504
   26MPD2    H2  405   4.704   4.336  10.629  1.4021  0.5897 -1.3877
   26MPD2    H3  406   4.677   4.556  10.588  1.4759 -2.9708 -1.0795
   26MPD2     N  407   4.721   4.673  11.021  0.4495 -0.4511  0.1342
   26MPD2    H5  408   0.010   4.635  11.114  1.3498  0.4859  0.3743
   26MPD2    N1  409   0.048   4.223  10.858 -0.6581 -0.3411 -0.9501
   26MPD2    H7  410   0.058   4.162  10.777  0.4944  1.7912 -2.3904
   27TMC2    C1  411   4.455   1.607  12.915 -0.1675 -0.0802 -0.9893
   27TMC2    C2  412   4.379   1.671  12.819  0.2987  0.1514  0.1384
   27TMC2    C3  413   4.430   1.670  12.687 -0.2322 -0.0311 -1.1387
   27TMC2    C4  414   4.574   1.561  12.888  0.3931  0.2255  1.0462
   27TMC2    C5  415   4.624   1.562  12.760 -0.2166  0.1508  0.0757
   27TMC2    C6  416   4.550   1.605  12.660  0.0507 -0.1119 -0.5479
   27TMC2     C  417   4.415   1.598  13.050 -0.4525 -0.1736  0.5886
   27TMC2     O  418   4.468   1.516  13.120 -0.5049  0.4017  0.5018
   27TMC2     H  419   4.284   1.716  12.843  0.9270  1.5895 -0.0572
   27TMC2    H1  420   4.641   1.514  12.959  0.1669 -1.6692 -0.0105
   27TMC2    H2  421   4.583   1.580  12.560  0.3253  0.7753 -0.6768
   27TMC2    C7  422   0.019   1.502  12.737  0.0824 -0.8181 -0.0219
   27TMC2    C8  423   4.350   1.711  12.575 -0.1403  0.1091 -0.1446
   27TMC2    O1  424   0.086   1.561  12.656 -0.1903 -0.2961 -0.0765
   27TMC2    O2  425   4.358   1.669  12.463 -0.3027 -0.4915  0.5764
   27TMC2    O5  426   4.264   1.808  12.609  0.0988  0.4934  0.0098
   27TMC2    H5  427   4.299   1.869  12.677  0.3823  1.0450 -0.6378
   28MPD2     C  428   4.064   1.711  13.420 -0.0952  0.2872  0.0409
   28MPD2    C1  429   4.029   1.773  13.303  0.1872 -0.0462  0.3784
   28MPD2    C2  430   4.117   1.758  13.199  0.4224  0.2865  0.3921
   28MPD2    C3  431   4.227   1.670  13.196  0.3763  0.0073 -0.3702
   28MPD2    C4  432   4.261   1.607  13.313 -0.3385 -0.1001 -0.0846
   28MPD2    C5  433   4.178   1.623  13.423 -0.5865 -0.4022 -0.3429
   28MPD2     H  434   4.089   1.797  13.102  5.3782  1.9309 -0.3722
   28MPD2    H1  435   4.348   1.543  13.328  0.3612  0.6156 -1.0659
   28MPD2    H2  436   3.999   1.716  13.507  3.0156  3.3765  2.1823
   28MPD2    H3  437   4.197   1.585  13.523  0.7161  0.3548 -0.3095
   28MPD2     N  438   4.305   1.672  13.079  0.4797  0.4783  0.8890
   28MPD2    H5  439   4.274   1.733  13.004 -0.4316 -1.4174 -0.2613
   28MPD2    N1  440   3.909   1.857  13.293  0.3797  0.1114 -0.7532
   28MPD2    H7  441   3.848   1.854  13.374 -0.4027  1.2455 -1.3124
   29MPD2     C  442   4.334   3.515  14.061 -0.4635  0.2799  0.0722
   29MPD2    C1  443   4.281   3.488  14.182 -0.7700 -0.3019 -0.7096
   29MPD2    C2  444   4.224   3.588  14.262  0.5919 -0.8774  0.6361
   29MPD2    C3  445   4.238   3.714  14.209 -0.7224  0.6610  1.0757
   29MPD2    C4  446   4.302   3.743  14.097  0.1449  0.5283 -0.2943
   29MPD2    C5  447   4.338   3.644  14.013 -0.1184 -0.0214 -0.1144
   29MPD2     H  448   4.175   3.563  14.355  1.1509 -1.6666  0.7176
   29MPD2    H1  449   4.323   3.844  14.064 -0.2920  0.1950 -1.5934
   29MPD2    H2  450   4.371   3.438  13.994  0.7581  0.0533  1.0071
   29MPD2    H3  451   4.390   3.659  13.920  0.4078 -1.8950 -0.1383
   29MPD2     N  452   4.180   3.823  14.274 -0.2615  0.2402  0.3724
   29MPD2    H5  453   4.190   3.912  14.227 -0.9701 -0.0071 -0.2532
   29MPD2    N1  454   4.267   3.353  14.216  0.4608 -0.7181  0.1417
   29MPD2    H7  455   4.312   3.278  14.164 -2.6415 -3.2899  1.1594
   30TCq2    C1  456   4.111   3.821  14.396  0.3178 -0.4682  0.6093
   30TCq2    O2  457   4.094   3.724  14.472 -0.0013  0.2200  0.5274
   30TCq2    C2  458   4.083   3.960  14.438 -0.4670  0.5014  0.0885
   30TCq2    C3  459   4.018   3.981  14.555  0.1997  0.0911  0.0319
   30TCq2    C4  460   3.991   4.108  14.597  0.7043 -0.4147 -0.1965
   30TCq2    C5  461   4.035   4.213  14.516  0.1924  0.1661  0.6879
   30TCq2    C6  462   4.088   4.189  14.393 -0.3633  0.5406  0.7260
   30TCq2    C7  463   4.110   4.066  14.353 -1.0189 -0.0766 -0.4200
   30TCq2    C8  464   4.138   4.293  14.302 -0.0789  0.6186  0.0354
   30TCq2    O4  465   4.137   4.271  14.183 -0.1398  0.3532  0.4848
   30TCq2    C9  466   3.920   4.123  14.724 -0.5125 -0.2646  1.5463
   30TCq2    O5  467   3.897   4.238  14.768  0.4902  0.0294 -0.4949
   30TCq2    O6  468   3.919   4.019  14.795 -0.4146  0.2779  0.5462
   30TCq2    H2  469   4.014   3.904  14.631  3.4255  0.8381  0.9410
   30TCq2    H3  470   3.999   4.306  14.560 -3.0804 -0.0560 -1.4824
   30TCq2    H4  471   4.168   4.051  14.263 -1.2650 -0.8594 -0.4457
   31MPD2     C  472   2.210   2.909  14.853  0.6810 -0.3041 -0.4145
   31MPD2    C1  473   2.101   2.850  14.800  0.6336 -0.1330  0.0241
   31MPD2    C2  474   2.061   2.728  14.855 -0.1600 -0.2582  0.0504
   31MPD2    C3  475   2.142   2.665  14.953  0.2805  0.0500 -0.1652
   31MPD2    C4  476   2.251   2.730  15.009 -0.1373  0.0327 -0.4155
   31MPD2    C5  477   2.283   2.849  14.954 -0.4964 -1.1095  1.2238
   31MPD2     H  478   1.973   2.676  14.819 -0.3108  0.1948 -0.2299
   31MPD2    H1  479   2.314   2.684  15.084 -0.7089  0.9107  0.5983
   31MPD2    H2  480   2.239   3.008  14.820  1.9732  0.1443  2.1060
   31MPD2    H3  481   2.361   2.908  15.000  0.4407 -0.0488 -1.7252
   31MPD2     N  482   2.106   2.536  15.008 -0.0642 -0.0225 -0.3899
   31MPD2    H5  483   2.158   2.499  15.087 -0.4339 -0.0745 -0.1718
   31MPD2    N1  484   2.037   2.911  14.692  0.0065  0.2132  0.0942
   31MPD2    H7  485   2.085   2.991  14.653  0.0744  0.9667  1.7113
   32TCq2    C1  486   2.022   2.454  14.946 -0.3515 -0.2504 -0.4688
   32TCq2    O2  487   1.978   2.462  14.833  0.0712 -0.1819  0.3296
   32TCq2    C2  488   1.996   2.341  15.030  0.1552  0.4657 -0.2425
   32TCq2    C3  489   1.907   2.253  14.972  0.2021  0.5623 -0.0486
   32TCq2    C4  490   1.849   2.154  15.044 -0.6299  0.6007 -0.1339
   32TCq2    C5  491   1.887   2.142  15.174  0.0545  0.7163  0.4964
   32TCq2    C6  492   1.968   2.236  15.233  0.1503  0.2993 -0.0569
   32TCq2    C7  493   2.018   2.343  15.170  0.5398  0.0427 -0.3351
   32TCq2    C8  494   1.970   2.239  15.382  0.3329  1.0137  0.1489
   32TCq2    O4  495   2.065   2.289  15.447  0.2592  0.4679  0.7141
   32TCq2    C9  496   1.760   2.058  14.982 -0.8216 -0.3632 -0.1338
   32TCq2    O5  497   1.724   2.079  14.866  0.4227  0.1814 -0.1341
   32TCq2    O6  498   1.703   1.980  15.062  0.8950 -0.1384 -0.2637
   32TCq2    H2  499   1.879   2.260  14.868  2.4303  1.9023 -0.5435
   32TCq2    H3  500   1.853   2.057  15.232 -1.6180  1.3885  0.4968
   32TCq2    H4  501   2.065   2.423  15.226 -1.6870  1.5069 -0.5445
   33MPD2     C  502   1.758   0.086  10.722  0.2508 -0.2845  0.3893
   33MPD2    C1  503   1.635   0.074  10.786  0.1347  0.6440  0.0293
   33MPD2    C2  504   1.529   0.138  10.736 -0.1509  0.0926  0.6729
   33MPD2    C3  505   1.532   0.215  10.617  0.9088  0.1540 -0.3711
   33MPD2    C4  506   1.661   0.235  10.560 -0.5495  0.1249  0.2100
   33MPD2    C5  507   1.770   0.175  10.621 -0.2454  0.6574  0.0391
   33MPD2     H  508   1.435   0.132  10.789 -0.9774 -1.6413 -0.9983
   33MPD2    H1  509   1.686   0.295  10.473 -0.8732 -1.8862 -1.2900
   33MPD2    H2  510   1.850   0.041  10.758  0.6878 -0.4576 -0.9488
   33MPD2    H3  511   1.871   0.204  10.592 -0.4765  2.6528  1.2864
   33MPD2     N  512   1.417   0.282  10.564  0.1416  0.1323  1.0081
   33MPD2    H5  513   1.428   0.343  10.484 -0.5626 -0.0832  0.7501
   33MPD2    N1  514   1.633   4.718  10.908 -0.4692 -0.3927  0.6612
   33MPD2    H7  515   1.722   4.697  10.953  1.4268  0.8334 -2.5539
   34TCq2    C1  516   1.290   0.293  10.624  0.4279  0.3766 -0.4374
   34TCq2    O2  517   1.247   0.246  10.728 -0.5546 -0.3185  0.7860
   34TCq2    C2  518   1.201   0.384  10.554  0.2607  0.2436  0.0400
   34TCq2    C3  519   1.086   0.432  10.613 -0.4327 -0.1804  0.3791
   34TCq2    C4  520   0.992   0.501  10.535 -0.0710  1.1778  0.3494
   34TCq2    C5  521   1.029   0.532  10.405 -0.2959 -1.0655  0.4640
   34TCq2    C6  522   1.145   0.477  10.344  0.8343 -0.5616  0.3134
   34TCq2    C7  523   1.234   0.416  10.421 -0.3306  0.3055  0.5929
   34TCq2    C8  524   1.201   0.560  10.240 -0.6265 -0.1366 -0.6103
   34TCq2    O4  525   1.325   0.561  10.231  0.0382 -0.0315 -0.0084
   34TCq2    C9  526   0.871   0.548  10.598 -0.1634  0.4569 -0.6967
   34TCq2    O5  527   0.787   0.599  10.523  0.2345 -0.0689 -0.0718
   34TCq2    O6  528   0.880   0.578  10.723  0.3705 -0.2706  0.0750
   34TCq2    H2  529   1.066   0.420  10.719 -0.6271 -1.2543  0.2276
   34TCq2    H3  530   0.950   0.585  10.353 -0.1467 -0.5691  0.7515
   34TCq2    H4  531   1.318   0.381  10.363 -3.7231 -2.4550 -2.6545
   35MPD2     C  532   3.892   2.084  12.141  1.2407 -0.4079 -1.0712
   35MPD2    C1  533   3.761   2.054  12.118  0.0409 -0.4390  0.6352
   35MPD2    C2  534   3.710   2.092  11.989  0.0052 -0.0069  0.2088
   35MPD2    C3  535   3.773   2.188  11.911  0.0110  0.5556  0.2353
   35MPD2    C4  536   3.904   2.222  11.946  0.1639 -0.1043 -0.3390
   35MPD2    C5  537   3.964   2.165  12.051 -0.1082 -0.3171 -0.6131
   35MPD2     H  538   3.609   2.069  11.954  0.2253 -1.9812  0.8598
   35MPD2    H1  539   3.948   2.290  11.874  1.1335  0.5265  0.8607
   35MPD2    H2  540   3.952   2.063  12.229 -0.6241 -0.0767  0.2938
   35MPD2    H3  541   4.064   2.196  12.081 -0.7433  1.5404 -0.4624
   35MPD2     N  542   3.701   2.222  11.799  0.2435  0.1428  0.3567
   35MPD2    H5  543   3.630   2.163  11.756 -0.6962  0.6322  1.2393
   35MPD2    N1  544   3.684   2.002  12.224  0.3999 -0.4674  0.3330
   35MPD2    H7  545   3.727   2.002  12.315 -0.5654 -0.3828  0.7909
   36TCq2    C1  546   3.704   2.350  11.758  0.9659  0.3040 -0.1307
   36TCq2    O2  547   3.735   2.450  11.818 -0.2947 -0.1852 -0.6568
   36TCq2    C2  548   3.620   2.373  11.647  0.0152 -0.6208  0.4153
   36TCq2    C3  549   3.633   2.494  11.587 -0.5932 -0.4382 -0.5866
   36TCq2    C4  550   3.539   2.538  11.495  0.3030 -0.3262 -0.1513
   36TCq2    C5  551   3.431   2.459  11.471 -0.7022 -0.1263  0.3336
   36TCq2    C6  552   3.423   2.337  11.527  0.3976 -0.0871  0.4367
   36TCq2    C7  553   3.512   2.289  11.622 -0.6652  0.1522 -0.4168
   36TCq2    C8  554   3.354   2.227  11.456  1.0768  0.0181 -0.6672
   36TCq2    O4  555   3.326   2.139  11.539 -0.6269 -0.0261 -0.0307
   36TCq2    C9  556   3.562   2.659  11.414 -0.4906  0.0924  0.2810
   36TCq2    O5  557   3.671   2.722  11.445 -0.6666 -0.5791  0.0110
   36TCq2    O6  558   3.520   2.647  11.294  0.8402 -0.0484 -0.6080
   36TCq2    H2  559   3.713   2.562  11.613 -0.8656  0.1057 -1.1838
   36TCq2    H3  560   3.356   2.499  11.404  0.8333  1.5723 -0.3492
   36TCq2    H4  561   3.478   2.211  11.689  0.5236  0.0828  0.1175
   37TMC2    C1  562   0.859   2.287  11.205  0.3551  0.7717 -0.1864
   37TMC2    C2  563   0.847   2.307  11.070  0.2649  0.6489 -0.6337
   37TMC2    C3  564   0.959   2.270  10.994 -0.6805 -0.2777  0.1195
   37TMC2    C4  565   0.973   2.245  11.267  0.1145 -0.7814 -0.0247
   37TMC2    C5  566   1.082   2.212  11.193 -0.6505  0.3664  0.1886
   37TMC2    C6  567   1.070   2.223  11.056 -0.6663  0.5471 -0.0917
   37TMC2     C  568   0.747   2.333  11.286  0.4268  0.7279 -0.4005
   37TMC2     O  569   0.656   2.398  11.234 -0.2037  0.1633 -0.1949
   37TMC2     H  570   0.766   2.363  11.024  0.5735 -0.6766 -2.7953
   37TMC2    H1  571   0.981   2.238  11.374  1.0926 -1.8136 -0.1690
   37TMC2    H2  572   1.153   2.199  10.991 -1.7326  0.2571 -1.3362
   37TMC2    C7  573   1.204   2.185  11.253 -0.0810 -0.5471  0.4256
   37TMC2    C8  574   0.964   2.295  10.852  0.5363  0.1493 -0.7270
   37TMC2    O1  575   1.238   2.270  11.334  0.5977 -0.3738 -0.2714
   37TMC2    O2  576   1.071   2.310  10.791  0.0902 -0.0570 -0.1234
   37TMC2    O5  577   0.863   2.228  10.801  0.3968  0.0691 -0.1813
   37TMC2    H5  578   0.793   2.196  10.862  0.7045 -1.2520 -0.5241
   38MPD2     C  579   0.479   2.261  11.728  0.0372  0.1054 -0.0168
   38MPD2    C1  580   0.597   2.190  11.726  0.8548  0.6710  0.2934
   38MPD2    C2  581   0.679   2.183  11.615  0.1195  0.0784  0.3778
   38MPD2    C3  582   0.651   2.267  11.508 -0.5643 -0.1460 -0.4641
   38MPD2    C4  583   0.543   2.347  11.516  0.0564 -0.2892  0.0346
   38MPD2    C5  584   0.456   2.346  11.620  0.1585  0.2631  0.2043
   38MPD2     H  585   0.773   2.131  11.631 -0.6266 -0.4638  2.9493
   38MPD2    H1  586   0.524   2.419  11.437  2.6175  1.6618  1.2087
   38MPD2    H2  587   0.417   2.274  11.815 -1.9478 -1.2244 -1.2304
   38MPD2    H3  588   0.370   2.412  11.622  0.0059  0.1020 -1.0089
   38MPD2     N  589   0.751   2.275  11.409 -0.6304  0.0141 -0.0521
   38MPD2    H5  590   0.831   2.213  11.419 -0.7536 -0.3100 -1.0953
   38MPD2    N1  591   0.641   2.116  11.840  0.6924 -0.2913  0.5186
   38MPD2    H7  592   0.737   2.084  11.830  1.6144  2.0755  1.8463
   39MPD2     C  593   4.039   3.609   1.742 -0.3639  0.4590 -0.1517
   39MPD2    C1  594   3.993   3.734   1.769  0.8090  0.6921 -0.2853
   39MPD2    C2  595   3.868   3.769   1.720 -0.3194 -0.1612 -0.2803
   39MPD2    C3  596   3.784   3.675   1.663  0.0280 -0.6805 -0.4994
   39MPD2    C4  597   3.829   3.548   1.649  0.3469 -0.2766  0.2856
   39MPD2    C5  598   3.956   3.518   1.679  0.1430 -0.5315 -0.4101
   39MPD2     H  599   3.837   3.868   1.749  2.0654  0.4318  0.2435
   39MPD2    H1  600   3.776   3.469   1.597 -0.5422 -0.1152  0.9401
   39MPD2    H2  601   4.131   3.568   1.782  1.4985  3.2144 -1.6325
   39MPD2    H3  602   3.993   3.417   1.663 -1.5533 -1.2378  0.0894
   39MPD2     N  603   3.652   3.693   1.619  0.3167  0.4899 -1.2221
   39MPD2    H5  604   3.628   3.606   1.571 -0.0370  0.5670 -1.1796
   39MPD2    N1  605   4.076   3.824   1.845  0.3301  0.4017 -0.1590
   39MPD2    H7  606   4.176   3.811   1.852  0.5976  2.3036 -0.4050
   40TCq2    C1  607   4.024   3.931   1.912 -0.3830 -0.1709 -0.4304
   40TCq2    O2  608   3.911   3.961   1.935 -0.2077  0.7209  0.2442
   40TCq2    C2  609   4.126   4.014   1.981  0.5384  0.3302  0.1600
   40TCq2    C3  610   4.089   4.089   2.089 -0.2958  0.3266 -0.2675
   40TCq2    C4  611   4.173   4.171   2.144  0.3810 -0.1754 -0.0331
   40TCq2    C5  612   4.298   4.191   2.095  0.1173  0.5412 -0.2177
   40TCq2    C6  613   4.336   4.118   1.980  0.4731  0.1063  0.0529
   40TCq2    C7  614   4.253   4.024   1.929 -0.1338 -0.1116 -0.0128
   40TCq2    C8  615   4.466   4.132   1.926 -0.8392  0.0091 -0.2236
   40TCq2    O4  616   4.509   4.041   1.861 -0.5632  0.0548  0.1311
   40TCq2    C9  617   4.134   4.240   2.266 -0.3577  0.1390  0.4406
   40TCq2    O5  618   4.210   4.328   2.313  0.4767  0.4941 -0.1513
   40TCq2    O6  619   4.027   4.205   2.322  0.1040  0.0993 -0.4327
   40TCq2    H2  620   3.990   4.073   2.131  0.7891 -0.4417  1.9495
   40TCq2    H3  621   4.367   4.258   2.146 -1.1209  2.8371 -1.5934
   40TCq2    H4  622   4.286   3.965   1.845  1.9883  1.8303 -0.5469
   41TMC2    C1  623   2.887   2.228  13.542  0.5249  0.1676 -0.6876
   41TMC2    C2  624   2.856   2.340  13.614  0.3303  0.1501  0.5132
   41TMC2    C3  625   2.803   2.447  13.548  0.5850  0.4020 -0.3599
   41TMC2    C4  626   2.864   2.224  13.407  0.2056 -0.4039  0.3614
   41TMC2    C5  627   2.805   2.330  13.345  0.0081  0.8183 -0.2815
   41TMC2    C6  628   2.773   2.442  13.412  0.1470 -0.5145  0.5005
   41TMC2     C  629   2.943   2.115  13.616  0.3071  0.0797 -0.1668
   41TMC2     O  630   3.009   2.035  13.550  0.1853 -0.1814  0.0695
   41TMC2     H  631   2.877   2.364  13.717 -0.9567  3.2542  0.0589
   41TMC2    H1  632   2.879   2.131  13.353 -1.2828  0.4477 -1.5552
   41TMC2    H2  633   2.711   2.520  13.370  1.2622 -1.5043 -3.0104
   41TMC2    C7  634   2.760   2.319  13.210  0.1808  0.2169  0.5594
   41TMC2    C8  635   2.724   2.543  13.624  0.0181 -0.1870 -0.2981
   41TMC2    O1  636   2.664   2.394  13.183 -0.2213 -0.2063 -0.2868
   41TMC2    O2  637   2.633   2.515  13.701 -0.2945 -0.7687  0.1722
   41TMC2    O5  638   2.818   2.641  13.658  0.0544  0.4415  0.2891
   41TMC2    H5  639   2.887   2.633  13.589 -0.2489 -0.6512  0.1119
   42MPD2     C  640   3.072   1.919  13.808 -0.4268  0.2412 -0.4091
   42MPD2    C1  641   2.988   2.024  13.842 -0.2959  0.0590  0.4740
   42MPD2    C2  642   2.965   2.044  13.983  0.3574  0.2692  0.9331
   42MPD2    C3  643   3.013   1.959  14.081  0.1612  0.6204  0.4030
   42MPD2    C4  644   3.107   1.866  14.044  0.6979  0.0950  0.3674
   42MPD2    C5  645   3.136   1.852  13.907 -0.0607 -0.6074  0.0820
   42MPD2     H  646   2.907   2.135  13.996 -2.1316 -0.9733 -1.6332
   42MPD2    H1  647   3.168   1.816  14.118  0.0163  1.6200  1.9648
   42MPD2    H2  648   3.107   1.909  13.706 -1.6667  0.1392 -0.8320
   42MPD2    H3  649   3.200   1.770  13.876  0.9290  0.2094 -0.0003
   42MPD2     N  650   2.961   1.965  14.213  0.7331 -0.9970 -0.2990
   42MPD2    H5  651   3.019   1.916  14.280  1.4615  0.5970  0.2230
   42MPD2    N1  652   2.932   2.120  13.753  0.4296  0.3145 -0.2992
   42MPD2    H7  653   2.871   2.189  13.796  0.4026  0.1017  0.0020
   43MPD2     C  654   3.745   0.174   0.800  0.4546  0.9707  0.4536
   43MPD2    C1  655   3.857   0.229   0.866  0.5965 -1.0515 -0.6600
   43MPD2    C2  656   3.847   0.266   0.998 -0.3778  0.1714  0.2968
   43MPD2    C3  657   3.726   0.249   1.064  0.3950 -0.3326 -0.1891
   43MPD2    C4  658   3.623   0.188   0.999 -0.6580  0.4001  0.1881
   43MPD2    C5  659   3.628   0.150   0.862 -0.0699 -0.4923  0.1666
   43MPD2     H  660   3.935   0.306   1.048 -0.9985  1.4829  0.3571
   43MPD2    H1  661   3.532   0.168   1.054 -0.7617  0.9205  0.2098
   43MPD2    H2  662   3.762   0.154   0.694  2.9198  0.9584  0.8425
   43MPD2    H3  663   3.539   0.109   0.814 -0.3149  0.5267 -0.2427
   43MPD2     N  664   3.703   0.282   1.199  0.3146 -0.5563  0.5108
   43MPD2    H5  665   3.623   0.241   1.247  1.0484  1.9377  3.9095
   43MPD2    N1  666   3.985   0.218   0.808 -0.2974 -0.1547  0.0687
   43MPD2    H7  667   4.055   0.263   0.866  1.9536 -2.0293 -1.1606
   44TCq2    C1  668   3.958   0.502   1.699  0.4595 -0.8714 -0.2189
   44TCq2    O2  669   4.071   0.518   1.652 -0.3300  0.2030  0.0275
   44TCq2    C2  670   3.858   0.417   1.626 -0.4895 -1.0104  0.5103
   44TCq2    C3  671   3.753   0.372   1.689 -0.0602 -0.1336  0.1767
   44TCq2    C4  672   3.655   0.310   1.613 -0.1100  0.0999 -0.7735
   44TCq2    C5  673   3.662   0.301   1.472  0.1331  0.0104 -0.4076
   44TCq2    C6  674   3.774   0.359   1.419  0.4590 -0.3724  0.5327
   44TCq2    C7  675   3.867   0.420   1.492  0.3985 -0.6182 -0.5122
   44TCq2    C8  676   3.799   0.346   1.276  0.2720  0.4080  0.4999
   44TCq2    O4  677   3.904   0.396   1.239 -0.1741 -0.8602  0.1550
   44TCq2    C9  678   3.537   0.259   1.685 -0.1142 -0.0962 -0.7013
   44TCq2    O5  679   3.450   0.204   1.611 -0.0560  0.1910 -0.3377
   44TCq2    O6  680   3.532   0.266   1.812  0.6275 -0.7473  0.0322
   44TCq2    H2  681   3.753   0.383   1.797 -0.5598  0.2303  0.1380
   44TCq2    H3  682   3.579   0.254   1.421 -0.9562  0.9966  0.4517
   44TCq2    H4  683   3.943   0.484   1.449 -0.4313  1.8553  1.7371
   45TMC2    C1  684   0.489   2.185   9.729 -0.9963 -0.0460 -0.0344
   45TMC2    C2  685   0.584   2.087   9.736 -0.4094 -0.7757  0.1320
   45TMC2    C3  686   0.711   2.121   9.780 -0.1310 -0.1681 -0.0753
   45TMC2    C4  687   0.521   2.313   9.766  0.1170 -0.6228 -0.2026
   45TMC2    C5  688   0.643   2.342   9.816  0.3174  0.1193 -0.2941
   45TMC2    C6  689   0.740   2.244   9.830 -0.2379  0.0170 -0.0301
   45TMC2     C  690   0.354   2.135   9.763  0.2359 -0.5075 -0.0347
   45TMC2     O  691   0.348   2.026   9.816  0.0386 -0.5694 -0.1948
   45TMC2     H  692   0.562   1.989   9.696 -1.4091  0.1072 -1.5023
   45TMC2    H1  693   0.460   2.394   9.726  1.3052  0.7659  0.8010
   45TMC2    H2  694   0.844   2.271   9.847 -0.4871  0.8114  0.2084
   45TMC2    C7  695   0.697   2.465   9.779 -0.2117 -0.5726 -0.1537
   45TMC2    C8  696   0.802   2.015   9.804  0.1402 -0.2599 -0.7997
   45TMC2    O1  697   0.805   2.450   9.729 -0.1721 -0.2083 -0.3506
   45TMC2    O2  698   0.886   2.012   9.892 -0.2291 -0.9464 -0.4457
   45TMC2    O5  699   0.836   1.958   9.679  0.4830 -0.6632 -0.2128
   45TMC2    H5  700   0.778   1.988   9.606  0.4167  0.0594  0.1329
   46MPD2     C  701   0.084   2.107   9.873 -0.2055  0.3357  1.0422
   46MPD2    C1  702   0.120   2.206   9.786 -0.3234 -1.1891  0.4944
   46MPD2    C2  703   0.024   2.302   9.739  0.0623 -0.2916  0.1127
   46MPD2    C3  704   4.620   2.303   9.789 -0.1293 -0.1522 -0.0784
   46MPD2    C4  705   4.588   2.201   9.878  0.3471 -0.4531  0.7151
   46MPD2    C5  706   4.680   2.105   9.913  0.6044 -0.4399  0.1070
   46MPD2     H  707   0.050   2.383   9.673  1.0458  0.3979  1.3385
   46MPD2    H1  708   4.487   2.190   9.916 -0.2300 -1.3145 -1.0675
   46MPD2    H2  709   0.143   2.024   9.910  0.7438  0.0330 -1.0939
   46MPD2    H3  710   4.649   2.012   9.960 -0.3516 -0.0600  0.2146
   46MPD2     N  711   4.534   2.404   9.749  0.4511  0.2132 -0.1806
   46MPD2    H5  712   4.566   2.468   9.677  0.7934 -0.7824 -0.9015
   46MPD2    N1  713   0.253   2.225   9.747 -0.4860 -0.9235 -0.2385
   46MPD2    H7  714   0.275   2.305   9.688 -1.8308 -0.0422  0.4682
   47TMC2    C1  715   1.862   2.702   9.284  0.0582  0.0259 -0.6779
   47TMC2    C2  716   1.851   2.645   9.160 -0.6934 -0.6550  0.1532
   47TMC2    C3  717   1.731   2.664   9.097  0.4910  0.5256 -0.5470
   47TMC2    C4  718   1.765   2.772   9.346  0.2790  0.0259 -0.3420
   47TMC2    C5  719   1.642   2.788   9.278  1.0019 -0.0416 -1.1178
   47TMC2    C6  720   1.624   2.740   9.154 -0.4633  1.3295 -0.1519
   47TMC2     C  721   1.958   2.644   9.369  0.4109  0.3782 -0.3478
   47TMC2     O  722   1.932   2.648   9.490  0.4375  0.1388 -0.4363
   47TMC2     H  723   1.920   2.575   9.114  0.3603  1.3266 -1.2708
   47TMC2    H1  724   1.772   2.805   9.449  0.9546  0.9729 -0.6933
   47TMC2    H2  725   1.543   2.767   9.087 -1.9738  0.0864  1.1771
   47TMC2    C7  726   1.562   2.901   9.320 -0.2490  0.0526 -0.5731
   47TMC2    C8  727   1.695   2.561   9.009  0.2116 -0.6287  0.2804
   47TMC2    O1  728   1.624   2.996   9.377 -0.3589 -0.3152 -0.0780
   47TMC2    O2  729   1.782   2.507   8.942 -0.1252  0.1362 -0.5578
   47TMC2    O5  730   1.567   2.525   9.028  0.6545  0.0118  0.1135
   47TMC2    H5  731   1.531   2.587   9.095 -0.1644 -0.5231  0.1767
   48MPD2     C  732   2.285   2.528   9.247  0.0088 -0.1010  0.1073
   48MPD2    C1  733   2.182   2.552   9.346  0.1285 -0.7093  0.7859
   48MPD2    C2  734   2.178   2.481   9.466 -0.3979  0.2441  0.1683
   48MPD2    C3  735   2.275   2.389   9.499  0.6941 -0.2167 -0.0574
   48MPD2    C4  736   2.380   2.379   9.405 -0.3146 -0.0179 -0.3866
   48MPD2    C5  737   2.386   2.437   9.282  0.0292  0.4214 -0.2598
   48MPD2     H  738   2.104   2.502   9.542  0.6498  1.8797  0.7391
   48MPD2    H1  739   2.452   2.299   9.417  1.2452  1.4499  0.0926
   48MPD2    H2  740   2.274   2.566   9.146  1.7862  1.7682  0.6032
   48MPD2    H3  741   2.475   2.422   9.221 -0.1109 -2.1020  0.1533
   48MPD2     N  742   2.261   2.300   9.597 -0.1118 -0.7116  0.0600
   48MPD2    H5  743   2.167   2.295   9.636 -0.4190  0.9879 -0.4777
   48MPD2    N1  744   2.072   2.621   9.299  0.2672  0.5900 -0.3196
   48MPD2    H7  745   2.071   2.644   9.200 -1.6813 -3.6145 -1.2565
   49MPD2     C  746   0.234   0.347  10.436 -0.1327 -0.1932 -0.2227
   49MPD2    C1  747   0.223   0.209  10.410 -0.1054 -0.1239 -0.0656
   49MPD2    C2  748   0.252   0.117  10.509 -0.2184 -0.5242 -0.3904
   49MPD2    C3  749   0.295   0.168  10.626  0.8254 -0.1469  0.2110
   49MPD2    C4  750   0.308   0.308  10.653 -0.0981 -0.1256 -0.1131
   49MPD2    C5  751   0.272   0.396  10.560  0.3751 -0.2148  0.3339
   49MPD2     H  752   0.225   0.015  10.486 -0.4196 -0.4407 -0.5327
   49MPD2    H1  753   0.324   0.341  10.755  2.0552 -0.3838 -0.3616
   49MPD2    H2  754   0.216   0.419  10.357  3.8493 -1.7820 -2.6172
   49MPD2    H3  755   0.272   0.503  10.578  2.6390 -0.0423 -0.7791
   49MPD2     N  756   0.324   0.081  10.733  0.3538  0.1776 -0.0431
   49MPD2    H5  757   0.346   0.128  10.820 -1.8792  2.1424 -0.5538
   49MPD2    N1  758   0.181   0.160  10.285  0.4770  0.6920 -0.5583
   49MPD2    H7  759   0.164   0.061  10.272 -1.4317  0.7961  1.0432
   50TCq2    C1  760   0.142   0.230  10.168  0.1682  0.3170  0.0401
   50TCq2    O2  761   0.154   0.349  10.143  0.3533  0.1008  0.5051
   50TCq2    C2  762   0.064   0.150  10.070 -0.2619  0.1873 -0.6836
   50TCq2    C3  763   0.011   0.223   9.969 -0.7611 -0.0235 -0.2672
   50TCq2    C4  764   4.655   0.167   9.882  1.1196 -0.2882  0.0467
   50TCq2    C5  765   4.612   0.041   9.905  0.1349  0.4932  0.4213
   50TCq2    C6  766   4.654   4.700  10.017  0.0139  0.4174  0.5646
   50TCq2    C7  767   0.026   0.024  10.097 -0.2552  0.1431 -0.6212
   50TCq2    C8  768   4.680   4.565   9.971 -0.1070 -0.5686  0.1206
   50TCq2    O4  769   4.583   4.499   9.971 -0.4935 -0.3442 -0.2348
   50TCq2    C9  770   4.613   0.230   9.759  0.3261 -0.3301  0.0293
   50TCq2    O5  771   4.652   0.350   9.755 -0.4302 -0.2687 -0.0564
   50TCq2    O6  772   4.577   0.157   9.667  0.0589  0.6425  0.1816
   50TCq2    H2  773   0.049   0.320   9.940  2.0998 -1.2294 -0.6011
   50TCq2    H3  774   4.544   4.714   9.839  0.4148 -1.2969  1.5407
   50TCq2    H4  775   0.074   4.692  10.176 -1.3085  0.1539  0.0217
   51MPD2     C  776   0.715   3.727   0.929  0.2830  0.6569  0.5680
   51MPD2    C1  777   0.730   3.592   0.965  0.1041  0.2637  0.1414
   51MPD2    C2  778   0.733   3.558   1.098 -0.3193  1.0105  0.6046
   51MPD2    C3  779   0.731   3.654   1.199  0.1931  0.0239  0.2420
   51MPD2    C4  780   0.725   3.792   1.158  0.5074 -0.1226 -0.3783
   51MPD2    C5  781   0.712   3.821   1.031 -0.5572 -0.3937  0.5386
   51MPD2     H  782   0.739   3.451   1.117 -0.2841  0.9065  0.0200
   51MPD2    H1  783   0.725   3.873   1.230  3.0027 -0.2405 -0.2520
   51MPD2    H2  784   0.725   3.761   0.827  0.3729 -1.8142 -0.2554
   51MPD2    H3  785   0.706   3.921   0.990  0.4481 -0.6395 -0.2396
   51MPD2     N  786   0.738   3.619   1.333  0.5589 -0.1412 -0.5980
   51MPD2    H5  787   0.745   3.689   1.406 -2.1744  0.8029 -1.2617
   51MPD2    N1  788   0.750   3.485   0.867  0.3078  0.4501  0.2939
   51MPD2    H7  789   0.769   3.391   0.899 -0.5197 -0.0004 -0.5138
   52TCq2    C1  790   0.748   3.491   1.387 -0.8584 -0.2148 -0.4225
   52TCq2    O2  791   0.708   3.390   1.340  0.3682  0.0357 -0.3961
   52TCq2    C2  792   0.805   3.485   1.525 -0.1385  0.6227  0.0895
   52TCq2    C3  793   0.760   3.377   1.600  0.2263  0.2326  0.6794
   52TCq2    C4  794   0.800   3.367   1.730  1.1604  0.5285  0.5651
   52TCq2    C5  795   0.871   3.469   1.785 -0.1714  0.3138 -0.2456
   52TCq2    C6  796   0.900   3.584   1.712 -0.5902  0.6915  0.6408
   52TCq2    C7  797   0.866   3.594   1.583  0.2391 -0.6778 -0.2277
   52TCq2    C8  798   0.935   3.701   1.789 -0.1921 -0.3748  0.3508
   52TCq2    O4  799   0.996   3.675   1.891 -0.3744  0.2981 -0.2269
   52TCq2    C9  800   0.756   3.264   1.819  0.5584 -0.0304 -0.0459
   52TCq2    O5  801   0.827   3.236   1.916 -0.1270 -0.1555 -0.4123
   52TCq2    O6  802   0.649   3.208   1.793 -0.4244  0.1287 -0.3461
   52TCq2    H2  803   0.685   3.307   1.563  0.7112 -0.3937  0.8868
   52TCq2    H3  804   0.896   3.454   1.890  1.9250  2.9347 -0.3598
   52TCq2    H4  805   0.899   3.679   1.525 -0.9177  0.2612  0.4792
   53TMC2    C1  806   1.714   2.066  11.753 -0.4734  0.8525 -0.5586
   53TMC2    C2  807   1.831   2.049  11.830  1.0497 -0.4553  0.6665
   53TMC2    C3  808   1.841   2.125  11.947 -0.1399  0.4423 -0.0410
   53TMC2    C4  809   1.603   2.123  11.803  0.0295  0.3879  0.9646
   53TMC2    C5  810   1.615   2.176  11.930  0.3190  0.8565  0.2457
   53TMC2    C6  811   1.728   2.182  11.992  0.7874 -0.0248  0.2004
   53TMC2     C  812   1.720   2.015  11.621  0.1356 -0.1927  0.5200
   53TMC2     O  813   1.803   1.930  11.604  0.3413 -0.3692 -0.1720
   53TMC2     H  814   1.923   2.021  11.781  0.2507 -0.7616 -0.6671
   53TMC2    H1  815   1.505   2.115  11.758  0.5646 -0.5424 -0.0282
   53TMC2    H2  816   1.746   2.240  12.082 -1.3996  0.5223  0.2777
   53TMC2    C7  817   1.490   2.232  11.985  0.4259  0.7002  0.0145
   53TMC2    C8  818   1.961   2.132  12.028  0.1250  0.3482  0.3382
   53TMC2    O1  819   1.394   2.231  11.912 -0.2484  0.6962  0.1304
   53TMC2    O2  820   1.996   2.226  12.099  0.0801 -0.2025  0.0074
   53TMC2    O5  821   2.027   2.020  12.006 -0.4231  0.8613 -0.3266
   53TMC2    H5  822   1.979   1.954  11.952 -0.6100 -0.1766  1.1383
   54MPD2     C  823   1.608   1.892  11.380 -0.0631  0.5257 -0.5480
   54MPD2    C1  824   1.563   2.012  11.432 -0.1024  0.3804 -0.7208
   54MPD2    C2  825   1.448   2.067  11.380  0.2017  0.7210 -0.0166
   54MPD2    C3  826   1.388   2.014  11.265 -0.7452  0.3684  0.3768
   54MPD2    C4  827   1.439   1.901  11.206 -0.4644  0.2830 -0.1072
   54MPD2    C5  828   1.553   1.846  11.263 -1.1016 -0.2994  0.7259
   54MPD2     H  829   1.412   2.156  11.430  1.2981  2.1074 -1.6908
   54MPD2    H1  830   1.398   1.849  11.120  0.9342  1.2163 -1.3205
   54MPD2    H2  831   1.696   1.842  11.418 -1.3046 -0.0734  1.5197
   54MPD2    H3  832   1.581   1.751  11.218  2.2814 -0.0724  2.3328
   54MPD2     N  833   1.271   2.071  11.210  0.9099 -0.3097 -0.0343
   54MPD2    H5  834   1.237   2.023  11.128 -2.3125  0.7175  0.6975
   54MPD2    N1  835   1.616   2.067  11.548 -0.2923 -0.3100  0.3483
   54MPD2    H7  836   1.582   2.158  11.578  0.0726  0.3833 -1.3715
   55MPD2     C  837   1.846   4.246   0.155 -0.3882 -0.0527 -0.7472
   55MPD2    C1  838   1.820   4.263   0.288 -0.8650  1.0965 -0.1482
   55MPD2    C2  839   1.733   4.359   0.342 -0.3887 -0.0205 -0.2478
   55MPD2    C3  840   1.658   4.437   0.249 -0.8415 -0.0199  0.2102
   55MPD2    C4  841   1.687   4.427   0.118 -0.3033  0.8960  0.5488
   55MPD2    C5  842   1.778   4.338   0.070 -0.2633 -0.1753 -0.3573
   55MPD2     H  843   1.722   4.367   0.450 -1.3338  2.1708 -0.5054
   55MPD2    H1  844   1.650   4.503   0.050 -0.1786  0.8347  0.4131
   55MPD2    H2  845   1.914   4.171   0.116 -1.3006 -2.6175  2.4976
   55MPD2    H3  846   1.796   4.336  17.665 -0.6519 -0.6080 -0.4115
   55MPD2     N  847   1.572   4.532   0.298  0.2827 -0.3809 -0.0888
   55MPD2    H5  848   1.569   4.537   0.399 -0.7569  0.0695 -0.1388
   55MPD2    N1  849   1.895   4.180   0.368 -0.1546 -0.3633 -0.7704
   55MPD2    H7  850   1.977   4.139   0.324  0.7061 -0.1099  0.5683
   56TCq2    C1  851   1.884   4.170   0.503 -0.1888  0.1953  0.3208
   56TCq2    O2  852   1.801   4.216   0.579  0.8216  0.3712 -0.0768
   56TCq2    C2  853   1.997   4.103   0.565  0.6210  0.0693  0.3395
   56TCq2    C3  854   2.065   3.999   0.502  0.6593 -0.1199  0.6942
   56TCq2    C4  855   2.179   3.953   0.562 -0.0717 -0.1177  0.3700
   56TCq2    C5  856   2.233   4.008   0.672 -0.3310 -0.3955 -0.0944
   56TCq2    C6  857   2.153   4.103   0.737  0.3404 -0.1157  0.4232
   56TCq2    C7  858   2.034   4.152   0.686 -0.0791  0.1049 -0.6452
   56TCq2    C8  859   2.213   4.170   0.852  0.1034  0.5281 -0.3714
   56TCq2    O4  860   2.332   4.157   0.864  0.5202 -0.3233  0.0943
   56TCq2    C9  861   2.246   3.844   0.503 -0.2863  0.5906 -0.3264
   56TCq2    O5  862   2.224   3.821   0.383  0.3510  0.3801  0.0879
   56TCq2    O6  863   2.348   3.808   0.566 -0.0313  0.2463  0.4733
   56TCq2    H2  864   2.042   3.952   0.407 -0.1736  0.3674  0.6649
   56TCq2    H3  865   2.328   3.979   0.717 -0.4944 -0.8071 -0.0158
   56TCq2    H4  866   1.966   4.222   0.733 -0.8256 -0.7106 -0.5218
   57TMC2    C1  867   1.359   0.932  13.743  0.3599  0.0266  0.6422
   57TMC2    C2  868   1.469   0.974  13.822  0.3198  0.0898  0.1857
   57TMC2    C3  869   1.588   0.984  13.755  0.3119 -0.1357 -0.1041
   57TMC2    C4  870   1.372   0.906  13.609 -0.2944 -0.5868  0.2493
   57TMC2    C5  871   1.498   0.913  13.552  0.4754 -0.4006  0.0244
   57TMC2    C6  872   1.606   0.955  13.622  0.3470  0.0453  0.1646
   57TMC2     C  873   1.244   0.876  13.816 -0.0851 -0.6004 -0.5122
   57TMC2     O  874   1.218   0.919  13.929 -0.0731 -0.2038 -0.4133
   57TMC2     H  875   1.450   0.974  13.928  0.3336  4.1921  0.2253
   57TMC2    H1  876   1.286   0.876  13.551 -1.5680 -1.6367  2.6657
   57TMC2    H2  877   1.703   0.969  13.575  0.4208 -0.2555  0.2252
   57TMC2    C7  878   1.507   0.925  13.409  0.5108  0.0649  0.0737
   57TMC2    C8  879   1.695   1.051  13.822  0.6459  0.2524 -0.7843
   57TMC2    O1  880   1.426   1.006  13.368 -0.2334 -0.1669 -0.1776
   57TMC2    O2  881   1.800   1.063  13.759  0.2821  0.2452  0.5340
   57TMC2    O5  882   1.647   1.118  13.934  0.4275 -0.4661 -1.0454
   57TMC2    H5  883   1.553   1.121  13.960  0.2925 -0.0669 -1.6034
   58MPD2     C  884   0.799   0.629  13.790 -0.0590 -0.7347  0.2285
   58MPD2    C1  885   0.827   0.744  13.861 -0.3424 -0.0308 -0.1406
   58MPD2    C2  886   0.960   0.795  13.847 -0.0965  0.5493  0.3756
   58MPD2    C3  887   1.051   0.731  13.764 -0.0872  0.3847  0.6519
   58MPD2    C4  888   1.013   0.624  13.685  0.5399 -0.3499  0.7234
   58MPD2    C5  889   0.882   0.576  13.695 -0.0435 -0.3321  0.1103
   58MPD2     H  890   0.993   0.885  13.897  0.5810  0.4650  0.0803
   58MPD2    H1  891   1.088   0.572  13.626 -0.2994 -0.0975 -0.5553
   58MPD2    H2  892   0.705   0.576  13.797 -0.8133  0.5590 -0.0386
   58MPD2    H3  893   0.855   0.491  13.633 -0.1111  0.3473 -0.7968
   58MPD2     N  894   1.182   0.779  13.746  0.1469  0.1539 -0.4942
   58MPD2    H5  895   1.233   0.732  13.672 -1.4598  0.9830 -2.1546
   58MPD2    N1  896   0.740   0.802  13.956  0.2299 -0.5088 -0.0502
   58MPD2    H7  897   0.764   0.887  14.005 -0.0325  0.4537 -1.5897
   59MPD2     C  898   3.888   1.610  13.787  0.1229 -0.1528 -0.4873
   59MPD2    C1  899   3.965   1.515  13.715 -0.4773  0.9757  0.3133
   59MPD2    C2  900   4.101   1.515  13.740  0.1082 -0.2356  0.6491
   59MPD2    C3  901   4.160   1.602  13.828  0.0531  0.2147  0.0636
   59MPD2    C4  902   4.085   1.695  13.897 -0.2746 -0.5294 -0.1838
   59MPD2    C5  903   3.950   1.705  13.865 -0.3287  0.6225 -0.6154
   59MPD2     H  904   4.150   1.432  13.690  0.8637 -1.7053  3.8003
   59MPD2    H1  905   4.138   1.760  13.964  1.4210 -1.4653 -0.6245
   59MPD2    H2  906   3.779   1.607  13.782  0.1234  0.0145 -0.5876
   59MPD2    H3  907   3.890   1.784  13.910 -3.4359 -2.4048  0.6068
   59MPD2     N  908   4.295   1.599  13.859  0.0907 -0.2551 -0.1023
   59MPD2    H5  909   4.323   1.662  13.933 -2.0431  0.5043  0.0754
   59MPD2    N1  910   3.914   1.430  13.616  0.0983 -0.0923  0.1746
   59MPD2    H7  911   3.981   1.361  13.583  0.5992  0.1715  0.6518
   60TCq2    C1  912   3.816   1.473  13.532 -0.5550  0.2308  0.3585
   60TCq2    O2  913   3.759   1.578  13.531 -0.2191 -0.1026  0.1522
   60TCq2    C2  914   3.785   1.388  13.425  0.0505 -0.4599  1.2259
   60TCq2    C3  915   3.803   1.251  13.440 -0.0780  0.9921 -0.1329
   60TCq2    C4  916   3.810   1.183  13.317 -0.6540 -0.1111 -0.4021
   60TCq2    C5  917   3.824   1.248  13.199 -0.8007 -0.2369  0.3296
   60TCq2    C6  918   3.781   1.379  13.191 -0.2981  0.4412  0.3899
   60TCq2    C7  919   3.760   1.452  13.307  0.3880  0.1878 -0.4090
   60TCq2    C8  920   3.835   1.448  13.084 -0.0601  0.6353  0.0834
   60TCq2    O4  921   3.929   1.398  13.027 -0.0262  0.2197  0.4552
   60TCq2    C9  922   3.804   1.036  13.315 -0.4094 -0.5509  0.0013
   60TCq2    O5  923   3.786   0.977  13.204 -0.1943  0.1560  0.1875
   60TCq2    O6  924   3.789   0.981  13.428 -0.0355  0.3969 -0.0910
   60TCq2    H2  925   3.814   1.199  13.535  0.7351  1.4582  0.0278
   60TCq2    H3  926   3.831   1.201  13.101 -2.8650  2.3466 -1.0560
   60TCq2    H4  927   3.736   1.557  13.301  2.2033  0.6704  0.6990
   61MPD2     C  928   3.340   2.675  14.182 -0.1580  0.1503 -0.6198
   61MPD2    C1  929   3.242   2.662  14.274  0.5057  0.6189 -0.4679
   61MPD2    C2  930   3.118   2.717  14.260 -0.1850  0.1436  0.3683
   61MPD2    C3  931   3.095   2.801  14.153 -0.3481  1.2872 -0.1642
   61MPD2    C4  932   3.200   2.830  14.065 -0.1553  0.5444 -0.6871
   61MPD2    C5  933   3.315   2.755  14.069 -0.3805  0.3545 -0.0044
   61MPD2     H  934   3.052   2.689  14.341  1.1040  0.6238  1.5994
   61MPD2    H1  935   3.185   2.895  13.980  0.0121  1.8071  0.2537
   61MPD2    H2  936   3.440   2.636  14.200 -0.8007 -1.7191 -1.0992
   61MPD2    H3  937   3.396   2.778  14.001  0.1553  1.2041  0.9272
   61MPD2     N  938   2.984   2.888  14.149 -0.8305 -0.1614  0.2883
   61MPD2    H5  939   2.991   2.976  14.099  2.3527 -1.0931 -0.9008
   61MPD2    N1  940   3.272   2.620  14.409  0.3115 -0.4081  0.1007
   61MPD2    H7  941   3.195   2.621  14.475 -0.5069  1.2510 -0.8949
   62TCq2    C1  942   3.392   2.554  14.454 -0.0964 -0.1117  0.5631
   62TCq2    O2  943   3.484   2.511  14.386 -0.0507  0.0458 -0.1831
   62TCq2    C2  944   3.380   2.510  14.587  0.5657  0.3201 -0.0906
   62TCq2    C3  945   3.451   2.402  14.628 -0.7783  0.1479  0.5145
   62TCq2    C4  946   3.444   2.366  14.760  0.3344  0.3494  0.0071
   62TCq2    C5  947   3.373   2.438  14.852 -0.3016  0.5930  0.5008
   62TCq2    C6  948   3.308   2.553  14.809 -0.6641  0.2911 -0.0571
   62TCq2    C7  949   3.312   2.589  14.678  0.7456 -0.2609  0.8743
   62TCq2    C8  950   3.237   2.631  14.900  0.6813 -1.0365 -0.5088
   62TCq2    O4  951   3.197   2.738  14.858 -0.4900  0.0476  0.0463
   62TCq2    C9  952   3.501   2.235  14.798 -0.1146 -0.1117  0.1812
   62TCq2    O5  953   3.504   2.218  14.926  0.2141 -0.4645 -0.4735
   62TCq2    O6  954   3.550   2.164  14.709 -0.0790  0.3534 -0.1493
   62TCq2    H2  955   3.493   2.334  14.555 -0.1570  2.2097 -1.0507
   62TCq2    H3  956   3.383   2.411  14.956 -0.7146 -2.5162 -0.2429
   62TCq2    H4  957   3.272   2.683  14.643  2.4155  0.2341  0.2669
   63TMC2    C1  958   2.106   2.692  10.466  0.1176  0.0674 -1.0454
   63TMC2    C2  959   2.234   2.702  10.441 -0.6715 -0.0196 -0.1027
   63TMC2    C3  960   2.272   2.778  10.343 -0.3206 -0.1981 -0.3055
   63TMC2    C4  961   2.017   2.762  10.392  0.2274  0.5766  0.0439
   63TMC2    C5  962   2.066   2.844  10.296  0.6618 -0.2448  0.2644
   63TMC2    C6  963   2.195   2.844  10.257  0.0900 -0.8322 -0.8958
   63TMC2     C  964   2.049   2.589  10.551  0.0605 -0.5714  0.2939
   63TMC2     O  965   1.932   2.598  10.583 -0.3256 -0.0598  0.1224
   63TMC2     H  966   2.309   2.644  10.494 -1.9844 -2.1075 -0.5116
   63TMC2    H1  967   1.911   2.741  10.403  0.2238  0.9319  0.6724
   63TMC2    H2  968   2.229   2.913  10.181 -0.5765  0.5306  0.0385
   63TMC2    C7  969   1.971   2.931  10.225 -1.0680 -0.1017 -0.3035
   63TMC2    C8  970   2.418   2.783  10.340  0.6942  0.1684 -0.2552
   63TMC2    O1  971   1.860   2.920  10.269 -0.1283 -0.4122  0.1855
   63TMC2    O2  972   2.494   2.792  10.432 -0.7813  0.2709 -0.3104
   63TMC2    O5  973   2.445   2.800  10.210  0.4427 -0.3307  0.0048
   63TMC2    H5  974   2.361   2.794  10.160  0.0378 -0.4923  0.7041
   64MPD2     C  975   2.084   2.125  10.795 -0.2160  0.2044 -0.6614
   64MPD2    C1  976   2.187   2.132  10.693 -0.0346 -0.8516 -0.4643
   64MPD2    C2  977   2.194   2.246  10.615  0.1509 -0.7029  0.9824
   64MPD2    C3  978   2.107   2.358  10.636  0.5385 -0.7914  0.5707
   64MPD2    C4  979   2.008   2.349  10.734  0.0935 -0.2398 -0.0551
   64MPD2    C5  980   1.995   2.234  10.803 -0.4913 -0.3100  0.4139
   64MPD2     H  981   2.259   2.245  10.528 -1.5464 -0.5754 -0.2755
   64MPD2    H1  982   1.948   2.436  10.760 -1.5350 -0.6430 -2.4661
   64MPD2    H2  983   2.068   2.035  10.852  2.2551 -1.5453 -2.7311
   64MPD2    H3  984   1.931   2.236  10.891  1.2681  0.4027  1.6656
   64MPD2     N  985   2.134   2.477  10.564  0.0781 -0.8078  0.6621
   64MPD2    H5  986   2.216   2.474  10.505  0.0336 -1.3336  0.6249
   64MPD2    N1  987   2.273   2.021  10.662 -0.1197 -0.1677 -0.2869
   64MPD2    H7  988   2.350   2.040  10.599  0.1404 -0.6345 -0.1089
   65MPD2     C  989   3.635   1.878  16.031  0.4365  0.2253  0.5371
   65MPD2    C1  990   3.583   1.883  15.903  0.4593 -0.3156 -1.1127
   65MPD2    C2  991   3.593   1.764  15.827 -0.1389  0.8353 -0.9698
   65MPD2    C3  992   3.634   1.643  15.883 -0.2680 -0.2377  0.0710
   65MPD2    C4  993   3.681   1.644  16.014  0.0279  0.3128 -0.7512
   65MPD2    C5  994   3.690   1.763  16.085  0.8600 -0.0928 -0.1174
   65MPD2     H  995   3.543   1.773  15.731  2.2915 -4.2213 -2.6727
   65MPD2    H1  996   3.727   1.557  16.058 -1.1763 -0.1694 -0.4636
   65MPD2    H2  997   3.650   1.968  16.090 -1.8722  0.5688  0.5825
   65MPD2    H3  998   3.759   1.773  16.168  1.2969 -1.6491 -0.3055
   65MPD2     N  999   3.620   1.515  15.813  0.6920 -0.2626 -0.0149
   65MPD2    H5 1000   3.611   1.428  15.865 -1.3798  0.2662  0.5046
   65MPD2    N1 1001   3.511   1.996  15.851 -0.5050 -0.1562  0.6980
   65MPD2    H7 1002   3.476   2.002  15.756  1.3645  1.0383  0.0860
   66TCq2    C1 1003   3.476   2.104  15.922  0.8133  0.5059 -0.3513
   66TCq2    O2 1004   3.485   2.127  16.042 -0.3553 -0.4264 -0.5497
   66TCq2    C2 1005   3.431   2.200  15.827 -0.0570  0.4045  0.2556
   66TCq2    C3 1006   3.477   2.204  15.695  0.0310 -0.0801 -0.4016
   66TCq2    C4 1007   3.428   2.293  15.607 -0.6903 -0.2302  0.3907
   66TCq2    C5 1008   3.328   2.384  15.647  0.5083 -0.1001  0.1137
   66TCq2    C6 1009   3.291   2.383  15.780  0.1915 -0.3790 -0.4787
   66TCq2    C7 1010   3.345   2.296  15.871  0.5463 -0.4019 -0.1183
   66TCq2    C8 1011   3.190   2.476  15.818 -0.0060 -0.0516  0.3715
   66TCq2    O4 1012   3.124   2.520  15.724  0.4282  0.5217  0.0789
   66TCq2    C9 1013   3.495   2.309  15.480  0.2942 -0.0660  0.1131
   66TCq2    O5 1014   3.557   2.211  15.433 -0.5415  0.0636  0.3857
   66TCq2    O6 1015   3.483   2.425  15.423  0.2573 -0.1977  0.5180
   66TCq2    H2 1016   3.573   2.158  15.672  0.0115  0.3257 -1.2659
   66TCq2    H3 1017   3.300   2.458  15.573  1.3495  1.3843  1.3092
   66TCq2    H4 1018   3.290   2.279  15.963  0.1698 -1.9885 -0.6385
   67MPD2     C 1019   3.292   1.299  14.061  0.2881  0.7679 -0.3158
   67MPD2    C1 1020   3.285   1.430  14.120 -0.1678 -0.4605  0.4969
   67MPD2    C2 1021   3.182   1.517  14.088 -0.0768  0.5076 -0.0234
   67MPD2    C3 1022   3.076   1.475  14.009 -0.1704  0.2606  0.0647
   67MPD2    C4 1023   3.085   1.346  13.950  0.0707  0.1776  0.3572
   67MPD2    C5 1024   3.195   1.264  13.967  0.4122  0.5339  0.3075
   67MPD2     H 1025   3.186   1.618  14.129 -0.6968  0.7275 -0.4971
   67MPD2    H1 1026   3.002   1.313  13.889 -0.4273 -0.0833  1.1677
   67MPD2    H2 1027   3.375   1.231  14.082  0.6757  0.6023 -2.3918
   67MPD2    H3 1028   3.202   1.167  13.918 -1.3245  0.5578  0.0123
   67MPD2     N 1029   2.955   1.551  14.008  0.0167 -0.2380 -0.3697
   67MPD2    H5 1030   2.954   1.635  14.065  0.6868 -0.6715  0.2950
   67MPD2    N1 1031   3.367   1.476  14.216 -0.2487 -0.7284  0.4001
   67MPD2    H7 1032   3.348   1.572  14.244  0.4687 -0.5592  0.3273
   68TCq2    C1 1033   3.459   1.399  14.282 -0.1073 -0.1263 -0.1853
   68TCq2    O2 1034   3.480   1.275  14.282  0.1328  0.0968  0.1296
   68TCq2    C2 1035   3.538   1.477  14.379 -0.3717  0.2385 -0.4863
   68TCq2    C3 1036   3.523   1.619  14.394 -0.0592  0.6593 -0.2407
   68TCq2    C4 1037   3.608   1.689  14.477 -0.0153  0.0341 -0.7956
   68TCq2    C5 1038   3.699   1.619  14.551  0.3199 -0.3487  0.2859
   68TCq2    C6 1039   3.707   1.478  14.541 -0.1909  0.5840 -0.8102
   68TCq2    C7 1040   3.642   1.414  14.444 -0.1532 -0.7455 -0.0556
   68TCq2    C8 1041   3.823   1.413  14.597  0.0022  0.2172 -0.0586
   68TCq2    O4 1042   3.875   1.322  14.531  0.5621  0.4786  0.3512
   68TCq2    C9 1043   3.587   1.831  14.502  0.5982 -0.3020  0.4975
   68TCq2    O5 1044   3.499   1.895  14.433 -0.0506 -0.0069  0.0564
   68TCq2    O6 1045   3.671   1.892  14.577 -0.9770  0.4443  0.3285
   68TCq2    H2 1046   3.436   1.675  14.359  0.2696 -0.0325 -2.1638
   68TCq2    H3 1047   3.756   1.680  14.621  1.4585 -2.9899  1.6886
   68TCq2    H4 1048   3.652   1.307  14.436  1.4512 -0.8010  2.6012
   69TMC2    C1 1049   1.285   2.711  12.514  0.1892  0.3064 -0.2325
   69TMC2    C2 1050   1.243   2.832  12.474  0.0974 -0.2011 -0.4874
   69TMC2    C3 1051   1.337   2.903  12.407 -0.4829  0.0167  0.1351
   69TMC2    C4 1052   1.413   2.666  12.500  0.1168 -0.0710 -0.5739
   69TMC2    C5 1053   1.504   2.750  12.456 -0.0775  0.0978 -0.1793
   69TMC2    C6 1054   1.468   2.865  12.397 -0.5270  0.6604  0.8140
   69TMC2     C 1055   1.199   2.616  12.580 -0.8488 -0.2518  0.1824
   69TMC2     O 1056   1.082   2.622  12.552 -0.3689 -0.2674 -0.2363
   69TMC2     H 1057   1.142   2.868  12.495  0.5153  0.7174 -0.0369
   69TMC2    H1 1058   1.435   2.562  12.520 -1.7380 -0.5873 -1.2432
   69TMC2    H2 1059   1.550   2.928  12.364  0.5772 -0.8919  0.6090
   69TMC2    C7 1060   1.627   2.692  12.416 -0.6172  0.5232 -0.0236
   69TMC2    C8 1061   1.315   3.045  12.375  0.1703 -0.2680  0.6139
   69TMC2    O1 1062   1.611   2.586  12.355 -0.2140 -0.1705 -0.0575
   69TMC2    O2 1063   1.237   3.124  12.427 -0.0415  0.6541 -0.1447
   69TMC2    O5 1064   1.382   3.068  12.262  0.0251  0.2342  0.2667
   69TMC2    H5 1065   1.415   2.988  12.217 -0.5175  0.3523 -0.3383
   70MPD2     C 1066   1.237   2.422  12.879 -0.1538  0.1263 -0.8473
   70MPD2    C1 1067   1.181   2.460  12.761  0.0225  0.3312  0.1642
   70MPD2    C2 1068   1.055   2.415  12.732  0.0915 -0.5885 -0.4846
   70MPD2    C3 1069   0.974   2.342  12.816 -0.6650  0.6369 -0.3377
   70MPD2    C4 1070   1.024   2.324  12.944  0.1275  0.0610 -0.5310
   70MPD2    C5 1071   1.149   2.372  12.971 -0.1288  0.1175  0.5999
   70MPD2     H 1072   1.024   2.421  12.629 -1.9190 -0.1358  0.1410
   70MPD2    H1 1073   0.960   2.284  13.022 -0.3941  1.2227 -0.3599
   70MPD2    H2 1074   1.334   2.453  12.916 -0.6272  0.1967  0.3355
   70MPD2    H3 1075   1.187   2.368  13.073  0.7901 -0.4264  0.2369
   70MPD2     N 1076   0.854   2.287  12.767 -0.1259 -0.2878 -0.2702
   70MPD2    H5 1077   0.823   2.290  12.670 -2.3541 -0.7722  0.4390
   70MPD2    N1 1078   1.263   2.543  12.682  0.3931 -0.0982 -0.2691
   70MPD2    H7 1079   1.356   2.570  12.710  0.7439 -0.4527 -1.0888
   71TMC2    C1 1080   3.412   2.411   2.135  0.4152 -0.5112  0.4169
   71TMC2    C2 1081   3.499   2.310   2.172  0.8090  0.2062 -0.1859
   71TMC2    C3 1082   3.431   2.200   2.229 -0.2058 -0.2747 -0.5326
   71TMC2    C4 1083   3.277   2.409   2.164 -0.2556 -0.5769  0.0281
   71TMC2    C5 1084   3.216   2.297   2.215 -0.6865  0.3045 -0.0856
   71TMC2    C6 1085   3.291   2.183   2.248 -0.2532  0.3351 -0.3135
   71TMC2     C 1086   3.470   2.533   2.078  0.0035  0.7108  0.3037
   71TMC2     O 1087   3.394   2.607   2.022 -0.2869 -0.1337 -0.4393
   71TMC2     H 1088   3.605   2.309   2.147  0.5573  0.6600 -1.2672
   71TMC2    H1 1089   3.224   2.491   2.118 -1.3509 -1.4195 -0.2339
   71TMC2    H2 1090   3.245   2.098   2.298 -0.2892  0.8827  0.5900
   71TMC2    C7 1091   3.081   2.292   2.271  0.9349 -0.2558 -0.1165
   71TMC2    C8 1092   3.521   2.114   2.304  0.1441 -0.4950  0.5722
   71TMC2    O1 1093   3.064   2.213   2.361 -0.2023  0.0451 -0.1778
   71TMC2    O2 1094   3.640   2.130   2.330  0.3145 -0.4189 -0.3723
   71TMC2    O5 1095   3.454   2.003   2.331 -0.0619 -0.4695 -0.4818
   71TMC2    H5 1096   3.366   2.007   2.287 -0.5091  2.0567  0.6074
   72MPD2     C 1097   3.847   2.886   2.016 -0.4500  0.5965 -0.0609
   72MPD2    C1 1098   3.747   2.854   1.926  0.1028  0.0161 -0.4085
   72MPD2    C2 1099   3.653   2.755   1.968 -0.2884 -0.2853  0.4532
   72MPD2    C3 1100   3.675   2.677   2.082 -0.5020  0.4250 -0.2105
   72MPD2    C4 1101   3.790   2.700   2.155  0.5716  0.3342  0.0460
   72MPD2    C5 1102   3.870   2.806   2.127 -0.4880  0.1075 -0.6469
   72MPD2     H 1103   3.568   2.733   1.904  0.3810 -0.0911 -0.5048
   72MPD2    H1 1104   3.813   2.629   2.234  1.9114  2.2344  1.3658
   72MPD2    H2 1105   3.924   2.960   1.997  0.2206  0.1000  0.7179
   72MPD2    H3 1106   3.964   2.811   2.180  0.0113  2.0585 -1.6986
   72MPD2     N 1107   3.597   2.559   2.119 -0.0793 -0.3729 -0.3839
   72MPD2    H5 1108   3.645   2.488   2.175  0.8764  0.5310 -0.0509
   72MPD2    N1 1109   3.736   2.914   1.797 -0.1195 -0.2267  0.5841
   72MPD2    H7 1110   3.656   2.881   1.744 -2.3914  4.7627  0.8891
   73TMC2    C1 1111   3.385   4.536  14.197  0.8464  0.1928  0.1385
   73TMC2    C2 1112   3.501   4.462  14.226  0.5270 -0.2085 -0.0494
   73TMC2    C3 1113   3.602   4.539  14.283 -0.8955  0.0458 -0.1261
   73TMC2    C4 1114   3.371   4.669  14.229 -0.3101 -0.0831 -0.9154
   73TMC2    C5 1115   3.480   0.014  14.266 -0.0022 -0.6260 -0.1398
   73TMC2    C6 1116   3.599   4.681  14.304 -0.6897  0.3563 -0.5195
   73TMC2     C 1117   3.339   4.536  14.050 -0.1119  0.0329 -0.1838
   73TMC2     O 1118   3.290   4.645  14.018  0.8673 -0.1089 -0.3918
   73TMC2     H 1119   3.532   4.372  14.173  0.4587  1.0498 -2.2022
   73TMC2    H1 1120   3.277   4.720  14.211  1.0749  3.5749  2.2306
   73TMC2    H2 1121   3.678   0.011  14.354  0.4927  0.2873 -2.3328
   73TMC2    C7 1122   3.500   0.145  14.202 -0.0402 -0.3703 -0.3538
   73TMC2    C8 1123   3.704   4.457  14.339  0.0193 -0.2326  0.5192
   73TMC2    O1 1124   3.587   0.220  14.242 -0.7813  0.1547 -0.0826
   73TMC2    O2 1125   3.669   4.358  14.403 -0.1910  0.2326 -0.3940
   73TMC2    O5 1126   3.799   4.541  14.378 -0.3476 -0.2824 -0.5855
   73TMC2    H5 1127   3.818   4.602  14.303  0.5833  1.0093  0.6872
   74MPD2     C 1128   3.198   4.355  13.595 -0.0430 -0.4051  0.1783
   74MPD2    C1 1129   3.192   4.483  13.649 -0.4183  0.3150  0.0342
   74MPD2    C2 1130   3.256   4.511  13.770 -0.9129  0.9433  0.8398
   74MPD2    C3 1131   3.309   4.407  13.844 -0.2878 -0.2068  1.0954
   74MPD2    C4 1132   3.312   4.282  13.786 -0.2670 -0.2997  0.4431
   74MPD2    C5 1133   3.260   4.254  13.665  0.1579 -0.6758  0.3322
   74MPD2     H 1134   3.254   4.616  13.798 -1.0253  1.3300 -0.6087
   74MPD2    H1 1135   3.359   4.205  13.846 -2.2416 -1.4267  0.5684
   74MPD2    H2 1136   3.153   4.320  13.503  1.8283  1.8061 -1.5906
   74MPD2    H3 1137   3.276   4.153  13.630  2.4748  0.5087 -2.0944
   74MPD2     N 1138   3.352   4.418  13.982 -0.0461 -0.0871  0.1933
   74MPD2    H5 1139   3.387   4.334  14.026 -1.5997  0.5823  2.6606
   74MPD2    N1 1140   3.120   4.585  13.570 -0.5503  0.5521 -0.1396
   74MPD2    H7 1141   3.076   4.551  13.485  2.3321 -2.3011 -0.5063
   75TCq2    C1 1142   2.860   1.548  13.913  0.1139 -0.1139 -0.3732
   75TCq2    O2 1143   2.845   1.475  13.811 -0.1204  0.4358 -0.1007
   75TCq2    C2 1144   2.783   1.671  13.913 -0.5760  0.4184 -0.7257
   75TCq2    C3 1145   2.707   1.703  14.020  0.1964  0.1616  0.2518
   75TCq2    C4 1146   2.621   1.813  14.009 -0.2146 -0.4642 -0.0020
   75TCq2    C5 1147   2.609   1.878  13.891  0.2806 -0.0369 -0.2742
   75TCq2    C6 1148   2.687   1.833  13.784 -0.4796 -0.4588  0.0032
   75TCq2    C7 1149   2.776   1.728  13.787 -0.0658 -0.6157  0.1830
   75TCq2    C8 1150   2.653   1.889  13.653 -0.0476  0.2604  0.2064
   75TCq2    O4 1151   2.697   1.831  13.558  0.0272  0.4093 -0.0198
   75TCq2    C9 1152   2.523   1.839  14.109 -0.7380 -0.2699  0.3655
   75TCq2    O5 1153   2.506   1.753  14.194  0.5825 -0.3673 -0.4574
   75TCq2    O6 1154   2.444   1.934  14.088 -0.6847  0.4897 -0.9043
   75TCq2    H2 1155   2.706   1.638  14.106  0.0967  0.8541  0.7711
   75TCq2    H3 1156   2.531   1.953  13.889 -0.8595 -1.1528  2.0418
   75TCq2    H4 1157   2.839   1.704  13.702  1.1861 -2.1722  1.5457
   76MPD2     C 1158   2.619   2.171  11.872  0.2427 -0.2578 -0.0588
   76MPD2    C1 1159   2.501   2.124  11.815 -0.1184 -0.4877  0.3135
   76MPD2    C2 1160   2.498   1.993  11.773  0.7463  0.2114  0.4211
   76MPD2    C3 1161   2.598   1.901  11.811  0.3475  0.4719  0.3503
   76MPD2    C4 1162   2.711   1.951  11.880  0.3021 -0.0151  0.5052
   76MPD2    C5 1163   2.717   2.086  11.910  0.0643 -0.2511  0.3097
   76MPD2     H 1164   2.410   1.954  11.722 -0.0710  2.0813  0.4135
   76MPD2    H1 1165   2.782   1.879  11.917 -1.6287 -0.3013  3.6307
   76MPD2    H2 1166   2.617   2.273  11.907 -0.9896 -1.7057  4.1991
   76MPD2    H3 1167   2.802   2.116  11.970  0.2135  0.9735 -0.5093
   76MPD2     N 1168   2.588   1.760  11.798 -0.5821  0.6641 -0.3517
   76MPD2    H5 1169   2.645   1.694  11.849 -0.7279  0.0756 -0.9473
   76MPD2    N1 1170   2.381   2.198  11.784  0.3743  0.1961 -1.2586
   76MPD2    H7 1171   2.310   2.151  11.730  1.0142 -1.1949 -0.8787
   77TCq2    C1 1172   2.495   1.694  11.723  0.3824  0.5135 -0.4180
   77TCq2    O2 1173   2.424   1.741  11.633 -0.0303 -0.0200 -0.7544
   77TCq2    C2 1174   2.488   1.556  11.751 -0.5804  0.1670 -0.5174
   77TCq2    C3 1175   2.376   1.496  11.688 -0.2594  0.0692 -0.2890
   77TCq2    C4 1176   2.316   1.388  11.746 -0.3782  0.5862  0.9554
   77TCq2    C5 1177   2.361   1.346  11.872  0.5140 -0.1238  0.1577
   77TCq2    C6 1178   2.470   1.399  11.934 -0.2797 -0.3711  0.4343
   77TCq2    C7 1179   2.538   1.505  11.872  0.1371 -0.4259 -0.9043
   77TCq2    C8 1180   2.532   1.317  12.039  0.1594 -0.5734  0.0263
   77TCq2    O4 1181   2.479   1.209  12.064  0.0401 -0.0641 -0.2594
   77TCq2    C9 1182   2.200   1.332  11.684 -0.5349  0.3443  0.4364
   77TCq2    O5 1183   2.170   1.213  11.706  0.7432 -0.0371 -0.3509
   77TCq2    O6 1184   2.148   1.389  11.585 -0.3246 -0.4950  0.2655
   77TCq2    H2 1185   2.342   1.518  11.587 -1.2981 -0.6742 -0.0992
   77TCq2    H3 1186   2.314   1.257  11.912  2.3004 -1.0370  0.1840
   77TCq2    H4 1187   2.634   1.537  11.912 -0.2739 -1.8640  1.2024
   78MPD1     C 1188   4.173   3.865   2.434 -0.2495  0.5390  0.4517
   78MPD1    C1 1189   4.291   3.914   2.486  0.6009  0.4827 -0.0928
   78MPD1    C2 1190   4.410   3.909   2.416 -0.5184  0.1448  0.0497
   78MPD1    C3 1191   4.417   3.857   2.290 -0.0966  0.2174 -0.3014
   78MPD1    C4 1192   4.300   3.804   2.244 -0.4272 -0.3919  0.1896
   78MPD1    C5 1193   4.180   3.810   2.310  0.0443 -0.2802 -0.1541
   78MPD1     H 1194   4.501   3.949   2.460 -0.7161  0.2170  0.3917
   78MPD1    H1 1195   4.305   3.769   2.141 -0.7258 -4.0681  1.4331
   78MPD1    H2 1196   4.075   3.885   2.475 -0.2468 -1.5921  1.4937
   78MPD1    H3 1197   4.088   3.771   2.268 -0.6415  0.2286  0.8748
   78MPD1     N 1198   4.525   3.863   2.196  0.2451 -0.2155  0.0317
   78MPD1    H5 1199   4.510   3.817   2.107  0.5027 -1.9299  0.8563
   78MPD1    N1 1200   4.289   3.958   2.620  0.5235  0.1225 -0.5057
   78MPD1    H6 1201   4.357   4.027   2.652  2.1864 -1.3543 -0.9245
   78MPD1    H7 1202   4.197   3.987   2.652  1.2699  1.2743  0.6113
   79TCq2    C1 1203   4.645   3.927   2.217  0.0918  0.2056 -0.3140
   79TCq2    O2 1204   4.679   4.005   2.304  0.5969  0.2773  0.3003
   79TCq2    C2 1205   0.017   3.905   2.115  0.3176  0.4007  0.7795
   79TCq2    C3 1206   0.123   3.993   2.118  0.5110  0.0744 -0.6819
   79TCq2    C4 1207   0.200   3.993   2.006 -0.2167 -0.1664  0.4439
   79TCq2    C5 1208   0.184   3.921   1.894  0.4983  0.3721 -0.7911
   79TCq2    C6 1209   0.074   3.837   1.893  0.0062 -0.9683 -0.5118
   79TCq2    C7 1210   4.720   3.828   2.003  0.3060 -0.1533 -0.1254
   79TCq2    C8 1211   0.060   3.741   1.788 -0.0546 -0.3699 -0.0880
   79TCq2    O4 1212   0.013   3.635   1.826 -0.6099 -1.1032 -0.6198
   79TCq2    C9 1213   0.306   4.088   2.007 -0.1028 -0.4041 -0.7198
   79TCq2    O5 1214   0.407   4.067   1.936 -0.1983 -0.9873  0.5771
   79TCq2    O6 1215   0.306   4.161   2.107  0.2766  0.3652 -0.1477
   79TCq2    H2 1216   0.145   4.052   2.207 -0.5585 -1.3317  0.5118
   79TCq2    H3 1217   0.260   3.934   1.817  0.5643 -1.4994 -1.0539
   79TCq2    H4 1218   4.635   3.761   1.998 -1.6158  2.1292  2.3149
   80MPD2     C 1219   1.506   1.849  12.095 -0.1144  0.0746 -0.4555
   80MPD2    C1 1220   1.400   1.832  12.009  0.2498 -0.2360 -0.5651
   80MPD2    C2 1221   1.274   1.864  12.045 -0.0517  0.6329  0.1901
   80MPD2    C3 1222   1.249   1.937  12.163 -0.2920  0.3820 -0.1907
   80MPD2    C4 1223   1.356   1.954  12.252 -0.0793  0.5545 -0.1038
   80MPD2    C5 1224   1.484   1.920  12.213  0.0017  0.1561  0.0435
   80MPD2     H 1225   1.193   1.833  11.979  0.1458  1.7696 -0.5963
   80MPD2    H1 1226   1.349   1.990  12.353  0.0612  2.9185 -0.9459
   80MPD2    H2 1227   1.607   1.812  12.084  0.2103  1.0643 -0.8938
   80MPD2    H3 1228   1.566   1.937  12.281  1.1657  0.4988 -1.4380
   80MPD2     N 1229   1.113   1.967  12.207 -0.5430  0.4729 -0.2095
   80MPD2    H5 1230   1.091   1.983  12.305 -0.9258 -1.8323  0.0733
   80MPD2    N1 1231   1.409   1.757  11.888  0.6660  0.0086  0.1876
   80MPD2    H7 1232   1.324   1.727  11.840  1.0257 -0.5326 -0.1008
   81TCq2    C1 1233   1.529   1.735  11.825  0.1874 -0.5304 -0.0497
   81TCq2    O2 1234   1.642   1.775  11.861  0.1520 -0.6173  0.1490
   81TCq2    C2 1235   1.523   1.652  11.709  0.0349 -0.0926 -0.8030
   81TCq2    C3 1236   1.638   1.640  11.627  0.6140 -0.6225 -0.3182
   81TCq2    C4 1237   1.641   1.543  11.520 -0.5998 -0.5931 -0.0514
   81TCq2    C5 1238   1.534   1.460  11.508 -0.1148 -0.2368 -0.2462
   81TCq2    C6 1239   1.422   1.476  11.587 -0.0210 -0.0924  0.5318
   81TCq2    C7 1240   1.414   1.575  11.687  0.3952  1.1044  0.5483
   81TCq2    C8 1241   1.290   1.421  11.548 -0.3592 -0.1456 -0.1073
   81TCq2    O4 1242   1.280   1.383  11.433  0.1331 -0.3934  0.7982
   81TCq2    C9 1243   1.759   1.543  11.438  0.1746 -0.1398 -0.2479
   81TCq2    O5 1244   1.780   1.429  11.389  0.0764 -0.1326  0.2186
   81TCq2    O6 1245   1.849   1.624  11.479 -0.4691 -0.1760 -0.1705
   81TCq2    H2 1246   1.728   1.692  11.657  0.9780 -1.4777  0.0700
   81TCq2    H3 1247   1.528   1.402  11.416 -0.3177 -1.5104  0.5699
   81TCq2    H4 1248   1.321   1.588  11.741 -0.5388 -1.6276 -0.4085
   82MPD2     C 1249   4.081   1.550  11.138  0.0275 -0.4199  0.2716
   82MPD2    C1 1250   4.017   1.443  11.072  0.1996 -0.5182 -0.7674
   82MPD2    C2 1251   4.083   1.325  11.079 -0.2338 -0.5161  0.3256
   82MPD2    C3 1252   4.212   1.317  11.138 -0.9331 -0.4169  0.2258
   82MPD2    C4 1253   4.271   1.428  11.185 -0.3023 -0.3757  1.1673
   82MPD2    C5 1254   4.209   1.548  11.179 -0.0279 -0.1616  0.7072
   82MPD2     H 1255   4.041   1.231  11.046 -0.3613 -0.4611  0.3316
   82MPD2    H1 1256   4.372   1.436  11.224 -0.5763 -1.2339  2.0278
   82MPD2    H2 1257   4.033   1.647  11.147  0.0479 -0.4482  0.6861
   82MPD2    H3 1258   4.260   1.638  11.213 -1.8857  1.1504 -0.0020
   82MPD2     N 1259   4.277   1.196  11.172 -0.3614  0.3803 -0.4572
   82MPD2    H5 1260   4.354   1.213  11.236  0.2121  1.0625 -1.3282
   82MPD2    N1 1261   3.890   1.457  11.006  0.0729  0.3660 -0.3557
   82MPD2    H7 1262   3.858   1.551  10.987 -0.2911  0.1471 -0.8105
   83TCq2    C1 1263   4.232   1.068  11.145  1.3397 -0.2250  0.4958
   83TCq2    O2 1264   4.148   1.040  11.058 -0.1943  0.7972  0.4729
   83TCq2    C2 1265   4.291   0.965  11.226 -0.3766  0.5493 -0.1513
   83TCq2    C3 1266   4.415   0.992  11.272  0.8149  0.3465  0.3121
   83TCq2    C4 1267   4.454   0.915  11.378  0.0883  0.2812 -0.1901
   83TCq2    C5 1268   4.376   0.812  11.426 -0.5382  0.3360  0.2187
   83TCq2    C6 1269   4.266   0.775  11.349  0.4081 -0.0729  0.4506
   83TCq2    C7 1270   4.213   0.857  11.257 -0.1039  0.3715  0.0345
   83TCq2    C8 1271   4.189   0.664  11.397  0.4224  0.3022 -0.1517
   83TCq2    O4 1272   4.224   0.619  11.506 -0.2337  0.2695 -0.2455
   83TCq2    C9 1273   4.582   0.948  11.443  0.0817 -0.1487 -0.3590
   83TCq2    O5 1274   4.634   0.855  11.517 -0.4617  0.0389 -0.5366
   83TCq2    O6 1275   4.623   1.067  11.421  0.1857  0.0614 -0.7646
   83TCq2    H2 1276   4.479   1.072  11.236 -0.9473  0.3797 -2.6913
   83TCq2    H3 1277   4.396   0.760  11.519  1.0206  3.1013  1.4183
   83TCq2    H4 1278   4.112   0.847  11.219  0.3425 -5.3992  0.3007
   84TCq2    C1 1279   0.322   4.668  10.732 -0.2997  0.1465 -0.4638
   84TCq2    O2 1280   0.339   4.589  10.640 -0.9029  0.7226 -0.6619
   84TCq2    C2 1281   0.344   4.622  10.873  0.1517 -0.1930 -0.5299
   84TCq2    C3 1282   0.401   4.494  10.884  0.1494 -0.0592 -0.4912
   84TCq2    C4 1283   0.431   4.456  11.013 -0.1255 -0.0472 -0.3217
   84TCq2    C5 1284   0.426   4.537  11.116 -0.0892 -0.6517 -0.3457
   84TCq2    C6 1285   0.362   4.659  11.104  0.1048 -0.4556  0.0065
   84TCq2    C7 1286   0.325   4.703  10.981  0.2185 -0.0548  0.0072
   84TCq2    C8 1287   0.326   0.012  11.225  0.0587 -0.2418  0.6880
   84TCq2    O4 1288   0.307   0.132  11.210  0.5821  0.0673 -0.2750
   84TCq2    C9 1289   0.479   4.318  11.022  1.0380 -0.1157  0.0124
   84TCq2    O5 1290   0.471   4.252  10.915 -0.4325 -0.0837 -1.0957
   84TCq2    O6 1291   0.523   4.271  11.133 -0.0371  0.6513 -0.4403
   84TCq2    H2 1292   0.411   4.424  10.802  0.5580 -1.5278  0.7947
   84TCq2    H3 1293   0.454   4.497  11.212  0.9206 -0.4797 -0.5603
   84TCq2    H4 1294   0.281   0.077  10.977  1.5830  0.6392  2.4081
   85MPD2     C 1295   1.085   2.836  16.276 -0.0704 -0.6114 -0.6881
   85MPD2    C1 1296   1.040   2.765  16.169  0.0200  0.9926  0.3184
   85MPD2    C2 1297   1.009   2.836  16.053  0.4601  0.3013 -0.2659
   85MPD2    C3 1298   1.017   2.973  16.039  0.2068 -0.9930 -0.7312
   85MPD2    C4 1299   1.060   3.047  16.154  0.2350  0.2559  0.8285
   85MPD2    C5 1300   1.085   2.978  16.272  0.2860  0.2829  0.1811
   85MPD2     H 1301   0.977   2.777  15.968 -0.4824 -0.8569  0.8849
   85MPD2    H1 1302   1.065   3.155  16.154  0.3472  0.2496  1.2368
   85MPD2    H2 1303   1.099   2.783  16.369 -0.8846 -0.0583 -0.2403
   85MPD2    H3 1304   1.114   3.033  16.361 -1.6855  1.1227  0.2964
   85MPD2     N 1305   0.986   3.025  15.910  0.3566  0.4949  0.1633
   85MPD2    H5 1306   0.957   2.956  15.842 -0.1624  1.8985 -1.0463
   85MPD2    N1 1307   1.024   2.618  16.166 -0.4278 -0.2220  0.3061
   85MPD2    H7 1308   0.995   2.585  16.075 -1.0737  2.9048 -0.6341
   86TCq2    C1 1309   0.981   3.151  15.870 -0.3957  0.2742  0.5634
   86TCq2    O2 1310   0.992   3.255  15.936 -0.2756 -0.1254  0.6484
   86TCq2    C2 1311   0.978   3.165  15.726  0.1831  0.4883  0.2437
   86TCq2    C3 1312   0.952   3.287  15.672 -0.0938  0.2536 -0.3176
   86TCq2    C4 1313   0.945   3.294  15.533 -0.5517  0.2170 -0.5787
   86TCq2    C5 1314   0.966   3.185  15.451 -0.3505  0.0640  0.6662
   86TCq2    C6 1315   0.999   3.065  15.509  0.2581  0.2547  0.8068
   86TCq2    C7 1316   1.011   3.052  15.642 -0.5098 -0.0731 -0.3523
   86TCq2    C8 1317   1.051   2.959  15.428  0.4854 -0.7573 -0.4285
   86TCq2    O4 1318   1.065   2.851  15.488 -0.5739 -0.1471  0.4115
   86TCq2    C9 1319   0.915   3.414  15.468 -0.2807 -0.4294 -0.6456
   86TCq2    O5 1320   0.899   3.510  15.549  0.0012 -0.3200 -0.1574
   86TCq2    O6 1321   0.913   3.418  15.345 -0.6634  0.1981 -0.0200
   86TCq2    H2 1322   0.935   3.375  15.733 -0.4933 -0.3260  0.4122
   86TCq2    H3 1323   0.945   3.195  15.345 -0.7650 -1.1049  0.6383
   86TCq2    H4 1324   1.043   2.956  15.679 -0.4562 -0.6886 -1.9984
   87MPD2     C 1325   4.405   2.024   2.169  0.2163  0.4708  0.4683
   87MPD2    C1 1326   4.349   1.997   2.046  0.0782  0.1175  0.0406
   87MPD2    C2 1327   4.276   2.098   1.984  0.4670  0.7835  0.4572
   87MPD2    C3 1328   4.247   2.224   2.041  0.3586 -0.0955  0.0946
   87MPD2    C4 1329   4.314   2.251   2.161 -0.5486 -0.1636 -0.1574
   87MPD2    C5 1330   4.394   2.152   2.221  0.3019  0.0182 -0.2006
   87MPD2     H 1331   4.233   2.075   1.887 -1.1963  0.2542  1.3216
   87MPD2    H1 1332   4.316   2.347   2.211  1.8188 -0.9442  1.2341
   87MPD2    H2 1333   4.467   1.949   2.216 -1.4466 -1.1727  0.0862
   87MPD2    H3 1334   4.439   2.169   2.318  1.7589  2.2738 -1.2667
   87MPD2     N 1335   4.158   2.314   1.975  0.1855  0.1295  0.0137
   87MPD2    H5 1336   4.094   2.272   1.908 -2.1471  1.5827  1.3573
   87MPD2    N1 1337   4.381   1.871   1.989 -0.0253  0.0744  0.0825
   87MPD2    H7 1338   4.430   1.805   2.049  0.1673  3.2425  3.3830
   88TCq2    C1 1339   4.350   1.843   1.862  0.7953  1.0012 -0.0268
   88TCq2    O2 1340   4.334   1.910   1.760 -0.3264  0.3256 -0.6109
   88TCq2    C2 1341   4.383   1.704   1.839 -0.4618 -0.5339 -0.0346
   88TCq2    C3 1342   4.354   1.614   1.936  0.4056 -0.2253  0.3145
   88TCq2    C4 1343   4.363   1.484   1.904 -0.3249 -0.4148  0.3328
   88TCq2    C5 1344   4.394   1.439   1.780 -0.1714 -0.3897  0.1328
   88TCq2    C6 1345   4.417   1.536   1.685 -0.1768  0.1963 -0.7257
   88TCq2    C7 1346   4.419   1.668   1.712  0.3388 -0.2984  0.2918
   88TCq2    C8 1347   4.410   1.505   1.546 -0.2263 -0.4130 -0.3550
   88TCq2    O4 1348   4.463   1.584   1.471 -0.1528 -0.0924 -0.0596
   88TCq2    C9 1349   4.296   1.391   1.996  0.4222  0.2964 -0.1931
   88TCq2    O5 1350   4.261   1.441   2.106 -0.4179  0.0052 -0.2895
   88TCq2    O6 1351   4.265   1.280   1.952  0.2824  0.9644 -0.2894
   88TCq2    H2 1352   4.301   1.650   2.024  0.3941  0.8245 -0.1273
   88TCq2    H3 1353   4.388   1.334   1.752 -0.6974 -0.1979 -0.4895
   88TCq2    H4 1354   4.434   1.742   1.635  0.2293  0.2925  0.8377
   89MPD2     C 1355   0.023   4.256   1.859  0.2344  0.7006  0.4072
   89MPD2    C1 1356   4.636   4.321   1.899 -0.5683 -0.3364  0.2041
   89MPD2    C2 1357   4.648   4.457   1.911  0.0760 -0.5335  0.2632
   89MPD2    C3 1358   0.036   4.527   1.868 -0.2819 -0.4431 -0.4491
   89MPD2    C4 1359   0.146   4.462   1.818  0.0435 -0.1844 -0.3241
   89MPD2    C5 1360   0.139   4.327   1.819  0.5911  0.0346 -0.1654
   89MPD2     H 1361   4.561   4.517   1.933  0.3925  0.2779 -0.7197
   89MPD2    H1 1362   0.234   4.518   1.789 -0.2976  1.6128  2.0543
   89MPD2    H2 1363   0.029   4.148   1.848 -2.9480  0.7704 -1.8452
   89MPD2    H3 1364   0.217   4.264   1.777  0.8650  0.4820 -0.3360
   89MPD2     N 1365   0.025   4.673   1.880 -0.2716 -0.5555 -0.5287
   89MPD2    H5 1366   4.664   4.717   1.910 -1.7079 -1.7593 -2.9220
   89MPD2    N1 1367   4.508   4.266   1.936  0.2924 -0.3080  0.1915
   89MPD2    H7 1368   4.436   4.324   1.979 -0.2003 -0.3141 -0.6107
   90TCq2    C1 1369   0.115   0.042   1.848 -0.2838  0.5581 -0.8938
   90TCq2    O2 1370   0.229   0.038   1.805 -0.3775 -0.4945  0.4555
   90TCq2    C2 1371   0.060   0.176   1.856 -0.0379  0.2089 -0.0244
   90TCq2    C3 1372   0.148   0.280   1.853  0.0401 -0.0339 -0.1829
   90TCq2    C4 1373   0.121   0.390   1.781 -0.1152  0.4030  0.6478
   90TCq2    C5 1374   4.725   0.411   1.720 -0.4988  0.0574 -0.0400
   90TCq2    C6 1375   4.631   0.316   1.742 -0.1221  0.6249 -0.5036
   90TCq2    C7 1376   4.663   0.197   1.806  0.0027 -0.4380 -0.8154
   90TCq2    C8 1377   4.520   0.306   1.653 -0.5740 -0.3037  0.5559
   90TCq2    O4 1378   4.437   0.227   1.700 -0.5954  0.1743  0.1841
   90TCq2    C9 1379   0.232   0.484   1.758 -0.4018 -0.0358  0.4033
   90TCq2    O5 1380   0.344   0.476   1.815  0.3743 -0.4749  0.6311
   90TCq2    O6 1381   0.201   0.589   1.697  0.0145  0.5921  0.3859
   90TCq2    H2 1382   0.252   0.262   1.876 -0.7057 -3.9226  0.2533
   90TCq2    H3 1383   4.700   0.504   1.670 -2.0056 -0.4165 -0.1622
   90TCq2    H4 1384   4.600   0.109   1.796 -2.2021  0.9361  0.8776
   91TMC2    C1 1385   1.188   4.047  16.732  0.6502  0.4399  0.2080
   91TMC2    C2 1386   1.277   4.144  16.734 -0.8452 -1.0854  0.2102
   91TMC2    C3 1387   1.234   4.264  16.694 -0.5349  0.4109 -0.2794
   91TMC2    C4 1388   1.059   4.060  16.682 -0.0469  0.5932 -0.0186
   91TMC2    C5 1389   1.024   4.189  16.651 -0.3483  0.6135 -0.7132
   91TMC2    C6 1390   1.107   4.296  16.666 -0.3217 -0.4690 -0.6444
   91TMC2     C 1391   1.234   3.927  16.673 -0.4408 -0.3745  0.2307
   91TMC2     O 1392   1.183   3.823  16.709 -0.1920 -0.3312 -0.1884
   91TMC2     H 1393   1.382   4.122  16.752 -0.7416 -1.8817 -1.3119
   91TMC2    H1 1394   0.992   3.976  16.669  3.0201 -1.9696  0.7039
   91TMC2    H2 1395   1.088   4.395  16.625 -0.3942  0.5404  1.8202
   91TMC2    C7 1396   0.890   4.220  16.602  0.2263  0.7597 -0.0262
   91TMC2    C8 1397   1.315   4.367  16.730 -0.3306 -0.7147  0.2405
   91TMC2    O1 1398   0.854   4.338  16.617  0.0245  0.3864 -0.4037
   91TMC2    O2 1399   1.436   4.358  16.719 -0.2662  0.4115 -0.0886
   91TMC2    O5 1400   1.249   4.479  16.764 -0.0184 -0.7965 -0.8020
   91TMC2    H5 1401   1.153   4.471  16.785  0.1256 -2.4077 -0.7353
   92MPD2     C 1402   1.326   3.736  16.463  0.3800  0.0459  0.6605
   92MPD2    C1 1403   1.372   3.864  16.473  0.0261  0.0867  0.4355
   92MPD2    C2 1404   1.478   3.911  16.395 -0.2603  0.4741 -0.7774
   92MPD2    C3 1405   1.550   3.821  16.314  0.0362 -0.5582 -0.2429
   92MPD2    C4 1406   1.504   3.689  16.299 -0.1552  0.0289 -0.0808
   92MPD2    C5 1407   1.391   3.652  16.369 -0.1782 -0.0124 -0.5648
   92MPD2     H 1408   1.521   4.011  16.401  1.0862 -0.0647 -1.5104
   92MPD2    H1 1409   1.552   3.614  16.237 -0.3797 -0.6105  0.5128
   92MPD2    H2 1410   1.239   3.702  16.517  0.4099 -0.4329  0.4026
   92MPD2    H3 1411   1.357   3.550  16.378  0.6314 -0.2853 -0.5761
   92MPD2     N 1412   1.671   3.858  16.264  0.3280 -0.0809 -0.1117
   92MPD2    H5 1413   1.698   3.953  16.288 -1.1006  0.5843 -1.1636
   92MPD2    N1 1414   1.327   3.957  16.572  0.3559 -0.3435  0.1149
   92MPD2    H7 1415   1.367   4.050  16.578  0.9174 -0.7058  1.9592
   93MPD2     C 1416   2.685   4.189  14.221 -0.5050 -0.2103  0.1725
   93MPD2    C1 1417   2.669   4.088  14.131 -0.1563 -0.2816 -0.2825
   93MPD2    C2 1418   2.543   4.046  14.106  0.0216 -1.1164  0.1224
   93MPD2    C3 1419   2.434   4.104  14.171  0.2553 -0.1229 -0.0414
   93MPD2    C4 1420   2.454   4.214  14.249 -0.6073  0.2035  0.8732
   93MPD2    C5 1421   2.581   4.259  14.273 -0.0312 -0.3669 -0.2250
   93MPD2     H 1422   2.525   3.964  14.037 -0.8692 -1.3650  0.6442
   93MPD2    H1 1423   2.369   4.256  14.300 -0.1337  0.3483  1.5429
   93MPD2    H2 1424   2.786   4.225  14.239  0.4834 -2.1124 -1.5532
   93MPD2    H3 1425   2.587   4.340  14.346  2.1878  0.2832 -1.1382
   93MPD2     N 1426   2.303   4.070  14.131  0.1889 -0.3631  0.1278
   93MPD2    H5 1427   2.225   4.117  14.176 -0.9136 -1.3052 -0.8282
   93MPD2    N1 1428   2.775   4.024  14.068  0.1239 -0.5412  0.0701
   93MPD2    H7 1429   2.759   3.948  14.003  1.1100  0.2844 -1.1278
   94TCq2    C1 1430   2.911   4.067  14.058 -0.0476  0.0183 -0.3044
   94TCq2    O2 1431   2.973   4.143  14.129 -0.4220  0.4275  0.8857
   94TCq2    C2 1432   2.988   3.981  13.968  0.0055  0.3804 -0.4459
   94TCq2    C3 1433   2.933   3.965  13.845  0.2611 -0.4114 -0.8000
   94TCq2    C4 1434   3.015   3.935  13.742 -0.8646  0.1345  0.1891
   94TCq2    C5 1435   3.156   3.931  13.767  0.4406  0.1778  0.2671
   94TCq2    C6 1436   3.207   3.959  13.892  0.7349  0.3675  0.0670
   94TCq2    C7 1437   3.120   3.988  13.996  0.5360 -0.2258  0.4838
   94TCq2    C8 1438   3.343   3.923  13.923  0.0749  0.5446  0.1438
   94TCq2    O4 1439   3.412   3.877  13.835  0.4436  0.3363  0.3666
   94TCq2    C9 1440   2.966   3.901  13.613  0.5659  0.4834 -0.0332
   94TCq2    O5 1441   2.847   3.856  13.600  0.0249 -0.2604  0.1856
   94TCq2    O6 1442   3.049   3.907  13.515  0.0310  0.0328  0.1539
   94TCq2    H2 1443   2.825   3.963  13.838  0.2548  0.1859 -0.8958
   94TCq2    H3 1444   3.220   3.902  13.684  2.6251  0.5182  1.8166
   94TCq2    H4 1445   3.153   3.989  14.100 -0.1713  1.5039  0.7006
   95TMC2    C1 1446   2.937   0.649  15.941  0.3301  0.2214 -0.4333
   95TMC2    C2 1447   3.017   0.540  15.938  0.0686  0.2181  0.0851
   95TMC2    C3 1448   2.964   0.420  15.958  0.3272 -0.6523  0.2787
   95TMC2    C4 1449   2.814   0.647  15.989  0.6887 -0.3308  0.3474
   95TMC2    C5 1450   2.763   0.524  16.014 -0.3221  0.3268  0.2150
   95TMC2    C6 1451   2.831   0.411  15.988  0.2042 -0.2801 -0.5801
   95TMC2     C 1452   2.993   0.773  15.892  0.7104 -0.7145 -0.4238
   95TMC2     O 1453   3.075   0.758  15.805 -0.0703  0.7139 -0.0089
   95TMC2     H 1454   3.121   0.548  15.909 -0.1269  0.2942 -0.6135
   95TMC2    H1 1455   2.754   0.734  16.008 -0.6082 -1.4562  1.3588
   95TMC2    H2 1456   2.790   0.316  16.022  0.1203  0.0863  0.3344
   95TMC2    C7 1457   2.619   0.507  16.021 -0.3462 -0.1896  0.7909
   95TMC2    C8 1458   3.045   0.306  15.961  0.2559 -0.1682  0.0427
   95TMC2    O1 1459   2.567   0.421  16.088 -0.6898  0.2112  0.0646
   95TMC2    O2 1460   3.044   0.245  16.066 -0.9096  0.0324  0.2195
   95TMC2    O5 1461   3.067   0.263  15.832  0.2153 -0.0346  0.2590
   95TMC2    H5 1462   3.060   0.336  15.767 -0.0695  0.7957  1.2334
   96MPD2     C 1463   3.036   1.286  15.861 -0.4316 -0.2367  0.0115
   96MPD2    C1 1464   3.107   1.189  15.802 -0.4244 -0.1607 -0.2634
   96MPD2    C2 1465   3.072   1.059  15.838 -0.2375 -0.0583  0.5074
   96MPD2    C3 1466   2.974   1.026  15.928  0.7633  0.3714  0.5758
   96MPD2    C4 1467   2.908   1.131  15.991  0.1861  0.2186  0.3283
   96MPD2    C5 1468   2.936   1.257  15.947  0.0105 -0.0110 -0.5284
   96MPD2     H 1469   3.135   0.979  15.801  1.0837  0.5687  1.3801
   96MPD2    H1 1470   2.834   1.117  16.069  0.3238  1.1917  0.6295
   96MPD2    H2 1471   3.053   1.386  15.822  0.7255  0.1050  1.4139
   96MPD2    H3 1472   2.888   1.339  15.999  0.9619 -0.1577  0.5777
   96MPD2     N 1473   2.949   0.886  15.963  0.2874  0.5150  0.3163
   96MPD2    H5 1474   2.879   0.868  16.034 -0.0734  1.2849  0.1501
   96MPD2    N1 1475   3.220   1.222  15.724  0.0253  0.4555 -0.3138
   96MPD2    H7 1476   3.238   1.320  15.704  2.6070 -0.1555 -1.0136
   97MPD2     C 1477   0.310   2.985   1.409  0.4644  0.0478  0.5896
   97MPD2    C1 1478   0.306   3.089   1.319 -0.0332  0.3287 -0.1464
   97MPD2    C2 1479   0.320   3.067   1.186 -0.1525  0.5596  0.3817
   97MPD2    C3 1480   0.336   2.936   1.136 -0.6762  1.0423  0.1382
   97MPD2    C4 1481   0.363   2.833   1.228 -0.4080 -0.2724 -0.1372
   97MPD2    C5 1482   0.341   2.855   1.362  0.6991 -0.2797 -0.8599
   97MPD2     H 1483   0.311   3.153   1.120  1.7567  0.3293 -0.1747
   97MPD2    H1 1484   0.375   2.728   1.206 -2.3988 -0.4346 -0.3928
   97MPD2    H2 1485   0.295   3.002   1.515  0.8138  0.1746  0.6205
   97MPD2    H3 1486   0.347   2.774   1.434 -2.0630  0.9133  0.6878
   97MPD2     N 1487   0.341   2.900   1.002  0.4774 -0.1321 -0.6828
   97MPD2    H5 1488   0.372   2.805   0.986  3.2374  0.7310 -0.4136
   97MPD2    N1 1489   0.298   3.218   1.383  0.4421  0.2558  0.6258
   97MPD2    H7 1490   0.304   3.212   1.484 -0.2867  1.2950  0.7316
   98TCq2    C1 1491   0.306   2.983   0.897  0.2597 -0.5212 -1.0734
   98TCq2    O2 1492   0.248   3.093   0.889  0.5200 -0.7520 -0.0220
   98TCq2    C2 1493   0.351   2.923   0.772 -0.2849 -0.5978 -0.3276
   98TCq2    C3 1494   0.344   2.787   0.750 -0.2193  0.2875 -0.5395
   98TCq2    C4 1495   0.368   2.745   0.619  0.3344 -0.4640  0.0054
   98TCq2    C5 1496   0.405   2.835   0.523 -0.0139 -0.3280 -0.6349
   98TCq2    C6 1497   0.409   2.968   0.559 -1.5261  0.0474 -0.2277
   98TCq2    C7 1498   0.372   3.017   0.678 -0.4722  0.4526  0.4439
   98TCq2    C8 1499   0.460   3.071   0.465 -0.3266  0.4325  0.1616
   98TCq2    O4 1500   0.478   3.188   0.507  0.2536  0.0120 -0.5243
   98TCq2    C9 1501   0.378   2.601   0.588 -0.9489 -0.7850  0.2142
   98TCq2    O5 1502   0.385   2.574   0.461  0.0213  0.5307 -0.5224
   98TCq2    O6 1503   0.352   2.524   0.679 -0.0922 -0.2571  0.1693
   98TCq2    H2 1504   0.320   2.722   0.833  0.4384  0.9809  0.1878
   98TCq2    H3 1505   0.449   2.798   0.430  2.2008  1.6785 -0.3973
   98TCq2    H4 1506   0.387   3.119   0.712 -1.2803 -0.1115  2.5407
   99MPD2     C 1507   4.111   0.794   2.093 -0.8742  0.0788  0.3418
   99MPD2    C1 1508   3.978   0.766   2.107  0.4313 -0.0996 -0.5299
   99MPD2    C2 1509   3.920   0.694   2.005  0.2022 -0.4204 -0.2337
   99MPD2    C3 1510   3.981   0.650   1.890 -0.3223  0.1312 -0.2543
   99MPD2    C4 1511   4.119   0.672   1.882 -0.2535 -0.2035  0.5738
   99MPD2    C5 1512   4.178   0.745   1.983  0.3120 -0.1582  0.0499
   99MPD2     H 1513   3.816   0.662   2.008 -0.1799  0.7535 -1.0072
   99MPD2    H1 1514   4.176   0.656   1.792 -2.4467  1.5019 -1.1168
   99MPD2    H2 1515   4.158   0.857   2.168  1.5033 -0.0765 -1.0200
   99MPD2    H3 1516   4.284   0.764   1.976  0.2671 -0.3143 -1.0538
   99MPD2     N 1517   3.907   0.568   1.806  0.1385  0.1721 -0.4157
   99MPD2    H5 1518   3.807   0.554   1.821  0.0003  0.0695 -1.3902
   99MPD2    N1 1519   3.908   0.808   2.222  0.0071 -0.5785 -0.0628
   99MPD2    H7 1520   3.807   0.810   2.220 -0.0542 -0.8900  2.2626
  100TCq2    C1 1521   3.957   0.859   2.334 -0.6693  0.0588 -0.4575
  100TCq2    O2 1522   4.069   0.843   2.379 -0.2758  0.2330 -0.3312
  100TCq2    C2 1523   3.851   0.932   2.407  0.3408  0.0258  0.5190
  100TCq2    C3 1524   3.882   0.949   2.548 -0.0799 -1.1553 -0.3010
  100TCq2    C4 1525   3.809   1.039   2.616  0.2518  0.1780  0.4685
  100TCq2    C5 1526   3.716   1.110   2.548 -0.1897 -0.9820 -0.0979
  100TCq2    C6 1527   3.682   1.080   2.416 -1.0066  0.2681  0.1633
  100TCq2    C7 1528   3.751   0.995   2.338  0.2741 -0.7121  0.1155
  100TCq2    C8 1529   3.551   1.118   2.373  0.5098  0.0964 -0.1945
  100TCq2    O4 1530   3.490   1.204   2.428  0.1906  0.0564 -0.2269
  100TCq2    C9 1531   3.843   1.071   2.748  0.0662 -0.6719  0.0867
  100TCq2    O5 1532   3.955   1.026   2.787  0.8371 -0.6295 -0.7169
  100TCq2    O6 1533   3.778   1.166   2.799  0.0039  0.1305  0.0503
  100TCq2    H2 1534   3.954   0.898   2.611  1.2630  1.5674  0.3850
  100TCq2    H3 1535   3.657   1.187   2.596  0.4227 -0.2458 -0.5335
  100TCq2    H4 1536   3.737   0.995   2.230  0.0070  0.5630  0.1592
  101MPD2     C 1537   0.332   1.892  13.349 -0.0494  0.0714  0.2285
  101MPD2    C1 1538   0.205   1.856  13.322  0.4360  0.4480  0.4520
  101MPD2    C2 1539   0.128   1.777  13.417 -0.2401 -0.4090  1.0607
  101MPD2    C3 1540   0.187   1.745  13.539  0.9469 -0.1435  0.1077
  101MPD2    C4 1541   0.319   1.778  13.564  0.5100  0.3308  0.0294
  101MPD2    C5 1542   0.388   1.852  13.469 -0.2589  0.0497  0.7124
  101MPD2     H 1543   0.027   1.745  13.392 -0.1128  0.5521 -0.6722
  101MPD2    H1 1544   0.376   1.745  13.650 -1.2806  0.9079  1.4448
  101MPD2    H2 1545   0.391   1.962  13.291 -0.0199 -1.1776 -1.2509
  101MPD2    H3 1546   0.489   1.884  13.491  0.3760 -1.0404 -0.6631
  101MPD2     N 1547   0.112   1.672  13.632  0.0321  0.7206 -0.4120
  101MPD2    H5 1548   0.020   1.636  13.607  0.9004 -1.6787 -0.1949
  101MPD2    N1 1549   0.146   1.894  13.196 -0.3927  0.0731 -0.4593
  101MPD2    H7 1550   0.202   1.949  13.131  1.1378  0.0035  0.7876
  102TCq2    C1 1551   0.103   2.140  12.761  0.4839 -0.0412 -0.4604
  102TCq2    O2 1552   0.222   2.129  12.775 -0.3400 -0.1046  0.7632
  102TCq2    C2 1553   0.016   2.056  12.841  0.0112  1.5207  0.4366
  102TCq2    C3 1554   4.604   2.065  12.815 -0.1494 -0.2516  0.1776
  102TCq2    C4 1555   4.520   2.011  12.902  0.8692  0.0607  0.6888
  102TCq2    C5 1556   4.571   1.963  13.015  0.6433  1.2939  0.2945
  102TCq2    C6 1557   4.705   1.945  13.043  0.8022 -0.0071 -0.2324
  102TCq2    C7 1558   0.074   1.994  12.951  0.3180 -0.7117  0.0384
  102TCq2    C8 1559   0.013   1.889  13.168  0.5647 -0.7119  0.2185
  102TCq2    O4 1560   4.641   1.842  13.226 -0.2430 -0.8588 -0.1843
  102TCq2    C9 1561   4.379   2.001  12.875  0.3028  0.6214 -0.7722
  102TCq2    O5 1562   4.307   1.940  12.956  0.2655  0.4501  0.3641
  102TCq2    O6 1563   4.351   1.994  12.752 -0.0171 -0.3055  0.2064
  102TCq2    H2 1564   4.562   2.103  12.723  3.0031 -0.1755 -1.2632
  102TCq2    H3 1565   4.502   1.957  13.099 -0.9669  2.7349 -0.9128
  102TCq2    H4 1566   0.182   1.985  12.961  0.3155 -0.9948 -0.2034
  103TMC2    C1 1567   3.052   1.621  12.562 -0.5752 -0.2599  0.4404
  103TMC2    C2 1568   3.154   1.544  12.620  0.8841  0.0806 -0.0984
  103TMC2    C3 1569   3.233   1.610  12.707 -0.1549  0.3486  0.2585
  103TMC2    C4 1570   3.020   1.752  12.602 -0.2628  0.1502  0.7366
  103TMC2    C5 1571   3.094   1.801  12.706  0.5224 -0.2269 -0.1555
  103TMC2    C6 1572   3.199   1.732  12.764 -0.2600 -0.4717  0.6970
  103TMC2     C 1573   2.971   1.572  12.455  0.1245  0.7853 -0.8409
  103TMC2     O 1574   2.926   1.649  12.374  0.2971  0.0510  0.1236
  103TMC2     H 1575   3.183   1.447  12.580 -1.6602 -0.9975  0.7221
  103TMC2    H1 1576   2.939   1.799  12.548  0.3174 -1.2466 -1.3258
  103TMC2    H2 1577   3.266   1.775  12.837 -0.8540 -0.6480  1.3472
  103TMC2    C7 1578   3.063   1.920  12.779 -0.1013  0.9396 -0.4795
  103TMC2    C8 1579   3.320   1.517  12.772  0.7632  0.3008  0.3283
  103TMC2    O1 1580   3.141   1.968  12.861 -0.2799  0.1023 -0.1486
  103TMC2    O2 1581   3.310   1.395  12.765 -0.2407  0.0100 -0.8225
  103TMC2    O5 1582   3.431   1.599  12.793 -0.6243  1.0674  0.7813
  103TMC2    H5 1583   3.408   1.694  12.785 -0.6389  1.0999  1.2033
  104MPD2     C 1584   2.870   1.218  12.419  0.0871  0.4285 -0.6011
  104MPD2    C1 1585   2.870   1.350  12.391 -0.1067 -0.3613  0.2591
  104MPD2    C2 1586   2.792   1.402  12.287 -0.3983  0.1505 -0.0535
  104MPD2    C3 1587   2.709   1.321  12.214  0.3383  0.4900 -0.5110
  104MPD2    C4 1588   2.710   1.187  12.238 -0.6490 -0.5422  0.5287
  104MPD2    C5 1589   2.790   1.139  12.344  1.0059 -0.0022  0.0913
  104MPD2     H 1590   2.781   1.509  12.272  0.4414  0.6132  2.6602
  104MPD2    H1 1591   2.637   1.118  12.197 -0.7220 -1.0061  1.4257
  104MPD2    H2 1592   2.927   1.180  12.503 -0.7461  2.4969  0.8994
  104MPD2    H3 1593   2.777   1.035  12.373 -0.3038  0.3616  0.7584
  104MPD2     N 1594   2.628   1.386  12.116  0.8119 -0.2682 -0.2342
  104MPD2    H5 1595   2.627   1.487  12.116  2.3097 -0.2583 -2.5815
  104MPD2    N1 1596   2.949   1.433  12.472  0.0962  0.4053 -0.5068
  104MPD2    H7 1597   2.994   1.392  12.552 -2.3486 -0.7402  0.2705
  105MPD2     C 1598   4.511   1.133  17.674 -0.3300 -0.0260  1.3557
  105MPD2    C1 1599   4.439   1.253  17.679 -0.1584  0.2190 -0.1711
  105MPD2    C2 1600   4.427   1.326   0.088  0.6423 -0.6138  0.2666
  105MPD2    C3 1601   4.472   1.281   0.209 -0.3076 -0.6582 -0.1415
  105MPD2    C4 1602   4.547   1.162   0.203 -0.2245 -0.0215  0.1751
  105MPD2    C5 1603   4.558   1.080   0.092  0.0271  0.6110 -0.2826
  105MPD2     H 1604   4.353   1.406   0.090 -0.8800 -2.0291  1.1677
  105MPD2    H1 1605   4.579   1.119   0.298 -1.0509 -2.2839 -0.5795
  105MPD2    H2 1606   4.509   1.063  17.591 -2.4116  2.6461 -0.8402
  105MPD2    H3 1607   4.612   0.987   0.098 -0.1694  0.3382 -2.7233
  105MPD2     N 1608   4.460   1.359   0.330  0.0733 -0.3598 -0.2837
  105MPD2    H5 1609   4.435   1.457   0.317 -0.0314 -0.3893 -0.3044
  105MPD2    N1 1610   4.363   1.301  17.571 -0.1184  0.0508 -0.1269
  105MPD2    H7 1611   4.298   1.379  17.578  0.0285  0.1774 -0.1641
  106TCq2    C1 1612   4.458   1.302   0.454  0.2161  0.4414  1.1018
  106TCq2    O2 1613   4.433   1.186   0.477 -0.4440  0.0498 -0.3506
  106TCq2    C2 1614   4.422   1.405   0.558  0.0582  0.1108 -0.4451
  106TCq2    C3 1615   4.422   1.544   0.541  0.0862  0.1441 -0.0255
  106TCq2    C4 1616   4.403   1.625   0.648  0.1948  0.3461 -0.1663
  106TCq2    C5 1617   4.381   1.570   0.773 -0.2398  0.3253 -0.0270
  106TCq2    C6 1618   4.380   1.433   0.792  1.0111  0.1898 -0.3222
  106TCq2    C7 1619   4.398   1.349   0.680 -0.2761  0.8660 -0.0033
  106TCq2    C8 1620   4.318   1.365   0.900  0.1522  0.1033 -0.6192
  106TCq2    O4 1621   4.281   1.251   0.879 -0.0741  0.0715  0.0444
  106TCq2    C9 1622   4.375   1.764   0.624 -0.3356  0.1037  0.5193
  106TCq2    O5 1623   4.335   1.832   0.725 -0.4922  0.7417  0.5203
  106TCq2    O6 1624   4.397   1.814   0.509  0.4621 -0.4640 -0.0719
  106TCq2    H2 1625   4.431   1.596   0.447 -1.2831 -1.6933 -1.1821
  106TCq2    H3 1626   4.361   1.630   0.861  0.6973 -1.7396  1.5858
  106TCq2    H4 1627   4.406   1.242   0.698  1.5063  1.1332  0.7755
  107TMC2    C1 1628   0.070   0.675  11.843  0.1520  0.2800 -0.6176
  107TMC2    C2 1629   0.116   0.751  11.735 -0.1701  0.2194  0.2879
  107TMC2    C3 1630   0.192   0.680  11.642 -0.1687  0.3611  0.2479
  107TMC2    C4 1631   0.091   0.537  11.856 -0.1484  0.6401  0.1171
  107TMC2    C5 1632   0.156   0.470  11.756  0.5721 -0.5642  0.7371
  107TMC2    C6 1633   0.208   0.545  11.649 -0.0629  0.0751  0.4773
  107TMC2     C 1634   4.690   0.734  11.930  0.6288 -0.6433 -0.5850
  107TMC2     O 1635   4.660   0.655  12.020 -0.0114  0.5727  0.0118
  107TMC2     H 1636   0.115   0.859  11.742 -0.1241  0.3407 -1.6288
  107TMC2    H1 1637   0.051   0.489  11.945 -1.2075 -0.6937 -1.0956
  107TMC2    H2 1638   0.261   0.489  11.573  0.2387 -0.8622  1.3741
  107TMC2    C7 1639   0.183   0.326  11.771  0.3972  0.0260 -0.5797
  107TMC2    C8 1640   0.254   0.748  11.531  0.2077 -0.3676  0.0481
  107TMC2    O1 1641   0.177   0.267  11.880  0.6133  0.2186 -0.2354
  107TMC2    O2 1642   0.360   0.712  11.477  0.1304 -0.1053  0.2588
  107TMC2    O5 1643   0.176   0.857  11.510 -0.0874  0.3215  0.4370
  107TMC2    H5 1644   0.082   0.834  11.529  0.0641 -0.8121 -0.1646
  108MPD2     C 1645   4.519   1.063  11.935 -0.0745 -0.1198 -0.3916
  108MPD2    C1 1646   4.557   0.939  11.985 -0.8578  0.6217 -0.8328
  108MPD2    C2 1647   4.510   0.893  12.107 -0.9713  0.5282 -0.5937
  108MPD2    C3 1648   4.425   0.972  12.184  0.3605  0.3585 -0.4766
  108MPD2    C4 1649   4.387   1.090  12.135  0.1387  0.1238 -0.0814
  108MPD2    C5 1650   4.430   1.137  12.012  0.0516 -0.2716  0.0292
  108MPD2     H 1651   4.554   0.800  12.141  1.2662  1.1232 -1.8828
  108MPD2    H1 1652   4.327   1.157  12.195 -2.7504 -2.0836 -0.4769
  108MPD2    H2 1653   4.562   1.103  11.844  2.0897 -2.4224 -0.4166
  108MPD2    H3 1654   4.394   1.234  11.982  0.9922 -0.3450 -1.3149
  108MPD2     N 1655   4.384   0.931  12.318 -0.3362  0.4093  0.3378
  108MPD2    H5 1656   4.326   0.997  12.369  0.6382  0.9625  0.7369
  108MPD2    N1 1657   4.647   0.863  11.908 -0.4386  0.3122  0.5798
  108MPD2    H7 1658   4.678   0.916  11.827 -1.7558 -1.3149 -0.9835
  109MPD2     C 1659   4.656   2.763   2.023  0.1458  0.4272 -0.2960
  109MPD2    C1 1660   0.006   2.853   1.949 -0.1520 -0.8309  0.0433
  109MPD2    C2 1661   0.125   2.892   2.003 -0.1827  0.4678  0.1385
  109MPD2    C3 1662   0.169   2.840   2.126 -0.5720  0.3877  0.0241
  109MPD2    C4 1663   0.109   2.734   2.182 -0.7873 -0.4317 -0.1834
  109MPD2    C5 1664   4.718   2.692   2.126 -0.6358  0.1699  0.1968
  109MPD2     H 1665   0.174   2.984   1.971  1.1703  0.1273  1.1707
  109MPD2    H1 1666   0.148   2.681   2.269 -2.0957  0.2572  0.8213
  109MPD2    H2 1667   4.560   2.723   1.990 -0.5877  1.5987  0.4024
  109MPD2    H3 1668   4.664   2.615   2.179 -0.4677  0.5854  0.9657
  109MPD2     N 1669   0.284   2.901   2.187  0.0939  0.0105  0.0360
  109MPD2    H5 1670   0.331   2.974   2.134  1.4986  0.3782  1.8021
  109MPD2    N1 1671   4.694   2.908   1.826  0.5654 -0.3606  0.2800
  109MPD2    H7 1672   0.035   2.964   1.773 -0.8197  1.2455  0.2435
  110TCq2    C1 1673   0.338   2.872   2.313 -0.8428  0.6986  0.3117
  110TCq2    O2 1674   0.288   2.801   2.401 -0.0374  0.0770 -0.6625
  110TCq2    C2 1675   0.445   2.961   2.346 -1.0096  0.1528 -0.0233
  110TCq2    C3 1676   0.442   2.998   2.480  0.1021  0.2840  0.1064
  110TCq2    C4 1677   0.508   3.118   2.499 -1.5471 -0.6572 -0.3893
  110TCq2    C5 1678   0.585   3.182   2.412 -0.3534  0.0883  0.1026
  110TCq2    C6 1679   0.595   3.131   2.285 -0.4669 -0.2775 -0.0175
  110TCq2    C7 1680   0.528   3.018   2.255 -0.0863 -0.3196 -0.2079
  110TCq2    C8 1681   0.605   3.230   2.179 -0.0754 -0.3964 -0.3082
  110TCq2    O4 1682   0.547   3.194   2.077 -0.2976  0.4245  0.1476
  110TCq2    C9 1683   0.508   3.176   2.635  0.0760 -0.0680  0.3657
  110TCq2    O5 1684   0.582   3.269   2.664 -0.5889 -0.3417 -0.3420
  110TCq2    O6 1685   0.445   3.114   2.721  0.5141 -0.0517 -0.1476
  110TCq2    H2 1686   0.387   2.950   2.560  0.3846 -0.7194 -0.3041
  110TCq2    H3 1687   0.646   3.266   2.441 -0.0823  0.5994 -1.9038
  110TCq2    H4 1688   0.525   2.982   2.152 -2.4960  1.7140 -0.8443
  111TMC2    C1 1689   4.600   2.813  11.618  1.2505 -0.3737  0.6760
  111TMC2    C2 1690   4.524   2.746  11.715 -0.0653  0.2828  0.1190
  111TMC2    C3 1691   4.594   2.737  11.830 -0.0546 -0.2218  0.4018
  111TMC2    C4 1692   0.003   2.851  11.628  0.6067 -0.5604 -0.3284
  111TMC2    C5 1693   0.068   2.831  11.746  0.6817  1.2772  0.4781
  111TMC2    C6 1694   4.724   2.773  11.853  0.6196 -0.1122 -0.0469
  111TMC2     C 1695   4.554   2.827  11.488  0.2009 -0.2954  0.3614
  111TMC2     O 1696   4.623   2.797  11.389 -0.0723  0.0799  0.1382
  111TMC2     H 1697   4.427   2.703  11.695 -0.7975  0.9716  2.2090
  111TMC2    H1 1698   0.050   2.911  11.551  0.6585 -0.5244 -0.2686
  111TMC2    H2 1699   0.046   2.755  11.949 -0.8034 -0.8191  0.5219
  111TMC2    C7 1700   0.208   2.812  11.761 -0.0141 -0.1377  0.3347
  111TMC2    C8 1701   4.516   2.690  11.947  0.3670 -0.8883 -0.2385
  111TMC2    O1 1702   0.242   2.816  11.879  0.3272 -0.2759  0.3175
  111TMC2    O2 1703   4.579   2.639  12.043  0.4940  0.1881  0.8585
  111TMC2    O5 1704   4.407   2.765  11.950 -0.0701  0.5662 -0.0778
  111TMC2    H5 1705   4.390   2.822  11.871 -1.9163 -0.9586 -0.7871
  112MPD2     C 1706   4.158   2.975  11.193  0.0493 -0.4630  0.6396
  112MPD2    C1 1707   4.292   2.982  11.172 -0.5590 -0.2342  0.7552
  112MPD2    C2 1708   4.380   2.936  11.265  0.1239  0.2696  0.0742
  112MPD2    C3 1709   4.335   2.899  11.390  0.1285  0.6781  0.2087
  112MPD2    C4 1710   4.200   2.900  11.416 -0.1867 -0.0049 -0.3355
  112MPD2    C5 1711   4.113   2.930  11.311  0.2582  0.7916  0.3952
  112MPD2     H 1712   4.486   2.937  11.243 -0.2432 -1.2892 -1.7506
  112MPD2    H1 1713   4.160   2.879  11.514 -0.4037 -0.6517 -0.5574
  112MPD2    H2 1714   4.084   2.994  11.116  1.3366  1.8909 -0.0192
  112MPD2    H3 1715   4.006   2.926  11.325  0.2814 -1.9329 -0.2372
  112MPD2     N 1716   4.421   2.854  11.496 -0.1854 -0.3499 -0.0961
  112MPD2    H5 1717   4.370   2.843  11.584 -2.0600 -2.7387 -1.4450
  112MPD2    N1 1718   4.343   3.050  11.062 -0.1215 -0.3752 -0.1297
  112MPD2    H7 1719   4.441   3.039  11.039 -0.2060  0.2370 -0.7697
  113MPD2     C 1720   3.099   0.381   0.938  0.3457 -0.2699 -0.0478
  113MPD2    C1 1721   3.136   0.440   1.060  0.2819  0.6252 -0.1595
  113MPD2    C2 1722   3.039   0.450   1.155  0.2149 -0.1776 -0.3031
  113MPD2    C3 1723   2.917   0.383   1.141  0.0402 -0.5231 -0.0553
  113MPD2    C4 1724   2.896   0.321   1.020 -0.6661  0.2512  0.6110
  113MPD2    C5 1725   2.980   0.327   0.912  0.0601 -0.2246 -0.3449
  113MPD2     H 1726   3.066   0.503   1.246  0.4339 -0.3808 -0.2492
  113MPD2    H1 1727   2.803   0.270   1.002 -0.6584 -0.5742  2.9808
  113MPD2    H2 1728   3.173   0.378   0.858  0.6217  0.5110  0.1739
  113MPD2    H3 1729   2.964   0.274   0.819  1.0532 -1.9571  0.4785
  113MPD2     N 1730   2.810   0.371   1.235  0.2109  0.0086 -0.0478
  113MPD2    H5 1731   2.745   0.294   1.221  1.2379 -0.9509  0.4490
  113MPD2    N1 1732   3.254   0.506   1.093 -0.3477  0.1564 -0.2014
  113MPD2    H7 1733   3.249   0.559   1.180  1.4217  2.7415 -1.6881
  114TCq2    C1 1734   2.791   0.451   1.345  0.4798  0.3308  0.6781
  114TCq2    O2 1735   2.867   0.537   1.380 -0.1480  0.5337 -0.5904
  114TCq2    C2 1736   2.688   0.400   1.436  0.5107 -0.0786 -0.0748
  114TCq2    C3 1737   2.692   0.467   1.550 -0.1773  0.3876  0.0385
  114TCq2    C4 1738   2.613   0.433   1.648  0.5957  0.4247 -0.6105
  114TCq2    C5 1739   2.520   0.333   1.637  0.5197 -0.4278  0.9748
  114TCq2    C6 1740   2.511   0.273   1.513 -0.8271 -0.0956  0.0039
  114TCq2    C7 1741   2.593   0.298   1.400 -0.9879 -0.1781  0.4917
  114TCq2    C8 1742   2.406   0.167   1.493  0.7975 -0.3322 -0.1148
  114TCq2    O4 1743   2.364   0.154   1.377 -0.0339  0.3832 -0.1768
  114TCq2    C9 1744   2.633   0.497   1.773  0.2471  0.0112 -0.4215
  114TCq2    O5 1745   2.681   0.612   1.768  0.5991 -0.1669  0.4632
  114TCq2    O6 1746   2.574   0.447   1.869  0.2669  0.1333 -0.0840
  114TCq2    H2 1747   2.765   0.543   1.574 -1.0705  1.3021 -0.1504
  114TCq2    H3 1748   2.442   0.322   1.711 -0.4433 -0.5813 -0.0575
  114TCq2    H4 1749   2.570   0.257   1.302 -3.2643 -1.3858  1.5471
  115TMC2    C1 1750   3.827   3.107   0.307 -0.9549  0.0178  0.1759
  115TMC2    C2 1751   3.948   3.093   0.254 -0.6547  0.1251  0.0891
  115TMC2    C3 1752   4.011   3.204   0.204 -0.3296  1.2488  0.4792
  115TMC2    C4 1753   3.746   3.219   0.284  1.1744  0.1568 -0.7644
  115TMC2    C5 1754   3.805   3.329   0.224  0.4838  0.1361  0.3137
  115TMC2    C6 1755   3.945   3.321   0.198  0.6913  0.0677  0.0245
  115TMC2     C 1756   3.750   2.984   0.329  0.8195  0.6953 -0.7185
  115TMC2     O 1757   3.638   2.989   0.277 -0.0434  0.1164  0.5657
  115TMC2     H 1758   3.994   2.995   0.242  0.4876  0.3842  2.4247
  115TMC2    H1 1759   3.644   3.220   0.321  1.1298  2.2638 -0.9516
  115TMC2    H2 1760   4.002   3.409   0.172 -0.7077  1.0695  0.3245
  115TMC2    C7 1761   3.726   3.429   0.159 -0.9279  0.3711  0.6882
  115TMC2    C8 1762   4.148   3.184   0.167 -0.0348  0.2606 -0.1452
  115TMC2    O1 1763   3.607   3.428   0.188  0.2891 -0.6633 -0.4723
  115TMC2    O2 1764   4.192   3.077   0.132 -0.0057 -0.0039 -0.4627
  115TMC2    O5 1765   4.222   3.263   0.247  0.0965 -0.2064  0.8151
  115TMC2    H5 1766   4.173   3.330   0.298 -0.7386 -0.7388  0.7168
  116MPD2     C 1767   3.710   2.471   0.392 -0.7589  0.3711 -0.0942
  116MPD2    C1 1768   3.624   2.556   0.331 -0.7805  1.2106 -0.4394
  116MPD2    C2 1769   3.655   2.691   0.338 -0.6966 -0.4397  0.1608
  116MPD2    C3 1770   3.771   2.740   0.391  0.2611  0.0453 -0.9937
  116MPD2    C4 1771   3.859   2.648   0.433  0.2668  0.8201  0.6482
  116MPD2    C5 1772   3.827   2.517   0.434 -0.1924  0.3294 -1.0113
  116MPD2     H 1773   3.608   2.765   0.274  3.0819  2.2664  0.4377
  116MPD2    H1 1774   3.958   2.685   0.454  0.1732  1.4729 -0.0723
  116MPD2    H2 1775   3.688   2.365   0.403  1.6933 -0.0490  0.8847
  116MPD2    H3 1776   3.891   2.456   0.497  0.6454  1.9469 -0.2849
  116MPD2     N 1777   3.818   2.878   0.382  0.3787 -0.4583  0.2286
  116MPD2    H5 1778   3.908   2.891   0.427 -0.5479 -0.6294  2.1469
  116MPD2    N1 1779   3.517   2.504   0.261  0.2966 -0.1938 -0.2970
  116MPD2    H7 1780   3.510   2.405   0.282 -0.9627  0.1912  1.1111
  117TMC2    C1 1781   2.199   4.367  13.771  0.4685  0.4300  0.1746
  117TMC2    C2 1782   2.281   4.258  13.758 -0.4189 -0.1121  0.0671
  117TMC2    C3 1783   2.417   4.277  13.728  0.4113  0.7761 -0.6796
  117TMC2    C4 1784   2.251   4.490  13.728 -0.0879 -0.4468  0.0257
  117TMC2    C5 1785   2.379   4.501  13.683 -0.2221 -0.0008 -0.7128
  117TMC2    C6 1786   2.469   4.395  13.683  0.2463  0.5394  0.5329
  117TMC2     C 1787   2.055   4.334  13.786 -0.3091  0.2227  0.0838
  117TMC2     O 1788   2.012   4.227  13.755  0.1022  0.7576 -0.1307
  117TMC2     H 1789   2.253   4.155  13.778 -0.9994 -0.0147 -0.2686
  117TMC2    H1 1790   2.181   4.570  13.709  2.1737  1.8766  1.5522
  117TMC2    H2 1791   2.573   4.408  13.657 -0.0315 -1.1539 -1.4120
  117TMC2    C7 1792   2.439   4.633  13.647 -0.7724 -0.9181  0.2872
  117TMC2    C8 1793   2.514   4.181  13.755  0.0019 -0.5880 -0.2092
  117TMC2    O1 1794   2.549   4.632  13.592 -0.4265 -0.0572 -1.0915
  117TMC2    O2 1795   2.620   4.225  13.802 -0.0680  0.1721  0.0662
  117TMC2    O5 1796   2.501   4.083  13.665  0.6336 -0.0845 -0.1119
  117TMC2    H5 1797   2.411   4.053  13.644  0.7697 -1.0028  0.6011
  118MPD2     C 1798   2.332   0.239  13.765 -0.2390 -0.1523  0.0160
  118MPD2    C1 1799   2.392   0.149  13.677 -0.1131 -0.1093 -0.0964
  118MPD2    C2 1800   2.491   0.196  13.589  0.1362  0.1117  0.3772
  118MPD2    C3 1801   2.520   0.329  13.579 -0.2626 -0.2876 -0.7899
  118MPD2    C4 1802   2.454   0.413  13.665  0.0031  0.2464  0.5798
  118MPD2    C5 1803   2.363   0.370  13.753 -0.6824 -0.0358 -0.2225
  118MPD2     H 1804   2.536   0.128  13.517 -0.8941  0.1766 -0.3356
  118MPD2    H1 1805   2.491   0.514  13.676  1.6146 -0.5095  2.0455
  118MPD2    H2 1806   2.259   0.212  13.840 -1.1643 -0.1867 -0.9006
  118MPD2    H3 1807   2.310   0.442  13.815 -1.4108  0.7482 -1.7328
  118MPD2     N 1808   2.617   0.382  13.495 -0.3557  0.3121  0.1395
  118MPD2    H5 1809   2.633   0.482  13.499  0.2828  0.1941  0.5782
  118MPD2    N1 1810   2.364   0.011  13.699 -0.0154 -0.1170  1.0138
  118MPD2    H7 1811   2.287   4.717  13.762 -1.5547 -0.0661 -0.8439
  119MPD2     C 1812   0.939   1.245  14.036 -0.0732 -0.0091  0.0610
  119MPD2    C1 1813   0.803   1.226  14.036  0.8332 -0.6414 -0.1033
  119MPD2    C2 1814   0.736   1.197  13.913  0.3989 -0.0066  0.9326
  119MPD2    C3 1815   0.804   1.183  13.792 -0.8310  0.4978  0.6218
  119MPD2    C4 1816   0.945   1.199  13.801  0.0989 -0.5805  0.5236
  119MPD2    C5 1817   1.005   1.225  13.918 -0.0682 -0.6931 -0.4077
  119MPD2     H 1818   0.629   1.186  13.907  0.4568 -0.3806  0.5911
  119MPD2    H1 1819   1.013   1.172  13.721 -0.2961 -0.1538  0.0442
  119MPD2    H2 1820   0.989   1.248  14.132 -2.2422  3.8097  1.0911
  119MPD2    H3 1821   1.112   1.231  13.907 -0.3402  0.3215 -2.5983
  119MPD2     N 1822   0.750   1.154  13.664 -0.0071 -0.8180 -0.5536
  119MPD2    H5 1823   0.809   1.169  13.582 -1.9280 -0.3091 -1.8512
  119MPD2    N1 1824   0.737   1.232  14.164 -0.8797 -0.4550  0.2560
  119MPD2    H7 1825   0.795   1.256  14.244 -2.7969  2.4116  0.7549
  120TCq2    C1 1826   0.623   1.112  13.639  0.4828 -0.1428  0.0787
  120TCq2    O2 1827   0.538   1.070  13.720  0.4991  0.0673  0.0495
  120TCq2    C2 1828   0.576   1.113  13.500  0.2182  0.3384 -0.5893
  120TCq2    C3 1829   0.666   1.105  13.396 -0.3959 -0.4748 -0.4953
  120TCq2    C4 1830   0.613   1.105  13.270  0.1119 -0.2589  0.0167
  120TCq2    C5 1831   0.478   1.114  13.250  0.0315  0.2745  0.7690
  120TCq2    C6 1832   0.394   1.114  13.354  0.3180 -0.9307  0.1975
  120TCq2    C7 1833   0.441   1.110  13.482 -0.0906 -0.0730  0.0161
  120TCq2    C8 1834   0.257   1.094  13.323 -0.0955  0.3851  0.4389
  120TCq2    O4 1835   0.217   1.111  13.208 -0.2774  0.8734 -0.0283
  120TCq2    C9 1836   0.701   1.053  13.171 -0.4232 -0.5845  0.0274
  120TCq2    O5 1837   0.669   1.086  13.053  0.0418  0.4540  0.3403
  120TCq2    O6 1838   0.778   0.958  13.209 -0.1880 -0.0841 -0.1964
  120TCq2    H2 1839   0.772   1.088  13.406  0.0119  1.7842 -1.0280
  120TCq2    H3 1840   0.455   1.095  13.146  1.3275 -1.0144  0.7163
  120TCq2    H4 1841   0.370   1.125  13.563  2.1209  1.8006  1.6319
  121TMC2    C1 1842   2.267   2.992  14.050  0.1340 -0.3673 -0.5769
  121TMC2    C2 1843   2.283   2.907  14.158  0.6037  0.3592 -0.3537
  121TMC2    C3 1844   2.168   2.835  14.182 -0.3612 -0.2442 -0.4533
  121TMC2    C4 1845   2.142   3.028  13.999 -0.5161  0.5731 -0.6248
  121TMC2    C5 1846   2.032   2.944  14.029 -0.2893  0.7226 -0.9420
  121TMC2    C6 1847   2.042   2.842  14.119  0.3530  0.3488 -0.7728
  121TMC2     C 1848   2.375   3.091  14.033  1.0220 -0.2479  0.2368
  121TMC2     O 1849   2.469   3.071  14.109 -0.1803  0.2692  0.5210
  121TMC2     H 1850   2.373   2.892  14.217  0.6555 -0.7799 -0.7225
  121TMC2    H1 1851   2.131   3.100  13.919 -0.3018  0.5641 -0.6617
  121TMC2    H2 1852   1.952   2.790  14.150  1.7036 -0.5222  1.6796
  121TMC2    C7 1853   1.905   3.005  14.013  0.0354 -0.0486  0.3279
  121TMC2    C8 1854   2.166   2.780  14.318  0.9151 -0.5638 -0.8304
  121TMC2    O1 1855   1.902   3.126  14.042 -0.0731 -0.1817 -0.2840
  121TMC2    O2 1856   2.057   2.760  14.377 -0.4017  0.0132  0.1336
  121TMC2    O5 1857   2.276   2.699  14.320  0.1322 -0.0837 -0.0697
  121TMC2    H5 1858   2.346   2.728  14.257  2.0185 -1.5843  1.3324
  122MPD2     C 1859   2.541   3.329  13.984 -0.2784 -0.1470 -0.2971
  122MPD2    C1 1860   2.464   3.273  13.887 -0.4234 -0.0012  0.6219
  122MPD2    C2 1861   2.483   3.317  13.757  0.7181  0.7251  0.3501
  122MPD2    C3 1862   2.579   3.409  13.719  0.4596  0.4906 -0.7016
  122MPD2    C4 1863   2.647   3.470  13.819 -0.2379  0.0757 -0.4008
  122MPD2    C5 1864   2.633   3.427  13.949  0.1252 -0.1931  0.4085
  122MPD2     H 1865   2.416   3.282  13.679  1.7932  0.1165 -0.2994
  122MPD2    H1 1866   2.730   3.538  13.806  0.7610 -1.5903 -2.6827
  122MPD2    H2 1867   2.542   3.310  14.091  1.7915  1.1248 -0.0806
  122MPD2    H3 1868   2.699   3.468  14.025  0.0187 -0.7540  0.8024
  122MPD2     N 1869   2.587   3.461  13.587  0.4024  0.0311  0.4675
  122MPD2    H5 1870   2.671   3.517  13.577  0.6097  0.0198  2.1086
  122MPD2    N1 1871   2.378   3.168  13.917 -0.4321 -0.5028 -0.4793
  122MPD2    H7 1872   2.307   3.148  13.848 -1.1095  1.0160 -0.2305
  123MPD2     C 1873   4.021   1.557   9.602 -0.1079  0.7291  0.1447
  123MPD2    C1 1874   4.123   1.504   9.680 -0.5010  0.5418  0.1818
  123MPD2    C2 1875   4.242   1.573   9.679  0.4573  0.2272  0.9338
  123MPD2    C3 1876   4.265   1.689   9.610  0.5972 -0.1375 -0.5441
  123MPD2    C4 1877   4.165   1.742   9.536  0.2121  0.2717  0.1151
  123MPD2    C5 1878   4.047   1.672   9.536 -0.1999 -0.2008  0.2241
  123MPD2     H 1879   4.322   1.522   9.733  1.1364  1.2612  0.9063
  123MPD2    H1 1880   4.181   1.824   9.467  1.6382  0.3857  0.5871
  123MPD2    H2 1881   3.932   1.499   9.580  0.1276 -0.5230  2.4654
  123MPD2    H3 1882   3.972   1.710   9.468 -0.7254 -0.7454  0.4954
  123MPD2     N 1883   4.395   1.742   9.623 -0.1978 -1.1007 -0.2075
  123MPD2    H5 1884   4.466   1.684   9.666  0.6688 -0.5904 -0.9601
  123MPD2    N1 1885   4.106   1.373   9.747  0.8301 -0.4813 -0.5499
  123MPD2    H7 1886   4.018   1.322   9.739  0.2025  0.6726 -1.0388
  124TCq2    C1 1887   4.441   1.865   9.588  0.1404 -0.6928 -0.3295
  124TCq2    O2 1888   4.392   1.949   9.512 -0.4647  0.4941 -0.1002
  124TCq2    C2 1889   4.583   1.878   9.619  0.6503 -0.1840 -0.0756
  124TCq2    C3 1890   4.655   1.955   9.536 -0.5533  0.2812 -0.4545
  124TCq2    C4 1891   0.067   1.953   9.549 -0.7527  0.2805 -0.2580
  124TCq2    C5 1892   0.133   1.875   9.639 -0.7263 -0.1168 -0.6954
  124TCq2    C6 1893   0.056   1.811   9.728 -0.2474 -0.0296 -0.2344
  124TCq2    C7 1894   4.645   1.809   9.722 -0.3666 -0.2150 -0.2837
  124TCq2    C8 1895   0.109   1.733   9.841  0.1557 -0.1932  0.0259
  124TCq2    O4 1896   0.034   1.644   9.880  0.0620 -0.5957  0.3525
  124TCq2    C9 1897   0.153   2.021   9.455 -0.2314 -1.0902  0.2888
  124TCq2    O5 1898   0.268   1.976   9.433 -0.4696  0.0505  0.3639
  124TCq2    O6 1899   0.096   2.096   9.372 -0.0191  0.1898  0.1418
  124TCq2    H2 1900   4.608   2.006   9.453 -1.3367 -1.2204 -0.9387
  124TCq2    H3 1901   0.241   1.878   9.639 -0.7371  0.2372 -1.0146
  124TCq2    H4 1902   4.584   1.769   9.802  1.3265  0.9884  1.5912
  125TMC2    C1 1903   1.224   3.821   9.382 -0.1176 -0.5357 -0.1619
  125TMC2    C2 1904   1.351   3.858   9.425  0.7824  0.1029 -0.3798
  125TMC2    C3 1905   1.427   3.749   9.458  0.1630 -0.7835 -0.2018
  125TMC2    C4 1906   1.177   3.696   9.363 -0.3918 -0.7493  0.0021
  125TMC2    C5 1907   1.261   3.591   9.388  0.4049 -0.6686  0.0439
  125TMC2    C6 1908   1.386   3.619   9.444  0.1336  0.0773  0.2725
  125TMC2     C 1909   1.128   3.925   9.364 -0.8780  0.1726 -0.0594
  125TMC2     O 1910   1.013   3.894   9.381  0.1157  0.2187  0.1151
  125TMC2     H 1911   1.374   3.955   9.469  3.1416 -0.3548 -0.5852
  125TMC2    H1 1912   1.091   3.662   9.307  0.2228  0.5981 -1.7409
  125TMC2    H2 1913   1.455   3.546   9.484 -2.3141 -1.6199  1.4189
  125TMC2    C7 1914   1.205   3.458   9.381 -0.3898  0.0607  0.5814
  125TMC2    C8 1915   1.566   3.758   9.495 -0.1798 -0.6597 -0.2775
  125TMC2    O1 1916   1.080   3.443   9.380  0.1254 -0.2014  0.3034
  125TMC2    O2 1917   1.613   3.681   9.575  0.1109 -0.7228 -0.0529
  125TMC2    O5 1918   1.600   3.890   9.489  0.5454  0.1407  0.1885
  125TMC2    H5 1919   1.565   3.930   9.406 -2.1349  0.3818  1.4454
  126MPD1     C 1920   0.992   4.408   9.378 -0.5418 -0.1003 -0.5516
  126MPD1    C1 1921   1.125   4.410   9.332 -0.3296  0.9308  0.3424
  126MPD1    C2 1922   1.188   4.288   9.332  0.6668 -0.3111  0.4680
  126MPD1    C3 1923   1.122   4.172   9.375 -0.9049 -0.1060  0.3916
  126MPD1    C4 1924   0.987   4.181   9.414 -0.1232  0.0369 -0.2695
  126MPD1    C5 1925   0.919   4.298   9.420 -0.4728  0.1756  0.4464
  126MPD1     H 1926   1.292   4.278   9.303  0.8232  3.5555 -0.2317
  126MPD1    H1 1927   0.932   4.091   9.441  2.4129 -1.1130  1.1593
  126MPD1    H2 1928   0.935   4.501   9.384  0.2336  0.4042 -0.9630
  126MPD1    H3 1929   0.814   4.310   9.444  0.0359 -0.6374  3.1014
  126MPD1     N 1930   1.186   4.047   9.367 -0.0187 -0.6316  0.1160
  126MPD1    H5 1931   1.287   4.050   9.353 -0.1131 -0.5179 -0.5424
  126MPD1    N1 1932   1.187   4.530   9.306 -0.3667  0.1755  0.9498
  126MPD1    H6 1933   1.266   4.535   9.242 -0.6468  1.4790  0.7072
  126MPD1    H7 1934   1.124   4.607   9.283  0.1136  0.1613 -0.4551
  127MPD2     C 1935   1.599   1.633   9.750 -0.2027  0.2642 -0.3081
  127MPD2    C1 1936   1.710   1.566   9.800 -0.2143  0.3666  0.2042
  127MPD2    C2 1937   1.817   1.644   9.845  0.3529  0.0431 -0.2299
  127MPD2    C3 1938   1.825   1.777   9.813  0.3820  0.4102 -0.2570
  127MPD2    C4 1939   1.715   1.847   9.760  0.4072  0.1837 -0.7147
  127MPD2    C5 1940   1.599   1.772   9.729 -0.2067  0.4193 -0.1660
  127MPD2     H 1941   1.911   1.594   9.868  0.9855  0.6892 -1.4115
  127MPD2    H1 1942   1.719   1.952   9.733  1.2032  0.1502 -0.7291
  127MPD2    H2 1943   1.508   1.582   9.722  0.0355 -0.3741  0.0710
  127MPD2    H3 1944   1.516   1.827   9.686 -0.4819  0.9838  1.0669
  127MPD2     N 1945   1.947   1.839   9.837  0.0529 -0.2699 -0.3567
  127MPD2    H5 1946   2.024   1.778   9.860  0.2776 -0.3058 -1.2012
  127MPD2    N1 1947   1.714   1.423   9.799 -0.2158 -0.7853  0.5563
  127MPD2    H7 1948   1.625   1.378   9.781 -0.3655  0.0207 -0.7185
  128TCq2    C1 1949   1.822   1.342   9.848  1.1976  0.0420  0.3869
  128TCq2    O2 1950   1.932   1.371   9.886 -0.1049 -0.2611  0.2217
  128TCq2    C2 1951   1.785   1.201   9.869 -0.1302  0.0279  0.4937
  128TCq2    C3 1952   1.869   1.119   9.931  0.3917  0.1195 -0.1530
  128TCq2    C4 1953   1.826   0.992   9.966 -0.3918 -0.1835  0.4358
  128TCq2    C5 1954   1.706   0.942   9.923  0.4219  0.1164 -0.4453
  128TCq2    C6 1955   1.630   1.024   9.854  0.1474  1.1954 -0.3032
  128TCq2    C7 1956   1.668   1.147   9.816 -0.3000 -0.2128 -0.4907
  128TCq2    C8 1957   1.487   0.995   9.832  0.0104 -0.3046 -0.0138
  128TCq2    O4 1958   1.427   1.064   9.751  0.1043  0.0050 -0.0735
  128TCq2    C9 1959   1.912   0.903  10.041  0.7518  0.6163 -0.0464
  128TCq2    O5 1960   2.020   0.944  10.085 -0.1107 -0.1839 -0.2389
  128TCq2    O6 1961   1.878   0.779  10.046  0.0320 -0.5301 -0.1552
  128TCq2    H2 1962   1.969   1.149   9.961  0.2191 -0.3281  0.8686
  128TCq2    H3 1963   1.684   0.838   9.944  0.2839 -0.1339 -1.8728
  128TCq2    H4 1964   1.597   1.216   9.772 -0.8333 -0.2783  0.2757
  129MPD2     C 1965   0.631   2.647   1.019  0.1628  0.0462 -0.3652
  129MPD2    C1 1966   0.667   2.760   1.088 -0.4801  0.8588  0.0720
  129MPD2    C2 1967   0.700   2.879   1.018 -0.5981 -0.6821  0.5185
  129MPD2    C3 1968   0.704   2.885   0.883 -0.1680 -0.0546 -0.1528
  129MPD2    C4 1969   0.667   2.770   0.816  0.3100 -0.4454 -0.5789
  129MPD2    C5 1970   0.634   2.656   0.887  0.8251 -0.1798  0.2354
  129MPD2     H 1971   0.718   2.969   1.075  0.6935 -1.6730  1.6600
  129MPD2    H1 1972   0.661   2.756   0.709 -0.5503 -0.5279 -0.5246
  129MPD2    H2 1973   0.598   2.556   1.067 -2.1220  1.5377  0.9439
  129MPD2    H3 1974   0.598   2.568   0.834  2.4947  0.1602 -1.4816
  129MPD2     N 1975   0.743   3.004   0.817  0.2539 -0.0008 -0.3975
  129MPD2    H5 1976   0.755   3.083   0.879 -0.0539  0.0506 -0.4041
  129MPD2    N1 1977   0.682   2.756   1.230  0.3342 -0.3335 -0.2677
  129MPD2    H7 1978   0.738   2.828   1.275  0.4358  0.4259 -1.6056
  130TCq2    C1 1979   0.643   2.650   1.314  0.2678  0.1990 -0.7228
  130TCq2    O2 1980   0.579   2.548   1.294  0.4741 -1.0643 -0.6347
  130TCq2    C2 1981   0.681   2.670   1.449  0.6338 -0.3244 -0.8190
  130TCq2    C3 1982   0.757   2.780   1.492 -0.4795  0.0085  0.5231
  130TCq2    C4 1983   0.777   2.790   1.626 -0.2978 -0.6236  0.6062
  130TCq2    C5 1984   0.720   2.703   1.715 -0.6987  0.4784  0.7042
  130TCq2    C6 1985   0.650   2.599   1.668  0.0113  0.1350  0.1760
  130TCq2    C7 1986   0.633   2.578   1.538 -0.2063 -0.5251  0.3472
  130TCq2    C8 1987   0.619   2.483   1.751  0.4633 -0.0945 -0.2757
  130TCq2    O4 1988   0.512   2.436   1.711 -0.3491 -0.6854 -0.3666
  130TCq2    C9 1989   0.854   2.902   1.692  0.4973  0.0245  0.0657
  130TCq2    O5 1990   0.832   2.927   1.811  0.3696 -0.6324 -0.0463
  130TCq2    O6 1991   0.912   2.982   1.613 -0.2084  0.0704  0.4178
  130TCq2    H2 1992   0.804   2.848   1.423  3.3284 -2.8023  0.3033
  130TCq2    H3 1993   0.735   2.726   1.820  0.7386  1.1022  0.3717
  130TCq2    H4 1994   0.580   2.491   1.500  0.5698 -0.6381 -0.4623
  131MPD2     C 1995   4.630   1.009  10.537  0.2556  0.1834 -0.0769
  131MPD2    C1 1996   4.632   1.127  10.457 -0.5041 -0.0446  0.0298
  131MPD2    C2 1997   4.552   1.132  10.346  0.2059  0.1001  0.1512
  131MPD2    C3 1998   4.454   1.039  10.323 -0.0293  0.0987  0.3094
  131MPD2    C4 1999   4.456   0.921  10.393  0.1787 -0.2132  0.4516
  131MPD2    C5 2000   4.541   0.906  10.503 -0.5936  0.3080  0.7378
  131MPD2     H 2001   4.562   1.221  10.286  2.9769  0.1725  0.7140
  131MPD2    H1 2002   4.380   0.846  10.376  0.4558 -1.1962  3.4728
  131MPD2    H2 2003   4.689   1.008  10.627  0.2804  0.9958 -0.0806
  131MPD2    H3 2004   4.538   0.821  10.571  1.6894 -0.2021  0.1925
  131MPD2     N 2005   4.373   1.068  10.208  0.5114 -0.1039  0.3490
  131MPD2    H5 2006   4.412   1.135  10.143  0.7864  1.3105  1.9772
  131MPD2    N1 2007   4.716   1.225  10.491  0.1810  0.3388  0.1987
  131MPD2    H7 2008   0.037   1.208  10.580  1.3379 -3.1064 -1.0556
  132TCq2    C1 2009   0.244   1.743  10.365 -0.3784  0.1880  0.1197
  132TCq2    O2 2010   0.138   1.774  10.312  0.3237  0.0106  0.0955
  132TCq2    C2 2011   0.242   1.616  10.441 -0.5997  0.6804  0.9691
  132TCq2    C3 2012   0.352   1.554  10.492 -0.1157 -0.1566  0.5051
  132TCq2    C4 2013   0.342   1.443  10.559 -0.5761 -0.6198 -0.0701
  132TCq2    C5 2014   0.220   1.374  10.560 -0.6174  0.0756 -0.0291
  132TCq2    C6 2015   0.114   1.428  10.490 -0.1124 -1.0267 -0.0443
  132TCq2    C7 2016   0.122   1.555  10.442 -0.5139 -0.4804  0.2362
  132TCq2    C8 2017   0.005   1.346  10.434 -0.1308  1.3094  0.1088
  132TCq2    O4 2018   4.658   1.405  10.355 -0.1104 -0.3507  0.0541
  132TCq2    C9 2019   0.454   1.380  10.635  0.2290  0.8478 -0.6384
  132TCq2    O5 2020   0.556   1.451  10.639  0.1719  0.4427 -0.1243
  132TCq2    O6 2021   0.452   1.259  10.673 -0.1704  0.7576  0.0890
  132TCq2    H2 2022   0.446   1.606  10.505 -0.4881  0.4032  0.9730
  132TCq2    H3 2023   0.223   1.274  10.602  0.8616 -0.3461 -1.1223
  132TCq2    H4 2024   0.039   1.595  10.386 -0.8398  1.2430  1.9466
  133MPD2     C 2025   4.365   3.387   9.929 -0.2788 -0.0707 -0.1093
  133MPD2    C1 2026   4.466   3.307   9.867  0.4145 -0.3145 -0.0515
  133MPD2    C2 2027   4.446   3.172   9.844  0.0073  0.0628 -0.0880
  133MPD2    C3 2028   4.326   3.113   9.877  1.0349 -0.1263  0.4974
  133MPD2    C4 2029   4.224   3.191   9.927  0.5518  0.2111  0.2933
  133MPD2    C5 2030   4.247   3.324   9.954 -0.0285 -0.4562  0.7208
  133MPD2     H 2031   4.526   3.118   9.795  0.6725  0.5622  0.4583
  133MPD2    H1 2032   4.126   3.146   9.939  0.9760 -0.7735  0.0070
  133MPD2    H2 2033   4.379   3.493   9.946 -0.5976  0.0988 -0.8695
  133MPD2    H3 2034   4.170   3.387   9.998 -0.5256  0.2491 -1.1706
  133MPD2     N 2035   4.294   2.978   9.843  0.1582  0.1048 -0.1817
  133MPD2    H5 2036   4.197   2.961   9.864 -0.1219  0.7890 -0.9184
  133MPD2    N1 2037   4.584   3.381   9.823 -0.1600  0.7961  0.5239
  133MPD2    H7 2038   4.584   3.479   9.847 -1.2314  0.2787  2.6703
  134TCq2    C1 2039   4.693   3.337   9.743  0.4673  0.4503  0.6158
  134TCq2    O2 2040   4.718   3.226   9.700  0.2364 -0.0555 -0.3520
  134TCq2    C2 2041   0.063   3.448   9.714 -0.4332  0.4536  0.2731
  134TCq2    C3 2042   0.148   3.422   9.607 -0.1174  0.1780 -0.2306
  134TCq2    C4 2043   0.254   3.512   9.593 -0.4511 -0.3608  1.0333
  134TCq2    C5 2044   0.277   3.616   9.680 -0.1579 -0.0915  0.3338
  134TCq2    C6 2045   0.192   3.629   9.786 -0.2838  0.4054 -0.1959
  134TCq2    C7 2046   0.089   3.540   9.805 -0.0162 -0.2004 -0.8795
  134TCq2    C8 2047   0.220   3.730   9.886 -0.0907 -0.5165 -0.3533
  134TCq2    O4 2048   0.332   3.769   9.887  0.0903  0.2426  0.0615
  134TCq2    C9 2049   0.341   3.496   9.482 -0.3467 -0.3909 -0.2347
  134TCq2    O5 2050   0.327   3.388   9.418  0.8929  0.6883  0.4501
  134TCq2    O6 2051   0.419   3.587   9.444 -0.9130  0.4989 -0.5607
  134TCq2    H2 2052   0.132   3.341   9.536  1.1782  0.9859 -1.4552
  134TCq2    H3 2053   0.351   3.692   9.656  0.7584 -0.8627  0.7371
  134TCq2    H4 2054   0.039   3.538   9.901  0.3924  2.8589 -0.5828
  135MPD2     C 2055   2.030   3.857   9.440  0.2524 -0.2189 -0.3267
  135MPD2    C1 2056   1.968   3.785   9.545 -0.7280 -0.7045  0.9705
  135MPD2    C2 2057   1.950   3.653   9.521  0.2304  0.0577  0.5584
  135MPD2    C3 2058   2.024   3.583   9.427 -0.1402  0.9918 -1.1517
  135MPD2    C4 2059   2.077   3.651   9.330  1.0768 -0.2189  0.9490
  135MPD2    C5 2060   2.084   3.787   9.337  0.1672 -0.1342 -0.2226
  135MPD2     H 2061   1.900   3.596   9.598 -2.3030  1.3013 -0.1592
  135MPD2    H1 2062   2.121   3.593   9.250 -1.6847  0.6822 -1.2237
  135MPD2    H2 2063   2.052   3.963   9.447  1.5110 -0.2776 -3.5986
  135MPD2    H3 2064   2.138   3.837   9.257 -1.8557 -1.8036 -2.6205
  135MPD2     N 2065   2.025   3.445   9.424 -0.2008 -0.1778 -0.2672
  135MPD2    H5 2066   2.054   3.407   9.335 -1.3837  0.4279 -0.9227
  135MPD2    N1 2067   1.905   3.841   9.665  0.3731  0.4567 -0.4984
  135MPD2    H7 2068   1.847   3.778   9.718 -0.9388  0.3042 -2.1299
  136TCq2    C1 2069   1.923   3.973   9.699  0.1831  0.9253 -0.2913
  136TCq2    O2 2070   2.002   4.056   9.659  0.2798  0.1785  0.0592
  136TCq2    C2 2071   1.830   4.029   9.802  0.2436 -0.2230  0.7615
  136TCq2    C3 2072   1.860   4.154   9.846 -0.5246  0.6159  0.1525
  136TCq2    C4 2073   1.758   4.230   9.891 -0.0550 -0.8889 -0.3191
  136TCq2    C5 2074   1.628   4.183   9.883  0.3397 -0.0211  0.4082
  136TCq2    C6 2075   1.615   4.051   9.854 -0.2683 -0.4226 -0.1406
  136TCq2    C7 2076   1.717   3.969   9.814  0.2294  0.1550 -0.6068
  136TCq2    C8 2077   1.478   4.008   9.823 -0.0639  0.0578 -0.1403
  136TCq2    O4 2078   1.391   4.093   9.836 -0.3777 -0.3086 -0.0040
  136TCq2    C9 2079   1.772   4.370   9.930  0.7026 -0.8892 -0.3336
  136TCq2    O5 2080   1.663   4.433   9.947 -0.0752 -0.3869 -0.1604
  136TCq2    O6 2081   1.882   4.420   9.909  0.3976  0.0586  0.6952
  136TCq2    H2 2082   1.957   4.201   9.844  0.8021 -2.0275  1.7321
  136TCq2    H3 2083   1.538   4.232   9.919 -1.4142 -2.9311  0.0263
  136TCq2    H4 2084   1.697   3.870   9.773  1.3524 -0.5243  0.4998
  137MPD2     C 2085   1.818   1.665  10.626  0.3092 -0.1333 -0.1567
  137MPD2    C1 2086   1.731   1.680  10.524  0.0068 -0.2906 -0.2909
  137MPD2    C2 2087   1.679   1.804  10.501 -0.0317 -1.0617  0.5169
  137MPD2    C3 2088   1.739   1.920  10.555  0.2619 -0.6721  0.4004
  137MPD2    C4 2089   1.837   1.905  10.656 -0.0768 -0.1384 -0.1752
  137MPD2    C5 2090   1.865   1.774  10.692  0.0464  0.0964 -0.3269
  137MPD2     H 2091   1.610   1.810  10.418 -2.1881  2.2381  2.5511
  137MPD2    H1 2092   1.874   1.988  10.715  1.0575 -0.2472 -0.7096
  137MPD2    H2 2093   1.868   1.572  10.649 -0.2399 -0.1093  1.0792
  137MPD2    H3 2094   1.943   1.769  10.766 -0.9022  3.5684  0.9313
  137MPD2     N 2095   1.693   2.049  10.513  0.0791 -0.1172  0.3933
  137MPD2    H5 2096   1.607   2.052  10.459  0.1274 -1.5004  0.2260
  137MPD2    N1 2097   1.691   1.576  10.439  0.0562 -0.2380 -0.0807
  137MPD2    H7 2098   1.619   1.604  10.374 -0.4619  0.1743  0.6646
  138TCq2    C1 2099   1.746   1.446  10.431 -0.1459  0.2703 -0.1247
  138TCq2    O2 2100   1.834   1.395  10.497 -0.1145 -0.1927 -0.7807
  138TCq2    C2 2101   1.686   1.362  10.329  0.7168 -0.3748  0.6964
  138TCq2    C3 2102   1.682   1.225  10.356  0.3103 -0.3370  0.1263
  138TCq2    C4 2103   1.595   1.143  10.281 -0.2451 -0.3198  0.5415
  138TCq2    C5 2104   1.526   1.198  10.168 -0.1457 -0.0918  0.5499
  138TCq2    C6 2105   1.539   1.331  10.155  0.3368  1.1935 -0.6432
  138TCq2    C7 2106   1.608   1.420  10.236  0.4534 -0.5966  0.6458
  138TCq2    C8 2107   1.463   1.382  10.042  0.5416 -0.0592 -0.4910
  138TCq2    O4 2108   1.428   1.300   9.961 -0.1211 -0.1036 -0.2374
  138TCq2    C9 2109   1.583   1.002  10.311 -0.1741  0.1107  0.4447
  138TCq2    O5 2110   1.667   0.954  10.391  0.4333 -0.2896 -0.1347
  138TCq2    O6 2111   1.493   0.934  10.263 -0.3228  0.5213  0.0492
  138TCq2    H2 2112   1.731   1.191  10.446 -0.8336 -1.0153  0.4828
  138TCq2    H3 2113   1.469   1.131  10.105  1.0210  0.2225 -0.8470
  138TCq2    H4 2114   1.630   1.523  10.210 -1.2738 -0.2938  0.3778
  139TMC2    C1 2115   1.884   0.592  12.973  0.1629 -0.0765  0.4664
  139TMC2    C2 2116   1.840   0.582  12.845  0.2107 -0.1973  0.1466
  139TMC2    C3 2117   1.793   0.694  12.782 -0.4825  0.0501  0.2194
  139TMC2    C4 2118   1.887   0.707  13.043 -0.2403  0.2618  0.1614
  139TMC2    C5 2119   1.843   0.815  12.973 -0.5451 -0.9813 -0.2530
  139TMC2    C6 2120   1.799   0.813  12.841 -0.5430  0.7881 -0.1487
  139TMC2     C 2121   1.935   0.472  13.037  0.2697  0.9189  0.2747
  139TMC2     O 2122   1.905   0.366  12.983 -0.7437 -0.3282  0.3638
  139TMC2     H 2123   1.840   0.491  12.786 -0.6175 -0.7883  1.0563
  139TMC2    H1 2124   1.913   0.716  13.148  1.1760  0.3637 -0.1958
  139TMC2    H2 2125   1.764   0.908  12.802  0.9038  0.4564 -2.2781
  139TMC2    C7 2126   1.819   0.945  13.033  0.1713  0.2070 -0.3639
  139TMC2    C8 2127   1.744   0.668  12.654 -0.3373  0.0334  0.5291
  139TMC2    O1 2128   1.732   1.023  12.993  0.0623  0.5838 -0.0129
  139TMC2    O2 2129   1.662   0.581  12.622 -0.3045 -0.2381  0.0566
  139TMC2    O5 2130   1.746   0.789  12.582  0.0361 -0.0748  0.3139
  139TMC2    H5 2131   1.820   0.843  12.616  0.2828 -0.1458 -0.1164
  140MPD2     C 2132   2.119   0.402  13.347 -0.8035  1.0056 -0.3647
  140MPD2    C1 2133   2.065   0.376  13.226 -0.1913  0.7016  0.1055
  140MPD2    C2 2134   2.069   0.246  13.176 -0.7674  0.1609  0.3244
  140MPD2    C3 2135   2.130   0.147  13.252 -0.8644 -0.0826 -0.3166
  140MPD2    C4 2136   2.184   0.178  13.367 -0.4129  0.4407  0.1832
  140MPD2    C5 2137   2.180   0.305  13.421 -0.1457  0.3127  0.7530
  140MPD2     H 2138   2.040   0.211  13.078 -0.8794 -1.0909  0.8092
  140MPD2    H1 2139   2.231   0.102  13.430 -0.5619 -1.6223 -2.1803
  140MPD2    H2 2140   2.118   0.501  13.391 -0.0209  1.1723 -0.7108
  140MPD2    H3 2141   2.223   0.327  13.518 -0.3247 -0.3539  0.9821
  140MPD2     N 2142   2.139   0.018  13.194 -0.4338 -0.0442 -0.0963
  140MPD2    H5 2143   2.112   0.018  13.096  3.2294 -0.7055 -1.0764
  140MPD2    N1 2144   2.009   0.487  13.158 -0.3277 -0.0020 -0.3776
  140MPD2    H7 2145   2.008   0.575  13.207 -1.3215 -0.1420 -0.1527
  141TCq2    C1 2146   2.840   2.020  14.243 -0.1700  0.8564  0.2587
  141TCq2    O2 2147   2.756   2.064  14.165  0.8478  0.3947  0.1435
  141TCq2    C2 2148   2.823   2.014  14.387  0.1528 -0.2624  0.8541
  141TCq2    C3 2149   2.861   1.902  14.443  0.4557  0.1761 -0.6162
  141TCq2    C4 2150   2.841   1.886  14.577  0.3111  0.2185 -0.1761
  141TCq2    C5 2151   2.799   1.992  14.648  1.1729  0.6415 -0.0628
  141TCq2    C6 2152   2.781   2.112  14.587 -0.3966 -0.1201 -0.1127
  141TCq2    C7 2153   2.788   2.124  14.452 -0.0893  0.2665  0.2968
  141TCq2    C8 2154   2.705   2.214  14.659  0.2604 -1.1256  0.6613
  141TCq2    O4 2155   2.648   2.182  14.762  0.3453 -0.5697 -0.4382
  141TCq2    C9 2156   2.861   1.754  14.637 -1.0271  0.3364  0.0329
  141TCq2    O5 2157   2.848   1.749  14.763 -0.6286  0.1292  0.3019
  141TCq2    O6 2158   2.884   1.656  14.564  0.4474  0.4186 -0.9439
  141TCq2    H2 2159   2.898   1.821  14.380 -2.5034 -0.2794 -1.7731
  141TCq2    H3 2160   2.802   1.992  14.756 -1.2475 -0.0357 -0.0121
  141TCq2    H4 2161   2.787   2.217  14.398 -0.6500  0.8829  1.3758
  142MPD2     C 2162   0.017   0.534  10.689 -0.0355 -0.4763  0.1579
  142MPD2    C1 2163   4.699   0.554  10.563 -0.1708 -0.5207  0.9538
  142MPD2    C2 2164   0.029   0.663  10.495 -0.5282 -0.3001  0.4339
  142MPD2    C3 2165   0.123   0.749  10.552 -0.2633  0.4633 -0.1734
  142MPD2    C4 2166   0.154   0.735  10.680  0.3122 -0.0406  0.9579
  142MPD2    C5 2167   0.107   0.617  10.743 -0.7889 -0.3016  0.0682
  142MPD2     H 2168   4.718   0.683  10.395  1.8329  1.5760 -0.0526
  142MPD2    H1 2169   0.242   0.774  10.730  0.3593 -0.4412  1.1885
  142MPD2    H2 2170   4.703   0.452  10.748 -1.3718 -0.1140 -0.2340
  142MPD2    H3 2171   0.140   0.598  10.844 -0.1078  0.0208 -0.0903
  142MPD2     N 2172   0.189   0.854  10.482 -0.2495 -0.3089  1.0951
  142MPD2    H5 2173   0.258   0.903  10.538 -0.9263  0.5239  1.1845
  142MPD2    N1 2174   4.624   0.451  10.506 -0.3167  0.3205  0.2169
  142MPD2    H7 2175   4.615   0.371  10.567 -0.8191 -0.0308 -0.3121
  143TCq2    C1 2176   0.178   0.876  10.347  0.2024  0.2260  0.0759
  143TCq2    O2 2177   0.114   0.833  10.257 -0.2734  0.1750 -0.1014
  143TCq2    C2 2178   0.282   0.968  10.316  0.1887 -0.3083 -1.0365
  143TCq2    C3 2179   0.409   0.948  10.372  0.2949 -0.2953 -0.4461
  143TCq2    C4 2180   0.491   1.058  10.380 -0.2785 -0.2681  0.5500
  143TCq2    C5 2181   0.443   1.182  10.332  0.4507  0.3332 -0.4444
  143TCq2    C6 2182   0.319   1.195  10.270  0.9685  0.1762  0.6110
  143TCq2    C7 2183   0.236   1.091  10.278  0.1470 -0.1170  0.0628
  143TCq2    C8 2184   0.288   1.310  10.180  0.2686  0.0447 -0.6958
  143TCq2    O4 2185   0.190   1.313  10.110 -1.2951  0.1333 -0.3692
  143TCq2    C9 2186   0.614   1.045  10.437  0.5856  0.3298  0.1458
  143TCq2    O5 2187   0.658   0.932  10.464 -0.0086 -0.2073 -0.2003
  143TCq2    O6 2188   0.666   1.157  10.466  0.5030  0.2475 -0.2572
  143TCq2    H2 2189   0.446   0.848  10.392 -0.4598  0.1148  2.9872
  143TCq2    H3 2190   0.504   1.272  10.340  1.0337 -0.2718  2.0256
  143TCq2    H4 2191   0.139   1.098  10.230  0.1953  0.1938  0.0057
  144MPD2     C 2192   2.574   4.396   0.714  0.5535  0.6469  0.5952
  144MPD2    C1 2193   2.667   4.297   0.712  0.0019 -0.1846  0.0685
  144MPD2    C2 2194   2.763   4.287   0.813  0.2081  0.6950  0.2713
  144MPD2    C3 2195   2.762   4.373   0.917 -0.0533 -0.1450  0.3305
  144MPD2    C4 2196   2.664   4.470   0.924  0.4633  0.1648 -0.4415
  144MPD2    C5 2197   2.567   4.479   0.824 -1.3903 -0.2759 -0.4066
  144MPD2     H 2198   2.842   4.213   0.806 -1.2359 -0.7867 -0.3336
  144MPD2    H1 2199   2.647   4.534   1.009  1.6944  0.0822 -0.1302
  144MPD2    H2 2200   2.513   4.414   0.626 -0.7127 -1.3002  1.0731
  144MPD2    H3 2201   2.501   4.564   0.828  0.7462  1.5654 -4.6007
  144MPD2     N 2202   2.871   4.387   1.009 -0.1146 -0.0836  0.4003
  144MPD2    H5 2203   2.856   4.469   1.066  1.1898 -0.3499  1.1232
  144MPD2    N1 2204   2.681   4.205   0.605 -0.4196  0.1542 -0.0262
  144MPD2    H7 2205   2.744   4.126   0.610 -1.9193 -1.0381  0.1747
  145TCq2    C1 2206   2.982   4.307   1.022 -0.1562  0.5681 -1.3095
  145TCq2    O2 2207   3.016   4.202   0.964  0.2039 -0.2999  0.0504
  145TCq2    C2 2208   3.080   4.356   1.118  0.0101  0.7078  0.2938
  145TCq2    C3 2209   3.210   4.308   1.106  0.5396  0.0817  0.1076
  145TCq2    C4 2210   3.304   4.361   1.189 -0.0698 -0.2302  0.1979
  145TCq2    C5 2211   3.272   4.460   1.278  0.0715  0.5389 -0.0095
  145TCq2    C6 2212   3.144   4.509   1.277 -0.2334  0.3702 -0.9730
  145TCq2    C7 2213   3.047   4.460   1.197 -0.2659  0.3155 -0.0075
  145TCq2    C8 2214   3.124   4.633   1.349  0.5586  0.3029  0.3573
  145TCq2    O4 2215   3.213   4.707   1.382 -0.2918  0.3094  0.2167
  145TCq2    C9 2216   3.442   4.320   1.169 -0.0094 -0.6951  0.1688
  145TCq2    O5 2217   3.527   4.370   1.251  0.1168 -0.4131 -0.2477
  145TCq2    O6 2218   3.477   4.258   1.065  0.7055 -0.1234 -0.3153
  145TCq2    H2 2219   3.237   4.242   1.024 -1.6185  1.9227 -2.0933
  145TCq2    H3 2220   3.347   4.506   1.341  0.0741 -1.1693  1.2510
  145TCq2    H4 2221   2.944   4.494   1.198 -0.4787 -0.2792 -1.8776
  146TMC2    C1 2222   0.358   3.115  11.923 -0.5572  0.1842  0.2505
  146TMC2    C2 2223   0.337   3.162  11.793 -0.4965  0.3196 -0.2388
  146TMC2    C3 2224   0.417   3.109  11.698  0.0457  0.0883 -0.0282
  146TMC2    C4 2225   0.470   3.048  11.957 -0.2243  0.7110 -0.3807
  146TMC2    C5 2226   0.553   3.001  11.855  0.7519 -0.2620  0.5349
  146TMC2    C6 2227   0.533   3.038  11.720 -0.1091 -0.8744 -0.0833
  146TMC2     C 2228   0.269   3.177  12.020  0.1320  0.3909  0.4051
  146TMC2     O 2229   0.187   3.256  11.979  0.1819  0.4210  0.0747
  146TMC2     H 2230   0.243   3.211  11.767 -1.3815 -1.2784 -0.0741
  146TMC2    H1 2231   0.492   3.042  12.063  1.4806  1.6608 -0.6836
  146TMC2    H2 2232   0.604   3.012  11.642  0.1058 -1.6715  0.3785
  146TMC2    C7 2233   0.676   2.940  11.898  0.7324  0.7097 -0.0962
  146TMC2    C8 2234   0.366   3.111  11.562  0.3375 -0.1263  0.1423
  146TMC2    O1 2235   0.771   2.947  11.816  0.3134 -0.3368  0.5194
  146TMC2    O2 2236   0.247   3.129  11.532  0.4584 -0.7389 -0.9465
  146TMC2    O5 2237   0.464   3.165  11.484  0.2197  0.3182  0.4064
  146TMC2    H5 2238   0.555   3.156  11.520 -0.7152 -3.6230  1.8324
  147MPD2     C 2239   0.957   2.702  12.256  0.0239  0.2279 -0.1684
  147MPD2    C1 2240   0.824   2.699  12.286 -0.3127 -0.5636  0.6879
  147MPD2    C2 2241   0.736   2.750  12.200 -0.4677 -0.6074 -0.2805
  147MPD2    C3 2242   0.765   2.806  12.079  0.2618  0.4401 -0.1374
  147MPD2    C4 2243   0.900   2.810  12.046 -0.2342 -0.0187  0.1304
  147MPD2    C5 2244   0.992   2.762  12.132  0.3424  0.1214  1.0781
  147MPD2     H 2245   0.630   2.752  12.222 -0.1260  0.2591  1.3538
  147MPD2    H1 2246   0.937   2.861  11.958  0.7751  1.6558  1.5440
  147MPD2    H2 2247   1.034   2.666  12.323 -0.8497  1.0364  1.2640
  147MPD2    H3 2248   1.097   2.787  12.119 -0.3577  3.2118  1.1641
  147MPD2     N 2249   0.659   2.864  12.014  0.1808  0.0525 -0.0305
  147MPD2    H5 2250   0.564   2.854  12.048  0.2070  0.1887  0.0823
  147MPD2    N1 2251   0.791   2.654  12.413  0.3127 -0.4595 -0.5207
  147MPD2    H7 2252   0.874   2.641  12.469 -0.5874 -1.6534  0.5290
  148MPD2     C 2253   4.096   2.489  10.581 -0.8783  0.4541  0.1379
  148MPD2    C1 2254   4.151   2.364  10.559  0.1039 -0.4586 -0.4177
  148MPD2    C2 2255   4.090   2.275  10.481 -0.9415 -0.8856  0.1556
  148MPD2    C3 2256   3.982   2.312  10.401 -0.3730 -0.6434 -0.4674
  148MPD2    C4 2257   3.926   2.434  10.415  0.6241 -0.2277 -0.3782
  148MPD2    C5 2258   3.981   2.512  10.513 -0.1546  0.1052 -0.1673
  148MPD2     H 2259   4.129   2.174  10.472  2.0311  0.1775  1.0968
  148MPD2    H1 2260   3.842   2.464  10.354  1.1408  3.0674  0.5169
  148MPD2    H2 2261   4.133   2.567  10.647 -0.5579  0.9569 -0.6365
  148MPD2    H3 2262   3.934   2.610  10.521 -0.7175 -0.3004  1.5093
  148MPD2     N 2263   3.924   2.216  10.313 -0.3978 -0.6031  1.0740
  148MPD2    H5 2264   3.829   2.231  10.281  0.6088  1.3747 -0.9381
  148MPD2    N1 2265   4.263   2.316  10.631  0.3124 -0.5700 -0.2325
  148MPD2    H7 2266   4.286   2.217  10.632 -1.7103 -1.0297  0.3788
  149TCq2    C1 2267   4.353   2.405  10.689 -0.0377  0.4258 -0.5070
  149TCq2    O2 2268   4.374   2.528  10.671 -0.0823  0.2379 -0.0246
  149TCq2    C2 2269   4.451   2.343  10.772 -0.3673  0.3653 -0.1935
  149TCq2    C3 2270   4.571   2.413  10.774 -0.0797  0.6186  0.2222
  149TCq2    C4 2271   4.668   2.349  10.839  0.4337 -0.2239  0.2466
  149TCq2    C5 2272   4.657   2.227  10.900 -0.5417 -1.0242 -0.6087
  149TCq2    C6 2273   4.537   2.167  10.906  0.1684  0.0926  0.1026
  149TCq2    C7 2274   4.432   2.232  10.845 -0.2204  1.0662  0.0682
  149TCq2    C8 2275   4.529   2.027  10.917 -0.0922 -0.2137  0.6707
  149TCq2    O4 2276   4.459   1.964  10.836  0.0776  0.2306  0.7624
  149TCq2    C9 2277   0.077   2.399  10.803 -0.2126 -0.0779  0.1294
  149TCq2    O5 2278   0.163   2.309  10.813 -0.1529  0.9181  0.4546
  149TCq2    O6 2279   0.090   2.515  10.751  0.3450 -0.1111 -0.5613
  149TCq2    H2 2280   4.585   2.514  10.738  0.5626  0.2600 -0.5224
  149TCq2    H3 2281   0.012   2.161  10.930  1.9836  2.3209 -0.0642
  149TCq2    H4 2282   4.344   2.169  10.833  0.0654  0.8695 -0.9816
  150MPD2     C 2283   1.645   0.948  12.108  0.8468 -0.3843  0.3556
  150MPD2    C1 2284   1.615   1.053  12.020 -0.2528  0.2029  0.1983
  150MPD2    C2 2285   1.704   1.160  12.014 -0.4692 -0.2371 -0.0296
  150MPD2    C3 2286   1.828   1.162  12.081 -0.2250  0.4280  0.0386
  150MPD2    C4 2287   1.849   1.058  12.172 -0.6677 -0.8103  0.3928
  150MPD2    C5 2288   1.760   0.955  12.187 -0.0828  0.2794  0.6512
  150MPD2     H 2289   1.686   1.241  11.945  0.6900  1.6118  1.8386
  150MPD2    H1 2290   1.940   1.050  12.230 -0.4690 -0.0716  0.1873
  150MPD2    H2 2291   1.595   0.853  12.097  0.8100 -0.3919  0.5845
  150MPD2    H3 2292   1.795   0.869  12.243  1.1636 -0.9608 -2.0045
  150MPD2     N 2293   1.910   1.271  12.059  0.2489 -0.0758 -0.3493
  150MPD2    H5 2294   1.880   1.338  11.990 -2.7729 -1.4250 -0.3584
  150MPD2    N1 2295   1.486   1.050  11.947 -0.0211 -0.6819 -0.5870
  150MPD2    H7 2296   1.425   0.970  11.960 -0.1026 -0.7813 -1.5698
  151TCq2    C1 2297   2.036   1.284  12.116 -0.8530  0.4741  0.3443
  151TCq2    O2 2298   2.097   1.213  12.196  0.0669  0.2866 -0.1526
  151TCq2    C2 2299   2.103   1.411  12.063  0.1644  0.3294 -0.1359
  151TCq2    C3 2300   2.035   1.487  11.969 -0.0866  0.3914 -0.0041
  151TCq2    C4 2301   2.074   1.619  11.956 -0.3871  0.4790 -0.3394
  151TCq2    C5 2302   2.175   1.672  12.040  1.1113  0.2809 -0.6996
  151TCq2    C6 2303   2.230   1.588  12.140  0.3311  0.5481 -0.2854
  151TCq2    C7 2304   2.193   1.454  12.154  0.4666  0.0018 -0.7155
  151TCq2    C8 2305   2.337   1.648  12.215  0.4001  0.0530 -0.4018
  151TCq2    O4 2306   2.359   1.769  12.208  0.4967  0.3100 -0.5440
  151TCq2    C9 2307   1.999   1.691  11.853 -0.1860 -0.2893 -0.8299
  151TCq2    O5 2308   2.030   1.809  11.831 -0.4432  0.4891 -0.3319
  151TCq2    O6 2309   1.955   1.620  11.758  0.3022 -0.0132 -0.2615
  151TCq2    H2 2310   1.959   1.446  11.904  0.8034 -1.1066 -0.1240
  151TCq2    H3 2311   2.214   1.773  12.030 -1.0136  1.1736  0.0242
  151TCq2    H4 2312   2.232   1.383  12.226 -1.8347 -0.3489  0.2024
  152MPD2     C 2313   1.340   0.893  12.636 -0.1941  0.7462 -0.3523
  152MPD2    C1 2314   1.355   0.988  12.538  0.0037 -0.7217  0.2582
  152MPD2    C2 2315   1.252   1.022  12.449  0.8068  0.4019  0.4597
  152MPD2    C3 2316   1.129   0.948  12.460 -0.3223 -0.1800 -0.6463
  152MPD2    C4 2317   1.115   0.856  12.561 -0.4644 -0.5851  0.0733
  152MPD2    C5 2318   1.220   0.831  12.649 -0.2129 -0.2131  0.1963
  152MPD2     H 2319   1.259   1.103  12.377  2.7822 -0.0906  0.1060
  152MPD2    H1 2320   1.020   0.806  12.574 -0.8584 -0.2103 -1.3945
  152MPD2    H2 2321   1.414   0.882  12.715  0.4455  0.6539 -0.9718
  152MPD2    H3 2322   1.208   0.764  12.733  3.3845  0.6350  1.3967
  152MPD2     N 2323   1.027   0.969  12.368 -0.3874  0.0437 -0.1359
  152MPD2    H5 2324   1.046   1.018  12.281 -1.4008 -0.2504 -0.5128
  152MPD2    N1 2325   1.483   1.051  12.533  0.8513 -0.6143 -0.2026
  152MPD2    H7 2326   1.548   1.032  12.609 -1.0092 -1.5611  1.1234
  153TCq2    C1 2327   1.516   1.156  12.451 -0.2000  0.1345  0.2990
  153TCq2    O2 2328   1.454   1.220  12.367  0.3411  0.7239  0.0207
  153TCq2    C2 2329   1.655   1.192  12.466  0.2700 -0.5909  0.3517
  153TCq2    C3 2330   1.744   1.110  12.533 -0.5671 -0.2664 -0.2078
  153TCq2    C4 2331   1.873   1.147  12.528  0.3220 -0.2567  0.0142
  153TCq2    C5 2332   1.908   1.261  12.459  0.1025  0.1729 -0.2927
  153TCq2    C6 2333   1.816   1.343  12.399  0.1772 -0.5618  0.1790
  153TCq2    C7 2334   1.689   1.305  12.398 -0.5202  0.2537 -0.1373
  153TCq2    C8 2335   1.848   1.482  12.380  0.1164 -0.0756 -0.1298
  153TCq2    O4 2336   1.768   1.547  12.315 -0.0016 -0.4005 -0.3105
  153TCq2    C9 2337   1.970   1.061  12.585  0.7523  0.8021  0.7784
  153TCq2    O5 2338   1.935   0.939  12.605  0.2783  0.6517  0.4407
  153TCq2    O6 2339   2.088   1.104  12.599 -0.1396  0.5181 -0.1821
  153TCq2    H2 2340   1.710   1.021  12.584  0.4065  0.5474  1.9044
  153TCq2    H3 2341   2.009   1.290  12.433 -0.7827  1.3210 -2.4281
  153TCq2    H4 2342   1.625   1.387  12.368 -1.3991 -0.5676 -0.5155
  154MPD2     C 2343   4.217   1.815   1.052 -0.0519  0.7457 -1.0225
  154MPD2    C1 2344   4.115   1.730   1.010 -0.4500 -0.2322 -0.2519
  154MPD2    C2 2345   4.050   1.666   1.113 -0.1177  0.0004  0.3746
  154MPD2    C3 2346   4.087   1.675   1.246 -0.3818  0.6070 -0.2168
  154MPD2    C4 2347   4.199   1.746   1.270 -0.2253  0.5076 -0.7692
  154MPD2    C5 2348   4.263   1.827   1.180  0.0855 -0.1034 -0.0296
  154MPD2     H 2349   3.981   1.585   1.094 -1.0476  1.1961 -1.3722
  154MPD2    H1 2350   4.248   1.756   1.366 -1.1884 -0.1065 -0.2079
  154MPD2    H2 2351   4.268   1.867   0.972 -1.4819  0.3301 -2.1990
  154MPD2    H3 2352   4.354   1.881   1.205 -0.9271  2.1379 -1.2413
  154MPD2     N 2353   4.018   1.601   1.348  0.0080  0.2695  0.1343
  154MPD2    H5 2354   3.951   1.530   1.322 -0.9347  0.7961  1.1705
  154MPD2    N1 2355   4.081   1.733   0.881  0.5771 -0.3720 -0.0653
  154MPD2    H7 2356   4.135   1.796   0.822 -0.8744  0.5736 -0.3920
  155TCq2    C1 2357   3.996   1.650   0.815 -0.0851  0.4889 -0.1073
  155TCq2    O2 2358   3.933   1.552   0.846 -0.5932 -0.1902 -0.1297
  155TCq2    C2 2359   3.980   1.695   0.674  0.3823 -0.2823  1.2511
  155TCq2    C3 2360   4.001   1.828   0.640  0.1302  0.3346  0.3879
  155TCq2    C4 2361   4.001   1.860   0.504  0.6120  0.2087 -0.0616
  155TCq2    C5 2362   3.969   1.770   0.411  0.2817  0.7925  0.0091
  155TCq2    C6 2363   3.947   1.640   0.449  0.6880 -0.1145 -0.6034
  155TCq2    C7 2364   3.962   1.594   0.576  1.0551  0.0880 -0.0549
  155TCq2    C8 2365   3.964   1.540   0.340 -0.7674 -0.1362  0.4336
  155TCq2    O4 2366   3.958   1.583   0.230  0.1055 -0.1432 -0.1985
  155TCq2    C9 2367   4.049   1.994   0.467  0.0264 -0.7659 -0.4041
  155TCq2    O5 2368   4.110   2.057   0.560  0.2290 -0.1333  0.1405
  155TCq2    O6 2369   4.066   2.009   0.345 -0.5590  0.3882 -0.5576
  155TCq2    H2 2370   4.017   1.902   0.718 -0.1588  0.5521  0.2372
  155TCq2    H3 2371   3.971   1.792   0.305 -1.8290  1.2543  0.0615
  155TCq2    H4 2372   3.935   1.496   0.615  0.6105  0.0467 -0.4642
  156MPD2     C 2373   2.029   3.412  12.767  0.2952  0.2176 -0.9014
  156MPD2    C1 2374   1.985   3.493  12.662  0.4123  0.5978  0.1696
  156MPD2    C2 2375   1.928   3.615  12.695  0.3009 -0.2506 -1.2405
  156MPD2    C3 2376   1.881   3.639  12.821 -0.1354  0.5291  0.0792
  156MPD2    C4 2377   1.919   3.553  12.924  0.3283 -0.1437 -0.6235
  156MPD2    C5 2378   1.992   3.440  12.895  0.4338 -0.4887  0.1059
  156MPD2     H 2379   1.904   3.689  12.619 -1.5475  1.2489  0.8162
  156MPD2    H1 2380   1.904   3.585  13.026 -0.0142  2.0145 -1.3396
  156MPD2    H2 2381   2.102   3.335  12.742 -0.4132 -0.4792 -0.8500
  156MPD2    H3 2382   2.029   3.375  12.973 -1.9330 -0.1922  1.4665
  156MPD2     N 2383   1.817   3.761  12.850  0.5247 -0.0272 -0.0786
  156MPD2    H5 2384   1.825   3.820  12.768  0.7949 -0.1078 -0.1101
  156MPD2    N1 2385   2.007   3.459  12.524 -0.3653  0.4229  0.1226
  156MPD2    H7 2386   2.038   3.369  12.489 -1.4041  0.0101  0.2570
  157TCq2    C1 2387   1.966   3.531  12.414  1.0025 -0.0375 -0.0898
  157TCq2    O2 2388   1.908   3.637  12.396  0.4731  0.3592 -0.5316
  157TCq2    C2 2389   2.004   3.463  12.290  0.8011 -0.2436  0.1206
  157TCq2    C3 2390   2.092   3.356  12.287 -0.3797 -0.0169  0.0682
  157TCq2    C4 2391   2.108   3.296  12.162  0.0402 -0.6446  0.2384
  157TCq2    C5 2392   2.051   3.333  12.043  1.4929  0.5218  0.8056
  157TCq2    C6 2393   1.979   3.455  12.052 -0.0707  0.3592  0.0611
  157TCq2    C7 2394   1.953   3.506  12.174  0.0865 -0.3174 -0.0045
  157TCq2    C8 2395   1.928   3.515  11.931 -0.5962 -0.3887 -0.3595
  157TCq2    O4 2396   1.857   3.613  11.950 -0.2207 -0.5882 -0.1455
  157TCq2    C9 2397   2.195   3.171  12.158  0.0603 -0.1417 -0.3990
  157TCq2    O5 2398   2.269   3.150  12.259  0.5358  0.0629  0.6043
  157TCq2    O6 2399   2.220   3.116  12.044  0.3768 -0.3864 -0.0697
  157TCq2    H2 2400   2.153   3.337  12.374  1.3720 -0.2085 -1.2154
  157TCq2    H3 2401   2.067   3.266  11.959  0.7123  0.7389  0.4778
  157TCq2    H4 2402   1.893   3.596  12.181  0.7832 -0.1084  3.7727
  158TMC2    C1 2403   1.798   2.316  13.395  0.1873 -1.0439 -0.2054
  158TMC2    C2 2404   1.830   2.443  13.359  0.8784  0.5466  0.3462
  158TMC2    C3 2405   1.747   2.503  13.264  0.2045 -0.6127  0.5259
  158TMC2    C4 2406   1.701   2.246  13.332 -0.6204  0.1300 -0.2876
  158TMC2    C5 2407   1.624   2.309  13.235  0.5758  0.9549 -0.6191
  158TMC2    C6 2408   1.650   2.436  13.197 -0.3300 -0.1030 -0.2956
  158TMC2     C 2409   1.849   2.247  13.518 -0.8540  0.6524  0.1717
  158TMC2     O 2410   1.771   2.164  13.561 -0.1900 -0.1555 -0.2442
  158TMC2     H 2411   1.906   2.509  13.401  0.2627  1.2621  0.3335
  158TMC2    H1 2412   1.700   2.140  13.356 -1.6382  0.2760  0.3334
  158TMC2    H2 2413   1.604   2.478  13.109 -0.8187 -1.5587 -0.7326
  158TMC2    C7 2414   1.501   2.246  13.198  0.2722 -0.0534 -0.2551
  158TMC2    C8 2415   1.799   2.633  13.217 -0.2235 -0.2187  0.1779
  158TMC2    O1 2416   1.419   2.311  13.139 -0.4514  0.4477  0.0636
  158TMC2    O2 2417   1.917   2.664  13.232  0.5746  0.2234  0.8010
  158TMC2    O5 2418   1.713   2.694  13.125  0.2407  0.0367  0.0447
  158TMC2    H5 2419   1.623   2.655  13.126 -0.3017  1.2269 -1.7112
  159MPD2     C 2420   2.204   2.146  13.873  0.0832 -0.6575 -0.3947
  159MPD2    C1 2421   2.075   2.095  13.856  0.7133  0.0056 -0.0956
  159MPD2    C2 2422   1.997   2.142  13.752  0.1984  0.7267 -0.3871
  159MPD2    C3 2423   2.048   2.244  13.666  0.8843  0.0611 -0.0076
  159MPD2    C4 2424   2.180   2.278  13.681  0.1497 -0.0989 -0.3232
  159MPD2    C5 2425   2.255   2.240  13.793 -0.2798  0.0182  0.7192
  159MPD2     H 2426   1.897   2.102  13.736 -1.3511  2.7797  3.8995
  159MPD2    H1 2427   2.221   2.355  13.617 -1.0410 -0.3359 -1.3573
  159MPD2    H2 2428   2.259   2.125  13.963 -1.3191 -2.1251  0.1095
  159MPD2    H3 2429   2.351   2.279  13.823  0.5401 -1.9157  0.6240
  159MPD2     N 2430   1.975   2.293  13.554 -0.1630  0.0738  0.3626
  159MPD2    H5 2431   2.030   2.359  13.499 -1.1666 -1.6176 -2.7073
  159MPD2    N1 2432   2.021   2.008  13.953 -0.0628  0.0340 -0.3361
  159MPD2    H7 2433   2.083   1.980  14.028 -0.5994  1.5550  0.6926
  160TMC2    C1 2434   2.342   0.647   1.553  0.2042  0.1358  0.0387
  160TMC2    C2 2435   2.447   0.725   1.591 -0.4371 -0.6027 -0.1748
  160TMC2    C3 2436   2.529   0.773   1.497  0.2113 -0.2616 -0.0061
  160TMC2    C4 2437   2.334   0.600   1.426 -0.2048  1.1723 -0.0959
  160TMC2    C5 2438   2.431   0.641   1.333 -0.0634 -0.7098  0.1761
  160TMC2    C6 2439   2.518   0.741   1.367  0.5534 -0.5234  0.4037
  160TMC2     C 2440   2.249   0.605   1.658 -0.1655 -0.7545 -0.1694
  160TMC2     O 2441   2.296   0.592   1.772 -0.7699 -0.0476 -0.4791
  160TMC2     H 2442   2.465   0.738   1.697 -1.7760  0.5508 -0.1051
  160TMC2    H1 2443   2.250   0.541   1.392 -0.1172  0.1119  1.5255
  160TMC2    H2 2444   2.586   0.793   1.301  1.2241 -1.6503  0.2072
  160TMC2    C7 2445   2.444   0.563   1.212 -0.1613 -0.1863  0.2623
  160TMC2    C8 2446   2.603   0.891   1.535 -0.5600 -0.4065  0.2547
  160TMC2    O1 2447   2.377   0.461   1.199  0.1625 -0.8660 -0.4470
  160TMC2    O2 2448   2.619   0.996   1.471  0.1945  0.1357  0.2693
  160TMC2    O5 2449   2.677   0.852   1.644 -0.0060  0.1651 -0.6433
  160TMC2    H5 2450   2.660   0.764   1.684  0.8353  0.1601 -0.2944
  161MPD2     C 2451   2.007   0.535   1.821  0.3705  0.0086  0.1218
  161MPD2    C1 2452   2.004   0.585   1.693  0.0445  0.5929  0.3285
  161MPD2    C2 2453   1.875   0.598   1.635  0.0991 -0.4957 -0.1225
  161MPD2    C3 2454   1.761   0.553   1.702 -0.2357  0.4064  0.5086
  161MPD2    C4 2455   1.766   0.507   1.833 -0.1481  0.0129  0.2516
  161MPD2    C5 2456   1.886   0.497   1.886 -0.6980 -0.0492  0.3707
  161MPD2     H 2457   1.867   0.639   1.536 -0.1278  0.4049  0.2693
  161MPD2    H1 2458   1.677   0.473   1.885  0.0977  0.4007  0.9383
  161MPD2    H2 2459   2.100   0.517   1.875  1.3125 -0.9302 -1.7996
  161MPD2    H3 2460   1.891   0.455   1.986  1.2031  0.5408  0.5275
  161MPD2     N 2461   1.629   0.558   1.646 -0.6392 -0.4249 -0.0194
  161MPD2    H5 2462   1.551   0.531   1.705 -0.3301 -1.5886 -0.1488
  161MPD2    N1 2463   2.118   0.607   1.614 -0.1464  0.1825 -0.2811
  161MPD2    H7 2464   2.099   0.627   1.517  0.3890  1.9417 -0.0403
  162TMC2    C1 2465   4.562   2.385   1.074 -0.3193 -0.2270 -0.5537
  162TMC2    C2 2466   4.474   2.442   0.997  0.6071  0.1980  0.6789
  162TMC2    C3 2467   4.395   2.534   1.061 -0.5486 -0.4996 -0.0786
  162TMC2    C4 2468   4.575   2.407   1.204  0.4108 -0.0851  0.1711
  162TMC2    C5 2469   4.497   2.499   1.264 -0.0238  0.6833 -0.6537
  162TMC2    C6 2470   4.397   2.561   1.196  0.4019  0.8824  0.1911
  162TMC2     C 2471   4.633   2.279   1.008  0.2338 -0.4287  0.0955
  162TMC2     O 2472   4.640   2.280   0.889  0.7192 -0.1107 -0.0853
  162TMC2     H 2473   4.459   2.420   0.892 -0.8296  1.2203  0.6665
  162TMC2    H1 2474   4.673   2.391   1.247 -0.6659  0.7707  2.9642
  162TMC2    H2 2475   4.317   2.619   1.240  0.3876 -0.5702  2.0640
  162TMC2    C7 2476   4.496   2.523   1.412 -0.5366 -0.6333 -0.4677
  162TMC2    C8 2477   4.264   2.548   0.997  0.4167  0.2734 -0.7225
  162TMC2    O1 2478   4.435   2.617   1.454 -0.1550  0.7174  0.6437
  162TMC2    O2 2479   4.224   2.458   0.922 -0.0272 -0.2364  0.5240
  162TMC2    O5 2480   4.257   2.676   0.956 -0.1764 -0.0121 -0.6112
  162TMC2    H5 2481   4.308   2.744   1.006  0.3809 -1.3921  0.6927
  163MPD2     C 2482   0.184   1.841   1.013 -0.4367 -0.1347 -0.3139
  163MPD2    C1 2483   0.168   1.940   0.917  0.0078 -0.1772  0.2227
  163MPD2    C2 2484   0.097   2.058   0.943 -1.1259 -0.1732 -0.4538
  163MPD2    C3 2485   0.040   2.077   1.065 -0.0728 -0.6356 -0.3674
  163MPD2    C4 2486   0.057   1.977   1.158 -0.0194  0.9364  0.1997
  163MPD2    C5 2487   0.125   1.863   1.136 -0.4615  0.4771 -0.7995
  163MPD2     H 2488   0.084   2.131   0.864  1.3212  2.4069  1.5573
  163MPD2    H1 2489   0.029   1.987   1.262  3.4345  0.2275  1.1813
  163MPD2    H2 2490   0.248   1.757   0.989 -1.4373 -1.6647  2.3715
  163MPD2    H3 2491   0.136   1.785   1.210 -0.0340  2.4263  1.2048
  163MPD2     N 2492   4.683   2.189   1.100  0.1817 -0.1824 -0.6486
  163MPD2    H5 2493   4.643   2.194   1.193 -1.0854 -0.1274 -1.1903
  163MPD2    N1 2494   0.221   1.909   0.785  0.5555  0.2612  0.4727
  163MPD2    H7 2495   0.258   1.815   0.778  1.6687  0.8602 -1.8087
  164TCq2    C1 2496   0.397   1.854  11.394 -0.2158  0.2136  0.2469
  164TCq2    O2 2497   0.374   1.884  11.510 -0.1391  0.2698  0.5014
  164TCq2    C2 2498   0.425   1.958  11.302 -0.0277 -0.3906 -0.0115
  164TCq2    C3 2499   0.530   1.943  11.214  0.3485  0.3282  0.9803
  164TCq2    C4 2500   0.561   2.050  11.131  0.0075 -0.0841  0.3420
  164TCq2    C5 2501   0.484   2.162  11.138 -0.5658  0.3889  0.7037
  164TCq2    C6 2502   0.388   2.179  11.241  0.2559 -0.1448 -0.2294
  164TCq2    C7 2503   0.353   2.076  11.325  0.3576 -0.5461  0.1237
  164TCq2    C8 2504   0.311   2.303  11.248 -0.3876 -0.1530  0.1219
  164TCq2    O4 2505   0.208   2.298  11.315 -0.1070 -0.3181 -0.2536
  164TCq2    C9 2506   0.657   2.032  11.023  0.1745  0.2094  0.4339
  164TCq2    O5 2507   0.659   2.122  10.932 -0.5727 -0.2664  0.9193
  164TCq2    O6 2508   0.702   1.916  11.006 -0.2004  0.2694  0.2555
  164TCq2    H2 2509   0.573   1.845  11.195 -0.8926  0.1971 -1.2496
  164TCq2    H3 2510   0.507   2.248  11.076  1.7597 -1.3837 -0.9104
  164TCq2    H4 2511   0.269   2.091  11.391  0.0964  2.4138 -0.8923
  165MPD2     C 2512   0.858   4.061   1.739 -0.2096 -0.8344  0.0521
  165MPD2    C1 2513   0.910   3.950   1.804  0.4334  0.1717  0.6222
  165MPD2    C2 2514   0.975   3.972   1.925  0.0619 -0.2821 -0.4212
  165MPD2    C3 2515   0.996   4.100   1.975  0.1595 -0.1309 -0.0734
  165MPD2    C4 2516   0.946   4.199   1.904 -0.9673  0.5860 -0.1979
  165MPD2    C5 2517   0.872   4.191   1.785 -0.0296 -0.2706 -0.3640
  165MPD2     H 2518   1.009   3.886   1.982  1.0205 -0.4727 -1.2683
  165MPD2    H1 2519   0.950   4.299   1.947  2.0433  0.1230  0.6346
  165MPD2    H2 2520   0.828   4.048   1.636 -0.9460  0.4689  0.0979
  165MPD2    H3 2521   0.835   4.280   1.735 -0.9433  0.9623  2.4545
  165MPD2     N 2522   1.053   4.126   2.101  0.2131  0.3668 -0.3281
  165MPD2    H5 2523   1.047   4.221   2.136  0.9016 -0.0424  0.9234
  165MPD2    N1 2524   0.891   3.824   1.743  1.0081 -0.6510 -0.5513
  165MPD2    H7 2525   0.847   3.825   1.651  0.7914  1.7484 -0.4081
  166TCq2    C1 2526   1.130   4.034   2.177 -0.3563 -0.0124 -0.4164
  166TCq2    O2 2527   1.153   3.916   2.144 -0.5561 -0.1143  0.0190
  166TCq2    C2 2528   1.202   4.100   2.276  0.1802  0.4660  0.2307
  166TCq2    C3 2529   1.159   4.217   2.332  0.5290  0.0396 -0.5535
  166TCq2    C4 2530   1.249   4.303   2.389  0.0214 -0.0090 -0.8224
  166TCq2    C5 2531   1.384   4.275   2.388 -0.3840  0.6696 -0.2996
  166TCq2    C6 2532   1.418   4.154   2.335 -0.2105  0.5174  0.0419
  166TCq2    C7 2533   1.335   4.066   2.271 -0.8808 -0.2086 -0.3536
  166TCq2    C8 2534   1.560   4.128   2.334  0.5239  0.5569  0.9744
  166TCq2    O4 2535   1.604   4.059   2.242  0.1378  0.5187 -0.5199
  166TCq2    C9 2536   1.203   4.424   2.444  0.2072  0.4661 -0.7520
  166TCq2    O5 2537   1.107   4.475   2.375  0.0524  0.1481  0.2228
  166TCq2    O6 2538   1.288   4.480   2.516  0.0494 -0.2256 -0.8424
  166TCq2    H2 2539   1.055   4.242   2.347  0.3287 -1.0321 -0.1644
  166TCq2    H3 2540   1.453   4.353   2.418  0.1749 -0.0369  0.2653
  166TCq2    H4 2541   1.372   3.972   2.231 -0.9669  0.6314 -2.3826
  167TMC2    C1 2542   0.296   0.808  13.065  0.6198 -0.3719 -0.5406
  167TMC2    C2 2543   0.336   0.679  13.034 -0.4685  0.8368  0.5921
  167TMC2    C3 2544   0.245   0.589  12.987  0.6434  0.3961 -0.0617
  167TMC2    C4 2545   0.160   0.835  13.070 -0.3601 -0.3077 -0.1124
  167TMC2    C5 2546   0.068   0.737  13.032  0.2561  0.0879  0.0927
  167TMC2    C6 2547   0.109   0.614  12.989  0.0529  0.0100 -0.0074
  167TMC2     C 2548   0.364   0.908  12.983  0.7041  0.4978  0.1679
  167TMC2     O 2549   0.459   0.875  12.912  0.7809 -0.0168 -0.0064
  167TMC2     H 2550   0.442   0.653  13.031 -0.2690  1.4885  1.9110
  167TMC2    H1 2551   0.114   0.927  13.106 -2.0408 -2.2861  2.7407
  167TMC2    H2 2552   0.039   0.547  12.941 -0.8486 -0.2910  1.7371
  167TMC2    C7 2553   4.688   0.797  12.960 -0.5701  0.6179 -0.5085
  167TMC2    C8 2554   0.294   0.457  12.945 -0.4420  0.6116 -0.4222
  167TMC2    O1 2555   4.577   0.779  13.005 -0.3296  0.2084 -0.1025
  167TMC2    O2 2556   0.405   0.432  12.904  0.4790 -0.1389  0.4475
  167TMC2    O5 2557   0.199   0.363  12.969  0.1443 -0.6875 -0.2541
  167TMC2    H5 2558   0.129   0.398  13.028  1.2605 -1.5424  1.5943
  168MPD2     C 2559   0.371   1.119  12.778 -0.4790 -0.4773  0.6609
  168MPD2    C1 2560   0.268   1.101  12.864  0.5752  0.5222  0.3609
  168MPD2    C2 2561   0.159   1.185  12.861 -0.2788  0.5653  0.0398
  168MPD2    C3 2562   0.152   1.293  12.777  0.6402 -0.0277 -0.0785
  168MPD2    C4 2563   0.256   1.310  12.688 -0.1034 -0.0712 -0.2810
  168MPD2    C5 2564   0.359   1.219  12.680 -0.7323 -0.3666 -0.1527
  168MPD2     H 2565   0.080   1.171  12.934  0.1675  0.7391  0.5594
  168MPD2    H1 2566   0.250   1.389  12.614 -1.5782  0.6012  0.5442
  168MPD2    H2 2567   0.453   1.049  12.769  0.1778  0.2984  0.6974
  168MPD2    H3 2568   0.420   1.218  12.590 -0.1606  2.0571  0.2012
  168MPD2     N 2569   0.044   1.386  12.806 -0.4122  0.0092 -0.0450
  168MPD2    H5 2570   4.701   1.352  12.873  0.5162 -2.5387 -0.3941
  168MPD2    N1 2571   0.272   1.002  12.966 -0.6069  0.2937  0.2730
  168MPD2    H7 2572   0.202   1.014  13.039  0.1049 -2.4071  1.3944
  169MPD1     C 2573   1.352   2.156   9.342  0.5483 -0.1647 -0.8479
  169MPD1    C1 2574   1.456   2.194   9.428 -0.0603 -0.1109 -1.1928
  169MPD1    C2 2575   1.567   2.113   9.427 -0.2581 -0.1814  0.5476
  169MPD1    C3 2576   1.567   1.990   9.363  0.7443  0.2174 -0.0866
  169MPD1    C4 2577   1.458   1.953   9.285 -0.0237  0.5105  0.1319
  169MPD1    C5 2578   1.352   2.035   9.277 -0.2530  0.1732 -0.5190
  169MPD1     H 2579   1.652   2.142   9.489  0.1006 -2.4185  1.1211
  169MPD1    H1 2580   1.453   1.857   9.236 -1.3483  0.7208 -0.1626
  169MPD1    H2 2581   1.268   2.223   9.331  1.0112  0.4847 -0.4567
  169MPD1    H3 2582   1.268   2.005   9.216 -0.1335 -2.2681  0.5226
  169MPD1     N 2583   1.674   1.899   9.371 -0.4282 -1.1062  0.2919
  169MPD1    H5 2584   1.751   1.940   9.423  0.5860 -3.1524  0.3792
  169MPD1    N1 2585   1.454   2.320   9.491 -0.3600  0.0433 -0.0287
  169MPD1    H6 2586   1.361   2.342   9.524 -0.7664  0.2231 -1.2842
  169MPD1    H7 2587   1.504   2.319   9.580 -0.6297  0.9718  0.1270
  170MPD1     C 2588   0.092   3.691  13.030 -0.5604  0.4767  0.4295
  170MPD1    C1 2589   0.013   3.709  13.144 -0.0493 -0.4911 -0.2567
  170MPD1    C2 2590   0.071   3.784  13.248  0.3157 -0.0135  0.3548
  170MPD1    C3 2591   0.197   3.829  13.244 -0.5484  0.5976  0.6419
  170MPD1    C4 2592   0.276   3.805  13.135  0.4682  0.7217  0.0996
  170MPD1    C5 2593   0.218   3.746  13.029  0.7981  0.5292  0.1849
  170MPD1     H 2594   0.006   3.804  13.332 -1.4867 -1.6331 -0.6807
  170MPD1    H1 2595   0.381   3.830  13.126  1.4203 -2.5720  2.2969
  170MPD1    H2 2596   0.075   3.645  12.933 -1.2619  0.6146  0.4884
  170MPD1    H3 2597   0.283   3.744  12.942 -1.5411  1.8671 -1.6302
  170MPD1     N 2598   0.249   3.904  13.354  0.2065  0.8525  0.1399
  170MPD1    H5 2599   0.187   3.916  13.433 -1.2668  1.9585 -1.2049
  170MPD1    N1 2600   4.606   3.670  13.146 -0.3944 -0.1706  0.2327
  170MPD1    H6 2601   4.563   3.646  13.235 -0.5442 -0.2276  0.1431
  170MPD1    H7 2602   4.587   3.594  13.082 -0.6550  0.0846  0.0096
  171MPD1     C 2603   3.711   0.510  15.341  0.0013  0.0334  0.6828
  171MPD1    C1 2604   3.819   0.450  15.282  0.4344 -0.4137  0.3507
  171MPD1    C2 2605   3.869   0.334  15.337  0.3701  0.3598  0.3642
  171MPD1    C3 2606   3.824   0.294  15.464  0.6914  0.4341 -0.1527
  171MPD1    C4 2607   3.732   0.369  15.530 -0.1028 -0.0282  0.4924
  171MPD1    C5 2608   3.677   0.476  15.468 -0.7269 -0.3956 -0.3081
  171MPD1     H 2609   3.945   0.282  15.280  1.0579  1.2055  0.4930
  171MPD1    H1 2610   3.706   0.357  15.634  2.4547 -2.3260  0.8432
  171MPD1    H2 2611   3.666   0.592  15.285  2.9946 -0.3536 -2.3280
  171MPD1    H3 2612   3.601   0.536  15.518  1.2577 -0.2714  2.5462
  171MPD1     N 2613   3.865   0.173  15.534 -0.1372  0.0409 -0.6475
  171MPD1    H5 2614   3.808   0.141  15.612  0.5218 -1.1386 -0.6515
  171MPD1    N1 2615   3.866   0.480  15.158 -0.0958 -0.3398  0.4165
  171MPD1    H6 2616   3.852   0.580  15.150 -0.9200 -0.5227 -0.3944
  171MPD1    H7 2617   3.965   0.457  15.151  0.0169  0.1213  0.5402
  172MPD1     C 2618   3.033   3.552   0.827 -0.1404 -0.0942 -0.7230
  172MPD1    C1 2619   2.943   3.650   0.833  1.0680 -0.2685 -0.1181
  172MPD1    C2 2620   2.980   3.784   0.789 -0.6165  0.5482 -0.7417
  172MPD1    C3 2621   3.093   3.803   0.717  0.1506 -0.1918 -0.3010
  172MPD1    C4 2622   3.176   3.693   0.699 -0.2987 -0.4207  0.4320
  172MPD1    C5 2623   3.138   3.567   0.744 -0.8528  0.3771  0.0074
  172MPD1     H 2624   2.923   3.868   0.827 -0.2424  1.0515 -1.3086
  172MPD1    H1 2625   3.262   3.710   0.635  0.9890  1.7289  2.7643
  172MPD1    H2 2626   3.032   3.456   0.877 -0.4142  0.2999  0.0372
  172MPD1    H3 2627   3.208   3.484   0.734 -1.3420 -0.2173  1.4667
  172MPD1     N 2628   3.138   3.932   0.680  0.2590  0.2950  0.2376
  172MPD1    H5 2629   3.237   3.942   0.661  0.2378  0.7593  0.3746
  172MPD1    N1 2630   2.841   3.635   0.929  0.5226  0.2721 -0.5461
  172MPD1    H6 2631   2.809   3.540   0.946 -1.5830  1.4717  2.1384
  172MPD1    H7 2632   2.769   3.706   0.921 -1.8609 -2.1654 -0.6910
  173MPD1     C 2633   4.444   4.338  14.557 -0.6515 -0.0848 -0.7555
  173MPD1    C1 2634   4.353   4.311  14.645  0.3391  0.8814  0.1085
  173MPD1    C2 2635   4.327   4.175  14.664  0.1702 -0.2053  0.5220
  173MPD1    C3 2636   4.400   4.076  14.597  0.4417 -0.1294 -0.0122
  173MPD1    C4 2637   4.498   4.112  14.512  0.1193  0.0225 -0.4689
  173MPD1    C5 2638   4.519   4.246  14.484  0.9172  0.3239 -0.0783
  173MPD1     H 2639   4.257   4.144  14.742 -0.1450 -1.3753 -0.2176
  173MPD1    H1 2640   4.567   4.041  14.467 -0.8491 -1.0989 -0.2044
  173MPD1    H2 2641   4.464   4.442  14.534 -2.2604  0.6255  1.0395
  173MPD1    H3 2642   4.598   4.276  14.417 -0.5029 -1.6313 -2.6277
  173MPD1     N 2643   4.370   3.940  14.621  0.0579 -0.3048 -0.3204
  173MPD1    H5 2644   4.294   3.924  14.687 -0.7126  1.1471 -0.8393
  173MPD1    N1 2645   4.250   4.404  14.676 -0.4052 -0.5082 -0.5979
  173MPD1    H6 2646   4.202   4.380  14.763  0.8077 -2.6928 -0.5498
  173MPD1    H7 2647   4.282   4.499  14.692  0.3079 -0.8697  0.1558
  174MPD1     C 2648   4.580   2.867  14.685  0.3447  0.1838 -0.0945
  174MPD1    C1 2649   4.643   2.959  14.603 -0.4104 -0.9154 -0.3087
  174MPD1    C2 2650   4.591   3.087  14.581  1.1817  0.3609  0.6910
  174MPD1    C3 2651   4.465   3.113  14.634 -1.1093  0.1096  0.1888
  174MPD1    C4 2652   4.405   3.015  14.710 -0.0017  0.1331  0.4797
  174MPD1    C5 2653   4.456   2.892  14.734 -0.1818  0.3729  0.0617
  174MPD1     H 2654   4.648   3.156  14.521  1.5268 -0.2427  0.3205
  174MPD1    H1 2655   4.304   3.037  14.744  1.2240  0.5825  3.8345
  174MPD1    H2 2656   4.614   2.765  14.694 -2.1162 -0.8221 -2.5658
  174MPD1    H3 2657   4.407   2.806  14.779  1.5018 -1.2785 -1.2598
  174MPD1     N 2658   4.395   3.239  14.635 -0.0311  0.4828  0.1963
  174MPD1    H5 2659   4.317   3.245  14.699 -0.3198 -0.2296 -0.0891
  174MPD1    N1 2660   0.055   2.934  14.574  0.6627  0.6057 -0.6746
  174MPD1    H6 2661   0.083   2.836  14.569 -0.6198 -0.0144  4.2584
  174MPD1    H7 2662   0.091   2.988  14.496 -0.3382  1.2037 -0.7220
  175MPD1     C 2663   3.384   0.225  15.301 -0.3730  0.2052  0.4191
  175MPD1    C1 2664   3.250   0.208  15.278  0.1612  0.4645  0.9029
  175MPD1    C2 2665   3.173   0.164  15.382 -0.4278  0.7577 -0.0691
  175MPD1    C3 2666   3.228   0.101  15.497  0.0700 -0.8290  0.0791
  175MPD1    C4 2667   3.363   0.092  15.501 -0.0874 -0.3386 -0.4782
  175MPD1    C5 2668   3.433   0.155  15.402 -0.3153 -0.4108 -0.4487
  175MPD1     H 2669   3.065   0.161  15.370 -0.4172 -0.0875  0.0836
  175MPD1    H1 2670   3.420   0.039  15.577 -1.6268 -0.9941  0.2286
  175MPD1    H2 2671   3.452   0.281  15.239 -1.1360  0.5632 -0.0879
  175MPD1    H3 2672   3.539   0.175  15.412 -0.2779 -0.8699  0.0370
  175MPD1     N 2673   3.154   0.048  15.599  0.3608  0.5097 -0.1563
  175MPD1    H5 2674   3.217   0.014  15.670 -0.6468 -0.2403  0.3809
  175MPD1    N1 2675   3.196   0.261  15.159 -0.0546 -0.2495  0.0319
  175MPD1    H6 2676   3.253   0.226  15.082 -0.7433  0.2896 -0.7334
  175MPD1    H7 2677   3.100   0.233  15.137 -0.1416 -0.2713  0.4501
  176MPD1     C 2678   4.467   2.640   0.655  0.1526 -0.0323 -0.1369
  176MPD1    C1 2679   4.445   2.582   0.530 -0.1259  0.0332  0.2009
  176MPD1    C2 2680   4.468   2.660   0.413 -0.1691  0.0958  0.1293
  176MPD1    C3 2681   4.476   2.795   0.423  0.6008 -0.8945 -0.6921
  176MPD1    C4 2682   4.464   2.849   0.548 -1.3356  0.2942 -0.9749
  176MPD1    C5 2683   4.458   2.777   0.659 -0.4243 -0.0209 -0.1833
  176MPD1     H 2684   4.486   2.613   0.317  0.1857 -0.3091  0.3930
  176MPD1    H1 2685   4.451   2.955   0.569 -1.7652 -0.0406  0.4447
  176MPD1    H2 2686   4.471   2.584   0.747  2.4215  0.4074  0.0258
  176MPD1    H3 2687   4.455   2.822   0.758 -2.2017  0.6188 -0.5288
  176MPD1     N 2688   4.490   2.865   0.299  1.1196  0.0148 -0.0714
  176MPD1    H5 2689   4.513   2.818   0.212  0.0691 -1.2409  0.3262
  176MPD1    N1 2690   4.430   2.444   0.516  0.3609  0.7255 -0.8417
  176MPD1    H6 2691   4.389   2.401   0.599 -1.2523  0.8374 -1.5900
  176MPD1    H7 2692   4.379   2.413   0.433 -0.9964 -0.4930  0.4522
  177MPD1     C 2693   2.523   1.575  10.388 -0.4548 -0.1401 -0.4771
  177MPD1    C1 2694   2.401   1.549  10.335  0.1072 -0.8305  0.0581
  177MPD1    C2 2695   2.347   1.628  10.240 -0.3685 -0.5089  0.0858
  177MPD1    C3 2696   2.410   1.742  10.193  0.2582 -0.3594  0.6319
  177MPD1    C4 2697   2.538   1.769  10.245  0.3121  0.0046 -0.5349
  177MPD1    C5 2698   2.592   1.680  10.341  0.4873 -0.1736  0.2925
  177MPD1     H 2699   2.255   1.599  10.192 -0.0638 -0.5402 -0.4823
  177MPD1    H1 2700   2.595   1.858  10.222  0.8148 -0.0014  0.6544
  177MPD1    H2 2701   2.568   1.526  10.475 -1.5239  0.9794  0.6975
  177MPD1    H3 2702   2.686   1.704  10.389  0.0969  0.7387  0.6042
  177MPD1     N 2703   2.344   1.821  10.094  0.3698 -0.2160 -0.2408
  177MPD1    H5 2704   2.255   1.784  10.061  1.2422 -1.1476 -1.5139
  177MPD1    N1 2705   2.323   1.453  10.400 -0.2376 -0.3165 -0.3402
  177MPD1    H6 2706   2.262   1.400  10.338  0.4358 -0.4893 -0.8568
  177MPD1    H7 2707   2.390   1.384  10.435  0.2717 -0.8971 -2.4671
  178MPD1     C 2708   4.581   3.718  16.470 -0.1600  0.7374 -0.3475
  178MPD1    C1 2709   4.686   3.768  16.544  0.2720  0.5315  0.7159
  178MPD1    C2 2710   0.007   3.687  16.641  0.3360 -0.4553  0.1741
  178MPD1    C3 2711   4.709   3.555  16.649 -0.4269 -0.2801 -0.3374
  178MPD1    C4 2712   4.623   3.496  16.560 -0.2317  0.4390 -0.7850
  178MPD1    C5 2713   4.559   3.583  16.473 -0.7565  0.3693 -0.4218
  178MPD1     H 2714   0.070   3.746  16.707 -0.9332 -1.3153  2.1431
  178MPD1    H1 2715   4.606   3.389  16.550  3.9178 -0.2995  0.0661
  178MPD1    H2 2716   4.526   3.785  16.405 -4.3949 -1.4893  0.9810
  178MPD1    H3 2717   4.487   3.535  16.408  1.1989 -0.8791 -1.6354
  178MPD1     N 2718   0.043   3.466  16.741 -0.2107  0.7238 -0.3359
  178MPD1    H5 2719   0.021   3.368  16.751  2.3733 -0.0216 -2.1082
  178MPD1    N1 2720   4.714   3.899  16.538  0.0793  0.0461  0.3632
  178MPD1    H6 2721   0.088   3.900  16.560 -0.2315  2.5812  1.6642
  178MPD1    H7 2722   4.684   3.956  16.459  1.8468 -0.6736 -0.8312
  179MPD1     C 2723   0.261   1.626  15.622 -0.0813  0.8996 -0.3273
  179MPD1    C1 2724   0.130   1.590  15.595 -0.4439 -0.3056 -0.6550
  179MPD1    C2 2725   0.085   1.463  15.618 -0.3535 -0.0143  0.1249
  179MPD1    C3 2726   0.173   1.360  15.645  0.0152 -0.3354 -0.2550
  179MPD1    C4 2727   0.302   1.400  15.676  0.6575  0.0003  0.4103
  179MPD1    C5 2728   0.341   1.530  15.672  0.3608  0.2376  0.0667
  179MPD1     H 2729   4.708   1.440  15.591 -1.3846  1.0185  3.2378
  179MPD1    H1 2730   0.384   1.334  15.703 -1.3157 -3.0500 -0.9860
  179MPD1    H2 2731   0.305   1.724  15.612 -0.0502  0.7145 -2.0428
  179MPD1    H3 2732   0.446   1.550  15.693  0.7747 -2.3678  0.4470
  179MPD1     N 2733   0.132   1.229  15.657  0.4095  0.0327 -0.3249
  179MPD1    H5 2734   0.210   1.178  15.698 -0.2531  0.1110  1.0483
  179MPD1    N1 2735   0.041   1.694  15.567  0.0981 -0.0241 -0.3605
  179MPD1    H6 2736   4.689   1.664  15.508  1.3931  0.3632 -2.2508
  179MPD1    H7 2737   0.089   1.771  15.522  0.5214  1.4216  2.5572
  180MPD1     C 2738   4.584   2.584  15.002  0.6076  0.5636 -0.4867
  180MPD1    C1 2739   4.693   2.556  14.923  0.0282 -0.4569  0.6358
  180MPD1    C2 2740   4.682   2.479  14.810  0.1775  0.2972  0.3613
  180MPD1    C3 2741   4.555   2.449  14.763 -0.1286 -0.0566  0.6803
  180MPD1    C4 2742   4.445   2.499  14.826 -0.3542 -0.5828  0.4151
  180MPD1    C5 2743   4.454   2.567  14.945 -0.3030  0.4875 -0.2968
  180MPD1     H 2744   0.043   2.444  14.754  1.3164  1.5072  1.3430
  180MPD1    H1 2745   4.342   2.483  14.799 -0.1409 -0.7248 -0.3083
  180MPD1    H2 2746   4.595   2.630  15.099 -0.8497 -0.7628  0.2963
  180MPD1    H3 2747   4.369   2.610  14.996  0.3913  0.5949  0.7863
  180MPD1     N 2748   4.544   2.369  14.645 -0.7940 -0.7188 -0.2428
  180MPD1    H5 2749   4.627   2.322  14.609 -0.9415 -0.1256 -1.3607
  180MPD1    N1 2750   0.094   2.571  14.974  0.0683  0.7949  0.2672
  180MPD1    H6 2751   0.095   2.654  15.032 -0.9771 -2.1293  4.4806
  180MPD1    H7 2752   0.165   2.579  14.901 -0.3690 -0.4573 -0.2988
  181MPD1     C 2753   0.986   4.570   9.973 -0.2340 -0.3577 -0.3333
  181MPD1    C1 2754   0.999   4.430   9.996 -0.1278 -0.2321 -0.0369
  181MPD1    C2 2755   1.119   4.381  10.041 -0.7166 -0.6295  0.2257
  181MPD1    C3 2756   1.223   4.468  10.058 -0.0860 -0.0938  0.6455
  181MPD1    C4 2757   1.203   4.602  10.043  0.5989 -0.4820  0.0363
  181MPD1    C5 2758   1.090   4.660   9.994 -0.3766 -0.1613  0.5948
  181MPD1     H 2759   1.139   4.277  10.060  0.7469 -0.2599  0.7648
  181MPD1    H1 2760   1.289   4.666  10.056  1.3952 -2.0640  2.5186
  181MPD1    H2 2761   0.903   4.619   9.924 -0.1399  0.1003 -0.0349
  181MPD1    H3 2762   1.078   0.039   9.969  3.3902  1.1490  4.3316
  181MPD1     N 2763   1.348   4.426  10.113 -0.1727 -1.0153 -0.3026
  181MPD1    H5 2764   1.422   4.496  10.111  0.1980 -1.3586  1.7316
  181MPD1    N1 2765   0.880   4.350  10.012  0.5983 -0.0857  0.1076
  181MPD1    H6 2766   0.905   4.258   9.976  2.6851  0.4386  0.2176
  181MPD1    H7 2767   0.808   4.381   9.946  0.2910  0.9486  0.9313
  182MPD1     C 2768   3.578   3.320   1.685 -0.0030 -0.1894 -0.4441
  182MPD1    C1 2769   3.552   3.400   1.793  0.4102 -0.3370  0.5055
  182MPD1    C2 2770   3.416   3.434   1.821 -0.7780  0.3872  0.2855
  182MPD1    C3 2771   3.312   3.393   1.734  0.2172  0.2978  0.2844
  182MPD1    C4 2772   3.349   3.316   1.629 -0.1191 -0.7778 -0.1612
  182MPD1    C5 2773   3.478   3.292   1.598  0.2068 -0.1461 -0.1421
  182MPD1     H 2774   3.391   3.492   1.909 -1.0956 -0.3223  0.6596
  182MPD1    H1 2775   3.285   3.288   1.546  0.7716  0.0366 -1.1252
  182MPD1    H2 2776   3.672   3.268   1.673  0.2061  0.5342 -1.9348
  182MPD1    H3 2777   3.500   3.238   1.507  1.7731 -0.5604  0.4724
  182MPD1     N 2778   3.175   3.426   1.738  0.4987  0.4111  0.4354
  182MPD1    H5 2779   3.112   3.383   1.671  0.9564  0.5185 -0.0640
  182MPD1    N1 2780   3.643   3.410   1.897  0.3765  0.4286 -0.6508
  182MPD1    H6 2781   3.734   3.436   1.860  1.3043 -1.6808  0.1534
  182MPD1    H7 2782   3.612   3.490   1.951 -0.5986 -1.3880  1.4870
  183MPD1     C 2783   2.726   4.582  10.541 -0.6854 -0.6193 -0.1724
  183MPD1    C1 2784   2.761   4.472  10.460 -0.1301  0.3897 -0.2130
  183MPD1    C2 2785   2.748   4.485  10.322 -0.2568  0.4000 -0.1085
  183MPD1    C3 2786   2.703   4.603  10.262 -0.2907 -0.4875 -0.2017
  183MPD1    C4 2787   2.665   4.711  10.340  0.1240 -0.1441 -0.0712
  183MPD1    C5 2788   2.684   4.697  10.480  0.0132  0.4750  0.2247
  183MPD1     H 2789   2.756   4.400  10.255 -2.2102  0.6386 -0.6397
  183MPD1    H1 2790   2.626   0.079  10.301  0.7883 -0.7941 -2.2831
  183MPD1    H2 2791   2.728   4.576  10.650  1.3225 -1.5649 -0.2521
  183MPD1    H3 2792   2.666   0.058  10.543 -1.8073  0.4842 -0.3091
  183MPD1     N 2793   2.675   4.599  10.123  0.1162 -0.1858  0.1064
  183MPD1    H5 2794   2.697   4.512  10.074 -1.0128 -0.0155 -0.7007
  183MPD1    N1 2795   2.746   4.341  10.518 -0.2263 -0.5428  0.3668
  183MPD1    H6 2796   2.785   4.342  10.613  0.4811 -0.0691  0.0679
  183MPD1    H7 2797   2.793   4.268  10.465 -1.3544  1.1898 -2.9619
  184MPD1     C 2798   2.043   1.635  10.352  0.8515  0.8534 -0.4047
  184MPD1    C1 2799   1.973   1.627  10.236  0.3922  0.6218 -0.2455
  184MPD1    C2 2800   1.917   1.733  10.181 -0.3791  0.1076  0.3111
  184MPD1    C3 2801   1.933   1.854  10.250 -0.1687 -0.8808 -0.3124
  184MPD1    C4 2802   2.023   1.855  10.353 -0.2466 -0.1060  0.1726
  184MPD1    C5 2803   2.073   1.750  10.411  0.1970 -0.1936 -0.1602
  184MPD1     H 2804   1.877   1.723  10.081 -1.4865 -2.2208  0.9807
  184MPD1    H1 2805   2.030   1.950  10.405 -0.4655  0.0398 -0.0652
  184MPD1    H2 2806   2.083   1.552  10.410  0.6367  0.4600 -0.8219
  184MPD1    H3 2807   2.143   1.757  10.494  2.2429  1.3990 -2.0082
  184MPD1     N 2808   1.882   1.976  10.198  0.2728 -0.4017 -0.4904
  184MPD1    H5 2809   1.909   2.067  10.234  0.3298 -0.5256 -0.2250
  184MPD1    N1 2810   1.985   1.507  10.159 -0.2583  0.2896 -0.3336
  184MPD1    H6 2811   2.014   1.428  10.216 -1.4339  0.0458 -0.0751
  184MPD1    H7 2812   1.899   1.495  10.106 -0.5320 -1.5622  0.5279
  185MPD1     C 2813   1.057   2.244   9.647  0.2352 -0.1796 -0.4510
  185MPD1    C1 2814   1.123   2.347   9.706  0.8431 -0.2949  0.8826
  185MPD1    C2 2815   1.245   2.329   9.766  0.2712 -0.3775  0.1014
  185MPD1    C3 2816   1.302   2.205   9.773  0.3481 -0.3452 -0.0668
  185MPD1    C4 2817   1.228   2.098   9.728 -0.0497  0.2194 -0.0050
  185MPD1    C5 2818   1.113   2.121   9.654  0.2698 -0.5964 -0.8188
  185MPD1     H 2819   1.301   2.412   9.808 -0.3233 -0.2622  0.6571
  185MPD1    H1 2820   1.274   2.000   9.729  1.8011  1.0907  1.6878
  185MPD1    H2 2821   0.956   2.256   9.612  0.0563  2.9198  1.1509
  185MPD1    H3 2822   1.062   2.037   9.609  0.2223 -0.6230 -0.7154
  185MPD1     N 2823   1.426   2.188   9.833  1.1309  0.0126  0.1917
  185MPD1    H5 2824   1.464   2.098   9.858  0.7325 -0.6185 -1.4387
  185MPD1    N1 2825   1.069   2.479   9.694  0.1952 -0.6554  0.0563
  185MPD1    H6 2826   1.092   2.547   9.766  0.1104 -0.2723 -0.2828
  185MPD1    H7 2827   0.968   2.470   9.694  0.0380  1.1809 -0.7636
  186MPD1     C 2828   0.780   0.733  16.105  0.2515  0.5262  0.0315
  186MPD1    C1 2829   0.810   0.841  16.026  0.3152  0.2174 -0.1628
  186MPD1    C2 2830   0.856   0.962  16.082 -0.2230  0.3835 -0.0296
  186MPD1    C3 2831   0.865   0.970  16.217  0.5265 -0.1080 -0.2510
  186MPD1    C4 2832   0.835   0.859  16.296 -0.3824 -0.2842 -0.4032
  186MPD1    C5 2833   0.797   0.741  16.243 -0.4623  0.0296  0.2229
  186MPD1     H 2834   0.866   1.048  16.016 -2.1285 -0.8084 -1.8400
  186MPD1    H1 2835   0.823   0.863  16.404 -1.3128  4.1262 -0.7048
  186MPD1    H2 2836   0.755   0.632  16.075  2.4024  0.4123 -1.3768
  186MPD1    H3 2837   0.771   0.664  16.314 -1.1232  0.1887  0.1512
  186MPD1     N 2838   0.890   1.085  16.292  0.4179 -0.2288 -0.0566
  186MPD1    H5 2839   0.885   1.077  16.393 -2.1913  3.3807  0.1074
  186MPD1    N1 2840   0.822   0.824  15.888  0.2118  0.0866 -0.2229
  186MPD1    H6 2841   0.797   0.904  15.831  0.7166  0.7009  0.4237
  186MPD1    H7 2842   0.764   0.747  15.855  0.0656 -0.3751  1.1084
  187MPD1     C 2843   0.500   3.412  17.555 -0.3323 -0.6141  1.2447
  187MPD1    C1 2844   0.469   3.321  17.454 -0.2617 -0.7074 -0.3268
  187MPD1    C2 2845   0.337   3.317  17.417  0.1214  0.5250  0.0912
  187MPD1    C3 2846   0.248   3.422  17.449  0.4155  0.2510 -0.2757
  187MPD1    C4 2847   0.296   3.521  17.532 -0.4246  0.2683  0.2471
  187MPD1    C5 2848   0.411   3.502  17.598 -0.1520  0.0607 -0.1329
  187MPD1     H 2849   0.297   3.249  17.342  1.2191  1.0080 -0.9393
  187MPD1    H1 2850   0.231   3.602  17.560 -3.5732 -2.5047  0.9491
  187MPD1    H2 2851   0.601   3.413  17.593 -0.0572  2.3786  0.4601
  187MPD1    H3 2852   0.449   3.580  17.664  0.3065  2.3788 -3.1173
  187MPD1     N 2853   0.116   3.450  17.397 -0.1231 -0.0007  0.3457
  187MPD1    H5 2854   0.078   3.540  17.425  0.5402  0.2478  0.4493
  187MPD1    N1 2855   0.545   3.212  17.431 -0.3902  0.0674  0.1285
  187MPD1    H6 2856   0.546   3.182  17.334  1.1617 -0.7104  0.3853
  187MPD1    H7 2857   0.646   3.221  17.445  0.1237 -3.4155 -1.3507
  188MPD1     C 2858   0.231   2.781   9.771  0.1010  0.2756  0.1277
  188MPD1    C1 2859   0.168   2.904   9.799 -0.0032  0.4353  0.1054
  188MPD1    C2 2860   0.082   2.902   9.908  0.1993 -0.1448 -0.3115
  188MPD1    C3 2861   0.063   2.789   9.988 -0.5287 -0.6287 -0.9109
  188MPD1    C4 2862   0.142   2.684   9.963  0.4257 -0.1306  0.5271
  188MPD1    C5 2863   0.208   2.674   9.848 -0.3918  0.3946  0.0733
  188MPD1     H 2864   0.010   2.983   9.917  0.1157 -0.3903  1.2804
  188MPD1    H1 2865   0.120   2.595  10.020  0.5511  1.2464  2.7221
  188MPD1    H2 2866   0.291   2.766   9.682 -0.8856  2.9708 -1.0054
  188MPD1    H3 2867   0.264   2.582   9.834  0.6117  1.0808 -0.3980
  188MPD1     N 2868   4.697   2.784  10.098 -0.2533 -0.1558 -0.0119
  188MPD1    H5 2869   4.700   2.696  10.148 -1.6820  0.2430  0.7654
  188MPD1    N1 2870   0.164   3.007   9.704 -0.2656  0.2390 -0.3009
  188MPD1    H6 2871   0.243   3.007   9.641  0.6829 -1.2172  0.9057
  188MPD1    H7 2872   0.131   3.101   9.725 -1.0363 -0.4389  1.5742
  189MPD1     C 2873   1.683   3.711   0.067 -0.1803 -0.4353 -0.0644
  189MPD1    C1 2874   1.617   3.804   0.150  0.1153 -0.7126  0.3633
  189MPD1    C2 2875   1.480   3.801   0.160 -0.3864  1.2622 -0.6809
  189MPD1    C3 2876   1.399   3.700   0.096  0.0943 -0.1012 -0.1443
  189MPD1    C4 2877   1.467   3.597   0.034  0.1199 -0.3034  0.0655
  189MPD1    C5 2878   1.601   3.605   0.014 -0.0234  0.2041  0.0387
  189MPD1     H 2879   1.429   3.878   0.218 -0.0107  0.8577  0.1863
  189MPD1    H1 2880   1.407   3.519  17.690 -3.5490  1.0327  2.5950
  189MPD1    H2 2881   1.790   3.708   0.049  0.0050  2.0976  0.5689
  189MPD1    H3 2882   1.653   3.534  17.654 -0.5254  0.6463 -0.8958
  189MPD1     N 2883   1.260   3.708   0.100 -0.3396  0.4919 -0.4203
  189MPD1    H5 2884   1.210   3.784   0.144  1.8983  1.3908  0.5375
  189MPD1    N1 2885   1.705   3.898   0.211 -0.1006  0.4782  0.8632
  189MPD1    H6 2886   1.796   3.863   0.240  0.1519  0.2465 -0.1774
  189MPD1    H7 2887   1.668   3.954   0.287  1.4192  1.1401  1.1286
  190MPD1     C 2888   4.692   2.919  15.240 -1.0411 -0.2483 -0.1746
  190MPD1    C1 2889   4.691   2.866  15.367 -0.3101  0.2432  0.8246
  190MPD1    C2 2890   0.047   2.760  15.385  0.1888 -1.1171 -1.1238
  190MPD1    C3 2891   0.152   2.725  15.297  0.6179  0.4337  0.3175
  190MPD1    C4 2892   0.167   2.799  15.185  0.8718  0.8061  0.6701
  190MPD1    C5 2893   0.075   2.894  15.165  0.2545 -0.0944  0.3032
  190MPD1     H 2894   0.033   2.702  15.475 -2.2507  0.6241 -0.4080
  190MPD1    H1 2895   0.245   2.775  15.113 -1.7915 -0.6360 -1.7249
  190MPD1    H2 2896   4.620   2.994  15.211 -1.0392  0.4462  1.6185
  190MPD1    H3 2897   0.079   2.949  15.071  1.2195  0.1016  0.4691
  190MPD1     N 2898   0.230   2.609  15.327 -0.4325  0.0847 -0.1716
  190MPD1    H5 2899   0.210   2.568  15.418 -1.0360 -1.8692 -1.1814
  190MPD1    N1 2900   4.585   2.883  15.454 -0.6174 -0.1955 -0.1219
  190MPD1    H6 2901   4.605   2.847  15.547  2.4288 -0.5726 -0.9118
  190MPD1    H7 2902   4.554   2.979  15.464  0.0878 -0.0319  0.5737
  191MPD1     C 2903   4.140   4.255  12.847 -0.1861 -0.4061  0.4763
  191MPD1    C1 2904   4.232   4.322  12.766 -0.2490  0.2591 -0.0668
  191MPD1    C2 2905   4.200   4.447  12.714  0.3274 -0.6187  0.0752
  191MPD1    C3 2906   4.071   4.501  12.726  0.2016  0.2344  0.2898
  191MPD1    C4 2907   3.973   4.417  12.784  0.1690 -0.6692 -0.5595
  191MPD1    C5 2908   4.014   4.302  12.845 -0.5654 -0.3848  0.1077
  191MPD1     H 2909   4.270   4.498  12.649 -1.0225  0.4787 -0.4980
  191MPD1    H1 2910   3.869   4.444  12.766  0.7159  0.2485 -2.3753
  191MPD1    H2 2911   4.158   4.159  12.893  1.0966 -1.3673 -2.0319
  191MPD1    H3 2912   3.931   4.245  12.884 -2.0402  1.9483  0.3988
  191MPD1     N 2913   4.048   4.632  12.678  0.4241 -0.5141 -0.2014
  191MPD1    H5 2914   4.135   4.673  12.647 -0.4521  1.6035  0.1664
  191MPD1    N1 2915   4.367   4.287  12.779 -0.4935 -0.2885  0.7736
  191MPD1    H6 2916   4.382   4.188  12.798  0.3678 -0.2650  0.2035
  191MPD1    H7 2917   4.433   4.314  12.707 -2.3891  0.6145 -0.6276
  192MPD1     C 2918   3.341   0.567  12.964 -0.4747 -0.6995 -0.1240
  192MPD1    C1 2919   3.473   0.570  13.008  0.0495  0.0102 -0.2213
  192MPD1    C2 2920   3.569   0.509  12.929 -0.2306 -0.5160 -0.0102
  192MPD1    C3 2921   3.542   0.462  12.802 -0.4348  0.1859  1.1665
  192MPD1    C4 2922   3.412   0.475  12.754 -0.2738  0.1481  0.7912
  192MPD1    C5 2923   3.312   0.530  12.836  0.0690  0.1048 -0.1391
  192MPD1     H 2924   3.667   0.488  12.970  0.0385 -0.4467 -0.6130
  192MPD1    H1 2925   3.385   0.454  12.651 -2.7606 -1.1455  1.7076
  192MPD1    H2 2926   3.263   0.594  13.034  0.3243 -5.0449  2.4515
  192MPD1    H3 2927   3.209   0.521  12.805  0.1614 -0.5434 -0.2647
  192MPD1     N 2928   3.630   0.395  12.722  0.3443  0.0798 -0.2039
  192MPD1    H5 2929   3.596   0.344  12.641  2.0003 -0.7790 -0.3711
  192MPD1    N1 2930   3.497   0.579  13.146 -0.1086 -0.8749  0.1242
  192MPD1    H6 2931   3.585   0.620  13.176 -2.0053  2.3807  1.1869
  192MPD1    H7 2932   3.418   0.625  13.191 -1.2593 -0.9607 -1.7733
  193MPD1     C 2933   3.687   4.500  16.647 -0.0147 -0.1103  0.0596
  193MPD1    C1 2934   3.641   4.600  16.730  0.1760 -0.0514  0.2288
  193MPD1    C2 2935   3.728   4.701  16.779 -0.2615  0.3006  0.1405
  193MPD1    C3 2936   3.862   4.683  16.759  0.4413 -0.2938 -0.2176
  193MPD1    C4 2937   3.907   4.583  16.678  0.2068  0.0601 -0.4155
  193MPD1    C5 2938   3.822   4.493  16.623 -0.2026 -0.3440  1.7536
  193MPD1     H 2939   3.691   0.055  16.844  1.8417  1.0315  0.4628
  193MPD1    H1 2940   4.013   4.584  16.660  0.4894  1.0351  1.2375
  193MPD1    H2 2941   3.628   4.413  16.618  0.4942 -1.3007  2.6121
  193MPD1    H3 2942   3.859   4.419  16.554 -0.1581  0.1518  1.2373
  193MPD1     N 2943   3.964   0.046  16.804  0.3135  0.3416 -0.1860
  193MPD1    H5 2944   4.056   0.005  16.794 -0.5346 -1.3487 -1.0744
  193MPD1    N1 2945   3.513   4.577  16.784  0.3870 -0.0501  0.3011
  193MPD1    H6 2946   3.451   4.515  16.732 -1.2773  1.3286  0.6526
  193MPD1    H7 2947   3.474   4.669  16.805 -0.8028 -0.4105 -0.3601
  194MPD1     C 2948   1.866   2.118  16.448  0.6313  0.2070 -0.1470
  194MPD1    C1 2949   1.805   1.997  16.406 -0.2842  0.3024  0.5530
  194MPD1    C2 2950   1.808   1.891  16.484  0.4032 -0.1928  0.3736
  194MPD1    C3 2951   1.889   1.896  16.596  0.3861  0.2555  0.2265
  194MPD1    C4 2952   1.940   2.012  16.641 -0.5665 -0.9589 -0.2995
  194MPD1    C5 2953   1.933   2.126  16.568  0.1888  0.2032  0.4735
  194MPD1     H 2954   1.764   1.799  16.448 -1.3334 -0.0176  2.0947
  194MPD1    H1 2955   1.991   2.016  16.737 -0.0958 -1.2646 -0.5358
  194MPD1    H2 2956   1.851   2.212  16.397  0.3667  0.0266 -0.4078
  194MPD1    H3 2957   1.965   2.223  16.605  0.7850 -0.2803  1.2102
  194MPD1     N 2958   1.905   1.781  16.685  0.2264 -0.2543 -0.1068
  194MPD1    H5 2959   1.940   1.790  16.780  0.2962  0.4862 -0.2027
  194MPD1    N1 2960   1.729   2.003  16.292  0.1424  0.1831  0.3885
  194MPD1    H6 2961   1.735   1.919  16.235  0.6843 -0.0355  0.7701
  194MPD1    H7 2962   1.768   2.079  16.237 -0.2437 -0.1837 -0.3822
  195MPD1     C 2963   3.405   4.507   0.212  0.5433  0.2262  0.1991
  195MPD1    C1 2964   3.398   4.433   0.326  0.8165  0.6603  0.3364
  195MPD1    C2 2965   3.472   4.319   0.333  0.7277 -0.3288 -0.6371
  195MPD1    C3 2966   3.571   4.290   0.240 -0.2594 -0.6033 -0.7096
  195MPD1    C4 2967   3.587   4.372   0.127  0.3595 -0.1872  0.4024
  195MPD1    C5 2968   3.495   4.473   0.117  0.2723 -0.0683  0.4346
  195MPD1     H 2969   3.460   4.254   0.419  0.0582 -1.4176 -1.5509
  195MPD1    H1 2970   3.665   4.359   0.053 -2.0746  0.5744 -2.2924
  195MPD1    H2 2971   3.348   4.598   0.200 -1.9382 -1.2998  0.3594
  195MPD1    H3 2972   3.501   4.537   0.030  0.4175 -1.0573 -0.2748
  195MPD1     N 2973   3.648   4.171   0.246 -0.2181  0.6882 -1.0674
  195MPD1    H5 2974   3.726   4.171   0.180  0.1921 -0.2415 -0.5897
  195MPD1    N1 2975   3.300   4.465   0.422 -0.1918  0.5454  0.9594
  195MPD1    H6 2976   3.292   4.566   0.430 -1.7867  0.3748  1.4794
  195MPD1    H7 2977   3.327   4.412   0.505 -0.5090 -0.6105  0.3362
  196MPD1     C 2978   3.589   2.384   1.155  0.0880  1.2018  0.6821
  196MPD1    C1 2979   3.539   2.495   1.085 -0.1221  0.1524  0.5406
  196MPD1    C2 2980   3.565   2.618   1.157  0.7400  0.1106  0.8078
  196MPD1    C3 2981   3.640   2.625   1.269 -0.0260  0.3073  0.2374
  196MPD1    C4 2982   3.676   2.510   1.334 -0.9514  0.2026 -0.5799
  196MPD1    C5 2983   3.660   2.389   1.271  0.2376 -0.0879 -0.4991
  196MPD1     H 2984   3.536   2.708   1.105  1.5967 -1.4628 -2.3526
  196MPD1    H1 2985   3.726   2.508   1.431 -0.5058  1.6553 -0.7807
  196MPD1    H2 2986   3.578   2.285   1.112 -0.6888  1.8219 -0.5427
  196MPD1    H3 2987   3.695   2.300   1.322 -0.8484  0.6217  1.4898
  196MPD1     N 2988   3.686   2.745   1.333 -0.0905 -0.0980 -0.3828
  196MPD1    H5 2989   3.735   2.737   1.422  0.4150  4.5113 -0.2581
  196MPD1    N1 2990   3.459   2.482   0.976 -0.4383  0.1284  0.1258
  196MPD1    H6 2991   3.504   2.536   0.902  1.5872 -2.3037 -0.4363
  196MPD1    H7 2992   3.464   2.386   0.941 -2.7221 -0.5309  1.5822
  197MPD1     C 2993   2.856   4.500  17.495  0.8784 -0.3961  0.5332
  197MPD1    C1 2994   2.922   4.600  17.566  0.2019 -0.6474 -0.3763
  197MPD1    C2 2995   2.962   4.714  17.504  0.3057 -0.0487  0.7620
  197MPD1    C3 2996   2.926   0.012  17.373  0.5242  0.5709 -0.0034
  197MPD1    C4 2997   2.863   4.636  17.297 -1.0332  0.7021 -0.1441
  197MPD1    C5 2998   2.836   4.516  17.358 -0.1541  0.3725  0.2510
  197MPD1     H 2999   3.005   0.075  17.553 -2.6511  1.3008  0.9663
  197MPD1    H1 3000   2.846   4.651  17.191 -2.1692  2.3012  0.2669
  197MPD1    H2 3001   2.823   4.403  17.530  4.4917 -0.9159  2.4189
  197MPD1    H3 3002   2.788   4.437  17.302  0.5062 -0.6192  1.0919
  197MPD1     N 3003   2.944   0.134  17.304  0.4977  0.2890 -0.2489
  197MPD1    H5 3004   2.904   0.130  17.211 -0.3608  0.3844  0.1132
  197MPD1    N1 3005   2.919   4.602   0.002 -0.3114 -0.1526 -0.3639
  197MPD1    H6 3006   2.918   4.502   0.019  0.1851 -0.0553  0.2527
  197MPD1    H7 3007   2.997   4.647   0.051  0.3216 -2.0845  0.3852
  198MPD1     C 3008   0.700   2.953  15.996  0.5944  0.4348  0.0242
  198MPD1    C1 3009   0.682   3.008  15.866  0.5179 -0.7510 -0.0719
  198MPD1    C2 3010   0.663   3.153  15.851 -1.2477 -0.1397  0.3086
  198MPD1    C3 3011   0.643   3.231  15.963  0.1998  0.7219 -1.3944
  198MPD1    C4 3012   0.651   3.180  16.089 -0.2499 -0.8453 -0.2684
  198MPD1    C5 3013   0.685   3.047  16.105 -1.3353 -0.0639 -0.1594
  198MPD1     H 3014   0.656   3.208  15.758  0.0920  0.2441  0.4298
  198MPD1    H1 3015   0.626   3.239  16.177 -0.8060  0.7592 -1.4827
  198MPD1    H2 3016   0.729   2.849  16.002  0.0435  0.4211  2.3176
  198MPD1    H3 3017   0.697   3.008  16.205  2.4284 -0.2544 -0.6945
  198MPD1     N 3018   0.593   3.367  15.943  0.1607 -0.3568 -1.0173
  198MPD1    H5 3019   0.574   3.394  15.847  0.1626  0.8240 -0.6915
  198MPD1    N1 3020   0.712   2.930  15.749  0.2372 -0.3724  0.2727
  198MPD1    H6 3021   0.676   2.836  15.764  3.0621 -1.1082  2.4712
  198MPD1    H7 3022   0.651   2.959  15.673  1.6550 -0.0043 -0.7228
  199MPD1     C 3023   3.320   0.805   9.664 -0.3860 -0.1748 -0.4067
  199MPD1    C1 3024   3.235   0.909   9.649 -0.2929  0.5147  0.2635
  199MPD1    C2 3025   3.105   0.900   9.680  0.1989 -0.9163 -0.3556
  199MPD1    C3 3026   3.044   0.788   9.731  0.1215 -0.6260  0.4473
  199MPD1    C4 3027   3.136   0.681   9.760  0.2754  0.4885  0.3157
  199MPD1    C5 3028   3.268   0.696   9.729  0.2912 -0.2930  0.5688
  199MPD1     H 3029   3.034   0.977   9.653  0.5575 -0.6405 -0.5059
  199MPD1    H1 3030   3.100   0.592   9.811 -0.7780  0.7971  0.1265
  199MPD1    H2 3031   3.428   0.811   9.648 -0.3960 -1.1313 -0.8826
  199MPD1    H3 3032   3.336   0.615   9.752 -1.1949 -1.0380  2.2356
  199MPD1     N 3033   2.905   0.769   9.754 -0.6827 -0.0532  0.3576
  199MPD1    H5 3034   2.871   0.675   9.772 -1.2774 -0.0761 -0.8568
  199MPD1    N1 3035   3.281   1.021   9.582 -0.5747 -0.3429 -0.2616
  199MPD1    H6 3036   3.255   1.103   9.636  0.1280  0.1419 -0.6593
  199MPD1    H7 3037   3.382   1.027   9.572 -0.4606  1.0001  1.6478
  200MPD1     C 3038   0.407   4.268  14.951  0.2535  0.2921  0.2183
  200MPD1    C1 3039   0.522   4.250  15.031  0.4354 -0.4910  0.2728
  200MPD1    C2 3040   0.635   4.319  14.994  0.0006  0.2856  0.3316
  200MPD1    C3 3041   0.633   4.425  14.906  0.1409 -0.9747  0.2196
  200MPD1    C4 3042   0.516   4.451  14.839  0.2632  0.0074 -1.2300
  200MPD1    C5 3043   0.405   4.370  14.858 -0.0322 -0.2947 -0.5789
  200MPD1     H 3044   0.732   4.305  15.040 -0.0200  2.5919  1.0528
  200MPD1    H1 3045   0.500   4.537  14.775 -0.5627  1.7201  1.2862
  200MPD1    H2 3046   0.320   4.204  14.949  1.2553 -1.0942  0.4796
  200MPD1    H3 3047   0.314   4.396  14.805 -0.1864 -0.3251 -0.3315
  200MPD1     N 3048   0.759   4.497  14.899  0.7139  0.5379  0.1263
  200MPD1    H5 3049   0.835   4.471  14.962 -0.0506 -1.1218  0.3717
  200MPD1    N1 3050   0.540   4.137  15.106 -0.1009 -0.6834 -0.5472
  200MPD1    H6 3051   0.608   4.134  15.181 -0.4059  1.4549 -0.1642
  200MPD1    H7 3052   0.451   4.105  15.144 -0.1004  0.3069  0.2938
  201MPD1     C 3053   3.258   4.094  12.994 -0.2368  0.6244 -0.2542
  201MPD1    C1 3054   3.263   3.997  13.088 -0.3376 -0.4655 -0.5995
  201MPD1    C2 3055   3.315   3.870  13.057  0.2087 -0.0507 -0.4177
  201MPD1    C3 3056   3.348   3.842  12.922 -0.3764  0.8639  0.1330
  201MPD1    C4 3057   3.346   3.943  12.828  0.7799 -0.5082  0.0971
  201MPD1    C5 3058   3.308   4.070  12.869  0.2629 -0.7930  0.4910
  201MPD1     H 3059   3.331   3.797  13.135  1.5180  1.3075  0.5954
  201MPD1    H1 3060   3.375   3.931  12.725  1.9087  2.1326  0.1010
  201MPD1    H2 3061   3.223   4.196  13.008  0.5401  1.2848 -3.0649
  201MPD1    H3 3062   3.308   4.149  12.795 -1.4233 -0.5433  0.7601
  201MPD1     N 3063   3.403   3.716  12.901  0.2898  0.1846  0.8959
  201MPD1    H5 3064   3.409   3.652  12.979 -0.6533 -1.2527 -0.2105
  201MPD1    N1 3065   3.240   4.027  13.224  0.0165 -0.4087 -0.8870
  201MPD1    H6 3066   3.232   3.954  13.295  1.4628  1.6833  1.4189
  201MPD1    H7 3067   3.171   4.096  13.255  0.4359 -1.4256  2.3320
  202MPD1     C 3068   2.271   3.669   9.709  0.6973 -0.4369  0.1441
  202MPD1    C1 3069   2.346   3.560   9.742  0.3476 -0.6753  0.1631
  202MPD1    C2 3070   2.485   3.579   9.752  0.7794 -0.1448  0.0405
  202MPD1    C3 3071   2.547   3.695   9.705 -0.0248 -0.0882  0.4574
  202MPD1    C4 3072   2.469   3.790   9.640 -0.2311 -0.0952 -0.1608
  202MPD1    C5 3073   2.335   3.775   9.643 -0.1211  0.2746 -0.5977
  202MPD1     H 3074   2.538   3.500   9.803 -2.3026 -0.5733  2.5466
  202MPD1    H1 3075   2.512   3.869   9.580 -0.3807 -1.5117 -2.1330
  202MPD1    H2 3076   2.164   3.674   9.723  0.6365 -3.9868  0.9186
  202MPD1    H3 3077   2.281   3.863   9.612 -0.2706 -0.0892 -1.3650
  202MPD1     N 3078   2.690   3.715   9.701 -0.5655 -0.0855  0.1223
  202MPD1    H5 3079   2.716   3.811   9.680 -2.4070 -0.0316 -1.8563
  202MPD1    N1 3080   2.285   3.464   9.821  0.3388 -0.3326  0.5179
  202MPD1    H6 3081   2.337   3.378   9.836 -0.0429 -0.8209 -0.9672
  202MPD1    H7 3082   2.187   3.442   9.805  0.8194 -1.0626 -1.3952
  203MPD1     C 3083   2.474   0.094  12.130  0.0384 -0.1201 -0.8015
  203MPD1    C1 3084   2.562   0.005  12.076 -0.4487 -0.6432 -0.3630
  203MPD1    C2 3085   2.555   4.600  12.123  0.0878  0.5115  0.3605
  203MPD1    C3 3086   2.478   4.565  12.235  0.9556  0.6184  0.7989
  203MPD1    C4 3087   2.398   4.666  12.296 -0.6385  0.4517  0.0830
  203MPD1    C5 3088   2.399   0.065  12.239  0.9107  0.6826  0.1008
  203MPD1     H 3089   2.601   4.516  12.072 -2.2015 -0.3252 -0.3091
  203MPD1    H1 3090   2.332   4.641  12.378  1.3437 -2.0425  0.9164
  203MPD1    H2 3091   2.471   0.198  12.101  0.2793  0.6168  1.8740
  203MPD1    H3 3092   2.334   0.143  12.275  0.6179  1.5955 -2.3958
  203MPD1     N 3093   2.487   4.437  12.287  0.4446 -0.1607  0.4508
  203MPD1    H5 3094   2.547   4.368  12.244 -0.1742 -0.7717  0.5596
  203MPD1    N1 3095   2.630   0.034  11.956 -0.8105 -0.4222  0.7574
  203MPD1    H6 3096   2.656   0.132  11.959  3.4939 -1.5385 -1.6220
  203MPD1    H7 3097   2.716   4.706  11.958 -1.2411 -1.1223  0.6052
  204MPD1     C 3098   2.105   0.390   0.423 -0.3600  0.9017 -0.7664
  204MPD1    C1 3099   2.207   0.290   0.436  0.1283  0.1428 -0.2963
  204MPD1    C2 3100   2.244   0.216   0.324  1.1146 -0.4153  0.4723
  204MPD1    C3 3101   2.178   0.240   0.205 -1.0219 -0.1402  0.0438
  204MPD1    C4 3102   2.068   0.329   0.197 -0.1210 -0.6828  0.0186
  204MPD1    C5 3103   2.033   0.399   0.309  1.0517 -0.6528  0.0008
  204MPD1     H 3104   2.337   0.161   0.328  1.1349 -0.3967  0.2608
  204MPD1    H1 3105   1.998   0.332   0.115  0.4625 -0.5827 -0.4710
  204MPD1    H2 3106   2.070   0.438   0.514 -1.5625  0.6981 -1.1211
  204MPD1    H3 3107   1.947   0.464   0.298 -0.0761 -2.2752 -0.7624
  204MPD1     N 3108   2.223   0.174   0.092  0.5301  0.0288  0.0684
  204MPD1    H5 3109   2.297   0.105   0.103 -0.6250 -1.0463  1.1061
  204MPD1    N1 3110   2.283   0.288   0.558 -0.0315 -0.1693 -0.1943
  204MPD1    H6 3111   2.218   0.292   0.636  0.2312 -0.5390  0.0418
  204MPD1    H7 3112   2.337   0.204   0.573 -2.2489 -1.3444  1.1823
  205MPD1     C 3113   2.395   3.686  16.794  0.1393  0.0613  0.6885
  205MPD1    C1 3114   2.444   3.623  16.914  0.3513 -0.0735  0.3655
  205MPD1    C2 3115   2.366   3.595  17.018  0.3914  0.7873  0.3240
  205MPD1    C3 3116   2.235   3.650  17.022  0.0325 -0.0606 -0.1060
  205MPD1    C4 3117   2.184   3.705  16.907 -0.1832 -0.5237 -0.4322
  205MPD1    C5 3118   2.264   3.725  16.796  0.4043 -0.0727 -0.0487
  205MPD1     H 3119   2.411   3.531  17.094 -2.4136 -1.1054  0.3818
  205MPD1    H1 3120   2.086   3.751  16.895 -1.1644 -2.0365  1.8513
  205MPD1    H2 3121   2.462   3.711  16.713 -0.8852  0.9976  0.1464
  205MPD1    H3 3122   2.222   3.769  16.706 -1.9916 -0.2414  0.9893
  205MPD1     N 3123   2.162   3.653  17.141  0.3403 -0.0712 -0.3438
  205MPD1    H5 3124   2.087   3.721  17.150  0.8792  0.7275 -2.0035
  205MPD1    N1 3125   2.572   3.564  16.912  0.4205 -0.3594  0.1025
  205MPD1    H6 3126   2.613   3.550  17.004 -1.5319 -0.2434  0.9959
  205MPD1    H7 3127   2.638   3.600  16.843  1.2915 -1.0173  0.5827
  206MPD1     C 3128   2.379   2.154  16.787  0.4865 -0.1392 -1.0259
  206MPD1    C1 3129   2.325   2.031  16.783  0.0105  0.3028 -0.7405
  206MPD1    C2 3130   2.264   1.996  16.666 -0.8554 -0.4893 -0.1907
  206MPD1    C3 3131   2.276   2.070  16.543 -0.4488 -0.4511  1.1788
  206MPD1    C4 3132   2.330   2.197  16.557  0.4114  0.4598 -0.6495
  206MPD1    C5 3133   2.379   2.232  16.677  0.1671 -0.3916 -0.2045
  206MPD1     H 3134   2.197   1.911  16.663 -1.4398  0.0303 -2.0633
  206MPD1    H1 3135   2.340   2.267  16.475  0.0481 -0.1179 -1.1905
  206MPD1    H2 3136   2.411   2.203  16.879 -0.6522  0.6788 -1.0733
  206MPD1    H3 3137   2.425   2.330  16.686 -0.9007  0.1685 -0.9234
  206MPD1     N 3138   2.228   2.030  16.420 -0.5593 -0.0263 -0.0944
  206MPD1    H5 3139   2.207   2.110  16.361  1.6488  0.9126  0.3937
  206MPD1    N1 3140   2.301   1.959  16.896 -0.4824  0.3732  0.0622
  206MPD1    H6 3141   2.384   1.972  16.954 -0.0474  0.4262 -0.5772
  206MPD1    H7 3142   2.294   1.859  16.876  1.1581  0.2764  0.0058
  207MPD1     C 3143   4.060   0.398   9.645  0.5846 -0.0068  0.0398
  207MPD1    C1 3144   4.023   0.294   9.730 -0.3642 -0.3188 -0.6726
  207MPD1    C2 3145   4.113   0.261   9.826  0.1463 -0.7860  0.4026
  207MPD1    C3 3146   4.232   0.331   9.851 -0.2498  0.7873 -0.2481
  207MPD1    C4 3147   4.263   0.436   9.769 -0.7364  0.0226  0.2236
  207MPD1    C5 3148   4.180   0.467   9.667 -0.6224  0.4652 -0.1453
  207MPD1     H 3149   4.080   0.175   9.884 -0.4856 -0.7142  0.1508
  207MPD1    H1 3150   4.357   0.489   9.784 -0.1426 -1.1513  0.6263
  207MPD1    H2 3151   4.002   0.411   9.555  0.0440  0.5504  0.4738
  207MPD1    H3 3152   4.209   0.540   9.592  0.7276  0.3404  0.2548
  207MPD1     N 3153   4.312   0.311   9.971  0.7078  0.7016 -0.2923
  207MPD1    H5 3154   4.390   0.376   9.975  0.3244  1.0921  0.7823
  207MPD1    N1 3155   3.912   0.219   9.696  1.0300  0.5579  0.3015
  207MPD1    H6 3156   3.850   0.264   9.628 -1.3419 -0.8875  1.5033
  207MPD1    H7 3157   3.860   0.210   9.783 -0.7327 -0.6534 -0.8757
  208MPD1     C 3158   3.037   3.563   0.212  0.5368  0.0225  0.7431
  208MPD1    C1 3159   2.908   3.589   0.181  0.7867 -0.0545  0.3153
  208MPD1    C2 3160   2.822   3.569   0.280 -0.0937  0.0835 -0.2915
  208MPD1    C3 3161   2.859   3.508   0.400  0.3473  0.1595 -0.1458
  208MPD1    C4 3162   2.989   3.480   0.426 -0.1031 -0.0263 -0.6040
  208MPD1    C5 3163   3.078   3.524   0.333 -0.7608 -0.6494  0.0049
  208MPD1     H 3164   2.717   3.586   0.255  0.2494  2.2176 -0.3274
  208MPD1    H1 3165   3.030   3.447   0.521 -2.4466 -0.7905  0.1481
  208MPD1    H2 3166   3.111   3.595   0.140  0.3313  0.6792  0.8240
  208MPD1    H3 3167   3.184   3.512   0.349 -0.7764 -0.7129  0.0594
  208MPD1     N 3168   2.761   3.496   0.496 -0.6555  0.3835  0.1790
  208MPD1    H5 3169   2.670   3.539   0.482 -0.4655  0.7627  0.1357
  208MPD1    N1 3170   2.872   3.670   0.073  0.0312  0.1076  0.5139
  208MPD1    H6 3171   2.929   3.665  17.691 -0.9105 -0.9734 -0.0529
  208MPD1    H7 3172   2.777   3.661   0.037 -0.8434  0.9953  2.6100
  209MPD1     C 3173   1.037   3.795  10.050  0.2360  0.3946  0.4290
  209MPD1    C1 3174   1.079   3.915  10.100  0.4983 -0.2468 -0.1604
  209MPD1    C2 3175   0.988   4.001  10.153 -0.5453 -0.5392 -0.0752
  209MPD1    C3 3176   0.852   3.991  10.131 -0.1543 -0.1878  0.3177
  209MPD1    C4 3177   0.810   3.882  10.054 -0.5576  0.2368  0.4073
  209MPD1    C5 3178   0.901   3.786  10.017 -0.1020 -0.8657 -0.4193
  209MPD1     H 3179   1.027   4.080  10.216 -1.5250 -0.4548  0.4242
  209MPD1    H1 3180   0.708   3.867  10.021  0.2575  0.1601 -2.0504
  209MPD1    H2 3181   1.108   3.720  10.016  1.6044  1.8118  0.1290
  209MPD1    H3 3182   0.871   3.705   9.951 -1.2535 -1.1388  0.4304
  209MPD1     N 3183   0.776   4.087  10.200  0.5236  0.1568  0.0662
  209MPD1    H5 3184   0.829   4.142  10.268  0.1282  1.1763 -0.4443
  209MPD1    N1 3185   1.216   3.933  10.129  0.3074 -0.3789 -0.1579
  209MPD1    H6 3186   1.269   3.882  10.058 -1.8668  0.6733 -2.5369
  209MPD1    H7 3187   1.244   4.029  10.112 -0.0765 -0.5558 -1.8217
  210MPD1     C 3188   0.865   0.147  10.754 -0.0305  0.6661 -0.0539
  210MPD1    C1 3189   0.930   0.032  10.718  0.6609 -0.1815 -0.7417
  210MPD1    C2 3190   0.859   4.644  10.676 -0.1590  0.2960 -0.3371
  210MPD1    C3 3191   0.722   4.661  10.634 -0.2307 -0.2110 -0.0779
  210MPD1    C4 3192   0.663   0.057  10.663  0.0835  0.3222 -0.1305
  210MPD1    C5 3193   0.732   0.159  10.720 -0.0143  0.0281 -0.6270
  210MPD1     H 3194   0.907   4.547  10.676 -0.3080  0.2204 -0.1805
  210MPD1    H1 3195   0.556   0.061  10.648 -0.3266  1.3130  3.0243
  210MPD1    H2 3196   0.920   0.228  10.802  1.4859 -0.1849 -0.3771
  210MPD1    H3 3197   0.681   0.254  10.733  2.7043  1.4384 -0.3159
  210MPD1     N 3198   0.648   4.562  10.576 -0.2995 -0.0154  0.0194
  210MPD1    H5 3199   0.548   4.581  10.568 -0.2135 -0.3325 -1.6179
  210MPD1    N1 3200   1.063   0.018  10.750 -0.2069 -0.6065  0.2888
  210MPD1    H6 3201   1.111   4.687  10.680  0.1801  1.0088 -0.7479
  210MPD1    H7 3202   1.107   0.110  10.742 -1.3620 -0.1825 -1.2100
  211MPD1     C 3203   2.442   3.272  16.095  0.5270  0.0557 -0.0803
  211MPD1    C1 3204   2.305   3.262  16.094  1.0063  0.6287 -0.1551
  211MPD1    C2 3205   2.224   3.376  16.096  0.2669 -0.5278  0.0641
  211MPD1    C3 3206   2.279   3.501  16.070  0.2579 -0.2332  0.7670
  211MPD1    C4 3207   2.423   3.517  16.077 -0.6474 -0.0304  0.0015
  211MPD1    C5 3208   2.502   3.399  16.083 -0.5524 -0.3334 -0.1101
  211MPD1     H 3209   2.118   3.362  16.079 -0.1263 -0.1110  2.2028
  211MPD1    H1 3210   2.478   3.609  16.092  0.5547 -0.4943 -1.5191
  211MPD1    H2 3211   2.499   3.179  16.098  0.0171 -0.3257 -2.9896
  211MPD1    H3 3212   2.610   3.395  16.085 -0.4503  1.5966 -2.0511
  211MPD1     N 3213   2.191   3.608  16.073  0.0411 -0.1700  0.3307
  211MPD1    H5 3214   2.090   3.606  16.071  0.0419  0.2154 -0.0730
  211MPD1    N1 3215   2.247   3.134  16.112 -0.4109  0.1156  0.0133
  211MPD1    H6 3216   2.296   3.059  16.065  0.4180  0.4365  0.3579
  211MPD1    H7 3217   2.148   3.138  16.088 -0.4510 -1.0531  0.0201
  212MPD1     C 3218   1.492   2.462  16.303 -0.4865  0.0887  0.4439
  212MPD1    C1 3219   1.398   2.508  16.392  0.2259 -0.3601  0.1108
  212MPD1    C2 3220   1.369   2.442  16.514 -0.0522 -0.1299 -0.0632
  212MPD1    C3 3221   1.428   2.316  16.534 -0.4392  0.7823  0.8636
  212MPD1    C4 3222   1.516   2.270  16.437  0.0004  0.1934  0.1417
  212MPD1    C5 3223   1.549   2.344  16.322 -0.3008 -0.1704 -0.1888
  212MPD1     H 3224   1.307   2.490  16.589 -0.1786 -1.5495  0.7450
  212MPD1    H1 3225   1.572   2.176  16.440  0.5662  0.5698  1.3607
  212MPD1    H2 3226   1.531   2.518  16.218 -2.0944 -2.0867 -1.7158
  212MPD1    H3 3227   1.614   2.306  16.245 -0.8574  1.0154 -1.2399
  212MPD1     N 3228   1.405   2.232  16.648 -0.6588  0.2374  0.5418
  212MPD1    H5 3229   1.476   2.161  16.662  1.8850  2.4800 -0.7452
  212MPD1    N1 3230   1.363   2.644  16.383 -0.0471 -0.0156  0.3429
  212MPD1    H6 3231   1.363   2.679  16.288  1.6092 -2.1691 -0.4426
  212MPD1    H7 3232   1.275   2.666  16.430  0.7120 -0.6517  2.0771
  213MPD1     C 3233   4.193   3.673  15.944  0.4097  0.2081 -0.2809
  213MPD1    C1 3234   4.091   3.576  15.955 -0.4533  1.3320  0.1013
  213MPD1    C2 3235   4.085   3.462  15.871  0.5502  0.3784  0.1197
  213MPD1    C3 3236   4.156   3.479  15.747  0.2391 -0.5967  0.5299
  213MPD1    C4 3237   4.238   3.587  15.723 -0.1429  0.1621  0.0050
  213MPD1    C5 3238   4.254   3.675  15.819 -0.3139 -0.2818  0.0870
  213MPD1     H 3239   4.025   3.374  15.891 -1.0970  1.6585  0.8315
  213MPD1    H1 3240   4.307   3.591  15.639 -1.0973  1.2929 -0.7132
  213MPD1    H2 3241   4.213   3.762  16.004  1.2422 -0.9830  1.2079
  213MPD1    H3 3242   4.335   3.747  15.811 -0.5696 -0.1598 -1.3782
  213MPD1     N 3243   4.155   3.382  15.644  0.4463 -0.0372 -0.2514
  213MPD1    H5 3244   4.230   3.397  15.577  0.3389 -0.4519 -0.4685
  213MPD1    N1 3245   4.026   3.554  16.078  0.3132  0.1550  0.4901
  213MPD1    H6 3246   3.938   3.506  16.060  1.6684 -0.9932 -3.0414
  213MPD1    H7 3247   4.015   3.647  16.117  2.5069  0.4484  0.3887
  214MPD1     C 3248   3.596   2.754  14.981 -0.1041  0.2667 -0.7060
  214MPD1    C1 3249   3.565   2.776  15.112  0.3154  0.1045  0.4731
  214MPD1    C2 3250   3.669   2.817  15.197  0.5101 -0.1533 -0.0115
  214MPD1    C3 3251   3.793   2.852  15.142 -0.6767 -0.9426  0.4632
  214MPD1    C4 3252   3.817   2.832  15.002  0.1868 -0.0130 -0.0908
  214MPD1    C5 3253   3.713   2.783  14.924 -0.3527 -0.8145 -0.3183
  214MPD1     H 3254   3.647   2.826  15.303 -1.9255 -0.6765 -0.4575
  214MPD1    H1 3255   3.909   2.850  14.948 -0.1286  1.3552 -0.1672
  214MPD1    H2 3256   3.522   2.706  14.918 -1.1589 -1.3853  1.7639
  214MPD1    H3 3257   3.727   2.760  14.819 -0.1783  0.5404 -0.5905
  214MPD1     N 3258   3.899   2.906  15.220  0.5478  0.0162 -0.3669
  214MPD1    H5 3259   3.986   2.932  15.175 -0.4485  0.7108 -1.9055
  214MPD1    N1 3260   3.439   2.746  15.160  0.0950 -0.0768 -0.2148
  214MPD1    H6 3261   3.365   2.753  15.091 -1.2523 -1.8173  1.0617
  214MPD1    H7 3262   3.421   2.778  15.255 -0.5239 -3.0674  0.6873
  215MPD1     C 3263   4.193   4.080  10.324 -0.1964 -0.2703  0.6836
  215MPD1    C1 3264   4.123   4.198  10.353 -0.3494 -0.9945  0.1298
  215MPD1    C2 3265   4.149   4.269  10.471 -0.5806 -0.0470  0.3703
  215MPD1    C3 3266   4.240   4.222  10.562 -0.1725  0.3385 -0.2970
  215MPD1    C4 3267   4.304   4.102  10.539  1.2841  0.3604  0.4664
  215MPD1    C5 3268   4.280   4.036  10.424  0.5160  0.1856 -0.4366
  215MPD1     H 3269   4.098   4.364  10.474 -2.0472 -0.9184  2.5762
  215MPD1    H1 3270   4.367   4.046  10.607  1.0883  0.3845  0.6672
  215MPD1    H2 3271   4.164   4.022  10.238  2.5339 -0.8844  0.1748
  215MPD1    H3 3272   4.319   3.935  10.425  0.2286  0.0733 -2.1880
  215MPD1     N 3273   4.275   4.308  10.669  0.3397  0.0725 -0.3478
  215MPD1    H5 3274   4.203   4.371  10.703 -1.7010 -0.8802 -2.8702
  215MPD1    N1 3275   4.048   4.255  10.248 -0.4111 -0.2929  0.5122
  215MPD1    H6 3276   3.970   4.318  10.268  0.3867  0.3725  1.5597
  215MPD1    H7 3277   4.015   4.182  10.186  0.2968 -0.8571  0.7961
  216MPD1     C 3278   1.469   1.045  16.956 -0.0370  0.1278  0.2867
  216MPD1    C1 3279   1.387   0.989  17.050  0.7497  0.1311 -0.0220
  216MPD1    C2 3280   1.453   0.894  17.128 -0.3225  0.3679  0.9062
  216MPD1    C3 3281   1.585   0.852  17.115 -0.7670  0.3975  0.7172
  216MPD1    C4 3282   1.658   0.922  17.022  0.0943 -0.0708 -0.2721
  216MPD1    C5 3283   1.603   1.015  16.944 -0.0360  0.0506  0.6644
  216MPD1     H 3284   1.391   0.851  17.206 -1.4897  0.2454 -0.1025
  216MPD1    H1 3285   1.761   0.901  16.996  0.0373  0.2129 -0.7293
  216MPD1    H2 3286   1.437   1.128  16.894  0.1061  1.2975  1.7754
  216MPD1    H3 3287   1.668   1.077  16.883  0.1026 -1.0505 -0.3078
  216MPD1     N 3288   1.643   0.743  17.189  0.1716 -0.5432  0.1805
  216MPD1    H5 3289   1.606   0.714  17.279 -1.7838 -3.4276 -1.5452
  216MPD1    N1 3290   1.266   1.047  17.089  0.1773  0.4688 -0.2718
  216MPD1    H6 3291   1.218   1.085  17.008 -1.2751 -1.5131 -0.3111
  216MPD1    H7 3292   1.200   0.988  17.139  1.1651 -0.7637 -0.4304
  217MPD1     C 3293   1.655   2.949   8.865  0.5597 -0.3049  0.4344
  217MPD1    C1 3294   1.788   2.897   8.872 -0.1514  0.4246  0.1515
  217MPD1    C2 3295   1.863   2.934   8.978 -0.4337  0.4256 -0.8423
  217MPD1    C3 3296   1.815   3.018   9.072 -0.2893 -0.0051  0.1252
  217MPD1    C4 3297   1.687   3.072   9.060 -0.0810  0.8712 -0.6601
  217MPD1    C5 3298   1.609   3.030   8.964 -0.4824 -0.1789 -0.4663
  217MPD1     H 3299   1.967   2.905   8.971 -0.1355  1.4618 -0.7516
  217MPD1    H1 3300   1.653   3.141   9.136 -2.0676  0.9845 -1.6554
  217MPD1    H2 3301   1.590   2.930   8.779 -0.3525 -1.4127  1.3580
  217MPD1    H3 3302   1.507   3.067   8.957 -0.9861 -1.1804  1.5646
  217MPD1     N 3303   1.889   3.056   9.183  0.8384  0.0727  0.3804
  217MPD1    H5 3304   1.836   3.122   9.238  2.9064 -0.0645  2.5270
  217MPD1    N1 3305   1.847   2.827   8.765  0.7762 -0.2400 -0.7496
  217MPD1    H6 3306   1.911   2.752   8.789  1.0629 -0.0945 -1.0575
  217MPD1    H7 3307   1.795   2.787   8.688 -1.2808 -0.2581  0.6521
  218MPD1     C 3308   3.628   4.142  12.967  0.6808 -0.4648  1.1287
  218MPD1    C1 3309   3.630   4.199  12.845 -0.1532  0.1817  1.1527
  218MPD1    C2 3310   3.707   4.140  12.753  0.4345 -0.0505 -0.2016
  218MPD1    C3 3311   3.784   4.031  12.780  0.3585 -0.9015  0.0622
  218MPD1    C4 3312   3.776   3.973  12.911  0.1755 -0.8118 -0.4158
  218MPD1    C5 3313   3.693   4.033  13.002 -0.0305  0.0457 -0.5316
  218MPD1     H 3314   3.725   4.193  12.660 -1.9552  2.0856  0.5690
  218MPD1    H1 3315   3.839   3.895  12.951 -1.0179  0.0620  3.0939
  218MPD1    H2 3316   3.563   4.190  13.040  0.0337  0.5190 -0.0977
  218MPD1    H3 3317   3.672   4.000  13.103 -1.7734  0.2353 -0.8322
  218MPD1     N 3318   3.867   3.984  12.680 -0.4838  0.5605  0.0164
  218MPD1    H5 3319   3.860   4.037  12.593  1.4595  0.1410 -0.4181
  218MPD1    N1 3320   3.548   4.305  12.804 -0.2097  0.0328 -0.2889
  218MPD1    H6 3321   3.504   4.352  12.883  0.6898 -0.2114  0.3544
  218MPD1    H7 3322   3.585   4.369  12.735 -0.7113  0.0627 -0.5304
  219MPD1     C 3323   4.438   4.653  12.296 -0.0531  0.4724  0.1196
  219MPD1    C1 3324   4.322   4.593  12.250  0.4884  0.0129  0.1865
  219MPD1    C2 3325   4.292   4.469  12.297 -0.1093  0.3805  0.4524
  219MPD1    C3 3326   4.373   4.399  12.393 -0.7188  0.4618 -0.4061
  219MPD1    C4 3327   4.484   4.466  12.443  0.2176  0.2257 -0.1175
  219MPD1    C5 3328   4.506   4.594  12.399  0.2607  0.0586 -0.6221
  219MPD1     H 3329   4.191   4.436  12.275 -0.2954  0.9845  0.4188
  219MPD1    H1 3330   4.550   4.421  12.516 -0.3138 -0.1016  0.1607
  219MPD1    H2 3331   4.474   0.025  12.266  1.7425 -0.6373 -1.3026
  219MPD1    H3 3332   4.600   4.637  12.433  0.5798 -1.1642  0.0717
  219MPD1     N 3333   4.342   4.267  12.444 -0.1572  0.2474  0.0154
  219MPD1    H5 3334   4.411   4.231  12.509  3.1285 -0.3737 -3.7511
  219MPD1    N1 3335   4.238   4.669  12.166  0.2124  0.0355  0.3476
  219MPD1    H6 3336   4.274   0.029  12.122  0.0572 -0.5156 -0.8488
  219MPD1    H7 3337   4.184   4.618  12.096  0.7074 -1.6788  1.2274
  220MPD1     C 3338   4.151   0.940   9.535 -0.0075 -0.5612 -0.2211
  220MPD1    C1 3339   4.025   0.888   9.559 -0.1012  0.3680 -0.1155
  220MPD1    C2 3340   4.009   0.810   9.672  0.5239  0.2984  1.0050
  220MPD1    C3 3341   4.107   0.807   9.765  1.0449 -0.9038 -0.0220
  220MPD1    C4 3342   4.231   0.864   9.750  0.5359 -0.1401 -0.1432
  220MPD1    C5 3343   4.252   0.926   9.634 -0.0166  0.2200 -0.2746
  220MPD1     H 3344   3.911   0.768   9.692 -0.1433  1.3092 -0.1466
  220MPD1    H1 3345   4.313   0.853   9.819  1.5532 -1.0648 -1.5117
  220MPD1    H2 3346   4.173   0.990   9.442 -2.3967  1.5940  0.3723
  220MPD1    H3 3347   4.346   0.955   9.588 -0.1126 -1.6211 -1.6027
  220MPD1     N 3348   4.080   0.738   9.882  0.4785 -0.7162  0.6376
  220MPD1    H5 3349   3.984   0.706   9.884 -0.7450  2.9126  1.1390
  220MPD1    N1 3350   3.946   0.881   9.445  0.6416 -0.3747 -0.5879
  220MPD1    H6 3351   3.960   0.951   9.372 -2.6521  0.9088  0.0238
  220MPD1    H7 3352   3.846   0.873   9.461  0.6998  1.0070  0.3773
  221MPD1     C 3353   1.136   2.975  16.704 -0.0330  0.6650 -0.0079
  221MPD1    C1 3354   1.161   3.107  16.738 -0.4055  0.6750 -0.1204
  221MPD1    C2 3355   1.281   3.161  16.699  0.1193 -0.2589  0.3240
  221MPD1    C3 3356   1.373   3.098  16.620 -0.6145 -0.0407  0.5517
  221MPD1    C4 3357   1.346   2.965  16.595 -0.1013 -0.6506 -0.3413
  221MPD1    C5 3358   1.228   2.903  16.625 -0.0917 -0.3276  0.1966
  221MPD1     H 3359   1.304   3.264  16.724  0.6739 -0.3026 -0.0117
  221MPD1    H1 3360   1.420   2.904  16.544 -0.7267 -0.9335 -0.9078
  221MPD1    H2 3361   1.042   2.934  16.739  0.0697 -0.6693 -1.3188
  221MPD1    H3 3362   1.224   2.795  16.617  0.3271 -0.3781  0.6770
  221MPD1     N 3363   1.480   3.161  16.548 -0.7531 -0.1000  0.1717
  221MPD1    H5 3364   1.544   3.096  16.504  1.2976  0.8237  1.7896
  221MPD1    N1 3365   1.070   3.180  16.821 -0.2418  0.1438 -0.3797
  221MPD1    H6 3366   1.080   3.280  16.806  0.9259 -0.0143 -0.6534
  221MPD1    H7 3367   0.972   3.154  16.816  0.1710 -1.6432  0.9735
  222MPD1     C 3368   2.113   2.456  16.185  0.2803  0.1721 -0.6730
  222MPD1    C1 3369   2.201   2.483  16.288 -0.3877  0.4880 -0.3627
  222MPD1    C2 3370   2.146   2.522  16.412  0.1684  0.4396 -0.2983
  222MPD1    C3 3371   2.012   2.534  16.418 -0.0410 -0.8446 -0.2102
  222MPD1    C4 3372   1.919   2.500  16.321 -0.1109  1.1308 -0.0406
  222MPD1    C5 3373   1.975   2.463  16.202  1.0061 -0.1032 -0.3597
  222MPD1     H 3374   2.213   2.540  16.495 -0.2621 -0.1374  0.1699
  222MPD1    H1 3375   1.811   2.502  16.329 -0.1068  0.7741  0.0703
  222MPD1    H2 3376   2.162   2.425  16.093  1.7610  0.9265 -0.1324
  222MPD1    H3 3377   1.912   2.421  16.124  1.8835 -2.7366  0.3484
  222MPD1     N 3378   1.945   2.563  16.540  0.3959  0.1440 -0.0265
  222MPD1    H5 3379   1.847   2.537  16.547  0.3843  0.0826 -0.4354
  222MPD1    N1 3380   2.333   2.450  16.273  0.0348  0.3962 -0.1105
  222MPD1    H6 3381   2.371   2.468  16.181 -1.5020 -0.1233 -0.8424
  222MPD1    H7 3382   2.390   2.516  16.325  1.6863 -2.1398  1.3037
  223MPD1     C 3383   1.408   2.199  17.322  0.6263  0.9120 -0.1816
  223MPD1    C1 3384   1.413   2.333  17.344  0.0250 -0.0926  0.1018
  223MPD1    C2 3385   1.494   2.419  17.267 -0.2989  0.5415 -0.1008
  223MPD1    C3 3386   1.575   2.366  17.169 -0.2381 -0.0180 -0.3345
  223MPD1    C4 3387   1.566   2.225  17.148 -0.6883  0.0048  0.4576
  223MPD1    C5 3388   1.487   2.144  17.222  0.1197  0.7284  0.1024
  223MPD1     H 3389   1.495   2.525  17.286  0.2690  0.4109  0.6236
  223MPD1    H1 3390   1.618   2.174  17.067 -0.7879 -1.9274  1.5992
  223MPD1    H2 3391   1.343   2.140  17.384  1.7159 -2.0789 -1.8600
  223MPD1    H3 3392   1.474   2.037  17.211 -3.0437  0.8348  2.4370
  223MPD1     N 3393   1.669   2.451  17.103  0.3909  0.3606  0.9539
  223MPD1    H5 3394   1.668   2.549  17.132  2.7794  0.3629  1.0816
  223MPD1    N1 3395   1.353   2.389  17.457 -1.1488 -0.3633  0.2393
  223MPD1    H6 3396   1.264   2.348  17.483 -2.0773  1.0948 -0.7204
  223MPD1    H7 3397   1.338   2.488  17.440  1.0292  0.1375  1.1834
  224MPD1     C 3398   2.609   4.361   9.309  0.1226 -0.3857  0.3395
  224MPD1    C1 3399   2.693   4.253   9.349  0.2427  0.6111 -0.3524
  224MPD1    C2 3400   2.679   4.197   9.479  0.0031 -0.4071  0.0488
  224MPD1    C3 3401   2.578   4.246   9.565 -0.3864  0.4579 -0.7723
  224MPD1    C4 3402   2.499   4.353   9.521 -0.5593  0.0064 -0.6875
  224MPD1    C5 3403   2.515   4.406   9.397  0.2127  0.0730  0.1756
  224MPD1     H 3404   2.757   4.126   9.506 -0.0730 -0.9027 -1.0293
  224MPD1    H1 3405   2.413   4.395   9.571  0.1219 -1.2452  1.5673
  224MPD1    H2 3406   2.614   4.403   9.209  0.8612  1.0829  0.9824
  224MPD1    H3 3407   2.455   4.489   9.363  0.7145  0.7184  0.8680
  224MPD1     N 3408   2.567   4.197   9.698 -0.1814 -0.9798 -0.2103
  224MPD1    H5 3409   2.495   4.236   9.758  0.7330 -0.3287  0.4547
  224MPD1    N1 3410   2.789   4.206   9.262  0.1993  0.0032  0.6115
  224MPD1    H6 3411   2.776   4.235   9.165  1.2727  1.5752  0.9499
  224MPD1    H7 3412   2.881   4.246   9.279 -0.0888  0.4844  1.0275
  225MPD1     C 3413   2.941   4.496  13.318 -0.9285 -0.1098  0.7921
  225MPD1    C1 3414   2.886   4.614  13.278  0.3136  0.2986 -0.1582
  225MPD1    C2 3415   2.907   4.659  13.151  0.3266  0.0846 -0.4525
  225MPD1    C3 3416   3.004   4.613  13.072 -0.1117 -0.0159 -0.1454
  225MPD1    C4 3417   3.071   4.495  13.110 -0.0182 -0.2175  0.1767
  225MPD1    C5 3418   3.031   4.442  13.231  1.1724 -0.0355  0.0560
  225MPD1     H 3419   2.847   0.018  13.117 -1.3088 -2.0229 -2.7191
  225MPD1    H1 3420   3.140   4.442  13.046 -1.5684 -1.1079 -0.7370
  225MPD1    H2 3421   2.902   4.439  13.402 -1.7275 -0.9263 -0.1357
  225MPD1    H3 3422   3.090   4.356  13.261  1.4724  0.6491  1.4471
  225MPD1     N 3423   3.029   4.668  12.944  0.3692  0.0092 -0.3302
  225MPD1    H5 3424   3.100   4.613  12.896 -0.2717 -0.0875 -1.1559
  225MPD1    N1 3425   2.767   4.653  13.341 -0.3738  0.0318 -0.8722
  225MPD1    H6 3426   2.726   0.020  13.325 -0.4298 -0.0296 -1.0722
  225MPD1    H7 3427   2.762   4.664  13.443  2.7379  0.5058 -0.7795
  226MPD1     C 3428   2.085   1.606   9.109  0.4720  0.8330 -0.0585
  226MPD1    C1 3429   2.172   1.586   9.211  0.1191  0.3221 -0.3398
  226MPD1    C2 3430   2.201   1.456   9.249  0.1959  0.1330  0.4041
  226MPD1    C3 3431   2.126   1.346   9.200 -0.5200  0.8738  0.0104
  226MPD1    C4 3432   2.022   1.369   9.117  0.0914 -0.2048 -0.3611
  226MPD1    C5 3433   2.014   1.494   9.061 -0.3117  0.2079  0.1357
  226MPD1     H 3434   2.283   1.442   9.319  1.6923  0.5911 -1.2683
  226MPD1    H1 3435   1.947   1.299   9.083 -1.3532  1.8459 -1.4326
  226MPD1    H2 3436   2.064   1.698   9.055 -2.1975  0.8538  1.0056
  226MPD1    H3 3437   1.940   1.530   8.989  0.0290 -0.0211 -0.3258
  226MPD1     N 3438   2.167   1.216   9.238 -1.1928  0.0555 -0.2732
  226MPD1    H5 3439   2.247   1.214   9.300  1.2650 -2.9827 -3.5460
  226MPD1    N1 3440   2.242   1.700   9.253 -0.2318 -0.5235  0.3408
  226MPD1    H6 3441   2.197   1.787   9.226 -0.0883 -1.2180 -2.1551
  226MPD1    H7 3442   2.261   1.695   9.353  1.3139 -1.4936  0.0022
  227MPD1     C 3443   2.943   1.144   9.427 -0.0750 -0.4905  0.1180
  227MPD1    C1 3444   2.839   1.232   9.432  0.5193  0.3460  0.0911
  227MPD1    C2 3445   2.716   1.181   9.401  0.3743  0.4308 -0.0507
  227MPD1    C3 3446   2.690   1.046   9.360 -0.0921  0.3300 -0.3763
  227MPD1    C4 3447   2.802   0.973   9.343 -0.3366  0.1108 -0.1013
  227MPD1    C5 3448   2.921   1.022   9.378  0.1069 -0.1446  0.2227
  227MPD1     H 3449   2.631   1.248   9.400  1.1228  1.3644  0.0521
  227MPD1    H1 3450   2.785   0.874   9.303 -1.5438 -0.2647  1.3168
  227MPD1    H2 3451   3.043   1.178   9.451 -0.9545  1.5675  0.8367
  227MPD1    H3 3452   3.006   0.956   9.387 -1.1709 -1.4065  3.1115
  227MPD1     N 3453   2.561   1.000   9.337  0.4965  0.2696  0.3801
  227MPD1    H5 3454   2.493   1.073   9.354 -0.3092 -0.6778  1.2139
  227MPD1    N1 3455   2.845   1.359   9.494 -0.1891 -0.2362  0.3186
  227MPD1    H6 3456   2.940   1.395   9.491  0.4699 -2.0746 -0.9663
  227MPD1    H7 3457   2.782   1.432   9.462  1.3072  0.9678  0.1341
  228MPD1     C 3458   1.268   2.914  13.024 -0.3450  0.4833 -0.4679
  228MPD1    C1 3459   1.243   2.948  12.884  0.2366  0.5995  0.1803
  228MPD1    C2 3460   1.141   2.878  12.819  0.1439  0.2210 -0.0516
  228MPD1    C3 3461   1.055   2.800  12.897 -0.8873 -0.3602 -0.0367
  228MPD1    C4 3462   1.076   2.790  13.037 -0.1676 -0.3002  0.2442
  228MPD1    C5 3463   1.183   2.843  13.101 -0.5162 -0.4016  0.4908
  228MPD1     H 3464   1.136   2.882  12.711 -0.9493  3.9831  0.1354
  228MPD1    H1 3465   1.008   2.738  13.104 -1.9345  1.3412 -0.2710
  228MPD1    H2 3466   1.345   2.966  13.080 -1.7663  2.1537 -0.0731
  228MPD1    H3 3467   1.195   2.819  13.206 -0.5621  0.7787  0.7657
  228MPD1     N 3468   0.944   2.742  12.834 -0.2816 -0.2572 -0.7318
  228MPD1    H5 3469   0.932   2.768  12.737 -1.9258 -2.1240 -1.0273
  228MPD1    N1 3470   1.337   3.036  12.815  0.2986 -0.2401 -0.9732
  228MPD1    H6 3471   1.285   3.063  12.732 -0.5450 -1.3295 -0.8043
  228MPD1    H7 3472   1.372   3.114  12.870  0.0364 -0.6654 -0.1883
  229MPD1     C 3473   4.662   1.250  15.121  0.3242  0.4600 -0.0176
  229MPD1    C1 3474   0.018   1.258  15.232 -0.0258 -0.4810 -0.2025
  229MPD1    C2 3475   0.124   1.168  15.241 -0.3328 -0.0433  0.1647
  229MPD1    C3 3476   0.139   1.063  15.146  0.3789 -0.7451  0.2777
  229MPD1    C4 3477   0.048   1.065  15.038 -0.7524 -0.4576 -0.3014
  229MPD1    C5 3478   4.682   1.162  15.029 -0.0039  0.3424 -0.2997
  229MPD1     H 3479   0.197   1.173  15.320  1.3317 -0.3514 -1.3377
  229MPD1    H1 3480   0.051   0.995  14.955 -1.9230  0.6468 -1.2903
  229MPD1    H2 3481   4.569   1.306  15.119 -0.0519 -0.1839 -0.5063
  229MPD1    H3 3482   4.611   1.153  14.948  0.7226 -1.6076 -0.7301
  229MPD1     N 3483   0.236   0.960  15.166  0.0061 -0.1003  0.7343
  229MPD1    H5 3484   0.219   0.877  15.110 -2.5955  0.8070  0.1565
  229MPD1    N1 3485   0.005   1.356  15.329  0.1158  0.0477 -0.4637
  229MPD1    H6 3486   4.634   1.390  15.328 -0.8115 -2.5446 -0.0430
  229MPD1    H7 3487   0.032   1.336  15.425 -0.8179  2.1885  0.2429
  230MPD1     C 3488   1.071   0.498  15.737  0.6189 -0.1803  0.0067
  230MPD1    C1 3489   1.029   0.399  15.645 -0.0317 -0.4280  0.0054
  230MPD1    C2 3490   0.923   0.434  15.568 -0.1797 -0.3778 -0.4600
  230MPD1    C3 3491   0.870   0.566  15.568  0.6712 -0.2241  0.1860
  230MPD1    C4 3492   0.926   0.662  15.643  0.4366 -0.0185  0.5561
  230MPD1    C5 3493   1.023   0.624  15.729  0.0226 -0.7080  0.2524
  230MPD1     H 3494   0.873   0.367  15.499 -2.4218  0.0016  0.8025
  230MPD1    H1 3495   0.887   0.762  15.654  0.3237 -0.0516  0.4594
  230MPD1    H2 3496   1.157   0.485  15.801 -0.8507  2.0335  2.4033
  230MPD1    H3 3497   1.061   0.699  15.797  0.7255 -1.9656  1.2337
  230MPD1     N 3498   0.762   0.594  15.471  0.0356  0.0317 -0.0341
  230MPD1    H5 3499   0.711   0.516  15.430  0.9759  0.3855 -1.8919
  230MPD1    N1 3500   1.065   0.266  15.660 -0.0386 -0.3822 -0.5571
  230MPD1    H6 3501   1.163   0.255  15.685  0.5444 -0.5074 -2.9149
  230MPD1    H7 3502   1.055   0.214  15.573 -0.4178 -1.0037 -0.1430
  231MPD1     C 3503   3.276   2.937  15.939  0.2190 -0.1974  0.3499
  231MPD1    C1 3504   3.311   3.068  15.927  0.4115 -0.0303  0.0791
  231MPD1    C2 3505   3.358   3.119  15.809 -0.2395 -0.3356 -0.0668
  231MPD1    C3 3506   3.362   3.038  15.697 -0.2116  0.3385  1.0685
  231MPD1    C4 3507   3.321   2.907  15.715  0.0000 -0.5125  0.3825
  231MPD1    C5 3508   3.271   2.860  15.830  0.2634  0.3236  0.1186
  231MPD1     H 3509   3.378   3.225  15.806 -0.5291 -0.3337 -1.5757
  231MPD1    H1 3510   3.301   2.841  15.631  0.5753 -2.1834  1.5594
  231MPD1    H2 3511   3.250   2.895  16.036 -0.9647 -1.6418 -0.5986
  231MPD1    H3 3512   3.233   2.759  15.840  2.6424 -0.8155 -2.1628
  231MPD1     N 3513   3.382   3.090  15.566 -0.6906  0.4160 -0.4311
  231MPD1    H5 3514   3.386   3.190  15.554  1.1658  0.4811  0.8907
  231MPD1    N1 3515   3.322   3.139  16.046  0.1101  0.1953 -0.2477
  231MPD1    H6 3516   3.300   3.236  16.024 -0.6857  0.4356  1.5367
  231MPD1    H7 3517   3.263   3.100  16.120  1.9509  0.4809  1.3910
  232MPD1     C 3518   0.469   0.619   0.518 -0.0614 -0.6579  0.6612
  232MPD1    C1 3519   0.330   0.605   0.492  0.7521 -0.5724 -0.4110
  232MPD1    C2 3520   0.286   0.501   0.412 -0.0168  0.4612 -0.1044
  232MPD1    C3 3521   0.374   0.443   0.324 -0.1680 -0.1584  0.7468
  232MPD1    C4 3522   0.503   0.481   0.338 -0.5297 -0.6900  0.5622
  232MPD1    C5 3523   0.557   0.558   0.435 -0.0855  0.2703 -0.0924
  232MPD1     H 3524   0.179   0.484   0.414 -0.2711  2.4777  2.7619
  232MPD1    H1 3525   0.573   0.434   0.270  0.8708  2.1200  0.0729
  232MPD1    H2 3526   0.509   0.688   0.591  0.8195  0.5545 -0.9403
  232MPD1    H3 3527   0.665   0.571   0.433 -0.1560  0.2010 -4.9880
  232MPD1     N 3528   0.339   0.360   0.215 -0.4579 -0.0984  0.6716
  232MPD1    H5 3529   0.414   0.333   0.151 -0.8944 -1.2035  0.6295
  232MPD1    N1 3530   0.249   0.677   0.581 -0.4174  0.0536 -0.3915
  232MPD1    H6 3531   0.296   0.758   0.620  0.3477  0.4676 -2.2000
  232MPD1    H7 3532   0.166   0.695   0.525 -0.0842  1.5678 -0.3784
  233MPD1     C 3533   2.162   4.013   3.170 -0.5035  0.3921  0.4099
  233MPD1    C1 3534   2.028   3.988   3.129 -0.1818 -0.3206 -0.1408
  233MPD1    C2 3535   2.012   3.917   3.011  0.1911  0.2788  0.1955
  233MPD1    C3 3536   2.117   3.896   2.926  0.4931  0.3259 -0.2258
  233MPD1    C4 3537   2.245   3.931   2.962 -0.5927  0.0816 -0.7310
  233MPD1    C5 3538   2.267   3.989   3.082 -0.2228  0.6455  0.4248
  233MPD1     H 3539   1.910   3.895   2.980  0.5594  0.6159 -1.2269
  233MPD1    H1 3540   2.325   3.892   2.900 -1.3433 -2.2509 -0.2122
  233MPD1    H2 3541   2.180   4.063   3.264 -1.3847  2.1290 -0.3413
  233MPD1    H3 3542   2.363   4.022   3.120  0.1084  0.4592 -0.2496
  233MPD1     N 3543   2.112   3.840   2.799  0.0366 -0.5459 -0.2100
  233MPD1    H5 3544   2.199   3.835   2.747  1.5606  3.3905  2.0044
  233MPD1    N1 3545   1.922   4.008   3.219 -0.0878  0.8021  0.0668
  233MPD1    H6 3546   1.929   4.094   3.273 -3.7208 -0.0763  1.9569
  233MPD1    H7 3547   1.827   3.995   3.185 -0.1984 -0.0100  0.6848
  234MPD1     C 3548   3.262   2.487  10.628 -0.7447  0.1277  0.3766
  234MPD1    C1 3549   3.248   2.624  10.662 -0.3457 -0.0199 -0.1556
  234MPD1    C2 3550   3.185   2.707  10.580 -0.7867 -0.5094  0.0789
  234MPD1    C3 3551   3.121   2.654  10.467 -0.0492  0.7159  0.0931
  234MPD1    C4 3552   3.116   2.518  10.444 -0.6863  0.2791 -0.1637
  234MPD1    C5 3553   3.198   2.437  10.521  0.2240 -0.0136 -0.0247
  234MPD1     H 3554   3.174   2.812  10.605 -0.0167 -0.2056 -0.8840
  234MPD1    H1 3555   3.062   2.475  10.361  2.4783  1.2630 -2.6943
  234MPD1    H2 3556   3.331   2.423  10.680 -1.5302 -1.2391 -0.2740
  234MPD1    H3 3557   3.214   2.332  10.503 -0.2528 -0.6004  2.9091
  234MPD1     N 3558   3.069   2.751  10.378 -0.4770 -0.7100 -0.1687
  234MPD1    H5 3559   3.080   2.847  10.410  3.0117 -0.1441 -3.1143
  234MPD1    N1 3560   3.328   2.669  10.768 -0.0730 -0.0221  0.2178
  234MPD1    H6 3561   3.337   2.600  10.842 -0.2575  1.1581  1.3452
  234MPD1    H7 3562   3.300   2.757  10.810 -0.1056  0.8941 -1.7259
  235MPD1     C 3563   3.345   1.058   9.961 -0.1265 -0.2345  0.0580
  235MPD1    C1 3564   3.402   1.184   9.950 -0.0218 -0.9071  0.0721
  235MPD1    C2 3565   3.540   1.192   9.931 -0.7459 -0.4574 -1.0871
  235MPD1    C3 3566   3.613   1.079   9.920  0.4629  0.1093 -0.1400
  235MPD1    C4 3567   3.553   0.949   9.926  0.6110 -0.3898 -1.1921
  235MPD1    C5 3568   3.420   0.945   9.949  0.2521  0.7344  0.0524
  235MPD1     H 3569   3.593   1.285   9.917  1.0489 -1.7551 -2.9076
  235MPD1    H1 3570   3.604   0.854   9.916  0.9139 -0.3551 -0.0210
  235MPD1    H2 3571   3.237   1.041   9.963 -0.1754  0.0581 -0.1599
  235MPD1    H3 3572   3.373   0.847   9.952  2.4268 -0.3196 -0.6594
  235MPD1     N 3573   3.748   1.103   9.913  0.2727  0.1628 -0.8539
  235MPD1    H5 3574   3.781   1.196   9.891  0.0230  0.1836 -1.1323
  235MPD1    N1 3575   3.323   1.302   9.954 -0.4534  0.3860  0.5564
  235MPD1    H6 3576   3.389   1.379   9.963 -0.2643  0.3245 -0.2569
  235MPD1    H7 3577   3.264   1.291  10.036  0.5869  0.5000  1.3102
  236MPD1     C 3578   3.104   2.177  10.120 -0.0938  0.2673  0.0955
  236MPD1    C1 3579   3.127   2.042  10.119  0.1862  0.0698  0.3646
  236MPD1    C2 3580   3.263   2.006  10.131  0.1852  0.3546  0.9307
  236MPD1    C3 3581   3.357   2.102  10.156  0.1264 -0.3543  0.2133
  236MPD1    C4 3582   3.329   2.237  10.162 -0.2276 -0.7737  0.5724
  236MPD1    C5 3583   3.199   2.272  10.135  0.1519 -0.2628  0.7602
  236MPD1     H 3584   3.296   1.902  10.130 -0.4871  0.1371  0.9877
  236MPD1    H1 3585   3.405   2.314  10.167  0.2815 -1.1822 -0.7555
  236MPD1    H2 3586   3.006   2.211  10.087 -0.4683 -0.3310  0.5853
  236MPD1    H3 3587   3.176   2.378  10.139 -1.1333 -0.5802  1.7516
  236MPD1     N 3588   3.494   2.068  10.177 -0.2066 -0.0701 -0.1486
  236MPD1    H5 3589   3.550   2.150  10.199 -0.5532 -0.3129  1.5773
  236MPD1    N1 3590   3.032   1.950  10.064  0.3605  0.3383  0.2199
  236MPD1    H6 3591   3.045   1.858  10.105  1.6800  1.3961  2.2036
  236MPD1    H7 3592   2.935   1.981  10.060  0.8577  1.7116 -1.0658
  237MPD1     C 3593   3.729   0.199  15.048 -0.0376  0.2949 -0.0756
  237MPD1    C1 3594   3.635   0.253  14.968 -0.3547 -0.3717 -0.2172
  237MPD1    C2 3595   3.527   0.174  14.943  0.0395  0.5197  0.3435
  237MPD1    C3 3596   3.510   0.054  15.014  0.2493 -0.8355 -0.2088
  237MPD1    C4 3597   3.597   0.015  15.109 -0.3549  0.0354 -0.1985
  237MPD1    C5 3598   3.710   0.084  15.119  0.5551 -0.1682 -0.2702
  237MPD1     H 3599   3.452   0.214  14.875 -0.1157  0.1616  0.3035
  237MPD1    H1 3600   3.568   4.665  15.181  0.8136  0.0428  0.2803
  237MPD1    H2 3601   3.822   0.249  15.073  1.5152 -2.1942 -0.9259
  237MPD1    H3 3602   3.783   0.057  15.194 -0.5546  2.1358  1.6383
  237MPD1     N 3603   3.395   4.698  15.001 -0.2420 -0.7502  0.1459
  237MPD1    H5 3604   3.388   4.612  15.054 -1.0494 -2.2056 -2.2738
  237MPD1    N1 3605   3.664   0.367  14.894 -0.6700 -0.0236 -0.4386
  237MPD1    H6 3606   3.742   0.419  14.933 -2.1946  0.7622  1.6282
  237MPD1    H7 3607   3.583   0.430  14.886  0.3649  1.3118 -0.4158
  238MPD1     C 3608   1.297   2.581  14.926 -0.0208 -0.2895  0.0647
  238MPD1    C1 3609   1.303   2.553  14.791  0.3254  0.2881 -1.0396
  238MPD1    C2 3610   1.180   2.538  14.725 -0.2787  0.0808  0.1960
  238MPD1    C3 3611   1.061   2.525  14.795 -0.3347 -0.2111  0.1468
  238MPD1    C4 3612   1.065   2.530  14.930 -0.0214 -0.2741  0.2781
  238MPD1    C5 3613   1.186   2.560  14.996 -0.3240 -0.1258  0.4236
  238MPD1     H 3614   1.178   2.544  14.617 -2.5451 -0.8474  0.1924
  238MPD1    H1 3615   0.975   2.518  14.990  0.6371 -0.0023  1.3373
  238MPD1    H2 3616   1.390   2.603  14.977 -1.0879  1.6981  1.1537
  238MPD1    H3 3617   1.189   2.570  15.104  1.0237  2.8424  0.0963
  238MPD1     N 3618   0.938   2.514  14.735 -0.1070  0.1696  0.0704
  238MPD1    H5 3619   0.865   2.494  14.802 -0.2689 -2.1908 -0.8154
  238MPD1    N1 3620   1.428   2.574  14.723  0.2827  0.2909  0.1643
  238MPD1    H6 3621   1.507   2.551  14.783  1.5373  1.8726 -0.8896
  238MPD1    H7 3622   1.448   2.520  14.639  1.0948 -1.2876  1.3742
  239MPD1     C 3623   1.160   4.011  14.784  0.1907  0.0426  0.2974
  239MPD1    C1 3624   1.193   3.978  14.657  0.2468  0.8221  0.3639
  239MPD1    C2 3625   1.102   3.992  14.557  0.3194 -0.7799  0.1434
  239MPD1    C3 3626   0.975   4.027  14.587 -0.0103  0.3709 -0.0029
  239MPD1    C4 3627   0.932   4.044  14.722 -0.1861  0.2303  0.2796
  239MPD1    C5 3628   1.026   4.032  14.819 -0.0145 -0.3368 -0.5180
  239MPD1     H 3629   1.131   3.972  14.455  0.5612  1.5819 -0.2408
  239MPD1    H1 3630   0.831   4.068  14.753 -0.9193 -0.3782 -1.6255
  239MPD1    H2 3631   1.242   4.024  14.854  0.2814  0.7238  0.0656
  239MPD1    H3 3632   1.010   4.064  14.922  3.1584  0.9064 -0.4242
  239MPD1     N 3633   0.870   4.061  14.486  0.1144 -0.4707 -0.4108
  239MPD1    H5 3634   0.782   4.083  14.532  1.3548  1.4546  0.9935
  239MPD1    N1 3635   1.326   3.966  14.623  0.4169  0.1391 -0.0639
  239MPD1    H6 3636   1.342   3.896  14.552 -0.4049 -0.4339  0.3139
  239MPD1    H7 3637   1.381   3.934  14.702 -0.5050  0.7246  0.8277
  240MPD1     C 3638   0.546   3.263  13.383 -0.7523 -0.3685 -0.6570
  240MPD1    C1 3639   0.416   3.282  13.438  0.3183 -0.9756  0.0588
  240MPD1    C2 3640   0.403   3.239  13.569 -0.8949  0.5165 -0.2865
  240MPD1    C3 3641   0.511   3.206  13.647  0.1552  0.2305  0.3843
  240MPD1    C4 3642   0.635   3.197  13.598  0.6502  0.2872  0.1611
  240MPD1    C5 3643   0.650   3.229  13.464  0.6938  0.3560  0.1905
  240MPD1     H 3644   0.303   3.241  13.611 -0.1696 -1.1441  1.5250
  240MPD1    H1 3645   0.730   3.165  13.641 -0.1761 -1.4785  0.6460
  240MPD1    H2 3646   0.573   3.283  13.280  1.4986 -0.0283 -0.0121
  240MPD1    H3 3647   0.747   3.212  13.419  1.0875 -0.6365  1.4082
  240MPD1     N 3648   0.488   3.170  13.779 -0.4186 -0.3272 -0.2496
  240MPD1    H5 3649   0.392   3.181  13.812  0.3343  0.0504  1.8182
  240MPD1    N1 3650   0.309   3.306  13.353 -0.3292 -0.2676 -0.4742
  240MPD1    H6 3651   0.335   3.369  13.278 -0.7823  0.1754 -0.2621
  240MPD1    H7 3652   0.240   3.352  13.412 -0.9146 -0.6809 -0.8441
  241MPD1     C 3653   0.811   2.831  14.726  0.0942 -0.5166  0.6687
  241MPD1    C1 3654   0.891   2.858  14.622  0.6362  0.1495 -0.2947
  241MPD1    C2 3655   0.838   2.865  14.501  0.2674  0.1439 -1.5064
  241MPD1    C3 3656   0.703   2.840  14.482 -0.0960 -0.9448  0.4294
  241MPD1    C4 3657   0.625   2.799  14.586 -0.0297 -0.1311 -0.2877
  241MPD1    C5 3658   0.679   2.798  14.714  0.5442 -0.2002  0.6990
  241MPD1     H 3659   0.907   2.873  14.417  0.7425 -1.6364 -1.2795
  241MPD1    H1 3660   0.520   2.777  14.573 -0.2509 -0.1026  1.3780
  241MPD1    H2 3661   0.857   2.833  14.824 -1.0469  0.3492  1.1753
  241MPD1    H3 3662   0.625   2.768  14.803 -1.1760  0.3031 -0.1822
  241MPD1     N 3663   0.636   2.856  14.362  0.3291  0.3169 -0.4886
  241MPD1    H5 3664   0.536   2.838  14.358  0.2319  0.5999  0.7730
  241MPD1    N1 3665   1.031   2.846  14.631 -0.4201 -0.5913  0.1977
  241MPD1    H6 3666   1.063   2.749  14.626 -1.5051 -0.8657 -1.4257
  241MPD1    H7 3667   1.060   2.875  14.724  0.6384 -1.7954  0.2528
  242MPD1     C 3668   0.545   1.556  16.444  0.3892  0.2630  0.7217
  242MPD1    C1 3669   0.631   1.655  16.413 -0.4515 -0.3559 -0.2893
  242MPD1    C2 3670   0.698   1.633  16.293 -0.4598  0.5392  0.2246
  242MPD1    C3 3671   0.675   1.524  16.212 -0.6605 -0.6166 -0.2176
  242MPD1    C4 3672   0.588   1.428  16.255 -0.1725  0.7932  0.3613
  242MPD1    C5 3673   0.521   1.446  16.371 -0.4413 -0.7186 -0.2741
  242MPD1     H 3674   0.776   1.705  16.272  1.2782 -1.3319  0.2898
  242MPD1    H1 3675   0.567   1.342  16.193  0.4256  0.1570  1.0291
  242MPD1    H2 3676   0.480   1.559  16.531 -1.5789  0.9132 -0.7905
  242MPD1    H3 3677   0.447   1.370  16.391 -0.1621 -0.9688 -0.1902
  242MPD1     N 3678   0.738   1.508  16.086 -0.9036 -0.4308  0.3857
  242MPD1    H5 3679   0.733   1.416  16.043 -0.6758 -2.0994  3.9511
  242MPD1    N1 3680   0.671   1.755  16.505 -0.0059 -0.0950  0.1361
  242MPD1    H6 3681   0.721   1.837  16.471  1.7769 -1.7710 -1.2945
  242MPD1    H7 3682   0.590   1.796  16.551  1.5012  0.2586  2.4267
  243MPD1     C 3683   2.213   4.470   0.654 -0.0606 -0.0006  0.3806
  243MPD1    C1 3684   2.159   4.594   0.695  0.1448 -0.0262  0.2233
  243MPD1    C2 3685   2.085   4.664   0.600  0.7988  0.0183 -0.6398
  243MPD1    C3 3686   2.047   4.610   0.472 -0.0389  0.5653  1.1092
  243MPD1    C4 3687   2.094   4.480   0.446 -0.4875 -0.7028  0.2718
  243MPD1    C5 3688   2.180   4.420   0.534  0.6049  0.5728 -0.5010
  243MPD1     H 3689   2.071   0.045   0.617  2.0397 -0.1298  1.4251
  243MPD1    H1 3690   2.085   4.435   0.348 -2.2892  0.1849  0.0244
  243MPD1    H2 3691   2.274   4.413   0.723  1.9039  0.7666 -0.7424
  243MPD1    H3 3692   2.236   4.333   0.502 -0.1718  0.7020 -2.2089
  243MPD1     N 3693   1.973   4.687   0.379 -0.1791 -0.2519 -0.1156
  243MPD1    H5 3694   1.929   0.048   0.410 -0.2440  0.6222 -2.6540
  243MPD1    N1 3695   2.204   4.664   0.810 -0.1825  0.4488  0.5625
  243MPD1    H6 3696   2.245   4.601   0.879  2.0713 -0.3197 -1.4974
  243MPD1    H7 3697   2.122   4.716   0.840 -0.4640  0.4416 -0.1942
  244MPD1     C 3698   1.075   0.292   0.136  0.1226 -0.9180 -0.2735
  244MPD1    C1 3699   1.138   0.225   0.036  0.0083  0.4607 -0.7090
  244MPD1    C2 3700   1.277   0.211   0.036  0.6682 -0.0673 -0.4501
  244MPD1    C3 3701   1.353   0.253   0.140 -0.3128 -0.4715  0.3824
  244MPD1    C4 3702   1.296   0.318   0.246 -0.7817 -0.1659 -0.4233
  244MPD1    C5 3703   1.161   0.349   0.229  0.4437  0.1188  0.5215
  244MPD1     H 3704   1.329   0.153  17.662  1.1976 -1.5040  1.0088
  244MPD1    H1 3705   1.351   0.366   0.326  0.8795 -2.0666 -0.4467
  244MPD1    H2 3706   0.968   0.306   0.141  0.6629  2.9208  0.4273
  244MPD1    H3 3707   1.109   0.399   0.310 -3.4940  0.5935 -2.3271
  244MPD1     N 3708   1.493   0.224   0.130  0.4773 -0.2615 -0.5309
  244MPD1    H5 3709   1.520   0.175   0.045  2.8217  0.8295 -0.4211
  244MPD1    N1 3710   1.071   0.175  17.627 -0.4948  0.5874  0.2456
  244MPD1    H6 3711   1.130   0.113  17.574 -2.3856 -1.4344  0.5301
  244MPD1    H7 3712   0.999   0.121  17.673 -0.3942  0.3169  0.0803
  245MPD1     C 3713   2.670   1.445  13.241 -0.7812  0.2127 -0.3841
  245MPD1    C1 3714   2.703   1.567  13.304 -1.1396 -0.1154 -0.2577
  245MPD1    C2 3715   2.833   1.593  13.352  0.4618 -0.5436  0.5227
  245MPD1    C3 3716   2.909   1.485  13.377  0.0538 -0.0937  0.1480
  245MPD1    C4 3717   2.869   1.358  13.334  0.4228 -0.4430 -0.0828
  245MPD1    C5 3718   2.758   1.343  13.261  0.2037 -0.1389 -0.4606
  245MPD1     H 3719   2.869   1.688  13.389  1.4387 -0.8162  0.2662
  245MPD1    H1 3720   2.932   1.270  13.346 -2.6798 -2.5191  0.8368
  245MPD1    H2 3721   2.579   1.423  13.185 -1.8081 -0.9545  1.7472
  245MPD1    H3 3722   2.729   1.243  13.232 -2.5903  0.5812 -0.1674
  245MPD1     N 3723   3.041   1.494  13.436  0.9149 -0.7637  0.2615
  245MPD1    H5 3724   3.068   1.591  13.443 -0.0133 -0.5304  0.6166
  245MPD1    N1 3725   2.621   1.678  13.280 -0.4017  0.0156  0.3669
  245MPD1    H6 3726   2.611   1.738  13.362 -1.2405 -0.4129  0.5847
  245MPD1    H7 3727   2.531   1.657  13.236 -0.5810  3.7652 -1.0800
  246MPD1     C 3728   0.164   3.952  10.346 -0.3405 -1.1944 -0.2218
  246MPD1    C1 3729   0.046   3.876  10.320 -0.0884 -0.3908  0.1583
  246MPD1    C2 3730   0.036   3.803  10.198 -0.4013 -0.0205 -0.1632
  246MPD1    C3 3731   0.139   3.808  10.109 -0.2747 -0.0787  0.2206
  246MPD1    C4 3732   0.247   3.889  10.136 -0.3781 -0.4119  0.1600
  246MPD1    C5 3733   0.265   3.951  10.256  0.3158 -0.0017 -0.3978
  246MPD1     H 3734   4.677   3.739  10.178 -0.3023 -0.6140  1.2741
  246MPD1    H1 3735   0.341   3.885  10.082 -0.5034  0.0314 -0.0883
  246MPD1    H2 3736   0.178   4.014  10.434  0.4084  0.9036 -1.8201
  246MPD1    H3 3737   0.352   4.014  10.270  1.5993 -1.4207 -1.9194
  246MPD1     N 3738   0.125   3.737   9.988  0.1058  0.0831  0.2609
  246MPD1    H5 3739   0.043   3.681   9.972  0.0662  0.5617 -1.1658
  246MPD1    N1 3740   4.675   3.840  10.419  0.0121  0.1935  1.0891
  246MPD1    H6 3741   4.588   3.818  10.370  0.1277  3.2429 -0.4834
  246MPD1    H7 3742   4.655   3.912  10.488 -0.1099  0.5433  0.6844
  247MPD1     C 3743   2.159   0.707  15.948  0.0054  0.2878  0.5544
  247MPD1    C1 3744   2.193   0.594  16.020  0.0828 -0.8245  0.6121
  247MPD1    C2 3745   2.331   0.575  16.035 -0.5229 -0.1377 -0.6452
  247MPD1    C3 3746   2.424   0.646  15.957 -0.1227  0.1559  0.2385
  247MPD1    C4 3747   2.385   0.752  15.884  0.5037 -0.3385 -0.9252
  247MPD1    C5 3748   2.253   0.785  15.885  0.0352 -0.4982  0.2625
  247MPD1     H 3749   2.359   0.494  16.103 -4.0342 -0.2799  0.6698
  247MPD1    H1 3750   2.454   0.806  15.821  0.0501  1.6301  0.2682
  247MPD1    H2 3751   2.056   0.741  15.946  0.4474  1.5568 -0.4907
  247MPD1    H3 3752   2.227   0.873  15.828 -1.6251 -1.2971 -0.1898
  247MPD1     N 3753   2.564   0.611  15.946  0.4415  0.1129  0.2823
  247MPD1    H5 3754   2.616   0.668  15.881  0.3283  1.6465  1.5446
  247MPD1    N1 3755   2.098   0.525  16.091  0.2423 -0.2365  0.1743
  247MPD1    H6 3756   2.120   0.428  16.109 -0.3821 -0.4382 -0.1728
  247MPD1    H7 3757   2.005   0.533  16.052  0.5382  3.0353  0.0997
  248MPD1     C 3758   4.122   1.103   0.135 -0.2921 -0.3495  0.0473
  248MPD1    C1 3759   4.181   1.120   0.257  0.1885  0.0277 -0.1150
  248MPD1    C2 3760   4.138   1.215   0.342  0.6767  0.1395 -0.3620
  248MPD1    C3 3761   4.056   1.313   0.295 -0.7134  0.9399  0.1653
  248MPD1    C4 3762   4.011   1.306   0.160  0.1591 -0.0853  0.0588
  248MPD1    C5 3763   4.040   1.192   0.085 -0.4126 -0.1623 -0.5220
  248MPD1     H 3764   4.170   1.221   0.446 -0.1737 -1.0024 -0.0311
  248MPD1    H1 3765   3.953   1.388   0.119 -0.6762 -0.5273  0.3521
  248MPD1    H2 3766   4.162   1.023   0.073  2.4686  0.3762  0.8808
  248MPD1    H3 3767   4.011   1.178  17.683  0.7077  1.9558 -1.1121
  248MPD1     N 3768   4.011   1.421   0.380 -0.2656 -0.2095 -0.3309
  248MPD1    H5 3769   4.024   1.392   0.477 -1.8119 -0.6899 -0.2698
  248MPD1    N1 3770   4.275   1.028   0.296 -0.1382 -0.6601  0.2261
  248MPD1    H6 3771   4.339   1.064   0.366 -0.0562 -0.7869  0.2159
  248MPD1    H7 3772   4.333   1.012   0.214 -2.2150 -2.6862 -0.8587
  249MPD1     C 3773   0.253   4.176   9.857  0.4496 -0.2641  0.3262
  249MPD1    C1 3774   0.338   4.288   9.872  0.4435 -0.3377  0.1755
  249MPD1    C2 3775   0.277   4.411   9.893 -0.3976  0.1466  0.1946
  249MPD1    C3 3776   0.142   4.423   9.921  0.0354  0.4667  0.0941
  249MPD1    C4 3777   0.064   4.311   9.901  0.2650 -0.0137  0.3540
  249MPD1    C5 3778   0.123   4.191   9.878  0.0982  0.2394 -0.2772
  249MPD1     H 3779   0.336   4.501   9.884 -1.1616  0.6398  0.1925
  249MPD1    H1 3780   4.683   4.319   9.924  0.2382  0.3603  0.1058
  249MPD1    H2 3781   0.300   4.078   9.855 -0.8509 -0.8798 -0.2798
  249MPD1    H3 3782   0.059   4.103   9.883  1.9826 -1.1052 -0.0379
  249MPD1     N 3783   0.085   4.552   9.949 -0.1297 -0.0423  0.2000
  249MPD1    H5 3784   0.144   4.634   9.942  1.1478 -0.6761  3.4760
  249MPD1    N1 3785   0.475   4.283   9.848  0.0344 -0.0075 -0.3332
  249MPD1    H6 3786   0.510   4.193   9.882 -2.0654 -0.8681 -0.4584
  249MPD1    H7 3787   0.519   4.359   9.900  0.3362 -0.3822 -0.0348
  250MPD2     C 3788   1.266   4.394  13.207  0.3151 -0.7042  0.2351
  250MPD2    C1 3789   1.243   4.472  13.096 -0.2849 -0.1007  0.3947
  250MPD2    C2 3790   1.132   4.453  13.017 -0.5306  0.3634  0.2808
  250MPD2    C3 3791   1.041   4.357  13.049 -0.5563  0.1027  0.3382
  250MPD2    C4 3792   1.060   4.283  13.160 -0.8586 -0.0200 -0.0862
  250MPD2    C5 3793   1.172   4.302  13.236  0.6326 -0.0502  0.1783
  250MPD2     H 3794   1.123   4.506  12.923  2.7483 -0.4914 -0.5088
  250MPD2    H1 3795   0.983   4.216  13.195 -0.2955 -0.2889  0.6359
  250MPD2    H2 3796   1.352   4.400  13.272  1.6197 -1.5278 -1.4057
  250MPD2    H3 3797   1.184   4.242  13.325 -0.4011  1.1691  1.1388
  250MPD2     N 3798   0.924   4.326  12.960  0.2586  0.4567 -0.6400
  250MPD2    H5 3799   0.855   4.262  12.997  1.1151 -0.7601 -1.1520
  250MPD2    N1 3800   1.329   4.578  13.067 -0.0951 -0.1948  0.4116
  250MPD2    H7 3801   1.415   4.571  13.120 -0.0687 -1.5409  0.1924
  251TMC3    C1 3802   1.416   0.052  12.961 -0.4053 -0.3677 -0.1117
  251TMC3    C2 3803   1.388   0.185  12.932  0.3605 -0.3754  0.0547
  251TMC3    C3 3804   1.497   0.262  12.919 -0.0669 -0.0158  0.0389
  251TMC3    C4 3805   1.546   0.005  12.968  0.1591  0.4821  0.0612
  251TMC3    C5 3806   1.655   0.083  12.947 -0.3367  0.7228  0.0597
  251TMC3    C6 3807   1.627   0.220  12.925  0.1017 -0.3653  0.5156
  251TMC3     C 3808   1.300   4.701  13.015  0.1878  0.5249  0.5207
  251TMC3     O 3809   1.186   0.020  13.009 -0.3967 -0.1100 -0.5775
  251TMC3     H 3810   1.287   0.220  12.917  0.9782  0.8221 -1.3230
  251TMC3    H1 3811   1.565   4.626  12.988  0.0250  0.3523 -0.5149
  251TMC3    H2 3812   1.691   0.296  12.881 -1.6566  1.3823  0.9744
  251TMC3    C7 3813   1.782   0.022  12.894  0.0153 -0.0199 -0.1020
  251TMC3    C8 3814   1.473   0.408  12.912  0.0290 -0.1668  0.3919
  251TMC3    O1 3815   1.784   4.626  12.902  0.1777 -0.2181  0.5945
  251TMC3    O2 3816   1.373   0.445  12.850 -0.1753  0.2494  0.2936
  252TMC3    C1 3817   1.784   1.694   9.390  0.7542  0.8614 -0.1533
  252TMC3    C2 3818   1.898   1.765   9.425  0.3034 -0.7651 -0.5387
  252TMC3    C3 3819   1.995   1.695   9.488  0.2608  0.7897 -0.0194
  252TMC3    C4 3820   1.768   1.560   9.394  0.4828 -0.0654  0.3489
  252TMC3    C5 3821   1.873   1.499   9.455  0.4155 -0.6622  0.4625
  252TMC3    C6 3822   1.984   1.563   9.501 -0.1768  0.9485 -0.8856
  252TMC3     C 3823   1.676   1.770   9.330 -0.3797 -0.4929 -0.4226
  252TMC3     O 3824   1.596   1.697   9.267  0.2428  0.0203  0.7144
  252TMC3     H 3825   1.918   1.864   9.385  2.4335 -0.7889  0.4716
  252TMC3    H1 3826   1.682   1.511   9.350  1.7689  0.0592 -2.3513
  252TMC3    H2 3827   2.069   1.509   9.540 -1.3287 -0.3937 -0.2212
  252TMC3    C7 3828   1.852   1.354   9.479  0.2926  0.1447  1.1139
  252TMC3    C8 3829   2.115   1.763   9.526 -0.3458  1.0883  1.1699
  252TMC3    O1 3830   1.738   1.313   9.465  0.0945 -0.0046 -0.4389
  252TMC3    O2 3831   2.113   1.881   9.502 -0.1917 -0.5031  0.4212
  253MPD2     C 3832   3.189   4.343  15.575 -0.0494 -0.1931  0.0020
  253MPD2    C1 3833   3.057   4.352  15.602  0.1089 -0.2240 -0.3224
  253MPD2    C2 3834   3.007   4.291  15.719  0.2777  0.1571 -0.0703
  253MPD2    C3 3835   3.088   4.228  15.803  0.4394 -0.0748  0.3043
  253MPD2    C4 3836   3.224   4.222  15.780 -0.0958  0.4550 -0.8603
  253MPD2    C5 3837   3.268   4.282  15.670  0.3135 -0.4360  0.3879
  253MPD2     H 3838   2.899   4.297  15.731  0.1911  0.9005 -1.2131
  253MPD2    H1 3839   3.292   4.175  15.850 -0.4773  2.3655  0.7898
  253MPD2    H2 3840   3.245   4.368  15.486  4.2726 -0.5158  2.5922
  253MPD2    H3 3841   3.368   4.265  15.630 -0.7750  0.6729 -2.7556
  253MPD2     N 3842   3.050   4.185  15.927  0.3138  0.5076  1.1822
  253MPD2    H5 3843   3.121   4.144  15.987  0.8678 -0.4059 -0.0864
  253MPD2    N1 3844   2.964   4.407  15.512 -0.1293 -0.0166  0.1869
  253MPD2    H7 3845   2.865   4.405  15.538  0.3594 -1.6167  1.8622
  254TMC3    C1 3846   2.907   4.098  16.096  0.1162  0.3567  0.8372
  254TMC3    C2 3847   2.788   4.033  16.120  0.2327 -0.7043 -0.4426
  254TMC3    C3 3848   2.769   3.972  16.234  0.2899 -0.1647 -0.4950
  254TMC3    C4 3849   3.004   4.099  16.187 -0.2214 -0.4615 -0.6322
  254TMC3    C5 3850   2.979   4.023  16.300 -0.8752  0.5764  0.3048
  254TMC3    C6 3851   2.867   3.963  16.330 -0.4669 -0.0439 -0.4194
  254TMC3     C 3852   2.921   4.154  15.965 -0.4076 -0.1435 -0.7777
  254TMC3     O 3853   2.821   4.145  15.896 -0.3299  0.3002  0.1917
  254TMC3     H 3854   2.714   4.012  16.044  0.1501  1.1646 -0.8690
  254TMC3    H1 3855   3.081   4.173  16.170  1.0734 -0.9750  2.9512
  254TMC3    H2 3856   2.856   3.892  16.411 -0.2738  0.6734  0.2296
  254TMC3    C7 3857   3.082   4.019  16.410 -0.3272 -0.6137  0.1207
  254TMC3    C8 3858   2.649   3.884  16.238 -0.3984  0.1589 -0.7447
  254TMC3    O1 3859   3.038   3.991  16.520 -0.0814  0.2142 -0.0735
  254TMC3    O2 3860   2.666   3.768  16.202 -0.5344  0.6247  0.5402
  255MPD2     C 3861   1.860   2.890   9.827  0.3094  0.6519  0.1613
  255MPD2    C1 3862   1.726   2.858   9.841 -0.0296  0.2334 -0.6542
  255MPD2    C2 3863   1.687   2.762   9.933 -0.3203 -0.1618 -0.0697
  255MPD2    C3 3864   1.779   2.696  10.011 -0.0500  0.3384  0.9989
  255MPD2    C4 3865   1.916   2.713   9.989 -0.5462  0.3065 -0.6173
  255MPD2    C5 3866   1.951   2.809   9.889  0.8307  0.5505  1.0662
  255MPD2     H 3867   1.582   2.741   9.952 -0.3180 -0.2620 -0.1616
  255MPD2    H1 3868   1.997   2.677  10.051 -0.8918  0.3146 -0.1554
  255MPD2    H2 3869   1.901   2.965   9.761 -1.4177  0.6934 -0.8812
  255MPD2    H3 3870   2.055   2.835   9.879 -0.0976  4.4809  1.4259
  255MPD2     N 3871   1.733   2.611  10.114 -0.1987  0.0874  0.5465
  255MPD2    H5 3872   1.633   2.593  10.118 -0.6793  2.1207 -2.7959
  255MPD2    N1 3873   1.639   2.940   9.772 -0.8184  0.2522  0.2893
  255MPD2    H7 3874   1.681   3.008   9.709 -0.7683  1.5964  1.7683
  256TMC3    C1 3875   1.422   3.008   9.696  0.0563  0.0912 -0.5958
  256TMC3    C2 3876   1.449   3.138   9.722 -0.1260  0.5057 -0.0568
  256TMC3    C3 3877   1.345   3.225   9.716 -0.1748 -0.3458 -0.1586
  256TMC3    C4 3878   1.295   2.966   9.681 -0.7050 -0.4741  0.0003
  256TMC3    C5 3879   1.192   3.051   9.675  0.4332 -0.1299 -0.0371
  256TMC3    C6 3880   1.217   3.187   9.680 -0.0703  0.1440  0.1590
  256TMC3     C 3881   1.502   2.910   9.761 -0.5947  0.1100  0.3721
  256TMC3     O 3882   1.439   2.812   9.801 -0.7870  0.1446 -0.5018
  256TMC3     H 3883   1.549   3.171   9.744 -0.4650  1.5040 -0.0294
  256TMC3    H1 3884   1.274   2.861   9.661 -0.3702  0.0028 -2.8440
  256TMC3    H2 3885   1.130   3.251   9.680  1.3138  1.9954 -2.6548
  256TMC3    C7 3886   1.074   3.017   9.753  0.0923  0.2083 -0.3257
  256TMC3    C8 3887   1.360   3.364   9.746 -0.6626 -0.8646 -0.9217
  256TMC3    O1 3888   0.969   3.084   9.741 -0.0558  0.4075 -0.4824
  256TMC3    O2 3889   1.469   3.389   9.791  0.2850 -0.0842  0.1427
  257MPD2     C 3890   0.465   0.119  13.238 -0.1200 -0.1085 -0.6679
  257MPD2    C1 3891   0.420   0.021  13.154  0.2009  0.1653  0.1381
  257MPD2    C2 3892   0.385   4.618  13.208  0.1597  0.2139 -0.0173
  257MPD2    C3 3893   0.406   4.595  13.349 -1.3088 -0.5023 -0.0180
  257MPD2    C4 3894   0.430   4.704  13.427 -0.3568  0.4251  0.3920
  257MPD2    C5 3895   0.464   0.096  13.369  0.0131  0.2287  0.3414
  257MPD2     H 3896   0.348   4.533  13.152 -1.5704 -1.0108  2.9955
  257MPD2    H1 3897   0.413   4.690  13.533  0.2936  0.5145  0.5041
  257MPD2    H2 3898   0.486   0.223  13.215  1.7673 -1.1065 -3.5225
  257MPD2    H3 3899   0.485   0.176  13.440 -3.1534  1.5692 -0.2184
  257MPD2     N 3900   0.364   4.475  13.405 -0.0502 -0.2609  0.4852
  257MPD2    H5 3901   0.330   4.401  13.344  3.9482  0.7207 -2.8605
  257MPD2    N1 3902   0.402   0.065  13.019  0.2213 -0.7808 -0.2373
  257MPD2    H7 3903   0.406   0.164  12.993 -0.5136 -0.3934  1.1585
  258TMC3    C1 3904   0.350   4.291  13.546  0.0860 -0.2562 -0.3495
  258TMC3    C2 3905   0.364   4.206  13.437 -0.4535  0.6913 -0.2657
  258TMC3    C3 3906   0.360   4.074  13.464 -0.2180 -0.3094 -0.0124
  258TMC3    C4 3907   0.347   4.242  13.672  0.0118 -0.1664  0.2911
  258TMC3    C5 3908   0.361   4.107  13.697  0.4050  0.6703 -0.5230
  258TMC3    C6 3909   0.357   4.020  13.590  0.3283  0.2172  0.7423
  258TMC3     C 3910   0.374   4.435  13.542 -0.0910 -0.0602 -0.2809
  258TMC3     O 3911   0.413   4.500  13.638 -0.6825  0.0047 -0.3534
  258TMC3     H 3912   0.367   4.237  13.333 -2.4075  2.2880  0.1418
  258TMC3    H1 3913   0.334   4.310  13.755  0.8012  0.5394 -0.1698
  258TMC3    H2 3914   0.341   3.915  13.611 -0.9516  0.1615 -0.5131
  258TMC3    C7 3915   0.348   4.069  13.840 -0.2875 -0.8235 -0.1852
  258TMC3    C8 3916   0.368   3.972  13.356  0.5622 -0.1621 -0.2165
  258TMC3    O1 3917   0.295   4.149  13.915  0.5862  0.4724 -0.2202
  258TMC3    O2 3918   0.458   3.995  13.276  0.2375 -0.0736 -0.1067
  259MPD2     C 3919   0.007   1.578   0.794 -0.0562  0.4919 -0.0857
  259MPD2    C1 3920   4.713   1.447   0.794 -0.1923  0.5974  0.4516
  259MPD2    C2 3921   0.010   1.377   0.673 -0.3490 -0.4036  0.8336
  259MPD2    C3 3922   0.042   1.437   0.556  0.2006  0.2809  0.1958
  259MPD2    C4 3923   0.054   1.578   0.549  0.2097  0.2479  0.2221
  259MPD2    C5 3924   0.025   1.642   0.671 -0.6882  0.5795 -0.7360
  259MPD2     H 3925   0.002   1.268   0.670 -0.2730 -0.3813 -0.2286
  259MPD2    H1 3926   0.066   1.640   0.461  1.4733 -1.7866 -1.0489
  259MPD2    H2 3927   4.703   1.645   0.875  1.9895  0.7884  0.4038
  259MPD2    H3 3928   0.020   1.750   0.663 -1.3209  0.5939 -0.1024
  259MPD2     N 3929   0.064   1.352   0.448  0.0874 -0.1155 -0.6690
  259MPD2    H5 3930   0.069   1.254   0.476 -0.9006  0.2241  0.7206
  259MPD2    N1 3931   4.680   1.392   0.920 -0.5783  0.2541  0.0842
  259MPD2    H7 3932   4.664   1.456   0.997 -0.0998  0.1486  0.2744
  260TMC3    C1 3933   0.162   1.302   0.242  0.4338 -0.1736  0.5200
  260TMC3    C2 3934   0.145   1.290   0.105  0.6594  0.1274 -0.0568
  260TMC3    C3 3935   0.206   1.184   0.038  0.6364  0.0279  0.0817
  260TMC3    C4 3936   0.232   1.206   0.311  0.7066 -0.1986  0.1476
  260TMC3    C5 3937   0.279   1.092   0.241 -0.4634 -0.1614 -0.4327
  260TMC3    C6 3938   0.274   1.088   0.105  0.8934 -0.0165 -1.0920
  260TMC3     C 3939   0.089   1.395   0.313  0.2563 -0.2802 -0.3241
  260TMC3     O 3940   0.057   1.500   0.256 -0.6611 -0.5179  0.0230
  260TMC3     H 3941   0.072   1.354   0.056  0.9956  0.5906  0.0426
  260TMC3    H1 3942   0.259   1.211   0.415 -0.7605  0.1919  0.5097
  260TMC3    H2 3943   0.339   1.012   0.064  0.1871 -1.4076  0.3502
  260TMC3    C7 3944   0.225   0.966   0.294 -0.3012 -0.0533 -0.1027
  260TMC3    C8 3945   0.171   1.143  17.599 -0.2207 -0.5336 -0.2899
  260TMC3    O1 3946   0.199   0.881   0.209  0.7891  0.4144  0.3609
  260TMC3    O2 3947   0.109   1.228  17.529  0.0644  0.0620  0.5040
  261MPD2     C 3948   0.768   4.285  12.148 -0.4139  0.6359  0.3302
  261MPD2    C1 3949   0.843   4.354  12.244 -0.0929  0.2148 -0.0505
  261MPD2    C2 3950   0.940   4.444  12.210  0.7477  0.7683 -0.4330
  261MPD2    C3 3951   0.970   4.460  12.079  0.4895  0.1358  0.3677
  261MPD2    C4 3952   0.900   4.391  11.983  0.6912 -0.2593 -0.9425
  261MPD2    C5 3953   0.801   4.307  12.022  0.4150 -0.0430  0.1216
  261MPD2     H 3954   0.993   4.500  12.286  0.3118 -1.3771  1.4587
  261MPD2    H1 3955   0.909   4.415  11.877 -0.6795  1.1969 -0.7158
  261MPD2    H2 3956   0.694   4.207  12.163 -0.7200  1.1856  1.6606
  261MPD2    H3 3957   0.737   4.269  11.944  0.9480 -1.2626  0.2850
  261MPD2     N 3958   1.069   4.556  12.048  0.8949 -0.5486 -0.2494
  261MPD2    H5 3959   1.107   4.611  12.124 -0.9568 -3.0713  2.5322
  261MPD2    N1 3960   0.834   4.328  12.386 -0.1313 -0.1406 -0.2035
  261MPD2    H7 3961   0.904   4.363  12.451 -0.5790 -1.2473  0.8578
  262TMC3    C1 3962   1.215   4.692  11.921 -0.0582  0.3907  0.2433
  262TMC3    C2 3963   1.184   0.074  12.002  0.3005 -0.4707  0.0318
  262TMC3    C3 3964   1.272   0.173  12.006 -0.6508 -0.5932 -0.5646
  262TMC3    C4 3965   1.331   4.673  11.853  0.7136 -0.4101  0.2324
  262TMC3    C5 3966   1.426   0.046  11.872  0.0907 -0.1634 -0.1338
  262TMC3    C6 3967   1.398   0.156  11.953  0.6413  0.3722 -0.3556
  262TMC3     C 3968   1.116   4.580  11.921 -0.0710 -0.0918  0.4563
  262TMC3     O 3969   1.107   4.513  11.818  0.0643  0.8990 -0.2620
  262TMC3     H 3970   1.088   0.079  12.053  1.1318  1.2855  1.4579
  262TMC3    H1 3971   1.339   4.595  11.778 -0.7410 -0.2221 -0.1281
  262TMC3    H2 3972   1.475   0.230  11.971 -0.7078  1.5304  0.7000
  262TMC3    C7 3973   1.531   0.054  11.777  0.0737 -0.2149  0.0262
  262TMC3    C8 3974   1.242   0.314  12.014 -0.0155  0.2005 -0.1814
  262TMC3    O1 3975   1.562   4.688  11.700 -0.2281  0.3870 -0.1071
  262TMC3    O2 3976   1.330   0.393  11.985  0.2694  0.1075  0.4235
  263MPD2     C 3977   2.418   4.021  10.938  0.2331  0.0299 -0.7926
  263MPD2    C1 3978   2.466   4.036  11.067 -1.0739 -0.3040  0.4773
  263MPD2    C2 3979   2.561   4.132  11.100 -0.0852 -0.3570 -0.3856
  263MPD2    C3 3980   2.608   4.208  10.997 -0.1144 -0.4443  0.6825
  263MPD2    C4 3981   2.541   4.208  10.879 -0.5460  0.0616  0.8919
  263MPD2    C5 3982   2.453   4.109  10.842 -0.1191  0.4994 -0.2299
  263MPD2     H 3983   2.611   4.130  11.196 -0.2197  3.0270 -0.2584
  263MPD2    H1 3984   2.561   4.273  10.795 -0.6176 -0.0300  0.8040
  263MPD2    H2 3985   2.352   3.938  10.913  1.1004 -1.1865  0.9709
  263MPD2    H3 3986   2.404   4.114  10.746 -2.0139  0.6508  0.7603
  263MPD2     N 3987   2.719   4.296  11.019 -0.2126  0.0426 -0.1951
  263MPD2    H5 3988   2.750   4.300  11.115 -2.0511  3.3133  0.2523
  263MPD2    N1 3989   2.425   3.937  11.156  0.4069  0.3653 -0.2858
  263MPD2    H7 3990   2.378   3.858  11.113  1.9661 -1.3247  1.1450
  264TMC3    C1 3991   2.924   4.393  10.950  0.7313 -0.0338 -0.0146
  264TMC3    C2 3992   2.933   4.466  11.066 -0.5400 -0.4508 -0.2303
  264TMC3    C3 3993   3.048   4.537  11.082 -0.1999 -0.0636 -0.6932
  264TMC3    C4 3994   3.022   4.398  10.847  0.4617  0.5007  0.6815
  264TMC3    C5 3995   3.139   4.461  10.878 -0.6918  0.2321 -0.0556
  264TMC3    C6 3996   3.153   4.542  10.987  0.1150 -0.2436  0.4607
  264TMC3     C 3997   2.799   4.336  10.912  0.1907  0.2725 -0.1226
  264TMC3     O 3998   2.798   4.301  10.795 -0.5104 -0.4078  0.5482
  264TMC3     H 3999   2.840   4.491  11.116 -0.4788 -1.2468  0.2715
  264TMC3    H1 4000   3.026   4.333  10.760 -1.2335 -1.3408  1.9878
  264TMC3    H2 4001   3.241   4.605  10.994  0.2534 -0.4860  0.9042
  264TMC3    C7 4002   3.232   4.471  10.761 -0.9275 -0.5677 -0.1237
  264TMC3    C8 4003   3.073   4.625  11.197 -0.3880  0.1161 -0.0261
  264TMC3    O1 4004   3.179   4.462  10.654  0.2944 -0.0719 -1.1842
  264TMC3    O2 4005   3.184   4.680  11.193  0.1284  0.3338  0.0392
  265MPD2     C 4006   4.007   4.095  15.382  0.4587  0.2841 -1.0083
  265MPD2    C1 4007   4.106   4.194  15.371  0.0144  0.6088 -0.0260
  265MPD2    C2 4008   4.196   4.175  15.269 -1.1513 -0.0683  0.1039
  265MPD2    C3 4009   4.207   4.051  15.201  0.6568 -1.1344  0.3031
  265MPD2    C4 4010   4.111   3.952  15.225  0.5898  0.5178  0.1868
  265MPD2    C5 4011   4.002   3.984  15.307 -0.6066  0.3087 -0.4117
  265MPD2     H 4012   4.275   4.243  15.239  0.5057 -1.1882  1.9591
  265MPD2    H1 4013   4.099   3.864  15.164 -1.0560  2.0286 -1.6972
  265MPD2    H2 4014   3.921   4.110  15.446  1.7860  2.6221  0.2136
  265MPD2    H3 4015   3.925   3.908  15.304 -1.7926  1.4715  0.5866
  265MPD2     N 4016   4.306   4.015  15.105 -0.5920  0.1527  0.6596
  265MPD2    H5 4017   4.310   3.916  15.082 -3.2803  0.0318  0.7520
  265MPD2    N1 4018   4.090   4.316  15.440 -0.2997  0.8926  0.5255
  265MPD2    H7 4019   4.146   4.399  15.425  0.6146 -0.0411 -1.1943
  266TMC3    C1 4020   4.006   4.464  15.608 -0.9052  0.0512  0.1088
  266TMC3    C2 4021   3.971   4.464  15.742 -0.3106  0.3223 -0.5257
  266TMC3    C3 4022   3.956   4.588  15.803 -0.6561 -0.4502  0.5175
  266TMC3    C4 4023   4.011   4.583  15.530 -0.6556 -0.2145  0.2289
  266TMC3    C5 4024   3.979   4.699  15.587 -0.1941  0.4559  0.1723
  266TMC3    C6 4025   3.948   4.704  15.725  0.3839 -0.2410 -0.4332
  266TMC3     C 4026   4.005   4.332  15.551 -0.0144  1.0639  0.1349
  266TMC3     O 4027   3.950   4.248  15.618  0.4017  0.0466 -0.5540
  266TMC3     H 4028   3.976   4.372  15.799  0.4176  0.9481  0.4226
  266TMC3    H1 4029   4.051   4.584  15.429 -0.5148 -1.1814  0.2767
  266TMC3    H2 4030   3.927   0.077  15.766  0.2311 -0.3525 -0.2402
  266TMC3    C7 4031   3.964   0.091  15.496  0.6031 -0.2857  0.4438
  266TMC3    C8 4032   3.914   4.583  15.944  0.5553  0.4940 -0.6768
  266TMC3    O1 4033   4.036   0.094  15.393 -0.3515  0.0304 -0.0461
  266TMC3    O2 4034   3.856   4.484  15.987 -0.1047  0.1854 -0.2360
  267MPD2     C 4035   2.565   0.625  17.669  0.1907  0.1278  0.1724
  267MPD2    C1 4036   2.548   0.685  17.545  0.0003 -0.6035 -0.6677
  267MPD2    C2 4037   2.446   0.643  17.469 -0.3487 -0.0383  0.1603
  267MPD2    C3 4038   2.351   0.549  17.522 -0.2101 -0.3573  0.0115
  267MPD2    C4 4039   2.374   0.492  17.645 -0.2551  0.7649 -0.0558
  267MPD2    C5 4040   2.477   0.533   0.021 -0.7724  0.6963  0.5598
  267MPD2     H 4041   2.423   0.690  17.374 -0.5120 -0.7706 -0.1654
  267MPD2    H1 4042   2.300   0.430  17.695 -0.2130  0.5473 -0.2656
  267MPD2    H2 4043   2.650   0.655   0.028  0.9204 -1.7770  0.0940
  267MPD2    H3 4044   2.483   0.501   0.125 -2.2641 -1.8837 -0.1537
  267MPD2     N 4045   2.230   0.511  17.464 -0.2991 -0.4658  0.2434
  267MPD2    H5 4046   2.170   0.447  17.515 -0.5862  0.3816  0.9602
  267MPD2    N1 4047   2.647   0.775  17.505 -0.4350  0.0008 -0.0927
  267MPD2    H7 4048   2.716   0.799  17.576  3.4904 -0.6687 -3.6935
  268TMC3    C1 4049   2.765   0.922  17.361 -0.5464  0.1928 -0.2980
  268TMC3    C2 4050   2.742   1.053  17.328  0.4864 -0.5300  1.0203
  268TMC3    C3 4051   2.838   1.151  17.342 -0.7207 -0.2402 -0.1801
  268TMC3    C4 4052   2.884   0.887  17.416 -0.9335 -0.1352  0.2191
  268TMC3    C5 4053   2.978   0.987  17.433 -0.7802  0.1538  0.1629
  268TMC3    C6 4054   2.956   1.119  17.399  0.3275  0.2408 -0.2160
  268TMC3     C 4055   2.646   0.835  17.382  0.2025 -0.1744 -0.3891
  268TMC3     O 4056   2.559   0.844  17.296 -0.2445  0.3293 -0.7393
  268TMC3     H 4057   2.655   1.076  17.268  1.4189 -2.7032 -1.1402
  268TMC3    H1 4058   2.901   0.786  17.451  0.9530  1.0668  2.7914
  268TMC3    H2 4059   3.034   1.193  17.407 -1.6239  1.9973  2.3452
  268TMC3    C7 4060   3.058   0.968  17.552  0.3930  0.2761 -1.1408
  268TMC3    C8 4061   2.821   1.281  17.279 -0.3926  0.3993  0.0758
  268TMC3    O1 4062   3.030   0.869  17.618 -0.3986 -0.1841  0.0813
  268TMC3    O2 4063   2.913   1.359  17.274 -0.3441  0.0463 -0.7304
  269MPD2     C 4064   2.273   4.588  15.655 -0.6828  0.5272 -0.2027
  269MPD2    C1 4065   2.141   4.608  15.674  0.3102 -0.4224  0.4213
  269MPD2    C2 4066   2.095   0.013  15.686 -0.7001  0.2571 -0.0222
  269MPD2    C3 4067   2.178   0.122  15.669 -0.3402  0.1901 -0.7312
  269MPD2    C4 4068   2.315   0.095  15.659 -0.9095  0.4965  0.0646
  269MPD2    C5 4069   2.358   4.693  15.652  0.0848 -0.3572  0.1863
  269MPD2     H 4070   1.992   0.043  15.704 -0.2031  3.0181 -1.7880
  269MPD2    H1 4071   2.389   0.175  15.657  0.0517 -0.4498 -2.3375
  269MPD2    H2 4072   2.308   4.486  15.643 -1.8129  0.3330 -1.8015
  269MPD2    H3 4073   2.466   4.679  15.651  0.8306  5.2474  0.8938
  269MPD2     N 4074   2.118   0.248  15.674  0.6231 -0.2236  0.3958
  269MPD2    H5 4075   2.018   0.248  15.690  0.5725 -2.5476  0.1277
  269MPD2    N1 4076   2.055   4.495  15.667 -0.4086  0.4617  0.0087
  269MPD2    H7 4077   2.095   4.410  15.627 -0.2681  0.4432  0.1891
  270TMC3    C1 4078   1.849   4.386  15.705  0.7608 -0.3721  0.0883
  270TMC3    C2 4079   1.733   4.373  15.630  0.0475 -0.2057  0.1486
  270TMC3    C3 4080   1.678   4.248  15.627  0.6225 -0.2583 -0.5193
  270TMC3    C4 4081   1.916   4.280  15.763  0.9220 -0.3947  0.3402
  270TMC3    C5 4082   1.854   4.163  15.763  0.2477  0.2682 -0.3184
  270TMC3    C6 4083   1.745   4.145  15.686 -0.4670  0.0371 -0.4206
  270TMC3     C 4084   1.921   4.506  15.701 -0.1705 -0.8972  0.4028
  270TMC3     O 4085   1.854   4.609  15.700 -0.1042 -0.1334  0.0376
  270TMC3     H 4086   1.678   4.461  15.598  2.1921  1.5330  1.2612
  270TMC3    H1 4087   2.008   4.293  15.817  1.4306 -0.1672 -0.5824
  270TMC3    H2 4088   1.694   4.050  15.674 -0.2270  0.0023 -1.1455
  270TMC3    C7 4089   1.945   4.050  15.758  0.1419  0.3001  0.4159
  270TMC3    C8 4090   1.570   4.213  15.535 -0.2124 -0.6312 -0.2191
  270TMC3    O1 4091   2.063   4.079  15.754  0.1039  0.6207  0.0320
  270TMC3    O2 4092   1.499   4.120  15.559  0.0427 -0.6126 -0.6518
  271MPD2     C 4093   0.905   4.521  13.974  0.3064 -0.0126 -0.2176
  271MPD2    C1 4094   0.855   4.509  14.105  0.0527  0.2345 -0.3764
  271MPD2    C2 4095   0.726   4.547  14.135  0.1104  0.3797 -0.1811
  271MPD2    C3 4096   0.642   4.603  14.038  0.0141 -0.4738  0.2043
  271MPD2    C4 4097   0.690   4.616  13.914  0.1227 -0.4606 -0.0780
  271MPD2    C5 4098   0.814   4.574  13.883 -0.7409  0.4157  0.0630
  271MPD2     H 4099   0.688   4.528  14.234  1.7318  0.0736  0.3669
  271MPD2    H1 4100   0.630   4.670  13.842  0.1081  0.2214  0.4409
  271MPD2    H2 4101   0.998   4.495  13.926  0.2140 -2.7426  1.0854
  271MPD2    H3 4102   0.839   4.581  13.777 -1.0951 -0.7298 -0.1019
  271MPD2     N 4103   0.509   4.638  14.065 -0.2650 -0.5942 -0.7250
  271MPD2    H5 4104   0.456   4.660  13.981 -1.3377 -0.6352 -0.0648
  271MPD2    N1 4105   0.929   4.458  14.208  0.3029  0.0106  0.1730
  271MPD2    H7 4106   0.882   4.455  14.298 -2.1122 -2.1283 -1.1518
  272TMC3    C1 4107   1.101   4.343  14.310  0.4812  0.2716  0.6280
  272TMC3    C2 4108   1.229   4.295  14.293 -0.0834  0.1819  0.5401
  272TMC3    C3 4109   1.308   4.261  14.403  0.1456  0.3586  0.3583
  272TMC3    C4 4110   1.053   4.358  14.435  0.9391 -0.5295 -0.0274
  272TMC3    C5 4111   1.128   4.327  14.543 -0.7605 -0.0562 -0.0709
  272TMC3    C6 4112   1.262   4.278  14.527  0.0538  0.0504  0.2260
  272TMC3     C 4113   1.045   4.391  14.191  0.5739 -0.5260  0.3930
  272TMC3     O 4114   1.094   4.356  14.086  0.0344  0.4746  0.0737
  272TMC3     H 4115   1.265   4.278  14.192  1.7917 -1.0863  1.4268
  272TMC3    H1 4116   0.949   4.385  14.450  0.8455 -1.2508  0.6610
  272TMC3    H2 4117   1.304   4.243  14.620 -1.6730 -0.5235  0.7812
  272TMC3    C7 4118   1.082   4.371  14.668 -0.0377 -0.8704 -0.5623
  272TMC3    C8 4119   1.447   4.248  14.383  0.1100 -0.2537 -0.0704
  272TMC3    O1 4120   0.961   4.368  14.681  0.0901  0.0895 -0.4518
  272TMC3    O2 4121   1.487   4.290  14.277 -0.5205  0.3857  0.2059
  273MPD2     C 4122   2.500   2.446  11.508  0.4773 -0.1661 -0.3124
  273MPD2    C1 4123   2.530   2.577  11.514 -0.0042  0.1436 -0.1600
  273MPD2    C2 4124   2.525   2.654  11.398  0.5183 -0.3008 -0.0948
  273MPD2    C3 4125   2.500   2.595  11.280 -0.3319  0.2188 -0.2107
  273MPD2    C4 4126   2.458   2.461  11.271  0.0840 -0.7325  0.2285
  273MPD2    C5 4127   2.450   2.392  11.384 -1.2535 -0.5939 -0.4352
  273MPD2     H 4128   2.546   2.759  11.409 -1.2454  0.0603 -0.2286
  273MPD2    H1 4129   2.427   2.415  11.178  1.3202  0.7721 -0.9483
  273MPD2    H2 4130   2.510   2.379  11.594 -4.1874  0.8464  1.0412
  273MPD2    H3 4131   2.425   2.287  11.382 -1.9689 -0.4331  0.5243
  273MPD2     N 4132   2.518   2.659  11.154  0.2567 -0.0535  0.1781
  273MPD2    H5 4133   2.506   2.609  11.067  1.4637  0.8869 -0.5226
  273MPD2    N1 4134   2.563   2.624  11.635 -0.3087 -0.4258 -0.4199
  273MPD2    H7 4135   2.584   2.554  11.705 -0.6640 -0.3278 -0.2130
  274TMC3    C1 4136   2.620   2.817  11.007 -0.6788  0.2785 -0.0714
  274TMC3    C2 4137   2.524   2.842  10.905 -0.2685 -0.2779  0.2187
  274TMC3    C3 4138   2.539   2.950  10.818 -0.2309  0.0092  0.9043
  274TMC3    C4 4139   2.733   2.886  11.009 -0.3693  0.7266  0.5188
  274TMC3    C5 4140   2.741   2.995  10.923  0.1210  0.0963 -0.6989
  274TMC3    C6 4141   2.655   3.027  10.826 -0.3521  0.1128  0.2264
  274TMC3     C 4142   2.555   2.789  11.138  0.8860  0.5790  0.2624
  274TMC3     O 4143   2.566   2.876  11.221  0.4955 -0.0264  0.3755
  274TMC3     H 4144   2.429   2.790  10.910 -1.8618  2.8708  2.1965
  274TMC3    H1 4145   2.799   2.858  11.090  1.1896  1.3156 -0.5417
  274TMC3    H2 4146   2.652   3.119  10.769  0.2373  2.2154  3.6180
  274TMC3    C7 4147   2.791   3.116  10.991  0.0166 -0.2617 -0.4121
  274TMC3    C8 4148   2.420   2.999  10.750 -0.2527 -0.5958  0.1349
  274TMC3    O1 4149   2.743   3.219  10.945 -0.2655 -0.1322  0.1786
  274TMC3    O2 4150   2.313   2.973  10.795 -0.1609 -0.8326  0.2603
  275MPD2     C 4151   2.616   1.089  14.512 -0.0284 -0.4871 -0.7484
  275MPD2    C1 4152   2.620   0.950  14.519  1.3330 -0.1168 -0.3092
  275MPD2    C2 4153   2.505   0.872  14.500 -0.0101 -0.1966  0.3461
  275MPD2    C3 4154   2.382   0.930  14.468  0.0720  0.5289  0.6664
  275MPD2    C4 4155   2.383   1.065  14.479 -0.1472 -0.3660 -0.8105
  275MPD2    C5 4156   2.489   1.140  14.505  0.0126  0.4034 -0.2179
  275MPD2     H 4157   2.512   0.764  14.511  5.2885  0.2477  1.2950
  275MPD2    H1 4158   2.289   1.109  14.447  0.1552  1.3846  0.7268
  275MPD2    H2 4159   2.700   1.152  14.538  0.4922 -0.8694 -1.5051
  275MPD2    H3 4160   2.479   1.248  14.502 -1.8146  0.1843 -1.5924
  275MPD2     N 4161   2.259   0.859  14.456 -0.6701  0.2790 -0.8195
  275MPD2    H5 4162   2.172   0.910  14.445 -0.3958  0.9205  0.0403
  275MPD2    N1 4163   2.736   0.882  14.565  0.3028  0.2597 -0.8224
  275MPD2    H7 4164   2.727   0.782  14.573  0.4491  0.1352 -2.0976
  276TMC3    C1 4165   2.942   0.851  14.678 -0.3714  0.3262  0.1515
  276TMC3    C2 4166   2.906   0.725  14.716 -0.1264 -0.0581  0.0405
  276TMC3    C3 4167   2.983   0.662  14.815 -0.1171  0.5437 -0.3489
  276TMC3    C4 4168   3.058   0.910  14.725 -0.1027  0.6507 -0.9032
  276TMC3    C5 4169   3.129   0.839  14.815  0.7623  0.8773  0.2669
  276TMC3    C6 4170   3.088   0.727  14.867 -0.1938 -0.1302  0.0935
  276TMC3     C 4171   2.856   0.936  14.605 -0.1320  0.4370  0.2484
  276TMC3     O 4172   2.885   1.056  14.591  0.1829 -0.1641  0.0174
  276TMC3     H 4173   2.819   0.676  14.674 -0.2480  0.0666  0.1486
  276TMC3    H1 4174   3.075   1.014  14.701  2.2070  0.2451 -1.0176
  276TMC3    H2 4175   3.148   0.668  14.936 -1.1469  0.8453  1.7521
  276TMC3    C7 4176   3.220   0.911  14.899 -0.8887  0.0856  0.0297
  276TMC3    C8 4177   2.958   0.522  14.850  0.3329  0.5764  0.6005
  276TMC3    O1 4178   3.215   0.883  15.020  0.3471 -0.2299  0.0282
  276TMC3    O2 4179   2.997   0.475  14.956  0.3471 -0.5351  0.2530
  277MPD2     C 4180   4.411   4.248  13.253  0.7232  0.1773 -0.0838
  277MPD2    C1 4181   4.276   4.239  13.250 -0.0353  0.3508  0.1472
  277MPD2    C2 4182   4.217   4.152  13.342  0.2807  0.7585  0.7769
  277MPD2    C3 4183   4.296   4.066  13.423  0.3203  0.3207  0.1793
  277MPD2    C4 4184   4.429   4.075  13.422  0.2157  0.1173 -1.2158
  277MPD2    C5 4185   4.485   4.160  13.332 -0.5070 -0.1458  0.0553
  277MPD2     H 4186   4.111   4.146  13.364 -0.0752  0.4959 -1.0556
  277MPD2    H1 4187   4.510   4.024  13.473 -0.4078  2.3408  2.0147
  277MPD2    H2 4188   4.464   4.315  13.187 -0.2775  0.7325 -0.3272
  277MPD2    H3 4189   4.593   4.173  13.338 -0.7134  0.8078  1.6576
  277MPD2     N 4190   4.233   3.974  13.517 -0.4569 -0.4487 -0.3934
  277MPD2    H5 4191   4.131   3.970  13.523 -0.3854  0.0470  0.9639
  277MPD2    N1 4192   4.210   4.335  13.169  0.0497  0.2530  0.3027
  277MPD2    H7 4193   4.268   4.398  13.114  0.4370  0.4286  0.9138
  278TMC3    C1 4194   4.180   3.844  13.692 -0.0137  0.8077 -0.3147
  278TMC3    C2 4195   4.091   3.766  13.621 -0.3079 -0.2209  0.7604
  278TMC3    C3 4196   3.998   3.693  13.681  0.1700 -0.4687 -0.7389
  278TMC3    C4 4197   4.162   3.855  13.822 -0.1924 -0.0226 -0.0348
  278TMC3    C5 4198   4.050   3.796  13.880  0.4648 -0.8202  0.4334
  278TMC3    C6 4199   3.985   3.698  13.818 -0.9058  0.4561  0.2727
  278TMC3     C 4200   4.290   3.908  13.622 -0.4439  0.3508 -0.0652
  278TMC3     O 4201   4.398   3.919  13.675 -0.5533 -0.0813 -0.1087
  278TMC3     H 4202   4.105   3.758  13.513  0.4522 -1.0044  0.9209
  278TMC3    H1 4203   4.238   3.909  13.878  0.3101 -0.4161 -0.3424
  278TMC3    H2 4204   3.909   3.643  13.872 -0.5692 -2.3922 -2.1955
  278TMC3    C7 4205   3.983   3.870  13.975  0.1792 -0.0740  0.0420
  278TMC3    C8 4206   3.971   3.563  13.626 -0.6854 -0.4102 -0.9472
  278TMC3    O1 4207   4.042   3.973  14.006 -0.2232 -0.3538 -0.5980
  278TMC3    O2 4208   3.963   3.473  13.707 -0.8225  0.5809  0.0982
  279MPD2     C 4209   3.688   4.125   0.719  1.0544  0.4456  0.6041
  279MPD2    C1 4210   3.613   4.232   0.685  0.5221  0.3685 -0.4870
  279MPD2    C2 4211   3.666   4.323   0.598 -0.1911 -0.1098 -0.1358
  279MPD2    C3 4212   3.779   4.290   0.522 -0.1126  0.2812 -0.4029
  279MPD2    C4 4213   3.841   4.165   0.538 -0.1328 -1.3077  0.3337
  279MPD2    C5 4214   3.792   4.086   0.645 -0.4567  0.0416  1.0033
  279MPD2     H 4215   3.609   4.411   0.569 -1.0173 -1.1182 -1.5422
  279MPD2    H1 4216   3.920   4.133   0.470 -0.7345 -0.0503 -0.9699
  279MPD2    H2 4217   3.632   4.065   0.790 -0.7152  1.4141  0.0495
  279MPD2    H3 4218   3.842   3.994   0.674  1.0248  0.5207 -0.0524
  279MPD2     N 4219   3.812   4.382   0.425 -1.4002 -0.6135 -0.6452
  279MPD2    H5 4220   3.769   4.474   0.423  0.2584  0.2245  1.4252
  279MPD2    N1 4221   3.492   4.239   0.753  0.3729 -0.1554 -0.2481
  279MPD2    H7 4222   3.465   4.155   0.802  0.6928 -0.6628 -0.9476
  280TMC3    C1 4223   3.262   4.307   0.776  0.0108  0.1470 -0.6644
  280TMC3    C2 4224   3.229   4.184   0.731 -0.1516  0.0034 -0.4976
  280TMC3    C3 4225   3.115   4.167   0.656 -0.4262  0.9867 -0.5803
  280TMC3    C4 4226   3.182   4.411   0.750 -0.0539 -0.2443  0.0226
  280TMC3    C5 4227   3.074   4.397   0.669  0.3730  0.3980  0.0150
  280TMC3    C6 4228   3.038   4.274   0.624 -0.4884  0.4569 -0.7869
  280TMC3     C 4229   3.405   4.343   0.765  0.5772  0.0278  0.0918
  280TMC3     O 4230   3.420   4.458   0.733  0.1656 -0.0266 -0.4111
  280TMC3     H 4231   3.284   4.100   0.774 -1.9700 -1.0984 -0.3388
  280TMC3    H1 4232   3.220   4.508   0.780 -0.4964 -0.0221 -0.1484
  280TMC3    H2 4233   2.939   4.250   0.588 -0.9752 -1.8772  2.0589
  280TMC3    C7 4234   2.980   4.506   0.659 -0.0364  0.2468  0.5167
  280TMC3    C8 4235   3.051   4.038   0.676  0.3686 -0.5071  0.3436
  280TMC3    O1 4236   2.984   4.593   0.748 -0.0941 -0.5114 -0.1883
  280TMC3    O2 4237   2.926   4.033   0.662 -0.3963 -0.0473  0.1606
  281TMC3    C1 4238   2.195   4.518  13.160  0.7311 -0.1773 -0.2246
  281TMC3    C2 4239   2.220   4.551  13.030  0.6704  0.7895  0.4088
  281TMC3    C3 4240   2.170   4.466  12.941  0.3316  0.4552 -0.5302
  281TMC3    C4 4241   2.125   4.409  13.199  0.0055 -0.6862 -0.2687
  281TMC3    C5 4242   2.082   4.323  13.102 -0.1356 -0.0085 -0.6625
  281TMC3    C6 4243   2.108   4.350  12.975  0.3509  0.0372 -0.2548
  281TMC3     C 4244   2.184   4.627  13.252 -0.7453 -0.1431  0.0500
  281TMC3     O 4245   2.228   4.598  13.362 -0.2700 -0.6213 -0.0469
  281TMC3     H 4246   2.285   4.629  12.994  0.1329  0.3697 -1.4650
  281TMC3    H1 4247   2.102   4.401  13.305 -1.2687 -0.3723 -0.5165
  281TMC3    H2 4248   2.093   4.274  12.899  1.7543 -1.2662  0.7931
  281TMC3    C7 4249   1.987   4.214  13.131  0.3783 -0.1108  0.0462
  281TMC3    C8 4250   2.233   4.448  12.815  0.2780 -0.2867 -0.5605
  281TMC3    O1 4251   1.900   4.202  13.050 -0.2650 -0.1857  0.8199
  281TMC3    O2 4252   2.281   4.334  12.803  0.0560 -0.6521 -0.0854
  282MPD2     C 4253   4.158   1.289  14.975  0.2453  0.4867 -0.2203
  282MPD2    C1 4254   4.068   1.382  15.023  0.5759 -0.5847  0.0881
  282MPD2    C2 4255   3.979   1.446  14.931  0.0767 -0.4844  0.7441
  282MPD2    C3 4256   3.970   1.412  14.797 -0.0957  0.2671 -0.3294
  282MPD2    C4 4257   4.060   1.320  14.754 -0.2490  0.2024 -0.3527
  282MPD2    C5 4258   4.157   1.268  14.837  0.2846  0.5470  0.2440
  282MPD2     H 4259   3.908   1.516  14.974 -0.4578 -1.1883  0.9872
  282MPD2    H1 4260   4.075   1.287  14.652  1.3217  0.8513 -0.3318
  282MPD2    H2 4261   4.236   1.247  15.037 -1.2148  0.4535  1.6136
  282MPD2    H3 4262   4.237   1.209  14.794 -1.3612 -0.4761 -1.3690
  282MPD2     N 4263   3.864   1.463  14.719  0.2539 -0.1691 -0.6460
  282MPD2    H5 4264   3.809   1.531  14.770 -0.7101 -1.2374 -0.2778
  282MPD2    N1 4265   4.040   1.397  15.164 -0.3211 -0.2488 -0.2487
  282MPD2    H7 4266   3.970   1.466  15.187  0.1202  0.6171 -1.4921
  283TMC3    C1 4267   4.022   1.344  15.381 -0.1622  0.3673  0.4458
  283TMC3    C2 4268   4.028   1.475  15.418  0.2751 -0.1533 -0.7771
  283TMC3    C3 4269   3.996   1.507  15.550  0.5320  0.4245 -0.0796
  283TMC3    C4 4270   4.002   1.239  15.473  0.5566  0.5162 -0.1326
  283TMC3    C5 4271   3.967   1.273  15.602  0.3803 -0.0478  0.1278
  283TMC3    C6 4272   3.945   1.408  15.627 -0.4164 -0.0295  0.0667
  283TMC3     C 4273   4.080   1.306  15.261  0.3630  0.9393  0.0517
  283TMC3     O 4274   4.137   1.194  15.250 -0.6636  0.7986 -0.0918
  283TMC3     H 4275   4.068   1.558  15.361  0.6527 -0.9663 -1.6914
  283TMC3    H1 4276   4.004   1.136  15.440  1.1083  0.1694  0.9959
  283TMC3    H2 4277   3.913   1.436  15.727 -0.2297  0.2769  0.0403
  283TMC3    C7 4278   3.865   1.198  15.669  0.0447 -0.2990  0.1576
  283TMC3    C8 4279   3.995   1.647  15.599  0.4055 -0.0264  0.2271
  283TMC3    O1 4280   3.809   1.243  15.770 -1.0173  0.2332 -0.4749
  283TMC3    O2 4281   3.918   1.683  15.689  0.4332 -0.2664  0.2715
  284MPD2     C 4282   2.535   1.280  11.470  0.5683 -0.5116 -0.3175
  284MPD2    C1 4283   2.657   1.308  11.518  0.1313 -0.5778 -0.3706
  284MPD2    C2 4284   2.709   1.251  11.630  0.6791 -0.3901  0.5432
  284MPD2    C3 4285   2.640   1.153  11.693  0.9173  0.1396  0.1917
  284MPD2    C4 4286   2.504   1.131  11.657  0.2122  0.7634  0.5096
  284MPD2    C5 4287   2.456   1.190  11.539  0.6701  0.2302 -0.5374
  284MPD2     H 4288   2.815   1.267  11.648  1.2464 -1.6389 -1.7151
  284MPD2    H1 4289   2.446   1.053  11.705  1.5324 -0.0273  0.8222
  284MPD2    H2 4290   2.504   1.313  11.371 -0.4480 -0.6162 -0.0317
  284MPD2    H3 4291   2.359   1.160  11.501 -1.2099  4.8558  0.5824
  284MPD2     N 4292   2.687   1.064  11.796 -0.0455 -0.3218  0.4380
  284MPD2    H5 4293   2.622   1.003  11.845 -1.6323 -0.3862 -1.7404
  284MPD2    N1 4294   2.746   1.386  11.446 -0.6150 -0.6586  0.3116
  284MPD2    H7 4295   2.843   1.373  11.473 -1.0407 -1.6068  1.3757
  285TMC3    C1 4296   2.853   1.478  11.280  0.5285  0.5162 -0.4984
  285TMC3    C2 4297   2.933   1.377  11.291 -0.0932  0.0181 -0.3496
  285TMC3    C3 4298   3.064   1.401  11.319 -0.1134 -0.1373  0.1914
  285TMC3    C4 4299   2.897   1.604  11.291  0.3379  0.8396 -0.4515
  285TMC3    C5 4300   3.027   1.629  11.308 -0.1456  0.0294 -0.3533
  285TMC3    C6 4301   3.113   1.526  11.338  0.0234  0.2546 -0.5708
  285TMC3     C 4302   2.727   1.458  11.338  0.0554 -0.6362 -0.4400
  285TMC3     O 4303   2.626   1.504  11.290  0.3143  0.9488 -0.4056
  285TMC3     H 4304   2.891   1.278  11.280  1.4470 -0.7866  1.0934
  285TMC3    H1 4305   2.838   1.690  11.263  0.6758  0.8651 -1.0712
  285TMC3    H2 4306   3.216   1.556  11.353  0.1155 -1.1733  1.7553
  285TMC3    C7 4307   3.080   1.760  11.321 -0.5025 -0.4221  0.1119
  285TMC3    C8 4308   3.138   1.293  11.385  0.6944  0.5707 -0.7728
  285TMC3    O1 4309   3.163   1.775  11.409  0.2293 -0.1900  0.2264
  285TMC3    O2 4310   3.071   1.192  11.382  0.0812  0.4092  0.2796
  286MPD2     C 4311   2.890   4.198   2.047 -0.2889 -0.4619  0.2209
  286MPD2    C1 4312   2.832   4.090   1.986  0.3492  0.6258 -0.2784
  286MPD2    C2 4313   2.907   4.005   1.905 -0.1455 -0.3537 -0.3255
  286MPD2    C3 4314   3.038   4.038   1.883 -0.5353  0.0728  0.5624
  286MPD2    C4 4315   3.095   4.143   1.949  0.1837 -0.4808 -0.1087
  286MPD2    C5 4316   3.018   4.224   2.032 -0.0287 -0.7734  0.4237
  286MPD2     H 4317   2.857   3.923   1.856  0.4943 -0.9139 -0.0486
  286MPD2    H1 4318   3.199   4.163   1.926  0.9152 -1.1112  2.6305
  286MPD2    H2 4319   2.835   4.274   2.101  0.4013  1.4631 -1.7735
  286MPD2    H3 4320   3.056   4.314   2.078 -0.8246 -0.4425  0.4220
  286MPD2     N 4321   3.126   3.955   1.803 -0.9100 -0.5740 -0.1854
  286MPD2    H5 4322   3.225   3.969   1.821 -0.6622  1.7414 -3.2142
  286MPD2    N1 4323   2.701   4.051   2.014 -0.6541 -0.6522 -0.3636
  286MPD2    H7 4324   2.656   3.985   1.952 -1.0819 -0.2974 -0.4309
  287TMC3    C1 4325   3.208   3.803   1.635 -0.2018  0.0920  0.1701
  287TMC3    C2 4326   3.178   3.714   1.539 -0.8946 -0.3945 -0.4548
  287TMC3    C3 4327   3.277   3.672   1.458  0.2928  0.5030  0.5807
  287TMC3    C4 4328   3.336   3.838   1.663 -0.3581  0.6939 -0.1549
  287TMC3    C5 4329   3.437   3.775   1.595 -0.0486  0.7931 -0.1100
  287TMC3    C6 4330   3.412   3.685   1.493  0.0252 -0.0762  0.3514
  287TMC3     C 4331   3.094   3.867   1.699  0.8378 -0.8967 -0.5684
  287TMC3     O 4332   2.982   3.836   1.664 -0.3096  0.3634 -0.1369
  287TMC3     H 4333   3.076   3.706   1.504 -0.8086  1.6427 -1.1962
  287TMC3    H1 4334   3.354   3.924   1.726 -0.7167 -0.1883  1.1470
  287TMC3    H2 4335   3.489   3.632   1.438 -2.0059 -2.7145  0.0943
  287TMC3    C7 4336   3.569   3.807   1.628  0.1871 -0.0727  0.0580
  287TMC3    C8 4337   3.238   3.555   1.373  0.9038 -0.1714  0.3549
  287TMC3    O1 4338   3.594   3.903   1.705  0.0257  0.4336  0.4167
  287TMC3    O2 4339   3.129   3.500   1.388 -0.2318 -0.2479 -0.6803
  288TMC3    C1 4340   4.387   3.473  14.639  0.2506  0.1521 -0.3226
  288TMC3    C2 4341   4.363   3.482  14.774  0.3408 -0.5199 -0.5613
  288TMC3    C3 4342   4.363   3.604  14.829 -0.2653  0.1245  0.5815
  288TMC3    C4 4343   4.401   3.589  14.563  0.6381 -0.6444 -0.3913
  288TMC3    C5 4344   4.391   3.712  14.627 -0.1058 -0.2286 -0.1593
  288TMC3    C6 4345   4.377   3.723  14.758 -0.3589 -0.1003 -0.3377
  288TMC3     C 4346   4.442   3.351  14.580  0.3946  0.1561 -0.4608
  288TMC3     O 4347   4.530   3.366  14.499 -0.6522 -0.0669  0.0226
  288TMC3     H 4348   4.378   3.395  14.837 -2.1712  1.4524  2.7314
  288TMC3    H1 4349   4.441   3.594  14.462 -0.9809 -1.2359 -1.0672
  288TMC3    H2 4350   4.393   3.816  14.811  0.8945 -1.0092  0.8776
  288TMC3    C7 4351   4.414   3.833  14.556 -0.2013  0.4201 -0.1627
  288TMC3    C8 4352   4.290   3.618  14.951  0.6154 -0.1753  0.0989
  288TMC3    O1 4353   4.470   3.834  14.449  0.5483 -0.2036  0.0808
  288TMC3    O2 4354   4.295   3.732  15.005  1.1378 -0.2205 -0.7232
  289MPD2     C 4355   0.131   2.560  14.272 -0.9654  0.4408 -0.2937
  289MPD2    C1 4356   0.131   2.687  14.215 -0.0053  0.1814 -0.5494
  289MPD2    C2 4357   0.013   2.763  14.223 -0.3164 -0.0897 -0.2851
  289MPD2    C3 4358   4.631   2.721  14.295  0.3531 -0.4442 -0.2254
  289MPD2    C4 4359   4.627   2.593  14.350 -0.7452  0.0530 -0.6846
  289MPD2    C5 4360   0.014   2.510  14.331 -0.4964  0.0054 -0.2802
  289MPD2     H 4361   0.006   2.860  14.176 -3.4478 -0.2361 -0.1200
  289MPD2    H1 4362   4.537   2.554  14.395  0.2303  0.2154  1.4196
  289MPD2    H2 4363   0.218   2.498  14.255 -0.9594 -0.3893  2.7241
  289MPD2    H3 4364   0.021   2.410  14.373  1.8502 -0.1882 -1.1420
  289MPD2     N 4365   4.512   2.802  14.309  0.3389  0.2233 -0.1177
  289MPD2    H5 4366   4.438   2.769  14.370  1.2375 -2.3276 -0.4364
  289MPD2    N1 4367   0.243   2.728  14.139  0.2105  0.2977  0.6408
  289MPD2    H7 4368   0.327   2.672  14.136  0.2683  0.4126  0.0151
  290TMC3    C1 4369   4.366   2.987  14.290  0.0704 -0.2031 -0.0386
  290TMC3    C2 4370   4.358   3.115  14.312 -0.1684 -0.1100  0.1198
  290TMC3    C3 4371   4.232   3.164  14.342  0.3181 -1.0847  0.4943
  290TMC3    C4 4372   4.261   2.900  14.302 -1.2253 -0.2925 -0.3039
  290TMC3    C5 4373   4.139   2.949  14.345  0.0576  0.7058 -0.2453
  290TMC3    C6 4374   4.129   3.084  14.372  0.0343  0.0891 -0.3217
  290TMC3     C 4375   4.496   2.936  14.266  0.0688  0.1958 -0.4558
  290TMC3     O 4376   4.580   3.015  14.226  0.2169  0.3614  0.0669
  290TMC3     H 4377   4.439   3.187  14.304 -1.0770  1.0173  1.1435
  290TMC3    H1 4378   4.277   2.797  14.270 -2.0971 -0.7090  0.6199
  290TMC3    H2 4379   4.040   3.122  14.421  0.0531 -0.9330  0.4975
  290TMC3    C7 4380   4.042   2.859  14.409 -0.6160 -0.4129  0.8970
  290TMC3    C8 4381   4.203   3.302  14.328 -0.9241  0.5824 -0.2357
  290TMC3    O1 4382   3.981   2.910  14.501  0.3851 -0.0719  1.1844
  290TMC3    O2 4383   4.110   3.345  14.395  0.0346 -0.8407  0.8239
  291MPD2     C 4384   3.459   3.236   0.620 -0.1747 -0.8793  0.1382
  291MPD2    C1 4385   3.600   3.250   0.629  0.1688 -0.4264  0.0231
  291MPD2    C2 4386   3.657   3.367   0.576 -0.4428 -0.3643  0.4078
  291MPD2    C3 4387   3.575   3.466   0.523 -0.8542  0.2449  0.4527
  291MPD2    C4 4388   3.443   3.453   0.522 -0.0149  0.2708 -0.4714
  291MPD2    C5 4389   3.380   3.338   0.571 -0.1708  0.2066  0.4120
  291MPD2     H 4390   3.764   3.376   0.571 -0.4186 -0.0333  1.4031
  291MPD2    H1 4391   3.376   3.524   0.475  0.0038  1.7437  1.7387
  291MPD2    H2 4392   3.414   3.144   0.655  0.6684 -1.2382  0.2942
  291MPD2    H3 4393   3.273   3.322   0.561 -0.4918  1.5686  1.6527
  291MPD2     N 4394   3.626   3.579   0.465  0.1168  0.7410 -0.0443
  291MPD2    H5 4395   3.556   3.641   0.426 -0.9856 -0.1294  0.5526
  291MPD2    N1 4396   3.684   3.149   0.684 -0.1138  0.0248 -0.0931
  291MPD2    H7 4397   3.785   3.164   0.679 -0.1277  0.2576  0.3823
  292TMC3    C1 4398   3.748   2.938   0.778  0.3567 -0.5013  0.0789
  292TMC3    C2 4399   3.850   2.985   0.858  0.7791 -0.2409 -0.1517
  292TMC3    C3 4400   3.924   2.889   0.912 -0.3333  0.1051  0.0297
  292TMC3    C4 4401   3.717   2.807   0.761  0.0466  0.5174  0.0798
  292TMC3    C5 4402   3.797   2.714   0.818  0.3127 -0.3538 -0.2373
  292TMC3    C6 4403   3.902   2.754   0.888  0.1561  0.3758 -0.0077
  292TMC3     C 4404   3.643   3.028   0.720 -0.4265  0.5316 -0.5191
  292TMC3     O 4405   3.542   2.973   0.684  0.6470 -0.1581  0.0615
  292TMC3     H 4406   3.858   3.091   0.876 -2.7578  0.2463 -1.5337
  292TMC3    H1 4407   3.627   2.778   0.708  0.8238 -1.2789 -0.2615
  292TMC3    H2 4408   3.973   2.677   0.918 -0.2833  0.5191  1.4178
  292TMC3    C7 4409   3.765   2.575   0.803  0.0719  0.3810  0.8790
  292TMC3    C8 4410   4.028   2.935   1.010  0.3145  0.0180  0.0902
  292TMC3    O1 4411   3.658   2.555   0.746  0.2948 -0.0349 -0.1972
  292TMC3    O2 4412   4.074   3.048   1.005 -0.0753 -0.3368 -0.4257
  293MPD2     C 4413   0.606   4.680  12.393  0.4631  0.0411  0.5014
  293MPD2    C1 4414   0.517   4.609  12.468  0.1401 -0.0148  0.3136
  293MPD2    C2 4415   0.552   4.594  12.601 -0.2071 -0.2431 -0.3838
  293MPD2    C3 4416   0.664   4.651  12.658 -0.2803 -0.1114  0.0586
  293MPD2    C4 4417   0.751   0.003  12.578 -1.1105  0.4635 -0.0807
  293MPD2    C5 4418   0.714   0.023  12.444 -0.3179 -0.0192 -0.5227
  293MPD2     H 4419   0.486   4.539  12.666 -0.2787 -0.7659 -0.8959
  293MPD2    H1 4420   0.836   0.057  12.618 -1.2015 -1.6007  2.8288
  293MPD2    H2 4421   0.604   4.696  12.286  1.1805 -0.7796  0.3679
  293MPD2    H3 4422   0.772   0.093  12.386  0.9646 -0.5969  0.0503
  293MPD2     N 4423   0.670   4.656  12.800  0.5386 -0.1510 -0.4104
  293MPD2    H5 4424   0.612   4.585  12.844  2.1560 -2.3905 -1.8973
  293MPD2    N1 4425   0.387   4.572  12.413  0.9908 -0.1625 -0.3354
  293MPD2    H7 4426   0.383   4.583  12.312  0.7184  0.0436 -0.3025
  294TMC3    C1 4427   0.164   4.492  12.380  0.1072 -0.6092  0.7312
  294TMC3    C2 4428   0.101   4.368  12.373 -0.1446 -0.1368 -0.6259
  294TMC3    C3 4429   0.024   4.346  12.262 -0.1575  0.1809  0.4847
  294TMC3    C4 4430   0.146   4.584  12.283  0.6211  0.2861  0.1437
  294TMC3    C5 4431   0.064   4.557  12.179 -0.2204 -0.1702  0.5980
  294TMC3    C6 4432   0.002   4.441  12.164  0.3384 -0.0868 -0.2733
  294TMC3     C 4433   0.285   4.495  12.471 -0.2336  1.0390 -0.6808
  294TMC3     O 4434   0.281   4.467  12.588 -0.5357 -0.0709 -0.4408
  294TMC3     H 4435   0.144   4.289  12.434 -0.3592  0.8234  0.7659
  294TMC3    H1 4436   0.194   4.681  12.297 -2.4097  1.4342  2.4292
  294TMC3    H2 4437   4.658   4.421  12.083  1.8185 -0.8978 -1.3382
  294TMC3    C7 4438   4.722   4.679  12.135  0.1430  0.0870  0.5256
  294TMC3    C8 4439   4.666   4.225  12.261 -0.1251  0.4656  0.0171
  294TMC3    O1 4440   0.010   0.058  12.197 -0.1542 -0.2169 -0.1619
  294TMC3    O2 4441   4.680   4.161  12.361 -0.6606 -0.2266  0.2148
  295MPD2     C 4442   1.160   3.021  17.613  0.2857  0.1745 -0.7448
  295MPD2    C1 4443   1.175   3.149  17.656 -0.2180 -0.1026  0.0694
  295MPD2    C2 4444   1.122   3.198   0.074 -0.4585  0.6865 -0.0837
  295MPD2    C3 4445   1.059   3.111   0.163 -0.1693 -0.3601 -0.0755
  295MPD2    C4 4446   1.049   2.979   0.121  0.3910  0.2987 -0.5579
  295MPD2    C5 4447   1.094   2.932  17.701  0.0399 -0.0126 -0.4439
  295MPD2     H 4448   1.132   3.303   0.098  2.9581  0.2753  0.3310
  295MPD2    H1 4449   0.984   2.916   0.181  0.2359  0.5663 -0.4396
  295MPD2    H2 4450   1.205   2.984  17.522 -0.5460 -1.0047 -0.6854
  295MPD2    H3 4451   1.085   2.827  17.674 -0.7185 -0.0539 -0.0131
  295MPD2     N 4452   0.994   3.139   0.285 -0.6930  0.4856  0.6151
  295MPD2    H5 4453   0.939   3.067   0.329 -1.7904 -0.7979 -2.8477
  295MPD2    N1 4454   1.244   3.252  17.584 -0.4355 -0.2746 -0.5199
  295MPD2    H7 4455   1.241   3.346  17.621 -0.3179  0.1556 -1.6078
  296TMC3    C1 4456   0.923   3.258   0.480 -0.3497 -0.1801 -0.4279
  296TMC3    C2 4457   0.874   3.374   0.537  0.5380  0.1231 -0.3289
  296TMC3    C3 4458   0.810   3.373   0.660 -0.3433  0.2758 -0.1672
  296TMC3    C4 4459   0.894   3.137   0.539 -0.5659  0.5120 -0.1302
  296TMC3    C5 4460   0.813   3.139   0.644  0.0381 -0.8260 -0.0425
  296TMC3    C6 4461   0.763   3.256   0.701  0.4855 -0.0197  0.5490
  296TMC3     C 4462   0.987   3.268   0.351 -0.3178  0.3892 -0.2138
  296TMC3     O 4463   1.033   3.372   0.318  0.3694 -0.1316 -0.5627
  296TMC3     H 4464   0.888   3.464   0.478  0.0068  0.5943  0.2458
  296TMC3    H1 4465   0.932   3.046   0.493 -0.2040  0.6727 -0.1458
  296TMC3    H2 4466   0.677   3.257   0.767  2.6015  1.9255  3.2180
  296TMC3    C7 4467   0.758   3.013   0.680 -0.0451  0.1124  0.3178
  296TMC3    C8 4468   0.774   3.499   0.727 -0.3970  0.9438  0.1682
  296TMC3    O1 4469   0.765   2.921   0.597  0.1898  0.1373 -0.1419
  296TMC3    O2 4470   0.774   3.598   0.649  0.2270 -0.1890 -0.5838
  297MPD2     C 4471   3.306   4.635  16.277  0.2046  0.1930 -0.8493
  297MPD2    C1 4472   3.289   4.704  16.162  0.0233 -0.1613 -0.1286
  297MPD2    C2 4473   3.324   0.117  16.164  0.0765 -0.0310 -0.6216
  297MPD2    C3 4474   3.390   0.170  16.274 -0.7516  0.1531  0.3096
  297MPD2    C4 4475   3.410   0.094  16.386 -0.6467  1.1172  0.1449
  297MPD2    C5 4476   3.361   4.688  16.387 -0.4677  0.0053 -0.5524
  297MPD2     H 4477   3.299   0.180  16.079 -1.6162 -0.0916 -0.1704
  297MPD2    H1 4478   3.471   0.129  16.468 -0.9907  0.1447  0.8125
  297MPD2    H2 4479   3.267   4.534  16.284  1.6204 -0.3123 -0.2690
  297MPD2    H3 4480   3.385   4.621  16.468  1.1286  0.3297 -0.7526
  297MPD2     N 4481   3.441   0.302  16.260  0.1595 -0.4499  1.4411
  297MPD2    H5 4482   3.438   0.346  16.169 -0.0596 -1.0987  1.1424
  297MPD2    N1 4483   3.212   4.658  16.047 -0.1767 -0.1434 -0.1410
  297MPD2    H7 4484   3.200   4.720  15.968 -0.7940  0.0342  0.0880
  298TMC3    C1 4485   3.033   4.572  15.933 -0.0210 -0.4289  0.4869
  298TMC3    C2 4486   3.075   4.632  15.817 -0.2584 -0.2700  0.0831
  298TMC3    C3 4487   2.982   4.706  15.744 -0.0640 -0.1656  0.3684
  298TMC3    C4 4488   2.898   4.578  15.968 -0.2807 -0.4784 -0.7075
  298TMC3    C5 4489   2.811   4.648  15.894  0.1646 -0.0955  0.0137
  298TMC3    C6 4490   2.855   4.725  15.790  0.4035 -0.2448 -0.1196
  298TMC3     C 4491   3.120   4.549  16.046  0.7782 -0.0935  0.1556
  298TMC3     O 4492   3.098   4.466  16.132 -0.2893 -0.1690 -0.0190
  298TMC3     H 4493   3.177   4.624  15.781 -0.4179 -0.9932 -0.2176
  298TMC3    H1 4494   2.868   4.533  16.063 -1.1759  0.0229 -0.7528
  298TMC3    H2 4495   2.789   0.070  15.739 -0.0256  0.0887  0.8956
  298TMC3    C7 4496   2.706   4.713  15.966 -0.8971  1.7543  0.1448
  298TMC3    C8 4497   3.019   0.037  15.615 -0.0653 -0.8549 -1.0047
  298TMC3    O1 4498   2.706   0.108  15.979 -0.5069  0.2853  0.1979
  298TMC3    O2 4499   2.928   0.082  15.544  0.6537  0.0032 -0.1313
  299MPD2     C 4500   3.921   0.537  10.693  0.2505  0.0971  0.1670
  299MPD2    C1 4501   3.931   0.405  10.734  0.5387 -0.7226 -0.0734
  299MPD2    C2 4502   3.878   0.312  10.650 -0.4352 -0.1279  0.2507
  299MPD2    C3 4503   3.817   0.340  10.529  0.1326  0.0737  0.4892
  299MPD2    C4 4504   3.815   0.471  10.494 -0.2384  0.6868 -0.4523
  299MPD2    C5 4505   3.869   0.568  10.571 -0.5272  0.2504 -0.2854
  299MPD2     H 4506   3.882   0.209  10.685 -2.8508  0.0021  0.8696
  299MPD2    H1 4507   3.747   0.490  10.411  0.4047 -1.9656 -1.5816
  299MPD2    H2 4508   3.974   0.613  10.749 -0.5734  0.1678  0.8567
  299MPD2    H3 4509   3.870   0.669  10.534  0.3663  0.3538  0.0254
  299MPD2     N 4510   3.729   0.248  10.459 -0.0684  0.3395  0.2500
  299MPD2    H5 4511   3.680   0.284  10.378  0.1205 -1.9776 -0.8937
  299MPD2    N1 4512   4.002   0.378  10.852 -0.4492  0.1839 -0.1675
  299MPD2    H7 4513   4.049   0.457  10.894  0.1324  0.0001 -0.4743
  300TMC3    C1 4514   3.579   0.080  10.409  0.2994  0.3098  0.3363
  300TMC3    C2 4515   3.580   0.138  10.289 -0.0098  0.0753  0.1234
  300TMC3    C3 4516   3.465   0.185  10.228  0.3042  0.1276 -0.6337
  300TMC3    C4 4517   3.464   0.058  10.474  0.5643 -0.0610 -0.2859
  300TMC3    C5 4518   3.347   0.096  10.405 -0.3781 -0.5646  0.3090
  300TMC3    C6 4519   3.344   0.155  10.284  0.4022 -0.1973 -0.5350
  300TMC3     C 4520   3.690   0.122  10.494  0.1248  0.0716 -0.4196
  300TMC3     O 4521   3.718   0.070  10.601 -0.1406  0.2746  0.6389
  300TMC3     H 4522   3.675   0.164  10.245 -0.5383  1.2144 -0.3615
  300TMC3    H1 4523   3.457   0.006  10.568 -1.1026 -0.6684 -0.7566
  300TMC3    H2 4524   3.250   0.192  10.243  0.7100  2.7789  1.4696
  300TMC3    C7 4525   3.232   0.090  10.487  0.3744 -0.4389 -0.1665
  300TMC3    C8 4526   3.481   0.329  10.204  0.8786 -0.4746 -0.4523
  300TMC3    O1 4527   3.124   0.058  10.431  0.0185 -0.7814  0.7281
  300TMC3    O2 4528   3.587   0.376  10.243 -0.5290  0.6474  0.1835
  301MPD2     C 4529   1.010   1.080   1.905  0.1798 -0.2096  0.0922
  301MPD2    C1 4530   0.937   1.019   1.799  0.0537  0.1385  0.1089
  301MPD2    C2 4531   0.994   0.911   1.735  0.3577 -0.3577 -0.1096
  301MPD2    C3 4532   1.120   0.866   1.769  0.1374  0.6095  0.2261
  301MPD2    C4 4533   1.190   0.931   1.871 -0.1288  0.0755  0.1812
  301MPD2    C5 4534   1.139   1.044   1.932  0.4894 -0.6770 -0.3071
  301MPD2     H 4535   0.934   0.861   1.660 -0.3775 -0.3501  0.4700
  301MPD2    H1 4536   1.296   0.913   1.886 -0.1987 -0.4449  0.0579
  301MPD2    H2 4537   0.965   1.165   1.955 -1.1382 -0.0740 -1.3394
  301MPD2    H3 4538   1.198   1.087   2.012  0.5549  3.1837 -2.4181
  301MPD2     N 4539   1.187   0.765   1.697  0.2001  0.1835  0.1388
  301MPD2    H5 4540   1.288   0.764   1.704  0.1283  0.2573  1.1965
  301MPD2    N1 4541   0.816   1.068   1.748 -0.3954  0.2403 -0.1676
  301MPD2    H7 4542   0.772   1.009   1.679  0.6162  0.2614 -0.8304
  302TMC3    C1 4543   1.232   0.606   1.530 -1.0164  0.3833  0.0517
  302TMC3    C2 4544   1.361   0.597   1.578  0.0433 -0.3830  0.1840
  302TMC3    C3 4545   1.458   0.563   1.483  0.4531  0.4648 -0.0606
  302TMC3    C4 4546   1.190   0.570   1.408 -0.6781 -0.5918  0.8273
  302TMC3    C5 4547   1.292   0.537   1.322 -0.0814 -0.7403  0.1733
  302TMC3    C6 4548   1.419   0.531   1.358 -0.4031  0.1688 -0.5912
  302TMC3     C 4549   1.135   0.695   1.600  0.6849  0.0865  0.1893
  302TMC3     O 4550   1.017   0.687   1.570  0.3159  0.3227  0.2580
  302TMC3     H 4551   1.400   0.650   1.664 -0.2502  0.8802 -0.4503
  302TMC3    H1 4552   1.085   0.564   1.380 -0.1319 -0.9233 -1.1624
  302TMC3    H2 4553   1.488   0.495   1.283  0.3044 -1.2095  0.7158
  302TMC3    C7 4554   1.260   0.471   1.198  0.3459  1.0343 -0.2758
  302TMC3    C8 4555   1.602   0.581   1.514 -0.4277  0.4991 -0.6873
  302TMC3    O1 4556   1.320   0.364   1.180  0.3042  0.4700 -0.4397
  302TMC3    O2 4557   1.673   0.583   1.416 -0.0969 -0.5550  0.2177
  303MPD2     C 4558   1.126   4.609  10.481 -0.1028  0.5282  0.5764
  303MPD2    C1 4559   1.073   4.705  10.389 -0.2121 -0.8573  0.3591
  303MPD2    C2 4560   1.169   0.061  10.320  0.6306 -0.5829 -0.1737
  303MPD2    C3 4561   1.308   0.049  10.343 -0.0597  0.3307 -0.6575
  303MPD2    C4 4562   1.352   4.693  10.447  0.5979 -0.4113 -0.0030
  303MPD2    C5 4563   1.259   4.608  10.510  0.0770  0.4989 -0.1349
  303MPD2     H 4564   1.131   0.122  10.239  0.6583 -2.4101 -1.5573
  303MPD2    H1 4565   1.455   4.698  10.480  0.7180 -1.7121 -0.1956
  303MPD2    H2 4566   1.064   4.533  10.528  2.3680 -1.1384  1.1853
  303MPD2    H3 4567   1.289   4.538  10.586 -1.9202  1.2081  1.3074
  303MPD2     N 4568   1.402   0.115  10.261 -0.6441 -0.6000 -0.1085
  303MPD2    H5 4569   1.500   0.098  10.283 -0.7254 -0.7201  0.1555
  303MPD2    N1 4570   0.938   4.714  10.362 -0.0472 -0.1664 -0.3953
  303MPD2    H7 4571   0.865   4.656  10.400 -0.7425 -0.1795 -1.7459
  304TMC3    C1 4572   0.734   0.066  10.281 -0.2879  0.4431 -0.3885
  304TMC3    C2 4573   0.657   0.178  10.303 -0.3568  0.1637  0.3684
  304TMC3    C3 4574   0.531   0.169  10.244  0.1962 -0.0587  0.0470
  304TMC3    C4 4575   0.688   4.679  10.217  0.3082 -0.5682  0.3885
  304TMC3    C5 4576   0.562   4.673  10.166 -0.6989  0.0515  0.8508
  304TMC3    C6 4577   0.492   0.055  10.186 -0.0930 -0.1698  0.2947
  304TMC3     C 4578   0.875   0.081  10.278  0.1735 -0.6232  0.6468
  304TMC3     O 4579   0.907   0.193  10.247 -0.3790 -0.1804 -0.0782
  304TMC3     H 4580   0.702   0.270  10.339  3.4114 -0.7831 -1.8246
  304TMC3    H1 4581   0.762   4.606  10.188  0.4696 -1.3146  2.7108
  304TMC3    H2 4582   0.397   0.053  10.134 -0.3207  1.3238  0.6578
  304TMC3    C7 4583   0.566   4.622  10.031  0.0248  0.1767 -0.2901
  304TMC3    C8 4584   0.504   0.281  10.164  0.4551  0.1818  0.7058
  304TMC3    O1 4585   0.607   4.505  10.020  0.2649  0.0498 -0.4271
  304TMC3    O2 4586   0.476   0.253  10.049  0.7562 -0.2971 -0.4477
  305MPD2     C 4587   4.639   1.026  14.493 -0.1336 -0.8463  0.5883
  305MPD2    C1 4588   4.713   1.135  14.499  0.3745 -0.1625  0.1322
  305MPD2    C2 4589   4.708   1.216  14.386  0.2647 -0.4483 -0.3085
  305MPD2    C3 4590   4.631   1.185  14.275  0.3150 -0.1316  0.0397
  305MPD2    C4 4591   4.550   1.082  14.280 -0.1154 -0.4471 -0.1422
  305MPD2    C5 4592   4.559   1.001  14.383 -0.4298 -0.8275 -0.1660
  305MPD2     H 4593   0.043   1.306  14.392 -1.3567  0.7005 -1.3491
  305MPD2    H1 4594   4.498   1.050  14.191 -0.7279 -3.2703  1.2337
  305MPD2    H2 4595   4.627   0.959  14.577 -0.5938  1.3224  2.2773
  305MPD2    H3 4596   4.489   0.918  14.386 -1.9138  0.4746  1.1008
  305MPD2     N 4597   4.626   1.272  14.163 -0.3891 -0.1535 -0.0787
  305MPD2    H5 4598   4.564   1.249  14.087 -1.0382  3.2147 -0.5437
  305MPD2    N1 4599   0.065   1.166  14.613  0.4011  0.1756 -0.3016
  305MPD2    H7 4600   0.072   1.082  14.669 -0.4838  0.1571 -0.2225
  306TMC3    C1 4601   0.196   1.269  14.772 -0.2659  0.5166 -0.8228
  306TMC3    C2 4602   0.281   1.167  14.779 -0.5982  0.0604  0.0317
  306TMC3    C3 4603   0.381   1.171  14.876 -0.2638 -0.2135 -0.1530
  306TMC3    C4 4604   0.206   1.376  14.854 -0.3638  0.2535  0.0136
  306TMC3    C5 4605   0.314   1.390  14.942 -0.1011 -0.1944 -0.4898
  306TMC3    C6 4606   0.395   1.280  14.958 -0.0958 -0.2664 -0.9450
  306TMC3     C 4607   0.118   1.280  14.651 -0.3805 -0.0653 -0.0997
  306TMC3     O 4608   0.100   1.393  14.607  0.4631  0.6362  0.0012
  306TMC3     H 4609   0.270   1.073  14.726  0.2219  0.0870 -0.1832
  306TMC3    H1 4610   0.134   1.457  14.837  0.2906  0.5161 -1.5588
  306TMC3    H2 4611   0.476   1.281  15.030 -0.4844  2.3888 -0.5326
  306TMC3    C7 4612   0.307   1.496  15.044  0.7861 -0.0947 -0.1421
  306TMC3    C8 4613   0.452   1.048  14.905  0.1394  0.3313 -0.1532
  306TMC3    O1 4614   0.230   1.584  15.016 -0.0850  0.4059  0.4846
  306TMC3    O2 4615   0.539   1.066  14.985  1.1598 -0.2866 -0.1133
  307MPD2     C 4616   2.282   4.404   1.023  0.6170 -0.2583  0.2046
  307MPD2    C1 4617   2.154   4.369   0.994 -0.4682 -0.3069  0.4971
  307MPD2    C2 4618   2.048   4.450   1.041 -0.8068  0.1545 -0.5172
  307MPD2    C3 4619   2.077   4.560   1.126  0.9097  0.0663  0.2063
  307MPD2    C4 4620   2.210   4.580   1.165 -0.2261 -0.0741  0.4678
  307MPD2    C5 4621   2.312   4.509   1.104  0.5490  0.3174 -0.7680
  307MPD2     H 4622   1.942   4.434   1.023 -0.5806 -0.5277 -1.2454
  307MPD2    H1 4623   2.229   4.657   1.238 -2.0984  1.4610 -0.6706
  307MPD2    H2 4624   2.370   4.351   0.988  1.5099  1.3172  0.0685
  307MPD2    H3 4625   2.414   4.535   1.133  0.4382 -0.2726  0.1486
  307MPD2     N 4626   1.976   4.642   1.170  0.1364 -0.6912 -1.4012
  307MPD2    H5 4627   1.879   4.616   1.155  0.2638 -0.7950 -2.0278
  307MPD2    N1 4628   2.127   4.263   0.902 -0.1082 -0.5707 -0.1790
  307MPD2    H7 4629   2.035   4.260   0.860 -0.0618 -1.0882 -0.2467
  308TMC3    C1 4630   1.639   0.082   1.314 -0.8020 -0.5951 -0.1300
  308TMC3    C2 4631   1.622   0.215   1.277 -0.5012 -0.9542 -0.1696
  308TMC3    C3 4632   1.726   0.290   1.226  0.0579  0.1812 -0.0304
  308TMC3    C4 4633   1.771   0.026   1.318 -0.6010 -0.1644 -0.3520
  308TMC3    C5 4634   1.864   0.108   1.268  0.5096 -0.0158  0.1638
  308TMC3    C6 4635   1.853   0.245   1.232 -0.2831 -0.3634 -0.8377
  308TMC3     C 4636   1.529   4.723   1.299 -0.2531 -0.2198  0.7548
  308TMC3     O 4637   1.560   4.601   1.319 -0.0235  0.7983 -0.5484
  308TMC3     H 4638   1.526   0.265   1.291 -1.1050 -1.6835 -1.7209
  308TMC3    H1 4639   1.798   4.647   1.322 -1.3412 -0.3600 -0.4083
  308TMC3    H2 4640   1.922   0.296   1.166  2.2021 -0.9580  1.3079
  308TMC3    C7 4641   1.992   0.046   1.228  0.3268  0.6128 -0.7530
  308TMC3    C8 4642   1.700   0.386   1.120  0.5112  0.3922 -0.1555
  308TMC3    O1 4643   2.088   0.116   1.228  0.3588  0.0214  0.6347
  308TMC3    O2 4644   1.764   0.492   1.119 -0.0929 -0.4297 -0.2302
  309MPD2     C 4645   1.414   0.083  17.115  0.5773 -0.5446  0.4894
  309MPD2    C1 4646   1.310   0.098  17.025  0.7838  0.2312  0.3335
  309MPD2    C2 4647   1.188   0.130  17.068 -0.2206  0.3592  0.3252
  309MPD2    C3 4648   1.161   0.149  17.200  0.5222 -0.0375 -0.1871
  309MPD2    C4 4649   1.256   0.125  17.296 -0.4664  0.5735 -0.0560
  309MPD2    C5 4650   1.378   0.110  17.242 -0.2244  0.5725 -0.0670
  309MPD2     H 4651   1.106   0.146  16.999 -1.8958 -1.3910  1.9061
  309MPD2    H1 4652   1.250   0.126  17.404 -0.6489 -0.0553 -0.0611
  309MPD2    H2 4653   1.516   0.065  17.082  0.8129 -0.1214  0.9894
  309MPD2    H3 4654   1.463   0.105  17.309  1.2018  1.4735 -1.8411
  309MPD2     N 4655   1.032   0.185  17.243 -0.7020  0.1899  0.6081
  309MPD2    H5 4656   1.028   0.185  17.345 -0.6559  0.1205  0.6097
  309MPD2    N1 4657   1.329   0.082  16.880  0.3576 -0.2687 -0.5437
  309MPD2    H7 4658   1.253   0.115  16.821  0.2133  3.5681  1.7660
  310TMC3    C1 4659   1.442   0.048  16.669  0.3925  0.8081 -0.0279
  310TMC3    C2 4660   1.397   0.160  16.613 -0.6719 -0.2039  0.1536
  310TMC3    C3 4661   1.434   0.186  16.484 -0.2058 -0.2997 -0.2071
  310TMC3    C4 4662   1.518   4.680  16.596 -0.0569 -0.5280  0.8371
  310TMC3    C5 4663   1.552   4.703  16.462 -0.5590  1.0924  0.3186
  310TMC3    C6 4664   1.492   0.084  16.401 -0.0795  0.4516 -0.0354
  310TMC3     C 4665   1.439   0.023  16.815 -1.0884  0.3495  0.0745
  310TMC3     O 4666   1.543   4.699  16.859 -0.1603  0.2262  0.1029
  310TMC3     H 4667   1.341   0.238  16.662 -1.1737  0.1263 -0.9320
  310TMC3    H1 4668   1.558   4.595  16.650 -0.6073 -2.7793 -2.3344
  310TMC3    H2 4669   1.519   0.101  16.298 -0.5110  0.5738 -0.1280
  310TMC3    C7 4670   1.629   4.599  16.399  0.4656 -0.5042  0.9583
  310TMC3    C8 4671   1.333   0.257  16.404 -0.0659 -0.0891 -0.6220
  310TMC3    O1 4672   1.623   4.483  16.443 -0.3417 -0.1700 -0.2227
  310TMC3    O2 4673   1.239   0.192  16.369  0.2455 -0.3827  0.0478
  311MPD2     C 4674   3.250   1.563  13.107 -0.3592 -0.6366  0.1566
  311MPD2    C1 4675   3.218   1.694  13.104 -0.1523  0.3210  0.1835
  311MPD2    C2 4676   3.088   1.738  13.078  0.3570 -0.1332 -0.1076
  311MPD2    C3 4677   2.983   1.650  13.053 -0.8957  0.8310  0.5703
  311MPD2    C4 4678   3.019   1.518  13.060  0.4002  0.3637 -0.5718
  311MPD2    C5 4679   3.150   1.474  13.075 -0.5723  0.4649  0.2221
  311MPD2     H 4680   3.074   1.845  13.077  0.7928 -0.0771 -0.0078
  311MPD2    H1 4681   2.933   1.452  13.059  0.1329  0.6473  1.6970
  311MPD2    H2 4682   3.350   1.526  13.129 -0.2950 -0.3822  0.2874
  311MPD2    H3 4683   3.169   1.368  13.075  1.9601  0.9172  0.4537
  311MPD2     N 4684   2.847   1.695  13.039  0.1611  0.3928 -0.6018
  311MPD2    H5 4685   2.844   1.792  13.067  1.6659  0.0068  0.9165
  311MPD2    N1 4686   3.319   1.800  13.111  0.4619 -0.1947  0.3909
  311MPD2    H7 4687   3.278   1.893  13.120 -0.2247 -0.4204 -0.3652
  312TMC3    C1 4688   2.632   1.725  12.948 -0.1491 -0.1122 -0.0972
  312TMC3    C2 4689   2.534   1.671  12.865  0.2606  0.4997 -0.6836
  312TMC3    C3 4690   2.431   1.753  12.828  0.2654 -0.1026  0.0320
  312TMC3    C4 4691   2.628   1.853  12.991 -0.7865 -0.2553  0.3392
  312TMC3    C5 4692   2.513   1.920  12.961  0.3016  0.2704  0.0404
  312TMC3    C6 4693   2.424   1.881  12.871  0.0591  0.2707 -0.3358
  312TMC3     C 4694   2.745   1.633  12.970  0.4550  0.4996 -0.2554
  312TMC3     O 4695   2.741   1.521  12.927 -1.0967  0.0075 -0.4411
  312TMC3     H 4696   2.543   1.568  12.831 -1.4776 -0.1101  0.7251
  312TMC3    H1 4697   2.704   1.905  13.047  0.3586 -0.4758 -1.0076
  312TMC3    H2 4698   2.332   1.934  12.848 -0.0110  0.9787  1.5574
  312TMC3    C7 4699   2.469   2.025  13.056  0.1270  0.7230  0.3681
  312TMC3    C8 4700   2.337   1.705  12.730 -0.6038  0.5517  0.4337
  312TMC3    O1 4701   2.367   2.093  13.034 -0.3587  0.6948 -0.4196
  312TMC3    O2 4702   2.305   1.590  12.757  0.3419 -0.0545 -0.2702
  313MPD2     C 4703   2.829   0.470  11.319 -0.9381  0.1975 -0.3181
  313MPD2    C1 4704   2.814   0.497  11.180  0.0036  0.0061  0.3632
  313MPD2    C2 4705   2.749   0.400  11.101 -0.5356 -0.5022 -0.1195
  313MPD2    C3 4706   2.712   0.274  11.145 -0.0823 -0.1874 -0.4034
  313MPD2    C4 4707   2.743   0.244  11.275  0.3581 -0.6207  0.5176
  313MPD2    C5 4708   2.790   0.344  11.355 -0.3837 -0.2209  0.2091
  313MPD2     H 4709   2.738   0.410  10.993  0.5031  2.7804  0.0909
  313MPD2    H1 4710   2.703   0.162  11.334 -1.2516 -0.5508 -0.4621
  313MPD2    H2 4711   2.882   0.532  11.390 -0.6540 -1.1717  0.6423
  313MPD2    H3 4712   2.807   0.316  11.458 -1.2536 -1.7458 -0.0741
  313MPD2     N 4713   2.649   0.180  11.056  0.1903  0.5314 -0.3917
  313MPD2    H5 4714   2.631   0.200  10.958  3.1243  1.0156 -0.8370
  313MPD2    N1 4715   2.855   0.627  11.128  0.5387  0.4067 -0.1970
  313MPD2    H7 4716   2.835   0.642  11.030  0.7435  1.0900 -0.1327
  314TMC3    C1 4717   2.900   0.858  11.122  0.4259 -0.4193  0.4532
  314TMC3    C2 4718   3.004   0.952  11.116  0.7085  0.7140 -0.3848
  314TMC3    C3 4719   2.984   1.061  11.028 -0.2180  1.4012  0.1555
  314TMC3    C4 4720   2.782   0.875  11.053  0.3600 -0.6810 -0.2673
  314TMC3    C5 4721   2.767   0.989  10.980  0.4418  0.4692  0.6590
  314TMC3    C6 4722   2.867   1.079  10.957  0.1799 -0.0509 -0.5498
  314TMC3     C 4723   2.910   0.733  11.197  0.5818 -0.0565 -0.6232
  314TMC3     O 4724   2.960   0.738  11.309  0.0811  0.2603 -0.1966
  314TMC3     H 4725   3.092   0.948  11.179  0.2110 -1.3080  0.1730
  314TMC3    H1 4726   2.701   0.806  11.072  0.0385  0.5494  2.7679
  314TMC3    H2 4727   2.833   1.175  10.919  0.0816  0.1401  0.0116
  314TMC3    C7 4728   2.644   1.010  10.899 -0.0833  0.4110 -0.3453
  314TMC3    C8 4729   3.086   1.162  11.011 -0.1792 -0.4459  0.0751
  314TMC3    O1 4730   2.551   0.939  10.931 -0.4216  0.6281 -0.1353
  314TMC3    O2 4731   3.054   1.272  10.975  0.4641  0.2933 -0.6862
  315MPD2     C 4732   2.472   4.136  17.500 -0.6259  0.8183 -0.2911
  315MPD2    C1 4733   2.507   4.197  17.621 -0.0378 -0.4607  0.1817
  315MPD2    C2 4734   2.513   4.334  17.633  0.4645 -0.2795  0.0616
  315MPD2    C3 4735   2.520   4.403  17.518 -0.0488 -0.4908  0.0559
  315MPD2    C4 4736   2.498   4.349  17.395 -0.0906 -0.0383 -0.8181
  315MPD2    C5 4737   2.465   4.214  17.389  0.2856 -0.0560  0.4813
  315MPD2     H 4738   2.553   4.390   0.015 -2.7942  0.2177  1.2748
  315MPD2    H1 4739   2.481   4.412  17.308  1.5490  1.7168  0.1400
  315MPD2    H2 4740   2.456   4.029  17.496 -1.9754  0.9540  1.4990
  315MPD2    H3 4741   2.426   4.185  17.293 -1.1121  0.3060  0.9464
  315MPD2     N 4742   2.537   4.545  17.539  0.0786  0.1395  0.0177
  315MPD2    H5 4743   2.556   4.574  17.634 -1.1818 -0.2306  0.3834
  315MPD2    N1 4744   2.515   4.136   0.045  0.0820  0.0428 -0.6696
  315MPD2    H7 4745   2.543   4.195   0.123 -1.8419 -0.7303  0.6041
  316TMC3    C1 4746   2.587   0.042  17.504 -0.3286 -0.0462  0.4889
  316TMC3    C2 4747   2.617   0.055  17.636  0.2089  0.0179  0.5214
  316TMC3    C3 4748   2.668   0.178  17.679  0.0204  0.5083 -0.2726
  316TMC3    C4 4749   2.597   0.148  17.415 -0.7430  0.4134 -0.1826
  316TMC3    C5 4750   2.653   0.263  17.468 -0.7193 -0.5786  0.3851
  316TMC3    C6 4751   2.701   0.280  17.596  0.2358  0.2318  0.1513
  316TMC3     C 4752   2.550   4.642  17.444 -0.3855  0.7031  0.2897
  316TMC3     O 4753   2.519   4.638  17.326 -0.3268 -0.4184 -0.7288
  316TMC3     H 4754   2.607   4.701   0.007  1.1169 -0.1264  0.4990
  316TMC3    H1 4755   2.583   0.135  17.309  5.0482 -2.4559 -0.6166
  316TMC3    H2 4756   2.733   0.376  17.634  1.0756  0.6155 -1.5025
  316TMC3    C7 4757   2.704   0.362  17.377 -0.3350 -0.0567 -0.6944
  316TMC3    C8 4758   2.692   0.194   0.120  0.9562  0.6254 -0.0165
  316TMC3    O1 4759   2.787   0.439  17.426 -0.1537 -0.5087 -0.2329
  316TMC3    O2 4760   2.678   0.310   0.164  0.2032 -0.0625 -0.2135
  317MPD2     C 4761   0.092   3.251  12.255  0.1238  0.9707 -0.0149
  317MPD2    C1 4762   0.183   3.144  12.248  0.4171 -0.0907  0.1043
  317MPD2    C2 4763   0.199   3.069  12.365 -0.5696 -0.6697 -0.4219
  317MPD2    C3 4764   0.118   3.096  12.471  0.2051  0.2849 -0.6776
  317MPD2    C4 4765   0.043   3.213  12.481 -0.3889 -0.1409 -0.2709
  317MPD2    C5 4766   0.038   3.298  12.371 -0.9175  0.7973  0.2525
  317MPD2     H 4767   0.259   2.978  12.359 -0.7086 -0.7920  0.0307
  317MPD2    H1 4768   4.706   3.222  12.569  0.7081  0.5216  0.4317
  317MPD2    H2 4769   0.087   3.320  12.171  1.8008  0.2462 -0.6940
  317MPD2    H3 4770   4.689   3.378  12.375 -0.6642  1.0737 -0.6462
  317MPD2     N 4771   0.126   2.999  12.579 -0.1217 -0.4329 -0.0485
  317MPD2    H5 4772   0.160   2.906  12.556  0.3246 -0.3476  0.2580
  317MPD2    N1 4773   0.264   3.113  12.139 -1.0474 -1.2291 -0.1698
  317MPD2    H7 4774   0.316   3.027  12.149 -0.7847 -0.9508  0.8791
  318TMC3    C1 4775   0.116   2.910  12.793  0.5660 -0.5997  0.4684
  318TMC3    C2 4776   0.028   2.812  12.756  0.3433 -0.6429 -0.8795
  318TMC3    C3 4777   0.038   2.694  12.831  0.5746  0.6269  0.6010
  318TMC3    C4 4778   0.196   2.911  12.905 -0.4579  0.8662  0.1482
  318TMC3    C5 4779   0.210   2.790  12.967  0.2063  0.2813 -0.5974
  318TMC3    C6 4780   0.127   2.685  12.934  0.4233 -0.2372 -0.4527
  318TMC3     C 4781   0.118   3.029  12.708 -0.4841 -0.1357  0.1080
  318TMC3     O 4782   0.110   3.135  12.764  0.8464 -0.0780 -0.6537
  318TMC3     H 4783   4.675   2.821  12.682 -1.7098 -0.2133  1.3293
  318TMC3    H1 4784   0.251   3.000  12.932 -0.1512  0.5472  0.5744
  318TMC3    H2 4785   0.136   2.595  12.994  2.8023 -1.0572 -2.0379
  318TMC3    C7 4786   0.307   2.791  13.074 -0.2591  0.1983  0.1262
  318TMC3    C8 4787   4.668   2.580  12.820 -0.0036  0.4026 -0.1154
  318TMC3    O1 4788   0.413   2.855  13.056 -0.0434  0.2009  1.0852
  318TMC3    O2 4789   4.688   2.485  12.899  0.1864  0.4125  0.0883
  319MPD2     C 4790   4.452   4.556  16.605  0.3613  0.4498 -0.4208
  319MPD2    C1 4791   4.531   4.451  16.612 -0.1106 -0.6484 -0.0152
  319MPD2    C2 4792   4.550   4.362  16.505 -0.4420  0.4280  0.0991
  319MPD2    C3 4793   4.497   4.391  16.385  0.6909 -0.0536  0.1274
  319MPD2    C4 4794   4.409   4.493  16.376  0.4699 -0.1048 -0.6475
  319MPD2    C5 4795   4.394   4.578  16.482  0.4776 -0.6411 -0.2006
  319MPD2     H 4796   4.615   4.276  16.517 -0.8019 -0.2801 -3.0551
  319MPD2    H1 4797   4.350   4.515  16.288 -0.8267 -0.7074  0.0698
  319MPD2    H2 4798   4.435   4.639  16.672 -1.2693 -0.2595  0.0388
  319MPD2    H3 4799   4.321   4.658  16.488 -0.2155 -1.1783 -1.3923
  319MPD2     N 4800   4.513   4.307  16.268  0.4638 -0.4815 -0.5532
  319MPD2    H5 4801   4.486   4.353  16.182  1.7862  0.5178 -0.4329
  319MPD2    N1 4802   4.589   4.424  16.738 -0.2858 -0.7278  0.1408
  319MPD2    H7 4803   4.651   4.344  16.737  1.5055  0.6720 -2.3232
  320TMC3    C1 4804   4.551   4.116  16.136  0.4545 -0.1304  0.0571
  320TMC3    C2 4805   4.592   4.194  16.034 -0.5753 -0.1758  0.6862
  320TMC3    C3 4806   4.621   4.136  15.909  0.0460 -0.6647 -1.1032
  320TMC3    C4 4807   4.532   3.980  16.120 -0.2699  0.0401 -0.4289
  320TMC3    C5 4808   4.580   3.922  16.005 -0.7090 -0.2082  0.0455
  320TMC3    C6 4809   4.625   3.999  15.900 -0.0836  0.6826 -0.5197
  320TMC3     C 4810   4.543   4.171  16.271  0.2505 -0.7009 -0.2986
  320TMC3     O 4811   4.574   4.102  16.370  0.2208  0.1962 -0.3046
  320TMC3     H 4812   4.610   4.300  16.049  0.5195 -0.1954 -0.4561
  320TMC3    H1 4813   4.517   3.911  16.202  0.4171  1.7502  1.1477
  320TMC3    H2 4814   4.675   3.954  15.815 -0.4402 -1.0435  0.1715
  320TMC3    C7 4815   4.613   3.779  16.009 -0.0102 -0.3695 -0.1306
  320TMC3    C8 4816   4.641   4.218  15.794  0.6435 -0.1648 -0.1545
  320TMC3    O1 4817   4.622   3.726  15.899  0.0936 -0.1979 -0.2762
  320TMC3    O2 4818   4.690   4.156  15.700 -0.6310  0.1256  0.5385
  321TMC3    C1 4819   4.676   4.472  16.963 -0.7364 -0.8192  0.1019
  321TMC3    C2 4820   0.021   4.349  16.962  0.3867 -0.9768 -0.6333
  321TMC3    C3 4821   0.057   4.291  17.079  0.3344 -0.4331 -0.7666
  321TMC3    C4 4822   4.655   4.546  17.078 -0.8063  0.3663 -0.0356
  321TMC3    C5 4823   4.702   4.490  17.195  0.3010 -0.0284 -0.4630
  321TMC3    C6 4824   0.038   4.367  17.190 -0.0337 -0.5101  0.1615
  321TMC3     C 4825   4.576   4.501  16.852 -0.1809 -0.4497 -0.4122
  321TMC3     O 4826   4.490   4.587  16.874  0.0683  0.2265 -0.0178
  321TMC3     H 4827   0.026   4.295  16.868 -1.0455  2.1770 -2.5027
  321TMC3    H1 4828   4.616   4.646  17.071  0.2531  0.8037  0.2035
  321TMC3    H2 4829   0.069   4.321  17.283  0.1423 -2.5695 -0.9187
  321TMC3    C7 4830   0.049   4.588  17.272  0.0690  0.0555 -0.2283
  321TMC3    C8 4831   0.195   4.246  17.084  0.4123 -0.2326  0.3603
  321TMC3    O1 4832   4.724   4.697  17.294  0.1441  0.3811 -0.2404
  321TMC3    O2 4833   0.260   4.271  17.182 -0.2687  0.6284  0.0552
  322MPD2     C 4834   4.186   0.959  13.275  0.3760  0.0215 -0.0719
  322MPD2    C1 4835   4.136   0.913  13.396  0.5900  0.7018  0.2136
  322MPD2    C2 4836   4.110   0.779  13.412  0.4929  0.7567  0.1156
  322MPD2    C3 4837   4.141   0.687  13.312  0.2014 -0.0181 -0.1206
  322MPD2    C4 4838   4.203   0.733  13.198 -0.4373 -0.3681  0.3486
  322MPD2    C5 4839   4.218   0.871  13.179 -0.7466  0.2518  0.1045
  322MPD2     H 4840   4.079   0.746  13.511  1.2098 -0.3625 -0.0350
  322MPD2    H1 4841   4.235   0.665  13.120 -1.3340  2.4153 -2.4091
  322MPD2    H2 4842   4.185   1.065  13.250  0.3578  0.0235 -0.0626
  322MPD2    H3 4843   4.255   0.912  13.086  0.9586 -0.3514  0.5130
  322MPD2     N 4844   4.109   0.555  13.339  0.4776 -0.2796  0.2362
  322MPD2    H5 4845   4.087   0.533  13.436  0.8711  0.6020  0.5245
  322MPD2    N1 4846   4.119   1.009  13.499  0.1523  0.0743 -0.4096
  322MPD2    H7 4847   4.124   1.108  13.479  0.2725  0.5538  2.0975
  323TMC3    C1 4848   4.126   1.073  13.730  0.3597  0.4189  0.4984
  323TMC3    C2 4849   4.241   1.131  13.714 -0.3264 -0.1287  0.1959
  323TMC3    C3 4850   4.293   1.193  13.826 -1.1869  0.5674 -0.7889
  323TMC3    C4 4851   4.064   1.074  13.850 -0.4683  0.1331 -1.1506
  323TMC3    C5 4852   4.108   1.138  13.960  0.0199 -0.0999 -0.7179
  323TMC3    C6 4853   4.232   1.199  13.948 -0.2009  0.3717  0.0882
  323TMC3     C 4854   4.081   0.975  13.628  0.0283  0.1497 -0.3714
  323TMC3     O 4855   4.005   0.887  13.679  0.4144 -0.5067 -0.0510
  323TMC3     H 4856   4.305   1.132  13.627 -0.7775  1.4016 -0.1323
  323TMC3    H1 4857   3.965   1.033  13.867 -1.3240  3.2365  1.4605
  323TMC3    H2 4858   4.288   1.232  14.035 -0.8680  0.5876  0.4379
  323TMC3    C7 4859   4.100   1.059  14.077  0.1339 -0.2255  0.1236
  323TMC3    C8 4860   4.430   1.188  13.842 -0.4313 -0.4754 -0.0706
  323TMC3    O1 4861   4.050   0.950  14.059 -0.1703 -0.7573 -0.5829
  323TMC3    O2 4862   4.477   1.167  13.950 -0.3553  0.1688 -0.3551
  324MPD2     C 4863   1.549   2.155  14.095  0.1099 -0.9192 -0.5250
  324MPD2    C1 4864   1.526   2.099  14.219 -0.6058  0.7014  0.2141
  324MPD2    C2 4865   1.411   2.035  14.246 -0.2160  0.4556  0.3191
  324MPD2    C3 4866   1.310   2.032  14.154  0.8622 -0.0661  0.5380
  324MPD2    C4 4867   1.327   2.088  14.029  0.8354  0.4209 -0.4488
  324MPD2    C5 4868   1.445   2.154  14.008  0.3462 -0.1919 -0.1863
  324MPD2     H 4869   1.396   1.997  14.347  2.4000 -1.3087  0.0549
  324MPD2    H1 4870   1.244   2.092  13.959  0.2763  0.3514  0.2063
  324MPD2    H2 4871   1.631   2.217  14.062 -2.3009  2.3754 -0.4276
  324MPD2    H3 4872   1.455   2.186  13.905  1.2974 -2.0009 -0.6554
  324MPD2     N 4873   1.180   1.981  14.178 -0.4770  0.7332 -0.4021
  324MPD2    H5 4874   1.110   1.979  14.105  0.7156 -1.6460 -1.4987
  324MPD2    N1 4875   1.648   2.097  14.306  0.4925 -0.0291  0.3422
  324MPD2    H7 4876   1.731   2.145  14.272 -0.7878  2.0564  0.1680
  325TMC3    C1 4877   0.990   1.889  14.293  0.9213  0.1145  0.7635
  325TMC3    C2 4878   0.950   1.777  14.365  0.0159  0.0818  0.1258
  325TMC3    C3 4879   0.816   1.758  14.384  1.2270 -0.2729 -0.3466
  325TMC3    C4 4880   0.897   1.967  14.233 -0.3864  0.1253  0.3154
  325TMC3    C5 4881   0.763   1.945  14.256 -0.5001  1.1474  0.0690
  325TMC3    C6 4882   0.717   1.843  14.338 -0.0266 -0.5984 -1.1839
  325TMC3     C 4883   1.128   1.932  14.301  0.2766 -0.4261 -0.2850
  325TMC3     O 4884   1.190   1.896  14.400 -0.6989  0.2313  0.4206
  325TMC3     H 4885   1.021   1.713  14.416 -0.1591 -0.2620 -0.0554
  325TMC3    H1 4886   0.917   2.056  14.175  1.2731 -0.1734  0.4353
  325TMC3    H2 4887   0.620   1.848  14.386 -0.2264 -0.4480 -1.6023
  325TMC3    C7 4888   0.662   2.023  14.180  0.4698 -0.3745 -0.4290
  325TMC3    C8 4889   0.778   1.666  14.498  0.6241  1.0373 -0.2868
  325TMC3    O1 4890   0.714   2.072  14.081  0.0404 -0.1877 -0.4223
  325TMC3    O2 4891   0.870   1.657  14.580  0.2320  0.3090  0.1563
  326MPD2     C 4892   2.305   3.352  10.876  0.4058  0.1120 -0.2939
  326MPD2    C1 4893   2.253   3.462  10.812  0.8568 -0.0559 -0.5483
  326MPD2    C2 4894   2.332   3.572  10.794 -0.2589  0.1866  0.3502
  326MPD2    C3 4895   2.470   3.575  10.824 -0.1973 -0.6610  0.5331
  326MPD2    C4 4896   2.517   3.468  10.900  0.1007  0.0174  0.0889
  326MPD2    C5 4897   2.436   3.357  10.925  0.5548  0.7314 -0.1369
  326MPD2     H 4898   2.294   3.662  10.749  1.5306  1.0585  0.5852
  326MPD2    H1 4899   2.621   3.466  10.931  0.6440 -0.6900 -1.7886
  326MPD2    H2 4900   2.248   3.260  10.885 -0.5713  0.9108  1.6317
  326MPD2    H3 4901   2.476   3.273  10.981 -1.3899  0.9544  1.5840
  326MPD2     N 4902   2.561   3.675  10.778 -0.4044  0.5832  0.5451
  326MPD2    H5 4903   2.656   3.673  10.813  0.4180  0.3296 -1.6919
  326MPD2    N1 4904   2.119   3.467  10.779 -0.6488 -0.4021  0.6885
  326MPD2    H7 4905   2.096   3.543  10.716  1.7449 -1.1288 -1.0764
  327TMC3    C1 4906   1.898   3.412  10.737 -0.3967  0.0033 -0.0744
  327TMC3    C2 4907   1.871   3.541  10.706 -0.0129 -0.2308  0.0757
  327TMC3    C3 4908   1.823   3.570  10.576  0.0293  0.1276 -0.7275
  327TMC3    C4 4909   1.867   3.311  10.652  0.5469 -0.3393 -0.2005
  327TMC3    C5 4910   1.834   3.341  10.521  0.6879 -0.3972  0.0472
  327TMC3    C6 4911   1.795   3.471  10.486 -0.0582  1.1029 -0.3461
  327TMC3     C 4912   2.020   3.380  10.809  0.0598  0.1675  0.1894
  327TMC3     O 4913   2.009   3.272  10.868 -0.2944 -0.0179 -0.0782
  327TMC3     H 4914   1.894   3.621  10.775 -0.1746  0.4443 -0.6457
  327TMC3    H1 4915   1.887   3.208  10.680 -1.6561 -0.8531 -0.4737
  327TMC3    H2 4916   1.776   3.491  10.381 -1.7236 -0.8321 -0.4032
  327TMC3    C7 4917   1.937   3.301  10.431 -0.5931 -0.2897  0.1091
  327TMC3    C8 4918   1.761   3.697  10.546 -0.0698  0.1771  0.1390
  327TMC3    O1 4919   1.966   3.379  10.344 -0.5345  0.3060 -0.2886
  327TMC3    O2 4920   1.668   3.705  10.464 -0.0886  0.1982 -0.3606
  328MPD2     C 4921   4.639   2.973  17.195  0.0837  0.2728  0.0642
  328MPD2    C1 4922   4.532   2.944  17.276 -0.2743 -0.6118 -0.2574
  328MPD2    C2 4923   4.401   2.941  17.231  0.6619 -0.4886 -0.9269
  328MPD2    C3 4924   4.377   2.967  17.096  0.7539  0.0264  0.3753
  328MPD2    C4 4925   4.492   2.984  17.011 -0.1181 -0.2687 -0.3491
  328MPD2    C5 4926   4.619   3.003  17.070  0.1586 -0.2729 -0.1222
  328MPD2     H 4927   4.324   2.915  17.304  0.2845 -2.0847 -1.8740
  328MPD2    H1 4928   4.474   3.014  16.908 -1.6162 -3.1036 -0.9220
  328MPD2    H2 4929   0.017   2.995  17.220  1.2813 -2.5934 -2.4344
  328MPD2    H3 4930   4.710   3.030  17.017  1.4517  0.9689  2.7149
  328MPD2     N 4931   4.250   2.972  17.035  0.0036  0.2115  0.3015
  328MPD2    H5 4932   4.249   2.989  16.934  3.6630 -1.6346 -0.0478
  328MPD2    N1 4933   4.571   2.947  17.409 -0.0039 -0.2802  0.2337
  328MPD2    H7 4934   4.659   2.988  17.435  1.2523 -1.0163 -2.8881
  329TMC3    C1 4935   4.523   2.990  17.624  0.0346 -0.5666 -0.6289
  329TMC3    C2 4936   4.544   3.124  17.597  0.0516 -0.1931  0.0431
  329TMC3    C3 4937   4.526   3.217  17.699  0.9236 -0.0832 -0.2153
  329TMC3    C4 4938   4.495   2.945   0.048 -0.8560  0.5626 -0.7962
  329TMC3    C5 4939   4.504   3.039   0.149  0.0940 -0.0610  0.2115
  329TMC3    C6 4940   4.511   3.175   0.124  0.1447 -0.4986 -0.3125
  329TMC3     C 4941   4.488   2.909  17.512 -0.0216  0.0898 -0.3966
  329TMC3     O 4942   4.403   2.818  17.527 -0.0172 -0.1713 -0.0311
  329TMC3     H 4943   4.543   3.166  17.498  0.2851  0.6336  0.3913
  329TMC3    H1 4944   4.479   2.838   0.056  0.5034  0.4299  0.2575
  329TMC3    H2 4945   4.520   3.243   0.208  0.2091 -1.2845  0.3164
  329TMC3    C7 4946   4.490   3.002   0.287  0.0861  0.4720 -0.2507
  329TMC3    C8 4947   4.467   3.343  17.650 -0.0312 -0.3528 -0.6697
  329TMC3    O1 4948   4.487   3.088   0.370 -1.3458  0.3366 -0.6585
  329TMC3    O2 4949   4.457   3.362  17.533  0.9417  0.0833  0.0329
  330TMC3    C1 4950   2.285   2.142   9.759 -0.3377  0.3747 -0.4116
  330TMC3    C2 4951   2.159   2.093   9.737  0.0997  0.9332  0.1742
  330TMC3    C3 4952   2.112   2.000   9.823 -0.3879 -0.3932  0.1018
  330TMC3    C4 4953   2.365   2.091   9.852 -0.0171 -0.3360 -0.1838
  330TMC3    C5 4954   2.309   2.001   9.943 -0.0406 -0.0321  0.5428
  330TMC3    C6 4955   2.183   1.955   9.933  0.8982 -0.2814  0.3430
  330TMC3     C 4956   2.351   2.219   9.655 -0.1165 -0.3259  0.5838
  330TMC3     O 4957   2.469   2.206   9.632  0.0008 -0.3085 -0.1089
  330TMC3     H 4958   2.101   2.117   9.648 -0.3643  3.2265  1.1047
  330TMC3    H1 4959   2.472   2.110   9.855 -0.1012 -0.0839  1.3288
  330TMC3    H2 4960   2.127   1.893  10.003 -1.3217 -0.6684 -1.7440
  330TMC3    C7 4961   2.391   1.940  10.042  0.0730 -0.4456 -0.0269
  330TMC3    C8 4962   1.973   1.972   9.803  0.7911 -1.0692  0.3027
  330TMC3    O1 4963   2.484   2.014  10.063  0.1751  0.5611 -0.2127
  330TMC3    O2 4964   1.906   2.060   9.753  0.3412 -0.0611 -0.2562
  331MPD2     C 4965   0.322   1.616  12.366 -0.6435  0.6517 -1.1513
  331MPD2    C1 4966   0.452   1.633  12.343 -0.2357  0.4924 -0.1283
  331MPD2    C2 4967   0.523   1.516  12.317 -0.1168  0.9263 -0.3214
  331MPD2    C3 4968   0.460   1.390  12.330  0.4987  0.1406 -0.5125
  331MPD2    C4 4969   0.328   1.382  12.352 -0.2077  0.6975 -0.0360
  331MPD2    C5 4970   0.260   1.499  12.376 -0.3181  0.2745  0.5988
  331MPD2     H 4971   0.624   1.522  12.276  0.0513  0.1940 -0.0210
  331MPD2    H1 4972   0.271   1.290  12.362 -1.0047  0.8939 -2.6229
  331MPD2    H2 4973   0.257   1.703  12.370  0.1369  1.0772  2.7831
  331MPD2    H3 4974   0.152   1.494  12.382 -0.2956 -0.0247  0.7864
  331MPD2     N 4975   0.540   1.278  12.293  0.4342  0.3633  0.1561
  331MPD2    H5 4976   0.639   1.292  12.274  0.1805  0.8525 -0.8337
  331MPD2    N1 4977   0.514   1.767  12.315 -0.0365  0.8401  0.2203
  331MPD2    H7 4978   0.453   1.848  12.310  0.0373  0.8253 -1.0050
  332TMC3    C1 4979   0.620   1.073  12.217  0.6044 -0.4833  1.0789
  332TMC3    C2 4980   0.679   1.126  12.110 -0.0887  0.2963  0.9898
  332TMC3    C3 4981   0.797   1.075  12.074 -0.0686  0.3034 -0.3124
  332TMC3    C4 4982   0.685   0.980  12.297  0.3648 -0.0247 -0.0589
  332TMC3    C5 4983   0.815   0.957  12.273  0.4136 -0.3327 -0.2764
  332TMC3    C6 4984   0.881   0.998  12.159  0.0521 -0.4290  0.2242
  332TMC3     C 4985   0.512   1.149  12.279  0.3031 -0.0431  0.5644
  332TMC3     O 4986   0.422   1.091  12.335 -0.3369 -1.1413 -0.5272
  332TMC3     H 4987   0.621   1.201  12.057  0.3853  1.2546  1.8274
  332TMC3    H1 4988   0.633   0.952  12.388 -0.8797 -0.1645 -0.8101
  332TMC3    H2 4989   0.967   0.946  12.120  1.4321 -0.0368  2.8078
  332TMC3    C7 4990   0.900   0.923  12.384  0.0990  0.3695 -0.0996
  332TMC3    C8 4991   0.880   1.154  11.978 -0.3429  0.2704  0.5046
  332TMC3    O1 4992   0.828   0.892  12.478  0.2852  0.5078 -0.3906
  332TMC3    O2 4993   1.001   1.142  11.999 -0.0150  0.0388 -0.0920
  333MPD2     C 4994   1.007   1.243  11.042  0.1941  0.2778 -0.1824
  333MPD2    C1 4995   1.083   1.133  11.012  0.0629  0.5851 -0.8872
  333MPD2    C2 4996   1.054   1.025  11.096  0.2271 -0.1653 -0.3820
  333MPD2    C3 4997   0.952   1.017  11.185 -0.4926  0.3988 -0.3958
  333MPD2    C4 4998   0.878   1.130  11.212 -0.0698 -0.3208  0.0521
  333MPD2    C5 4999   0.903   1.245  11.136 -0.1090 -0.8896  0.1115
  333MPD2     H 5000   1.124   0.942  11.097 -0.7631 -1.0006 -0.3131
  333MPD2    H1 5001   0.795   1.130  11.281  1.1432  0.1715  1.5200
  333MPD2    H2 5002   1.027   1.337  10.991 -0.6425  0.3923 -0.2958
  333MPD2    H3 5003   0.837   1.328  11.156  1.9724  1.6169 -3.4795
  333MPD2     N 5004   0.939   0.901  11.264 -0.6243  0.0048  0.1975
  333MPD2    H5 5005   1.006   0.829  11.239 -1.5793 -0.4108 -1.1352
  333MPD2    N1 5006   1.192   1.130  10.917  0.3854  0.7709  0.1179
  333MPD2    H7 5007   1.206   1.219  10.870  0.5222  0.4269 -0.4923
  334TMC3    C1 5008   1.390   1.079  10.808 -0.5524 -0.1473 -0.7398
  334TMC3    C2 5009   1.513   1.056  10.850  0.4846  0.6083  0.6735
  334TMC3    C3 5010   1.626   1.109  10.795 -0.7461  0.1551  0.0030
  334TMC3    C4 5011   1.365   1.169  10.701  0.2565  0.2097  0.2646
  334TMC3    C5 5012   1.479   1.218  10.643 -0.0070  0.0504 -0.2839
  334TMC3    C6 5013   1.608   1.196  10.696 -0.1164  0.1129 -0.4438
  334TMC3     C 5014   1.283   1.027  10.897  0.2924 -0.0378  0.2911
  334TMC3     O 5015   1.300   0.922  10.957 -0.3696  0.0465  0.1868
  334TMC3     H 5016   1.525   0.988  10.934 -0.9290  0.4245  0.7196
  334TMC3    H1 5017   1.263   1.196  10.673  1.5708  2.9953 -1.9029
  334TMC3    H2 5018   1.690   1.245  10.646  0.1965 -0.1378 -0.1821
  334TMC3    C7 5019   1.460   1.356  10.633 -0.2380  0.8814 -0.0980
  334TMC3    C8 5020   1.755   1.066  10.839 -0.1861 -0.2242  0.1947
  334TMC3    O1 5021   1.552   1.417  10.688  0.0944  0.0387  0.2460
  334TMC3    O2 5022   1.772   0.958  10.896  0.0854 -0.1736  0.3512
  335TMC3    C1 5023   0.185   3.409  16.929 -0.7522  0.0080 -0.9342
  335TMC3    C2 5024   0.138   3.281  16.919  0.1433 -0.0074 -0.2276
  335TMC3    C3 5025   0.225   3.182  16.963 -0.1630  0.2390  0.6498
  335TMC3    C4 5026   0.295   3.452  16.993  0.4790 -0.1485 -0.1324
  335TMC3    C5 5027   0.373   3.349  17.049  0.3445  0.2476  0.4537
  335TMC3    C6 5028   0.337   3.215  17.030  1.1168 -0.4566  0.0300
  335TMC3     C 5029   0.126   3.512  16.843  0.6998 -0.0661 -0.5831
  335TMC3     O 5030   0.164   3.628  16.863 -0.2386 -0.3678  0.3510
  335TMC3     H 5031   0.041   3.249  16.882  1.2794 -1.9858 -1.4599
  335TMC3    H1 5032   0.334   3.552  16.988  1.4380 -0.5011  0.3520
  335TMC3    H2 5033   0.401   3.137  17.069 -2.2733 -1.3285  3.7886
  335TMC3    C7 5034   0.513   3.363  17.060  0.5312 -0.6238  0.5020
  335TMC3    C8 5035   0.207   3.048  16.901 -0.2395  0.8277 -0.5657
  335TMC3    O1 5036   0.583   3.286  16.997 -0.0716 -0.2636 -0.3570
  335TMC3    O2 5037   0.135   3.044  16.801  0.2289  0.2190  0.6447
  336MPD2     C 5038   0.333   0.643  16.061  0.7569 -0.0677  0.2726
  336MPD2    C1 5039   0.253   0.580  15.970  0.5481 -0.2026 -0.3217
  336MPD2    C2 5040   0.239   0.443  15.964  0.4969  0.0492  0.6709
  336MPD2    C3 5041   0.307   0.369  16.061  0.0176 -0.1510  0.6388
  336MPD2    C4 5042   0.390   0.432  16.154 -0.0973  0.2689 -0.0928
  336MPD2    C5 5043   0.409   0.565  16.147  0.8630  0.4970  0.4405
  336MPD2     H 5044   0.182   0.390  15.887  1.1240 -2.2797  1.8089
  336MPD2    H1 5045   0.442   0.383  16.236  1.5412  0.7909 -0.8268
  336MPD2    H2 5046   0.350   0.750  16.057  2.4419 -0.2765  1.7580
  336MPD2    H3 5047   0.479   0.612  16.215  1.4362  0.8398 -0.3992
  336MPD2     N 5048   0.282   0.234  16.083  0.1907  0.8547  0.2676
  336MPD2    H5 5049   0.320   0.193  16.168 -3.0221  0.4116  1.4637
  336MPD2    N1 5050   0.176   0.655  15.877  0.1400 -0.0033 -0.1918
  336MPD2    H7 5051   0.135   0.601  15.801 -0.2092  3.4511 -2.4777
  337TMC3    C1 5052   0.091   0.847  15.764 -0.6144  0.7566  0.4830
  337TMC3    C2 5053   4.718   0.769  15.708  0.0460 -0.2319  0.0490
  337TMC3    C3 5054   4.628   0.833  15.626  0.1938  0.0787 -0.0798
  337TMC3    C4 5055   0.099   0.984  15.732  0.1818  0.3415 -0.4830
  337TMC3    C5 5056   0.005   1.035  15.652 -0.7143 -0.0256  0.0354
  337TMC3    C6 5057   4.631   0.965  15.590 -0.6822  0.9215  0.0228
  337TMC3     C 5058   0.171   0.797  15.871 -0.3971  0.4068 -0.1403
  337TMC3     O 5059   0.216   0.881  15.949  0.2787 -0.3622  0.2693
  337TMC3     H 5060   4.703   0.665  15.736 -0.3828 -0.4846 -1.1166
  337TMC3    H1 5061   0.156   1.040  15.805  0.3315 -0.9506  0.3918
  337TMC3    H2 5062   4.551   1.015  15.537 -0.9665 -1.1702 -1.5058
  337TMC3    C7 5063   0.013   1.173  15.614  0.3831  0.0752  0.0472
  337TMC3    C8 5064   4.498   0.765  15.617 -0.2914  0.3969 -0.2579
  337TMC3    O1 5065   4.639   1.225  15.567  0.7180  0.3479 -0.3343
  337TMC3    O2 5066   4.472   0.685  15.703 -0.7745 -0.0301 -0.8452
  338MPD2     C 5067   0.496   0.606   1.045  0.3059 -0.2829 -0.8212
  338MPD2    C1 5068   0.469   0.545   0.917 -0.7163 -0.2771 -0.4366
  338MPD2    C2 5069   0.343   0.560   0.863  0.1095 -0.1242  0.5151
  338MPD2    C3 5070   0.243   0.618   0.935  0.0504 -0.0114  0.1641
  338MPD2    C4 5071   0.265   0.664   1.061 -0.0487 -0.1631  0.3962
  338MPD2    C5 5072   0.389   0.654   1.119 -0.4682  0.3131 -0.0874
  338MPD2     H 5073   0.331   0.513   0.765  1.0704  1.0655 -0.1673
  338MPD2    H1 5074   0.190   0.720   1.116 -0.0108  0.4782 -0.1964
  338MPD2    H2 5075   0.590   0.591   1.096 -0.4126  0.9246  0.8235
  338MPD2    H3 5076   0.397   0.693   1.220 -1.9387 -2.3743  1.0956
  338MPD2     N 5077   0.118   0.641   0.869  0.0210 -0.8692 -0.0528
  338MPD2    H5 5078   0.099   0.630   0.769 -1.3672  0.9592 -0.0089
  338MPD2    N1 5079   0.560   0.465   0.837  0.2540 -0.6696 -0.3385
  338MPD2    H7 5080   0.522   0.421   0.754 -0.8057 -0.3763 -0.0071
  339TMC3    C1 5081   4.608   0.659   0.848  0.0013 -0.3544  0.9993
  339TMC3    C2 5082   4.485   0.665   0.913 -0.3583  0.3169  0.6754
  339TMC3    C3 5083   4.378   0.584   0.867 -0.1864  0.4210  0.0460
  339TMC3    C4 5084   4.620   0.581   0.732  0.5564 -1.1840  0.9860
  339TMC3    C5 5085   4.504   0.530   0.678  0.3134 -0.5731  0.3389
  339TMC3    C6 5086   4.389   0.522   0.751  0.1219 -0.6323 -0.9930
  339TMC3     C 5087   0.002   0.682   0.931  0.4039 -0.2384 -0.6417
  339TMC3     O 5088   4.690   0.713   1.044 -0.0666  0.3292 -0.5136
  339TMC3     H 5089   4.476   0.725   1.003 -0.7156  0.2634  0.6746
  339TMC3    H1 5090   4.712   0.580   0.674  0.2750  1.2089  0.4919
  339TMC3    H2 5091   4.298   0.469   0.724 -0.8177  1.6035 -2.2327
  339TMC3    C7 5092   4.515   0.479   0.542  0.0137 -0.3480 -0.3272
  339TMC3    C8 5093   4.303   0.520   0.977 -0.0106 -0.4263 -0.5958
  339TMC3    O1 5094   4.628   0.448   0.506 -0.0183 -0.4031 -0.5201
  339TMC3    O2 5095   4.189   0.480   0.962  0.5372 -0.1667  0.1536
  340MPD2     C 5096   0.819   2.695  10.055 -0.6096 -0.4739  0.5147
  340MPD2    C1 5097   0.936   2.635  10.022  0.7860  0.7173 -0.5074
  340MPD2    C2 5098   1.030   2.706   9.945 -0.1109  0.1400 -0.1059
  340MPD2    C3 5099   1.001   2.839   9.910  0.4002 -0.6838 -0.1481
  340MPD2    C4 5100   0.884   2.893   9.934 -0.0470  0.0707 -0.2364
  340MPD2    C5 5101   0.789   2.822  10.011  0.5351  0.5131 -0.1995
  340MPD2     H 5102   1.124   2.669   9.908 -0.1614 -3.6691  3.5440
  340MPD2    H1 5103   0.855   2.996   9.917 -0.9083 -0.0052  0.7900
  340MPD2    H2 5104   0.756   2.647  10.129 -1.5846  0.7934  0.5126
  340MPD2    H3 5105   0.698   2.870  10.048 -1.1818 -0.6134 -2.9865
  340MPD2     N 5106   1.095   2.901   9.829 -0.2516  0.5272 -0.4747
  340MPD2    H5 5107   1.182   2.853   9.812 -1.3086 -2.3748  2.4059
  340MPD2    N1 5108   0.956   2.502  10.064 -0.1657  0.2547  0.1299
  340MPD2    H7 5109   0.870   2.455  10.093 -0.5537  0.5007 -0.6180
  341TMC3    C1 5110   1.064   2.302  10.128  0.4294  0.1666 -0.3842
  341TMC3    C2 5111   0.946   2.262  10.190 -0.8062 -0.4582  0.1865
  341TMC3    C3 5112   0.929   2.121  10.199  0.5984  0.5000 -0.5171
  341TMC3    C4 5113   1.166   2.211  10.105  0.4663 -0.8671 -0.5205
  341TMC3    C5 5114   1.140   2.079  10.107 -0.2440  0.3302  0.4333
  341TMC3    C6 5115   1.023   2.033  10.156 -0.5118  0.7141  0.5578
  341TMC3     C 5116   1.078   2.433  10.067 -0.7614  0.1951 -0.3790
  341TMC3     O 5117   1.185   2.482  10.032 -0.0492 -0.1839  0.0659
  341TMC3     H 5118   0.872   2.329  10.232  0.1770 -0.6549  2.2345
  341TMC3    H1 5119   1.259   2.245  10.061  0.1262 -0.5628 -1.0003
  341TMC3    H2 5120   1.001   1.927  10.156 -0.8621  0.7877  0.5011
  341TMC3    C7 5121   1.230   1.990  10.066 -0.8292 -0.6353 -0.3373
  341TMC3    C8 5122   0.799   2.059  10.238 -0.3489  0.5710 -0.0452
  341TMC3    O1 5123   1.349   1.997  10.095 -0.1816  0.1416  0.3706
  341TMC3    O2 5124   0.802   1.949  10.286  0.1204 -0.7347  0.2091
  342MPD2     C 5125   3.756   1.136   0.485  0.5137  0.2158 -0.0525
  342MPD2    C1 5126   3.716   1.188   0.363  0.4623  0.7217 -0.0786
  342MPD2    C2 5127   3.668   1.316   0.352 -0.5145  0.0122  0.2014
  342MPD2    C3 5128   3.655   1.401   0.464 -0.1750  0.4016 -0.0627
  342MPD2    C4 5129   3.712   1.354   0.583 -0.3665  0.5299 -0.1889
  342MPD2    C5 5130   3.763   1.227   0.595 -0.2019  0.0237 -0.2254
  342MPD2     H 5131   3.632   1.347   0.254  1.9129  2.4723  0.0747
  342MPD2    H1 5132   3.714   1.421   0.667  1.1119  0.0590  0.1601
  342MPD2    H2 5133   3.802   1.038   0.492  2.2668  1.0696  0.3042
  342MPD2    H3 5134   3.800   1.198   0.692 -1.8368 -0.0373  0.3767
  342MPD2     N 5135   3.613   1.536   0.461  0.0967  0.6989 -0.1224
  342MPD2    H5 5136   3.609   1.588   0.548  0.4511  2.3924 -1.1115
  342MPD2    N1 5137   3.727   1.112   0.246 -0.5995 -0.0228  0.1118
  342MPD2    H7 5138   3.713   1.160   0.157 -1.0375  0.2508  0.3257
  343TMC3    C1 5139   3.722   0.906   0.113  0.2890  0.6473  0.2387
  343TMC3    C2 5140   3.763   0.970  17.702  0.6169  0.3513  0.3678
  343TMC3    C3 5141   3.766   0.885  17.588 -0.8038  0.1285  0.2913
  343TMC3    C4 5142   3.688   0.778   0.116 -0.1394  0.0589  0.7727
  343TMC3    C5 5143   3.700   0.703   0.008  0.5315  0.4915  0.2559
  343TMC3    C6 5144   3.734   0.751  17.591  0.0067  0.1267 -0.9163
  343TMC3     C 5145   3.750   0.972   0.234 -0.5198  0.0439 -0.0497
  343TMC3     O 5146   3.796   0.897   0.322  0.0916 -0.9530 -0.4905
  343TMC3     H 5147   3.784   1.076   0.001 -2.2828  0.9508 -1.3590
  343TMC3    H1 5148   3.684   0.739   0.217 -0.9439 -1.1704  0.2653
  343TMC3    H2 5149   3.757   0.685  17.508  1.9272  0.1164 -0.3705
  343TMC3    C7 5150   3.632   0.570   0.009  0.4652 -0.7705 -0.2175
  343TMC3    C8 5151   3.858   0.929  17.489  0.0178 -0.0185 -0.1001
  343TMC3    O1 5152   3.650   0.496  17.616  0.0948 -0.3038 -0.6785
  343TMC3    O2 5153   3.912   1.038  17.496 -0.2080  0.5443  0.1463
  344MPD2     C 5154   4.585   0.669  11.139  0.1027  0.2907 -0.8557
  344MPD2    C1 5155   4.468   0.675  11.071  0.0882  0.9019  0.4457
  344MPD2    C2 5156   4.447   0.779  10.985  0.7557  0.0142  0.1307
  344MPD2    C3 5157   4.540   0.891  10.972 -0.0912  0.1759 -0.0887
  344MPD2    C4 5158   4.654   0.889  11.048 -0.4551  0.5339  0.5769
  344MPD2    C5 5159   4.667   0.781  11.133  0.3597 -0.3770 -0.2415
  344MPD2     H 5160   4.352   0.780  10.934  0.6726  0.0227  0.2873
  344MPD2    H1 5161   0.002   0.966  11.070 -1.4017  1.1524  1.5496
  344MPD2    H2 5162   4.610   0.590  11.210 -1.4063  0.8790  0.3451
  344MPD2    H3 5163   0.023   0.785  11.205  0.5131 -2.2536 -0.2942
  344MPD2     N 5164   4.517   0.999  10.889 -0.0947 -0.3186  0.3581
  344MPD2    H5 5165   4.576   1.082  10.896 -0.0594 -0.1252 -2.3577
  344MPD2    N1 5166   4.372   0.563  11.082 -0.3966  0.2102  0.1141
  344MPD2    H7 5167   4.293   0.581  11.022 -0.6125 -1.2979 -0.0376
  345TMC3    C1 5168   4.401   1.151  10.772  0.1799  0.1352 -0.1472
  345TMC3    C2 5169   4.444   1.257  10.851 -0.8713 -0.0886  0.5141
  345TMC3    C3 5170   4.467   1.377  10.785 -0.5487 -0.1669 -0.3648
  345TMC3    C4 5171   4.344   1.169  10.646 -0.4725 -0.2216  0.0059
  345TMC3    C5 5172   4.362   1.291  10.595 -0.1059 -0.6192  0.2631
  345TMC3    C6 5173   4.430   1.393  10.652 -0.6827 -0.1487  0.4072
  345TMC3     C 5174   4.399   1.020  10.820 -0.0426  0.1157 -0.5327
  345TMC3     O 5175   4.337   0.937  10.756 -0.2665 -0.2198  0.1523
  345TMC3     H 5176   4.479   1.249  10.953 -4.1660  1.8343  1.8061
  345TMC3    H1 5177   4.305   1.093  10.580 -1.1370  1.0997 -1.1307
  345TMC3    H2 5178   4.452   1.491  10.612  1.1164 -0.4448  0.6915
  345TMC3    C7 5179   4.295   1.330  10.469 -0.0089 -0.0725 -0.0611
  345TMC3    C8 5180   4.466   1.498  10.861 -0.2674  0.3670 -0.1818
  345TMC3    O1 5181   4.345   1.427  10.416  0.6373  0.2631  0.2033
  345TMC3    O2 5182   4.402   1.588  10.804 -0.0917 -0.3269 -0.2098
  346MPD2     C 5183   4.098   2.306  13.671  0.4039 -0.7282  0.1096
  346MPD2    C1 5184   4.235   2.323  13.661  0.4814  0.8156  0.6509
  346MPD2    C2 5185   4.317   2.310  13.769 -0.1525  0.0740  0.1703
  346MPD2    C3 5186   4.247   2.280  13.890 -0.2631  0.8535 -0.1301
  346MPD2    C4 5187   4.110   2.262  13.900  0.6785  0.5153 -0.1385
  346MPD2    C5 5188   4.037   2.275  13.792  0.5364  0.2763 -0.2104
  346MPD2     H 5189   4.424   2.324  13.760  0.0168 -0.0879  1.8290
  346MPD2    H1 5190   4.052   2.244  13.989 -1.0901  0.1276 -1.3667
  346MPD2    H2 5191   4.028   2.328  13.592  0.4759  2.2033  0.8686
  346MPD2    H3 5192   3.928   2.273  13.795  0.4820 -0.1949 -2.5436
  346MPD2     N 5193   4.327   2.274  14.006 -0.0847 -0.6084 -0.0814
  346MPD2    H5 5194   4.427   2.286  13.993 -0.6007  1.1584 -2.3228
  346MPD2    N1 5195   4.299   2.354  13.541 -0.0561 -0.0423  0.0406
  346MPD2    H7 5196   4.397   2.330  13.531  0.4988  2.5025 -0.5065
  347TMC3    C1 5197   4.389   2.268  14.233  0.3685  0.0518 -0.2683
  347TMC3    C2 5198   4.494   2.187  14.203  0.3729 -0.0563 -0.3243
  347TMC3    C3 5199   4.580   2.146  14.307  0.4968 -0.8397  0.2423
  347TMC3    C4 5200   4.354   2.299  14.356 -0.1693 -0.7367  0.7343
  347TMC3    C5 5201   4.444   2.262  14.457  0.1655 -0.1386 -0.8584
  347TMC3    C6 5202   4.558   2.192  14.434 -0.3850 -0.3580  0.8315
  347TMC3     C 5203   4.276   2.267  14.137  0.4720 -0.0475  0.2853
  347TMC3     O 5204   4.163   2.244  14.175  0.3190  0.4492  0.6511
  347TMC3     H 5205   4.497   2.150  14.101 -1.5546  0.1437 -0.4532
  347TMC3    H1 5206   4.264   2.359  14.366  1.9801  2.7240 -0.7200
  347TMC3    H2 5207   4.625   2.165  14.515  0.2872  0.8691  0.6711
  347TMC3    C7 5208   4.432   2.349  14.574 -0.2752 -0.1366 -0.2142
  347TMC3    C8 5209   0.001   2.127  14.286  0.2228  0.3012  0.2446
  347TMC3    O1 5210   4.322   2.398  14.589 -0.8909  0.7113 -0.4410
  347TMC3    O2 5211   0.061   2.046  14.354 -0.4768 -0.2426  0.0965
  348MPD2     C 5212   2.948   2.253  12.324  0.0005  0.2218  0.2337
  348MPD2    C1 5213   3.070   2.240  12.264 -0.4304  0.7242  0.2807
  348MPD2    C2 5214   3.092   2.295  12.140 -0.0032  0.6255  0.4145
  348MPD2    C3 5215   2.990   2.357  12.065 -0.5152 -0.5662 -0.6138
  348MPD2    C4 5216   2.874   2.379  12.132  0.1038  0.2988  0.1981
  348MPD2    C5 5217   2.857   2.328  12.259  0.0441  0.1676  0.1579
  348MPD2     H 5218   3.185   2.268  12.091 -1.3547 -0.7446 -1.4346
  348MPD2    H1 5219   2.783   2.413  12.084  0.1585  0.9687  0.5676
  348MPD2    H2 5220   2.921   2.203  12.416 -1.1052 -1.6140 -1.0919
  348MPD2    H3 5221   2.756   2.331  12.301  0.8066  2.4052  1.8184
  348MPD2     N 5222   3.013   2.384  11.926 -0.0153  0.0750  0.7608
  348MPD2    H5 5223   3.105   2.377  11.885 -0.7449 -0.4622 -0.7991
  348MPD2    N1 5224   3.177   2.157  12.314 -0.0126  0.0620 -0.2543
  348MPD2    H7 5225   3.261   2.142  12.258 -1.3716 -1.6698 -1.8127
  349TMC3    C1 5226   3.305   2.006  12.439 -0.3061 -0.4087  0.3647
  349TMC3    C2 5227   3.370   2.005  12.552  0.8875  0.0406  0.4271
  349TMC3    C3 5228   3.488   1.944  12.563  0.1606 -0.1084 -0.7406
  349TMC3    C4 5229   3.353   1.957  12.329 -0.7410  0.4597 -0.5282
  349TMC3    C5 5230   3.480   1.921  12.328 -0.3582 -0.7068 -0.7790
  349TMC3    C6 5231   3.552   1.908  12.445  0.3719  0.3841 -0.1168
  349TMC3     C 5232   3.183   2.084  12.431 -0.5743  0.5317  0.2542
  349TMC3     O 5233   3.106   2.088  12.526  0.1802 -0.5618 -0.4269
  349TMC3     H 5234   3.313   2.039  12.639 -1.7486 -3.5758  0.1463
  349TMC3    H1 5235   3.303   1.974  12.235 -0.4492  0.8489 -0.6163
  349TMC3    H2 5236   3.649   1.861  12.433 -0.5531 -1.6358  0.4856
  349TMC3    C7 5237   3.554   1.962  12.208  0.0703  0.4208 -0.0458
  349TMC3    C8 5238   3.541   1.899  12.689  0.3149 -0.5268  0.7394
  349TMC3    O1 5239   3.488   1.958  12.103 -0.1924  0.4687  0.5514
  349TMC3    O2 5240   3.461   1.864  12.772 -0.3650  0.0236 -0.0124
  350MPD2     C 5241   1.938   0.039  10.389 -0.3155 -0.0465 -0.0471
  350MPD2    C1 5242   1.940   4.650  10.459 -0.0387 -0.5275  0.6994
  350MPD2    C2 5243   2.038   4.621  10.549 -0.1029  1.2287  0.4167
  350MPD2    C3 5244   2.146   4.708  10.556  0.5944  0.6748 -0.6968
  350MPD2    C4 5245   2.149   0.097  10.484 -0.3635 -0.2608  0.5574
  350MPD2    C5 5246   2.043   0.129  10.404  0.5295  0.3547  0.1018
  350MPD2     H 5247   2.025   4.533  10.611 -0.2294  1.4669  0.7242
  350MPD2    H1 5248   2.227   0.173  10.490  0.8150 -1.7623  4.2374
  350MPD2    H2 5249   1.853   0.070  10.329  1.0507 -0.1170 -2.0317
  350MPD2    H3 5250   2.029   0.225  10.357 -1.3429  0.0706  0.0942
  350MPD2     N 5251   2.239   4.676  10.657  0.0018 -0.1708  0.0559
  350MPD2    H5 5252   2.229   4.593  10.714 -1.7470 -0.0285 -0.0202
  350MPD2    N1 5253   1.846   4.552  10.431 -0.2524 -0.2928  0.1349
  350MPD2    H7 5254   1.856   4.463  10.477  0.5099 -0.2895 -0.0196
  351TMC3    C1 5255   1.678   4.433  10.333  0.0294 -0.0669 -0.5279
  351TMC3    C2 5256   1.761   4.330  10.304 -0.1526 -0.0864  0.3566
  351TMC3    C3 5257   1.715   4.217  10.250 -0.5403 -0.0796 -0.2839
  351TMC3    C4 5258   1.550   4.433  10.288  0.0655  0.2399  0.3709
  351TMC3    C5 5259   1.514   4.318  10.228  0.4000 -0.3209  0.2565
  351TMC3    C6 5260   1.585   4.205  10.221  0.3822  0.0615  0.7604
  351TMC3     C 5261   1.740   4.562  10.342 -0.6139  0.1563  0.4279
  351TMC3     O 5262   1.679   4.658  10.294 -0.2165  0.5129  0.9023
  351TMC3     H 5263   1.866   4.333  10.330  0.1830 -0.9486 -0.8836
  351TMC3    H1 5264   1.485   4.519  10.300  0.2643  0.6298 -1.4369
  351TMC3    H2 5265   1.555   4.121  10.159 -1.8524  1.8295 -0.5454
  351TMC3    C7 5266   1.378   4.310  10.172  0.5768  0.0871  0.1469
  351TMC3    C8 5267   1.819   4.128  10.205  0.4204  1.0130 -0.1666
  351TMC3    O1 5268   1.318   4.204  10.196 -0.2001  0.0776 -0.0420
  351TMC3    O2 5269   1.928   4.181  10.197 -0.4233  0.8575 -0.4263
  352MPD2     C 5270   0.519   1.953   1.707 -0.3887  0.2476 -0.1137
  352MPD2    C1 5271   0.463   1.886   1.596 -0.6203 -0.6188 -0.1101
  352MPD2    C2 5272   0.441   1.750   1.610 -0.4879  0.9589  0.3199
  352MPD2    C3 5273   0.462   1.678   1.726 -0.4504 -0.1451 -0.7412
  352MPD2    C4 5274   0.506   1.750   1.835 -0.4439  0.1562  0.3854
  352MPD2    C5 5275   0.542   1.882   1.824 -0.2287  0.4645  0.1320
  352MPD2     H 5276   0.414   1.696   1.520  2.5690  0.2060 -0.1377
  352MPD2    H1 5277   0.531   1.706   1.932  0.3703 -0.2373 -0.0072
  352MPD2    H2 5278   0.553   2.055   1.711  1.7858 -0.5723  2.2466
  352MPD2    H3 5279   0.579   1.934   1.911 -0.6957  0.5588  0.2765
  352MPD2     N 5280   0.445   1.536   1.740 -0.2667  0.0304 -0.4205
  352MPD2    H5 5281   0.484   1.497   1.825  1.1842 -0.0305 -1.1248
  352MPD2    N1 5282   0.446   1.946   1.470  0.2363  0.3120  0.3614
  352MPD2    H7 5283   0.418   1.882   1.397  0.2303 -0.3721  0.9635
  353TMC3    C1 5284   0.415   1.319   1.680 -0.2809  0.6036 -0.4585
  353TMC3    C2 5285   0.528   1.296   1.752 -0.3060  0.1975 -0.4008
  353TMC3    C3 5286   0.609   1.190   1.725  0.1530 -0.6761 -0.7926
  353TMC3    C4 5287   0.388   1.230   1.578  0.0468  0.2613 -0.1640
  353TMC3    C5 5288   0.463   1.116   1.558 -0.5919  0.4566 -0.2544
  353TMC3    C6 5289   0.576   1.095   1.633 -0.0740 -0.4040 -0.2408
  353TMC3     C 5290   0.407   1.451   1.641  0.0826 -0.2653  0.0507
  353TMC3     O 5291   0.382   1.475   1.524  0.8114  0.0985 -0.1975
  353TMC3     H 5292   0.572   1.361   1.827 -1.0707  0.1114  0.1187
  353TMC3    H1 5293   0.307   1.256   1.511  0.0840  0.0978 -0.2739
  353TMC3    H2 5294   0.638   1.010   1.608  0.7372  0.4429 -1.0850
  353TMC3    C7 5295   0.481   1.079   1.417 -0.4061 -0.4563 -0.3422
  353TMC3    C8 5296   0.747   1.184   1.782  0.2859 -0.2610 -0.1281
  353TMC3    O1 5297   0.595   1.086   1.370 -0.3910  0.0076  0.9109
  353TMC3    O2 5298   0.783   1.274   1.855  0.2298  0.2029 -0.4570
  354TMC3    C1 5299   2.616   3.440  13.353  0.1950 -0.2204 -0.5616
  354TMC3    C2 5300   2.609   3.564  13.310 -0.7370 -0.2912  0.3105
  354TMC3    C3 5301   2.666   3.594  13.186 -0.6392  0.4923 -0.3506
  354TMC3    C4 5302   2.682   3.337  13.282 -0.3839 -0.7145 -0.5381
  354TMC3    C5 5303   2.721   3.370  13.157 -0.2031 -0.5161 -1.3030
  354TMC3    C6 5304   2.723   3.495  13.107  0.5985 -0.4215  0.0203
  354TMC3     C 5305   2.544   3.396  13.472 -0.0811 -1.0293  0.8542
  354TMC3     O 5306   2.488   3.283  13.469  0.6004  0.0917  0.6409
  354TMC3     H 5307   2.565   3.637  13.378  1.2533  0.6763  0.5717
  354TMC3    H1 5308   2.651   3.236  13.306  2.1131 -1.0994  1.0759
  354TMC3    H2 5309   2.760   3.512  13.007  0.0171  1.8502  0.1862
  354TMC3    C7 5310   2.750   3.260  13.058  0.1566 -0.2475 -0.3623
  354TMC3    C8 5311   2.615   3.698  13.109  0.0136  0.4121  0.2770
  354TMC3    O1 5312   2.790   3.156  13.102 -0.7783 -0.0887 -0.2067
  354TMC3    O2 5313   2.627   3.680  12.989  0.6728 -0.6784 -0.0539
  355MPD2     C 5314   2.565   4.383  11.747 -0.3652  0.1268 -0.2838
  355MPD2    C1 5315   2.636   4.326  11.644 -1.1620  0.1474 -0.7802
  355MPD2    C2 5316   2.705   4.208  11.668 -0.4826 -0.0053 -0.1121
  355MPD2    C3 5317   2.713   4.149  11.794  0.4116  0.1196 -0.3483
  355MPD2    C4 5318   2.656   4.214  11.900  0.3940  0.4297  0.1664
  355MPD2    C5 5319   2.574   4.321  11.879  0.6355 -0.0200  0.5559
  355MPD2     H 5320   2.750   4.161  11.581 -1.4867 -0.4739 -0.3839
  355MPD2    H1 5321   2.677   4.177  12.000 -0.2689 -0.1978  0.0666
  355MPD2    H2 5322   2.511   4.477  11.747  1.0066  0.9029 -1.5792
  355MPD2    H3 5323   2.530   4.361  11.969 -1.7113 -0.3234 -0.4693
  355MPD2     N 5324   2.816   4.059  11.821 -0.0899  0.5225  0.0545
  355MPD2    H5 5325   2.838   4.072  11.919 -2.5627  0.9491  0.5524
  355MPD2    N1 5326   2.646   4.396  11.521  0.4716  0.5373 -0.1390
  355MPD2    H7 5327   2.568   4.459  11.508 -1.1550 -1.3062  0.8300
  356TMC3    C1 5328   3.025   3.960  11.807 -1.5713  1.2124 -1.0043
  356TMC3    C2 5329   3.138   3.967  11.735 -0.3344 -0.5555  0.9995
  356TMC3    C3 5330   3.255   4.010  11.802 -0.2482 -0.5318  0.3085
  356TMC3    C4 5331   3.022   3.970  11.942  0.2254 -0.1261 -0.1378
  356TMC3    C5 5332   3.134   4.008  12.009 -0.3909  0.4211  0.3496
  356TMC3    C6 5333   3.247   4.044  11.939  0.0440  0.6525  0.6734
  356TMC3     C 5334   2.903   3.996  11.736 -0.1681  0.0092 -0.1232
  356TMC3     O 5335   2.899   3.989  11.613 -0.2752 -0.3432 -0.4248
  356TMC3     H 5336   3.139   3.947  11.628 -3.3859  2.0831  0.4794
  356TMC3    H1 5337   2.928   3.953  11.995  0.7913 -2.6047  0.0891
  356TMC3    H2 5338   3.329   4.086  11.996 -0.7125  0.9552  1.5287
  356TMC3    C7 5339   3.134   4.007  12.147 -0.7378 -1.4005 -0.2777
  356TMC3    C8 5340   3.338   4.072  11.709  0.4184  0.3461  0.0297
  356TMC3    O1 5341   3.064   3.925  12.198  0.9051 -0.0849 -0.0896
  356TMC3    O2 5342   3.347   4.029  11.596 -0.1715 -0.1237 -0.2047
  357MPD2     C 5343   2.818   3.821   2.318 -0.1179  0.1573 -0.5836
  357MPD2    C1 5344   2.732   3.746   2.240  0.5222 -0.1326  0.3500
  357MPD2    C2 5345   2.602   3.734   2.276 -0.0336  0.1347  0.5078
  357MPD2    C3 5346   2.554   3.793   2.389 -0.0650 -0.0457 -0.0360
  357MPD2    C4 5347   2.644   3.859   2.468 -0.5111 -0.2451  0.4911
  357MPD2    C5 5348   2.773   3.881   2.431 -0.0863  0.0052  0.1437
  357MPD2     H 5349   2.539   3.669   2.216  0.0525 -1.0476  1.6977
  357MPD2    H1 5350   2.615   3.889   2.568  0.4269 -0.1109  0.7190
  357MPD2    H2 5351   2.919   3.835   2.281 -0.5541 -0.0389 -1.8686
  357MPD2    H3 5352   2.852   3.931   2.486 -0.5464  3.5280 -2.3346
  357MPD2     N 5353   2.420   3.778   2.433  0.3411  0.1013 -0.0630
  357MPD2    H5 5354   2.411   3.799   2.532 -0.3830  0.8895 -0.2965
  357MPD2    N1 5355   2.778   3.692   2.114 -0.2940  0.5634  0.2959
  357MPD2    H7 5356   2.876   3.681   2.092 -0.1395  0.9383  0.7824
  358TMC3    C1 5357   2.772   3.562   1.920 -0.7953  0.7172  0.3115
  358TMC3    C2 5358   2.704   3.543   1.800  0.2863 -0.0577 -0.2478
  358TMC3    C3 5359   2.784   3.515   1.690 -0.3058  0.0433 -0.4276
  358TMC3    C4 5360   2.906   3.550   1.931 -0.2203  0.1231 -0.3540
  358TMC3    C5 5361   2.980   3.510   1.824  0.1870  0.1543 -0.1166
  358TMC3    C6 5362   2.917   3.489   1.701  0.9297  0.2308 -0.0672
  358TMC3     C 5363   2.698   3.640   2.018 -0.1951 -0.6440  0.0617
  358TMC3     O 5364   2.580   3.649   1.999 -0.2112 -0.0744  0.0787
  358TMC3     H 5365   2.600   3.570   1.782  0.0119  0.0243  1.4898
  358TMC3    H1 5366   2.959   3.543   2.026 -0.0144  0.1628 -0.4648
  358TMC3    H2 5367   2.974   3.478   1.610  0.1593 -2.1550 -0.2652
  358TMC3    C7 5368   3.122   3.503   1.837 -0.1759 -0.9359 -0.5376
  358TMC3    C8 5369   2.720   3.473   1.570  0.1338  0.1196  0.3562
  358TMC3    O1 5370   3.170   3.567   1.930  0.1414  0.1102 -0.0240
  358TMC3    O2 5371   2.790   3.443   1.471 -0.1464  0.0191 -0.2023
  359MPD2     C 5372   2.374   2.338  12.166  0.3727  0.1867 -0.5555
  359MPD2    C1 5373   2.420   2.464  12.204  0.0837  0.6124 -0.3155
  359MPD2    C2 5374   2.371   2.524  12.315 -0.0489  0.2016 -0.5151
  359MPD2    C3 5375   2.271   2.457  12.394  0.8870  0.0578  0.6572
  359MPD2    C4 5376   2.233   2.327  12.355 -0.5053 -0.6486  0.6633
  359MPD2    C5 5377   2.287   2.270  12.238 -0.2390 -0.0242 -0.1085
  359MPD2     H 5378   2.409   2.622  12.342 -0.7676  0.6095 -1.0097
  359MPD2    H1 5379   2.167   2.259  12.408 -0.2083  0.5516  2.5646
  359MPD2    H2 5380   2.421   2.287  12.084  1.3715  0.3283 -0.0727
  359MPD2    H3 5381   2.262   2.167  12.214 -2.1441  1.0861 -3.0082
  359MPD2     N 5382   2.219   2.509  12.515  0.0807 -0.0819 -0.5236
  359MPD2    H5 5383   2.157   2.447  12.566  0.5071 -0.4528 -0.4583
  359MPD2    N1 5384   2.516   2.517  12.114  0.0866  0.1333 -0.7118
  359MPD2    H7 5385   2.523   2.473  12.023  3.0788 -3.8401  1.4060
  360TMC3    C1 5386   2.668   2.673  12.026 -0.6779 -0.2723  0.9053
  360TMC3    C2 5387   2.790   2.731  12.046 -0.8406 -0.2157  0.3339
  360TMC3    C3 5388   2.853   2.783  11.934  0.2623  0.5349 -0.1109
  360TMC3    C4 5389   2.609   2.672  11.902  0.3273  0.0415  0.2465
  360TMC3    C5 5390   2.665   2.746  11.802 -0.1471 -0.5463 -0.3330
  360TMC3    C6 5391   2.795   2.784  11.812  0.2258  0.0456  0.4044
  360TMC3     C 5392   2.591   2.621  12.145 -0.1437 -0.2663 -0.0245
  360TMC3     O 5393   2.628   2.650  12.258  0.1734  0.5549  0.1258
  360TMC3     H 5394   2.838   2.701  12.139  1.7484  0.3866 -0.8024
  360TMC3    H1 5395   2.506   2.642  11.885  0.4567  1.6278 -3.4191
  360TMC3    H2 5396   2.850   2.831  11.731  0.4616  0.2267  0.6725
  360TMC3    C7 5397   2.614   2.748  11.673  0.0195 -0.0078  0.2693
  360TMC3    C8 5398   3.000   2.778  11.929  0.0712  0.0889  0.0105
  360TMC3    O1 5399   2.630   2.845  11.601 -0.3013 -0.0414 -0.1231
  360TMC3    O2 5400   3.061   2.815  11.833  0.6742 -0.0437  0.2467
  361MPD2     C 5401   4.307   1.770  17.208  0.2145  0.3049 -0.1770
  361MPD2    C1 5402   4.247   1.654  17.167  0.1792 -0.0133 -0.2208
  361MPD2    C2 5403   4.327   1.541  17.159  0.1484  0.2363  0.2193
  361MPD2    C3 5404   4.465   1.548  17.191  0.9688 -0.2680 -0.1774
  361MPD2    C4 5405   4.506   1.666  17.244  0.4348  0.1051  0.1010
  361MPD2    C5 5406   4.436   1.779  17.246 -0.2349  0.6969  0.4448
  361MPD2     H 5407   4.285   1.450  17.117 -2.3829  0.3847  2.3700
  361MPD2    H1 5408   4.608   1.687  17.275  0.6509 -0.8037  0.0057
  361MPD2    H2 5409   4.251   1.863  17.208  0.8401  0.6823  0.8579
  361MPD2    H3 5410   4.472   1.870  17.293 -1.6875  1.4912  0.0008
  361MPD2     N 5411   4.563   1.448  17.189  0.5334 -0.5635 -0.4351
  361MPD2    H5 5412   4.652   1.461  17.236 -0.3795  2.2032  0.5604
  361MPD2    N1 5413   4.107   1.639  17.136  0.0190 -0.4186 -0.4191
  361MPD2    H7 5414   4.077   1.554  17.090  0.4393 -1.0429  0.4713
  362TMC3    C1 5415   3.876   1.708  17.126  0.5769 -0.8970 -0.1013
  362TMC3    C2 5416   3.780   1.744  17.221 -0.5670  0.9860  0.1903
  362TMC3    C3 5417   3.647   1.734  17.185  0.3991  0.0639 -0.2275
  362TMC3    C4 5418   3.850   1.682  16.993 -0.5134  0.2926 -0.0227
  362TMC3    C5 5419   3.717   1.678  16.960 -0.5083  0.0885  0.5177
  362TMC3    C6 5420   3.622   1.687  17.061 -0.9942  0.5433  0.1752
  362TMC3     C 5421   4.009   1.730  17.168 -0.4774  1.0923  1.0001
  362TMC3     O 5422   4.018   1.840  17.224  0.0457 -0.3178  0.4804
  362TMC3     H 5423   3.805   1.772  17.322  3.2733 -0.9803 -0.2080
  362TMC3    H1 5424   3.938   1.695  16.931 -0.5628  1.0903  0.0735
  362TMC3    H2 5425   3.516   1.682  17.041 -0.8548  0.2545 -0.5109
  362TMC3    C7 5426   3.667   1.706  16.827 -0.0271 -0.6902 -0.2031
  362TMC3    C8 5427   3.559   1.696  17.291  0.3064 -0.3659 -0.3436
  362TMC3    O1 5428   3.549   1.731  16.831 -0.1402  0.0682 -0.0123
  362TMC3    O2 5429   3.492   1.595  17.272  0.2524  0.2118  0.0810
  363TMC3    C1 5430   2.617   4.690   9.913 -0.0612  0.0572 -0.3458
  363TMC3    C2 5431   2.735   4.651   9.852 -0.3225  0.3489 -0.3809
  363TMC3    C3 5432   2.762   4.702   9.725 -0.1222 -0.2274  0.4244
  363TMC3    C4 5433   2.533   0.051   9.855 -0.5577 -0.3603  0.7095
  363TMC3    C5 5434   2.571   0.115   9.738 -0.5406 -0.0376  0.1246
  363TMC3    C6 5435   2.686   0.074   9.673 -0.9312  0.4262  0.1866
  363TMC3     C 5436   2.624   4.704  10.053 -0.0557  0.4959 -0.1545
  363TMC3     O 5437   2.614   0.096  10.089 -0.1892  0.8198  0.1805
  363TMC3     H 5438   2.808   4.610   9.921 -2.7536 -4.8320 -0.8889
  363TMC3    H1 5439   2.448   0.082   9.915 -1.8274 -1.5476 -0.4770
  363TMC3    H2 5440   2.706   0.096   9.569 -0.5366  1.7042  0.5330
  363TMC3    C7 5441   2.489   0.225   9.681 -0.1486 -0.0974  0.7195
  363TMC3    C8 5442   2.859   4.637   9.644 -0.2212 -0.2335  0.1688
  363TMC3    O1 5443   2.541   0.296   9.596 -0.4203 -0.2354  0.5012
  363TMC3    O2 5444   2.896   4.695   9.541  0.4222  0.1318 -0.2088
  364MPD2     C 5445   1.772   4.204  10.625  0.3551  0.1319 -0.0587
  364MPD2    C1 5446   1.658   4.122  10.599 -0.7301 -0.1813  0.3262
  364MPD2    C2 5447   1.683   3.992  10.581 -0.3278 -0.0094  0.0168
  364MPD2    C3 5448   1.812   3.937  10.589 -0.4366  0.5446 -0.2527
  364MPD2    C4 5449   1.912   4.019  10.623 -0.3298  0.6918 -0.0153
  364MPD2    C5 5450   1.893   4.148  10.639  0.3951 -0.4085 -1.0134
  364MPD2     H 5451   1.601   3.922  10.568 -0.3620 -0.1352  0.9133
  364MPD2    H1 5452   2.008   3.972  10.645 -0.4355  0.6955  0.4493
  364MPD2    H2 5453   1.764   4.312  10.633 -0.9690 -0.0490  1.0393
  364MPD2    H3 5454   1.977   4.210  10.665  0.2864 -0.5620 -0.2926
  364MPD2     N 5455   1.841   3.797  10.590  0.0397  0.1503 -0.8005
  364MPD2    H5 5456   1.937   3.769  10.606  0.2032  0.0416 -2.0376
  364MPD2    N1 5457   1.533   4.182  10.589 -0.2675  0.0052 -0.5808
  364MPD2    H7 5458   1.522   4.279  10.614  1.9895 -0.0609  0.7001
  365TMC3    C1 5459   1.300   4.197  10.543 -0.2579 -0.0602 -0.3114
  365TMC3    C2 5460   1.195   4.124  10.494 -0.2444  0.0580  0.2885
  365TMC3    C3 5461   1.066   4.148  10.537 -0.5849 -0.0486 -0.3548
  365TMC3    C4 5462   1.273   4.275  10.653 -0.1227  0.0699  0.2183
  365TMC3    C5 5463   1.146   4.302  10.704  0.4924  0.5888 -0.2736
  365TMC3    C6 5464   1.038   4.246  10.636 -0.1527  0.4749 -0.3556
  365TMC3     C 5465   1.418   4.114  10.555  0.2636  0.0692 -0.9123
  365TMC3     O 5466   1.397   4.001  10.523 -0.1947 -0.0193  0.6194
  365TMC3     H 5467   1.219   4.063  10.407 -0.8975 -2.5509  1.9214
  365TMC3    H1 5468   1.354   4.334  10.696  1.9219 -2.6193  0.0454
  365TMC3    H2 5469   0.944   4.250  10.689 -0.2544  2.3921 -0.6802
  365TMC3    C7 5470   1.138   4.342  10.842  0.7929 -0.3664 -0.3347
  365TMC3    C8 5471   0.999   4.028  10.567  0.6868 -0.5434  0.2461
  365TMC3    O1 5472   1.044   4.412  10.881  0.3294 -0.1848 -0.7498
  365TMC3    O2 5473   0.954   4.015  10.681 -0.2910 -0.1029  0.7315
  366MPD2     C 5474   4.339   4.634  15.607 -0.2178 -0.5664 -0.0572
  366MPD2    C1 5475   4.390   4.692  15.490  0.2834  0.3425 -0.7264
  366MPD2    C2 5476   4.455   4.614  15.399  0.1204 -0.2360 -0.2410
  366MPD2    C3 5477   4.459   4.479  15.407  0.1951 -0.3147  0.9606
  366MPD2    C4 5478   4.410   4.416  15.520 -0.7479 -0.2067 -1.2422
  366MPD2    C5 5479   4.359   4.496  15.621  0.1652 -0.0676 -0.0068
  366MPD2     H 5480   4.500   4.653  15.308 -1.2445  1.5218 -0.1643
  366MPD2    H1 5481   4.401   4.308  15.532  0.3181 -0.4074 -2.2682
  366MPD2    H2 5482   4.288   4.696  15.680 -2.4813 -1.3764 -0.9722
  366MPD2    H3 5483   4.324   4.442  15.708  0.0257 -2.1544 -1.3459
  366MPD2     N 5484   4.533   4.410  15.313  0.5129 -0.5337 -0.1768
  366MPD2    H5 5485   4.589   4.453  15.240  2.5354 -1.6202  0.7439
  366MPD2    N1 5486   4.378   0.108  15.465  0.0584 -0.0739 -0.1279
  366MPD2    H7 5487   4.429   0.151  15.388  1.3507 -2.3863 -0.6027
  367TMC3    C1 5488   4.353   0.320  15.498  0.2312  0.0562  0.3337
  367TMC3    C2 5489   4.479   0.336  15.545 -0.3615 -0.2482  0.1823
  367TMC3    C3 5490   4.566   0.420  15.481  0.1088  0.1212  0.2247
  367TMC3    C4 5491   4.334   0.360  15.372 -0.2615  0.7130  0.3865
  367TMC3    C5 5492   4.414   0.454  15.311  0.0044  0.0919  0.4081
  367TMC3    C6 5493   4.534   0.489  15.361 -0.7646 -0.8943 -0.4102
  367TMC3     C 5494   4.304   0.194  15.539  0.0588 -0.1831  0.8516
  367TMC3     O 5495   4.216   0.194  15.625 -0.4039 -0.0733 -0.1840
  367TMC3     H 5496   4.514   0.277  15.629  2.6629 -0.4736 -1.2355
  367TMC3    H1 5497   4.234   0.332  15.339 -0.0100 -2.4319  2.2377
  367TMC3    H2 5498   4.597   0.562  15.311 -2.4299  1.3571  0.7828
  367TMC3    C7 5499   4.372   0.515  15.186  0.2351  0.7763 -0.3057
  367TMC3    C8 5500   4.696   0.428  15.537 -0.4823  0.0095  0.1264
  367TMC3    O1 5501   4.429   0.616  15.145 -0.5008 -1.0657 -0.1510
  367TMC3    O2 5502   4.723   0.361  15.633  0.0501 -0.5919  0.1279
  368MPD2     C 5503   0.833   1.550  12.819 -0.6793  0.7405  0.0566
  368MPD2    C1 5504   0.862   1.670  12.756  0.1575  0.3936 -0.5999
  368MPD2    C2 5505   0.991   1.729  12.769 -0.2075  0.3701 -0.5894
  368MPD2    C3 5506   1.092   1.659  12.844  0.3427  0.8879  0.0625
  368MPD2    C4 5507   1.063   1.534  12.899  0.2466 -0.2298 -0.4688
  368MPD2    C5 5508   0.936   1.478  12.889  0.5563 -0.0468 -0.4394
  368MPD2     H 5509   1.008   1.828  12.728 -1.0431  0.8319  0.1690
  368MPD2    H1 5510   1.137   1.484  12.961 -2.0660  0.8609  3.2034
  368MPD2    H2 5511   0.736   1.503  12.818 -0.2931 -0.0606 -0.0515
  368MPD2    H3 5512   0.915   1.377  12.920  0.1524 -0.1919 -1.1776
  368MPD2     N 5513   1.214   1.723  12.851  0.4445  0.0976  0.0770
  368MPD2    H5 5514   1.231   1.805  12.793 -1.1406 -0.8836 -1.7501
  368MPD2    N1 5515   0.753   1.749  12.708 -0.3830  0.1816  0.1821
  368MPD2    H7 5516   0.660   1.717  12.735  0.6844 -2.2969  0.9775
  369TMC3    C1 5517   0.662   1.955  12.645  0.2375 -0.1547  0.3682
  369TMC3    C2 5518   0.722   2.077  12.669 -0.2113  1.1803 -0.9025
  369TMC3    C3 5519   0.673   2.140  12.781 -0.8476 -0.4501  0.6814
  369TMC3    C4 5520   0.560   1.899  12.717  0.1090  0.1216  0.0672
  369TMC3    C5 5521   0.513   1.970  12.825 -0.1501 -0.1673 -0.4247
  369TMC3    C6 5522   0.571   2.088  12.854  0.0842 -0.4882 -0.5999
  369TMC3     C 5523   0.765   1.859  12.628  0.4699 -0.0448  0.2361
  369TMC3     O 5524   0.862   1.903  12.571 -0.5468  0.4186  1.1953
  369TMC3     H 5525   0.800   2.117  12.606 -0.4605 -1.2957 -2.7484
  369TMC3    H1 5526   0.516   1.803  12.693  0.9581 -0.1714 -0.3156
  369TMC3    H2 5527   0.534   2.148  12.937 -1.6934 -0.5889 -1.3137
  369TMC3    C7 5528   0.496   1.890  12.940  0.6487 -0.7094  0.2028
  369TMC3    C8 5529   0.762   2.236  12.846 -0.1107 -0.4464  0.4403
  369TMC3    O1 5530   0.521   1.941  13.049  0.0218  0.1135 -0.3665
  369TMC3    O2 5531   0.744   2.258  12.967 -0.8058 -0.4644  0.2952
  370TMC3    C1 5532   0.967   2.408  16.239 -0.2532  0.4476  0.7828
  370TMC3    C2 5533   0.928   2.336  16.348  0.6723 -0.3125 -0.6266
  370TMC3    C3 5534   0.869   2.213  16.325 -0.4707  0.6845  0.4438
  370TMC3    C4 5535   0.961   2.362  16.109 -0.0943 -0.3360 -0.2826
  370TMC3    C5 5536   0.919   2.233  16.102  0.4749  0.0489 -0.5708
  370TMC3    C6 5537   0.864   2.157  16.200 -1.0386 -0.3684  0.9754
  370TMC3     C 5538   1.019   2.540  16.273  0.2054  0.4997 -0.0686
  370TMC3     O 5539   1.028   2.568  16.392  0.1862 -0.3088 -0.5168
  370TMC3     H 5540   0.941   2.380  16.446 -1.1949 -2.5390  0.6248
  370TMC3    H1 5541   0.982   2.409  16.013  0.3783  1.3995  0.6708
  370TMC3    H2 5542   0.820   2.061  16.175 -0.1760  0.0746 -2.2186
  370TMC3    C7 5543   0.961   2.161  15.988 -1.2326  1.0824  0.6102
  370TMC3    C8 5544   0.822   2.128  16.436 -0.0270 -0.1779 -0.2810
  370TMC3    O1 5545   0.979   2.216  15.882 -0.2013  0.4167 -0.1357
  370TMC3    O2 5546   0.811   2.006  16.416  0.6397  0.3002  0.3892
  371TMC3    C1 5547   2.103   0.470  15.653 -0.3026 -0.0238  0.5259
  371TMC3    C2 5548   1.998   0.467  15.735 -0.1190  0.1760 -0.3625
  371TMC3    C3 5549   1.908   0.572  15.737 -0.3245 -0.2917  0.3838
  371TMC3    C4 5550   2.127   0.578  15.578  0.1208 -0.2005 -0.5698
  371TMC3    C5 5551   2.041   0.686  15.587 -0.8190 -0.2825 -0.2387
  371TMC3    C6 5552   1.932   0.692  15.666 -0.3949 -0.0358 -0.3476
  371TMC3     C 5553   2.185   0.361  15.639 -0.7434 -0.0602  0.2637
  371TMC3     O 5554   2.290   0.371  15.585 -0.0222  0.0186  0.3602
  371TMC3     H 5555   1.989   0.380  15.799 -0.7730  1.4842  1.3017
  371TMC3    H1 5556   2.207   0.574  15.505  0.0208 -2.1246 -0.5723
  371TMC3    H2 5557   1.892   0.792  15.674 -1.0084 -0.4146  1.3098
  371TMC3    C7 5558   2.082   0.807  15.528 -0.4078 -0.4984  0.6984
  371TMC3    C8 5559   1.839   0.594  15.865 -0.1866  0.6968  0.4193
  371TMC3    O1 5560   2.083   0.906  15.602  0.7101  0.1483 -0.0541
  371TMC3    O2 5561   1.848   0.501  15.939  0.7150  0.9299  0.0780
  372MPD2     C 5562   1.276   2.062  13.154  0.7690 -0.0878  0.2263
  372MPD2    C1 5563   1.385   2.037  13.228  0.9623  0.4797 -0.0060
  372MPD2    C2 5564   1.392   1.913  13.291 -0.5071  0.1486 -0.4693
  372MPD2    C3 5565   1.290   1.814  13.285  0.2008  0.0382  0.3356
  372MPD2    C4 5566   1.178   1.850  13.212  0.7243  0.5050 -0.0307
  372MPD2    C5 5567   1.174   1.968  13.144 -0.0697 -0.3636 -0.4108
  372MPD2     H 5568   1.483   1.886  13.344 -0.8590  0.2672  0.1986
  372MPD2    H1 5569   1.103   1.778  13.181  0.1704  0.3829  1.5642
  372MPD2    H2 5570   1.267   2.144  13.084  0.1577 -0.3802 -0.0393
  372MPD2    H3 5571   1.097   1.981  13.069  0.6074  1.7533 -0.7375
  372MPD2     N 5572   1.306   1.682  13.342 -0.5829 -0.0820  0.0709
  372MPD2    H5 5573   1.395   1.663  13.388  0.3425  2.7696 -0.5187
  372MPD2    N1 5574   1.492   2.121  13.249 -0.1689  0.0922 -0.7848
  372MPD2    H7 5575   1.576   2.091  13.296  0.2032  0.9850 -0.8818
  373TMC3    C1 5576   1.241   1.457  13.395  0.1391 -0.4239  0.6625
  373TMC3    C2 5577   1.214   1.421  13.523  0.1413 -0.6266 -0.4561
  373TMC3    C3 5578   1.301   1.323  13.579 -0.5968  0.3667  0.3427
  373TMC3    C4 5579   1.354   1.414  13.320 -0.7833 -0.3919  0.1981
  373TMC3    C5 5580   1.429   1.320  13.387 -0.2464 -0.1507  0.3018
  373TMC3    C6 5581   1.405   1.271  13.507 -0.2317 -0.4717  0.3590
  373TMC3     C 5582   1.202   1.584  13.342 -0.4940 -0.3966  0.2082
  373TMC3     O 5583   1.082   1.582  13.310  0.5171 -0.0975  0.6642
  373TMC3     H 5584   1.126   1.466  13.566 -0.5951 -0.8261 -1.7277
  373TMC3    H1 5585   1.387   1.469  13.232  0.4984 -1.3332  0.0903
  373TMC3    H2 5586   1.456   1.193  13.563 -0.5408  0.7418  2.3525
  373TMC3    C7 5587   1.561   1.292  13.336 -0.3800  0.7800  0.5424
  373TMC3    C8 5588   1.325   1.335  13.723 -0.3170 -0.2841 -0.0376
  373TMC3    O1 5589   1.577   1.328  13.220  0.2354 -0.0533 -0.0879
  373TMC3    O2 5590   1.420   1.279  13.781 -0.2675 -0.4433 -0.2536
  374TMC3    C1 5591   1.768   2.109  10.041 -0.0573  0.6650 -0.5412
  374TMC3    C2 5592   1.873   2.195  10.046  0.0885 -0.7658 -0.2053
  374TMC3    C3 5593   1.865   2.305   9.967 -0.0919  0.4810 -0.8317
  374TMC3    C4 5594   1.648   2.136   9.979  0.1722 -0.4285 -0.3918
  374TMC3    C5 5595   1.649   2.249   9.902  0.5049 -0.0945  0.1725
  374TMC3    C6 5596   1.756   2.331   9.897 -0.4160  0.0141  0.3761
  374TMC3     C 5597   1.779   1.978  10.110 -0.1926 -0.0854  0.4912
  374TMC3     O 5598   1.694   1.896  10.075 -0.4727 -0.0375  0.5857
  374TMC3     H 5599   1.972   2.174  10.084  0.1230  1.0126  0.6780
  374TMC3    H1 5600   1.572   2.059   9.981 -1.3355  1.0399 -0.9506
  374TMC3    H2 5601   1.755   2.422   9.837  0.4704  0.6301  1.2897
  374TMC3    C7 5602   1.519   2.290   9.843  0.2129 -0.1109  0.0578
  374TMC3    C8 5603   1.990   2.365   9.916  0.0725  0.0772 -0.2137
  374TMC3    O1 5604   1.523   2.407   9.800 -0.0291  0.2415 -0.2202
  374TMC3    O2 5605   1.994   2.376   9.795  0.5335  0.4226  0.1316
  375MPD2     C 5606   1.863   3.445  16.811 -0.2152 -0.1413  0.4997
  375MPD2    C1 5607   1.791   3.325  16.796  0.2902 -0.0781  0.4748
  375MPD2    C2 5608   1.840   3.221  16.717  0.3001 -0.1576  0.5846
  375MPD2    C3 5609   1.955   3.235  16.644  0.0218 -0.4784 -0.2141
  375MPD2    C4 5610   2.028   3.347  16.662  0.2035 -0.5306  0.1171
  375MPD2    C5 5611   1.977   3.449  16.738  0.0187 -0.0034 -0.0550
  375MPD2     H 5612   1.786   3.129  16.701 -0.1120  0.0816  0.5827
  375MPD2    H1 5613   2.121   3.373  16.614 -0.8241  2.3716 -0.2582
  375MPD2    H2 5614   1.840   3.533  16.870  0.4773  1.2708 -1.3430
  375MPD2    H3 5615   2.037   3.538  16.723  1.2540 -1.1259 -1.8075
  375MPD2     N 5616   2.010   3.138  16.563 -0.1510 -0.9044 -0.7774
  375MPD2    H5 5617   2.101   3.161  16.525  0.6686 -2.1141  0.4777
  375MPD2    N1 5618   1.673   3.296  16.871 -0.0077  0.4618 -0.3645
  375MPD2    H7 5619   1.638   3.201  16.862  0.2529  0.5880 -2.4785
  376TMC3    C1 5620   2.026   2.955  16.429 -0.0955  0.0195  0.0966
  376TMC3    C2 5621   2.152   2.928  16.478  0.4043  0.6886 -0.0201
  376TMC3    C3 5622   2.234   2.869  16.392  0.0617  0.6906 -0.2972
  376TMC3    C4 5623   1.976   2.914  16.310  0.1024  0.1050  0.5865
  376TMC3    C5 5624   2.070   2.860  16.221 -0.3621  0.6670  0.0455
  376TMC3    C6 5625   2.197   2.840  16.260 -0.0128 -0.1245 -0.6254
  376TMC3     C 5626   1.939   3.032  16.508  0.1787 -0.1581 -0.2978
  376TMC3     O 5627   1.821   3.019  16.489  0.3985  0.2970 -0.3378
  376TMC3     H 5628   2.188   2.963  16.574  0.4235 -1.6536  0.8032
  376TMC3    H1 5629   1.874   2.935  16.283  0.1228  0.6211  0.9081
  376TMC3    H2 5630   2.260   2.784  16.191 -0.1008  1.1885 -1.7752
  376TMC3    C7 5631   2.036   2.796  16.089  1.2514 -0.0224  0.9077
  376TMC3    C8 5632   2.364   2.812  16.432 -0.4684  0.4555 -0.0051
  376TMC3    O1 5633   2.121   2.786  16.005  0.2093  0.4003  0.3288
  376TMC3    O2 5634   2.459   2.822  16.351  0.5752  0.3211 -0.5302
  377MPD2     C 5635   0.147   2.469  12.372 -0.3514  0.0599  0.7955
  377MPD2    C1 5636   0.243   2.381  12.427 -0.5322  0.1123  0.0297
  377MPD2    C2 5637   0.212   2.304  12.533 -0.7318 -0.7822  0.1497
  377MPD2    C3 5638   0.082   2.313  12.587  0.0716 -0.9863 -0.4608
  377MPD2    C4 5639   4.714   2.400  12.530  0.1382  0.2359  0.1588
  377MPD2    C5 5640   0.021   2.474  12.421 -0.4800  0.0176 -0.6506
  377MPD2     H 5641   0.280   2.234  12.580  1.0167 -1.4105 -3.3245
  377MPD2    H1 5642   4.616   2.419  12.572  0.2999  0.3758  0.4761
  377MPD2    H2 5643   0.166   2.540  12.292  1.2373 -0.8269  0.3870
  377MPD2    H3 5644   4.672   2.544  12.384  0.0639  1.3976  0.8615
  377MPD2     N 5645   0.039   2.237  12.697 -0.0307  0.1803 -0.0179
  377MPD2    H5 5646   4.666   2.246  12.723  0.0995 -3.3735  1.6129
  377MPD2    N1 5647   0.363   2.368  12.348 -0.0603 -0.5537  0.3043
  377MPD2    H7 5648   0.377   2.433  12.271  0.2335 -1.3320 -0.3031
  378TMC3    C1 5649   0.634   2.434  12.086  0.1913  0.2634  0.0267
  378TMC3    C2 5650   0.528   2.371  12.148 -0.1362  0.0125 -0.4221
  378TMC3    C3 5651   0.562   2.298  12.259 -0.0832  0.6908  0.4422
  378TMC3    C4 5652   0.761   2.441  12.136  0.6240 -0.0926 -0.2234
  378TMC3    C5 5653   0.788   2.364  12.249  0.3516 -0.2308  0.2312
  378TMC3    C6 5654   0.686   2.298  12.312  0.0749  0.0534 -0.5161
  378TMC3     C 5655   0.586   2.532  11.994 -0.6214 -0.0559 -1.0294
  378TMC3     O 5656   0.485   2.588  12.041  0.1269 -0.3815 -0.2802
  378TMC3     H 5657   0.431   2.365  12.099 -0.8748  1.0034  0.9222
  378TMC3    H1 5658   0.828   2.510  12.086 -0.5904  1.5378  0.4189
  378TMC3    H2 5659   0.702   2.246  12.406  0.2378  1.0336 -0.0038
  378TMC3    C7 5660   0.920   2.334  12.313 -0.2383  0.4354  0.2176
  378TMC3    C8 5661   0.471   2.290  12.369 -0.5764 -0.4044 -0.1079
  378TMC3    O1 5662   0.910   2.306  12.433  0.6680  0.0376 -0.3493
  378TMC3    O2 5663   0.487   2.216  12.461 -0.3102 -0.3232  0.4300
  379MPD2     C 5664   1.153   0.652  16.130  0.7333  0.1493 -0.0057
  379MPD2    C1 5665   1.103   0.529  16.155  0.4209  0.6801  0.2141
  379MPD2    C2 5666   1.163   0.445  16.242 -0.9844  0.4882  0.6211
  379MPD2    C3 5667   1.280   0.474  16.303  0.7830  0.1806 -0.0556
  379MPD2    C4 5668   1.324   0.601  16.298 -0.2312 -0.2863  0.1665
  379MPD2    C5 5669   1.259   0.690  16.215  0.9600  0.5295 -0.0202
  379MPD2     H 5670   1.113   0.354  16.275 -0.9474  0.5406  0.8247
  379MPD2    H1 5671   1.413   0.634  16.350  0.5901 -0.6058 -1.0529
  379MPD2    H2 5672   1.118   0.731  16.065  0.6235 -0.6298 -0.8802
  379MPD2    H3 5673   1.302   0.790  16.214 -0.8790  1.3198  0.5291
  379MPD2     N 5674   1.357   0.388  16.390  0.3949 -0.1057 -0.6231
  379MPD2    H5 5675   1.440   0.424  16.436  0.6504 -1.0836 -0.3154
  379MPD2    N1 5676   0.985   0.490  16.087 -0.4959 -0.5486  0.7163
  379MPD2    H7 5677   0.935   0.566  16.043 -1.5572 -1.6614 -0.0009
  380TMC3    C1 5678   0.839   0.336  15.977  0.1809  0.1306  0.5624
  380TMC3    C2 5679   0.771   0.220  16.015 -0.0779 -0.5178  0.2871
  380TMC3    C3 5680   0.643   0.208  15.978  0.7432  0.5212 -0.1904
  380TMC3    C4 5681   0.780   0.437  15.910  0.1919 -0.5271  0.2538
  380TMC3    C5 5682   0.651   0.418  15.863 -0.4809 -0.3415  0.6937
  380TMC3    C6 5683   0.578   0.302  15.902  0.0790  0.9640 -0.4382
  380TMC3     C 5684   0.949   0.358  16.072  0.6915 -0.4487  0.7919
  380TMC3     O 5685   0.999   0.255  16.117 -0.3910 -0.6976  0.1623
  380TMC3     H 5686   0.816   0.137  16.067  1.1273 -0.4247 -0.6156
  380TMC3    H1 5687   0.831   0.531  15.891 -3.4867  1.1558 -1.2520
  380TMC3    H2 5688   0.480   0.283  15.861 -0.7565  2.0415  1.0608
  380TMC3    C7 5689   0.582   0.517  15.786  0.0233 -0.4299 -0.7953
  380TMC3    C8 5690   0.604   0.070  15.940 -0.1131  0.2748  0.1794
  380TMC3    O1 5691   0.631   0.632  15.793 -0.6767 -0.1580  0.1906
  380TMC3    O2 5692   0.531   0.053  15.842 -0.6812  0.0761 -0.7621
  381TMC3    C1 5693   0.952   1.308  16.342 -0.2949 -0.5351 -0.1685
  381TMC3    C2 5694   1.022   1.411  16.298  0.5245 -0.2583  0.4790
  381TMC3    C3 5695   1.018   1.523  16.373  0.1735  0.0962  0.1412
  381TMC3    C4 5696   0.874   1.314  16.455 -0.5871 -0.2262 -0.1406
  381TMC3    C5 5697   0.855   1.432  16.516  0.3082 -0.4753 -0.5586
  381TMC3    C6 5698   0.938   1.534  16.481  0.0011 -0.3209 -0.4010
  381TMC3     C 5699   0.932   1.206  16.241 -0.1414 -0.0725  0.3289
  381TMC3     O 5700   0.964   1.230  16.123 -0.3913 -0.1436 -0.0832
  381TMC3     H 5701   1.081   1.402  16.208  3.1167 -0.3881  2.1781
  381TMC3    H1 5702   0.809   1.234  16.488  0.6049 -0.4496  1.6774
  381TMC3    H2 5703   0.933   1.626  16.538 -0.2025 -2.2007  2.6597
  381TMC3    C7 5704   0.817   1.430  16.651  0.1509  0.4753 -0.2449
  381TMC3    C8 5705   1.104   1.630  16.330 -0.6740  0.9615  0.0621
  381TMC3    O1 5706   0.863   1.337  16.718 -0.5779  0.2175 -0.4723
  381TMC3    O2 5707   1.154   1.611  16.221  0.3922 -0.1774  1.1997
  382MPD2     C 5708   4.408   4.139  16.843 -0.4582  0.6375 -0.6405
  382MPD2    C1 5709   4.430   4.121  16.978 -0.4294 -0.1984 -0.0655
  382MPD2    C2 5710   4.467   3.997  17.027 -0.7418 -0.2092  0.0470
  382MPD2    C3 5711   4.479   3.884  16.941  0.6101 -0.4956  0.2410
  382MPD2    C4 5712   4.454   3.904  16.806 -0.7948  0.1151 -0.5987
  382MPD2    C5 5713   4.419   4.030  16.763  0.5971 -0.2520 -0.1873
  382MPD2     H 5714   4.472   3.987  17.135  0.4843  0.0787  0.0095
  382MPD2    H1 5715   4.447   3.828  16.729  0.3301 -1.7372  1.0894
  382MPD2    H2 5716   4.391   4.237  16.798  1.9001  1.2721 -0.1839
  382MPD2    H3 5717   4.398   4.038  16.657 -2.4191  1.2323  0.5242
  382MPD2     N 5718   4.495   3.753  16.989  0.3212  0.6901 -0.6989
  382MPD2    H5 5719   4.461   3.678  16.930 -0.6490  0.7676 -0.2497
  382MPD2    N1 5720   4.416   4.225  17.072  0.1416 -0.3433 -0.2088
  382MPD2    H7 5721   4.441   4.197  17.166 -1.5548  1.7476  0.8815
  383TMC3    C1 5722   4.547   3.582  17.127 -0.5379  0.2569 -0.4090
  383TMC3    C2 5723   4.440   3.509  17.113  0.0041 -0.4630  0.4835
  383TMC3    C3 5724   4.434   3.391  17.182  0.0656  0.0520  0.8082
  383TMC3    C4 5725   4.650   3.545  17.204 -0.0324 -0.7266  0.0266
  383TMC3    C5 5726   4.651   3.425  17.266  0.2055  1.2898  0.1891
  383TMC3    C6 5727   4.536   3.343  17.254  0.0827 -0.7147  0.3074
  383TMC3     C 5728   4.536   3.722  17.112 -0.1994 -1.0356 -0.2913
  383TMC3     O 5729   4.561   3.798  17.205  0.2204  0.2655  0.4716
  383TMC3     H 5730   4.347   3.540  17.067  0.8063 -0.9879 -1.4810
  383TMC3    H1 5731   0.010   3.609  17.221 -0.9070  1.0689 -2.3753
  383TMC3    H2 5732   4.519   3.246  17.299  2.8193 -1.6705 -0.7651
  383TMC3    C7 5733   0.039   3.360  17.327  0.4668 -0.1019 -0.3821
  383TMC3    C8 5734   4.298   3.342  17.193  0.2902  0.3067 -0.0236
  383TMC3    O1 5735   0.051   3.243  17.298 -0.4907  0.6283 -0.1721
  383TMC3    O2 5736   4.229   3.339  17.091  0.0589 -0.2633 -0.0957
  384MPD2     C 5737   1.630   0.574  12.136 -0.1405 -0.6385  0.8169
  384MPD2    C1 5738   1.627   0.525  12.263  0.7508 -0.3751  0.0007
  384MPD2    C2 5739   1.732   0.436  12.301  0.3572 -0.3997 -0.4214
  384MPD2    C3 5740   1.829   0.402  12.207  0.0935 -0.5477  0.7568
  384MPD2    C4 5741   1.839   0.463  12.086 -0.1771 -0.2488 -0.1876
  384MPD2    C5 5742   1.739   0.548  12.053  0.9344  0.0594 -0.6714
  384MPD2     H 5743   1.732   0.391  12.400 -0.7738  0.1048 -0.1859
  384MPD2    H1 5744   1.914   0.436  12.013  0.3394 -0.4979  0.4282
  384MPD2    H2 5745   1.557   0.633  12.082  1.4230 -1.3231 -2.0954
  384MPD2    H3 5746   1.753   0.595  11.956 -1.1594 -2.1615 -2.0461
  384MPD2     N 5747   1.929   0.308  12.251 -0.0989 -0.2780  0.6963
  384MPD2    H5 5748   1.917   0.254  12.336  1.3617 -0.2033  0.9577
  384MPD2    N1 5749   1.523   0.539  12.354  0.3498 -0.4745 -0.2016
  384MPD2    H7 5750   1.534   0.497  12.446 -0.2886  3.0030  1.4266
  385TMC3    C1 5751   2.073   0.118  12.244  0.4982 -0.1202  0.3813
  385TMC3    C2 5752   2.065   4.723  12.175  0.2192  0.3398  0.1951
  385TMC3    C3 5753   2.048   4.604  12.241  0.7735 -0.1688  0.0314
  385TMC3    C4 5754   2.070   0.113  12.383 -0.6011  0.1568  0.6783
  385TMC3    C5 5755   2.022   4.719  12.433  0.3065  0.3488 -0.1940
  385TMC3    C6 5756   2.012   4.597  12.367  1.0725 -0.4031 -0.4103
  385TMC3     C 5757   2.022   0.235  12.173 -0.0676 -0.2996 -0.0267
  385TMC3     O 5758   2.026   0.241  12.052  0.0812 -0.8041  0.4399
  385TMC3     H 5759   2.092   0.002  12.070  0.1803  0.8425  0.2042
  385TMC3    H1 5760   2.060   0.206  12.438 -2.8781  1.0014 -1.1914
  385TMC3    H2 5761   2.005   4.501  12.417 -0.3286  0.3362  0.8127
  385TMC3    C7 5762   1.899   0.022  12.495 -0.1410 -0.3616 -0.0098
  385TMC3    C8 5763   2.103   4.482  12.190  0.2811 -0.2688 -0.2550
  385TMC3    O1 5764   1.853   0.131  12.464 -0.0976  0.2166 -0.5779
  385TMC3    O2 5765   2.130   4.389  12.268  0.3586 -0.7730 -0.0087
  386TMC3    C1 5766   2.215   2.360  11.790 -0.5282 -0.6039  0.2299
  386TMC3    C2 5767   2.146   2.304  11.688 -0.9886 -0.6822  0.4254
  386TMC3    C3 5768   2.018   2.339  11.690  0.2286 -0.3681  0.0592
  386TMC3    C4 5769   2.164   2.443  11.889 -1.0849 -0.0306 -0.4124
  386TMC3    C5 5770   2.030   2.479  11.878  0.4027 -1.0883  0.2596
  386TMC3    C6 5771   1.959   2.429  11.776  0.1662  0.0250 -0.2810
  386TMC3     C 5772   2.351   2.325  11.823 -0.4022  0.3308  0.0263
  386TMC3     O 5773   2.426   2.404  11.881 -0.4592 -0.0393 -0.5553
  386TMC3     H 5774   2.204   2.250  11.615  1.1302  0.0986  1.5326
  386TMC3    H1 5775   2.227   2.474  11.971 -1.8046 -0.8093  0.4471
  386TMC3    H2 5776   1.853   2.455  11.775 -0.1758 -1.3793 -0.3040
  386TMC3    C7 5777   1.968   2.513  12.003  0.6497  0.4025  0.0638
  386TMC3    C8 5778   1.932   2.298  11.581 -0.7261  0.1681 -0.6400
  386TMC3    O1 5779   1.848   2.495  12.017  0.3451  0.0916  0.8580
  386TMC3    O2 5780   1.819   2.345  11.570 -0.0883 -0.1285 -0.0095
  387MPD2     C 5781   3.965   2.558  10.081 -1.3450  0.4387  0.3696
  387MPD2    C1 5782   4.100   2.530  10.063 -0.2181 -0.3796 -0.6390
  387MPD2    C2 5783   4.138   2.412  10.010  0.1228 -0.7948  0.4028
  387MPD2    C3 5784   4.047   2.324   9.965  0.1482  0.7692 -0.2957
  387MPD2    C4 5785   3.916   2.354   9.973  1.0390 -0.0968 -0.8217
  387MPD2    C5 5786   3.872   2.464  10.042  0.3737 -0.1858  0.4409
  387MPD2     H 5787   4.241   2.381  10.002 -0.1136 -1.6300  0.5382
  387MPD2    H1 5788   3.837   2.305   9.918  0.5159 -0.4126  0.2150
  387MPD2    H2 5789   3.922   2.648  10.124  2.1342  2.2609  0.0611
  387MPD2    H3 5790   3.767   2.488  10.050  0.4951  0.3667  0.3870
  387MPD2     N 5791   4.090   2.195   9.913 -0.0320  0.3990  0.2613
  387MPD2    H5 5792   4.191   2.193   9.902 -0.1125  0.4696 -0.4322
  387MPD2    N1 5793   4.203   2.605  10.124  0.0840 -0.1974 -0.1590
  387MPD2    H7 5794   4.292   2.558  10.119  0.2943  0.4215 -2.2020
  388TMC3    C1 5795   4.300   2.754  10.271  0.2011 -0.4780 -0.3400
  388TMC3    C2 5796   4.384   2.849  10.228 -0.6121  0.1758  0.3359
  388TMC3    C3 5797   4.520   2.832  10.243  0.6505 -0.0076 -0.0256
  388TMC3    C4 5798   4.350   2.641  10.338 -0.6603  0.3265 -0.3772
  388TMC3    C5 5799   4.485   2.632  10.367 -0.2554  0.6208 -1.0053
  388TMC3    C6 5800   4.570   2.727  10.323  0.0752  0.7224 -0.0465
  388TMC3     C 5801   4.184   2.724  10.194 -0.5197  0.0716  0.1035
  388TMC3     O 5802   4.108   2.821  10.165  0.1806 -0.3930 -0.2786
  388TMC3     H 5803   4.344   2.918  10.154 -0.0549 -0.5999 -0.6846
  388TMC3    H1 5804   4.276   2.575  10.380 -1.1266  1.0199 -0.1027
  388TMC3    H2 5805   4.670   2.723  10.364  0.0706 -0.1934 -0.1226
  388TMC3    C7 5806   4.538   2.507  10.406  0.0335 -0.2261  0.4289
  388TMC3    C8 5807   4.609   2.880  10.136  0.9018 -0.4187 -0.2449
  388TMC3    O1 5808   4.655   2.510  10.434 -0.5588 -0.4139 -0.0351
  388TMC3    O2 5809   4.557   2.970  10.072 -0.2874  0.0256  0.7952
  389MPD2     C 5810   3.890   1.033  11.231  0.2176 -0.6592  0.3812
  389MPD2    C1 5811   3.814   0.930  11.175 -0.6651 -0.0576 -0.0166
  389MPD2    C2 5812   3.770   0.835  11.270 -0.1031  0.0612 -0.3735
  389MPD2    C3 5813   3.824   0.837  11.398 -0.0016  0.1518 -0.1740
  389MPD2    C4 5814   3.917   0.932  11.435  0.0398 -0.6852 -0.0771
  389MPD2    C5 5815   3.944   1.036  11.352 -0.0409 -0.2723  0.0409
  389MPD2     H 5816   3.696   0.759  11.246 -0.7833 -0.1832  2.5378
  389MPD2    H1 5817   3.960   0.924  11.534  0.2345  0.6108 -0.0567
  389MPD2    H2 5818   3.917   1.112  11.160 -0.7039 -0.7989 -0.1204
  389MPD2    H3 5819   4.012   1.115  11.381  0.7161 -0.4956 -1.1518
  389MPD2     N 5820   3.794   0.738  11.495  0.4121  0.2476  0.2692
  389MPD2    H5 5821   3.846   0.724  11.582 -1.2600 -1.6493  0.9631
  389MPD2    N1 5822   3.775   0.949  11.040  0.7298 -0.1231  0.5564
  389MPD2    H7 5823   3.807   1.032  10.991  0.5205  0.4060  1.3116
  390TMC3    C1 5824   3.678   0.566  11.609 -0.1786  0.0062 -0.5355
  390TMC3    C2 5825   3.575   0.474  11.605  0.5781  0.2507  0.1436
  390TMC3    C3 5826   3.511   0.449  11.724 -0.3329  0.1237  0.4911
  390TMC3    C4 5827   3.724   0.628  11.722 -0.1707 -0.7904 -0.4925
  390TMC3    C5 5828   3.651   0.601  11.833  0.0982 -0.4215  0.6876
  390TMC3    C6 5829   3.544   0.516  11.837  0.6504  0.2925 -0.4027
  390TMC3     C 5830   3.714   0.628  11.478  0.2710 -0.0635  0.0173
  390TMC3     O 5831   3.643   0.599  11.383 -0.1685 -0.0118 -0.0137
  390TMC3     H 5832   3.542   0.428  11.513  0.6041  0.7196 -0.0996
  390TMC3    H1 5833   3.812   0.691  11.727 -1.4223  0.8083  1.3264
  390TMC3    H2 5834   3.493   0.504  11.932 -0.3800 -1.7590 -1.2184
  390TMC3    C7 5835   3.671   0.693  11.944 -0.8289 -0.5726 -0.1680
  390TMC3    C8 5836   3.444   0.317  11.730  0.0460 -0.2437 -0.2639
  390TMC3    O1 5837   3.770   0.763  11.949  0.1576 -0.1390  0.1577
  390TMC3    O2 5838   3.491   0.238  11.648 -0.3868  0.4115  0.2672
  391MPD2     C 5839   2.666   2.059  11.254  0.0931 -0.4665 -0.0602
  391MPD2    C1 5840   2.696   2.193  11.247 -0.0200 -0.5442 -0.1656
  391MPD2    C2 5841   2.662   2.264  11.130  0.4515 -0.0030 -1.1748
  391MPD2    C3 5842   2.619   2.200  11.012 -1.1363  0.6617 -0.4438
  391MPD2    C4 5843   2.598   2.063  11.013 -0.1027  0.9490 -0.2611
  391MPD2    C5 5844   2.608   2.002  11.143  0.2591 -0.0232  0.2812
  391MPD2     H 5845   2.676   2.372  11.130 -1.7247  0.2791 -1.1999
  391MPD2    H1 5846   2.589   1.993  10.930  0.1643  2.5305 -1.6224
  391MPD2    H2 5847   2.667   2.000  11.345 -3.1012  0.2515  0.4228
  391MPD2    H3 5848   2.593   1.895  11.142  0.6741 -0.0611 -2.6237
  391MPD2     N 5849   2.620   2.284  10.898  0.0655  0.2808 -0.3576
  391MPD2    H5 5850   2.643   2.382  10.912  0.0305  0.0535  1.3073
  391MPD2    N1 5851   2.759   2.255  11.353  0.1359 -0.9628 -0.6738
  391MPD2    H7 5852   2.762   2.188  11.429 -0.1015  0.7953  0.9039
  392TMC3    C1 5853   2.584   2.371  10.688  0.1842  0.2464 -0.4621
  392TMC3    C2 5854   2.536   2.352  10.562 -0.3570 -0.0136  0.0485
  392TMC3    C3 5855   2.568   2.441  10.463  0.3522  0.1741 -0.5156
  392TMC3    C4 5856   2.659   2.483  10.714  0.6729 -0.1506 -0.1091
  392TMC3    C5 5857   2.688   2.568  10.609 -0.7440  0.2977 -0.1898
  392TMC3    C6 5858   2.646   2.549  10.480  0.0068 -0.1552 -0.3420
  392TMC3     C 5859   2.584   2.254  10.773  0.9330 -0.1264  0.6202
  392TMC3     O 5860   2.534   2.153  10.718  0.3402 -0.0735  0.0302
  392TMC3     H 5861   2.474   2.265  10.545  1.8983 -1.3500 -1.3583
  392TMC3    H1 5862   2.694   2.513  10.813 -1.3193  1.5652  0.0650
  392TMC3    H2 5863   2.673   2.613  10.396  1.3918 -1.3190 -0.7886
  392TMC3    C7 5864   2.767   2.681  10.632  0.0504  0.1246  0.7886
  392TMC3    C8 5865   2.465   2.438  10.357 -0.7062 -0.0105  0.1035
  392TMC3    O1 5866   2.856   2.670  10.710  0.6576  0.7004  0.4533
  392TMC3    O2 5867   2.350   2.417  10.396 -0.3546 -0.2415 -0.2968
  393TMC3    C1 5868   1.517   4.603  11.085 -0.7992  0.4742  0.3276
  393TMC3    C2 5869   1.406   4.644  11.157 -0.3253  0.6485  0.3889
  393TMC3    C3 5870   1.426   4.696  11.282 -0.0337  0.1081 -1.3328
  393TMC3    C4 5871   1.634   4.589  11.149  0.0348 -0.4428  0.6695
  393TMC3    C5 5872   1.645   4.619  11.280 -1.1577 -0.1698 -0.6941
  393TMC3    C6 5873   1.544   4.685  11.346  0.0297  0.3414 -0.2128
  393TMC3     C 5874   1.520   4.657  10.952 -0.1586  0.3375 -0.2029
  393TMC3     O 5875   1.419   4.651  10.885  0.0356  0.1730  0.1267
  393TMC3     H 5876   1.310   4.662  11.110 -0.3596 -0.3469  0.0886
  393TMC3    H1 5877   1.717   4.547  11.093  1.4300  0.3679  2.1499
  393TMC3    H2 5878   1.554   0.007  11.443  1.4537 -0.6741  0.1227
  393TMC3    C7 5879   1.762   4.575  11.358  0.4437 -0.6589  0.0858
  393TMC3    C8 5880   1.313   0.006  11.358  0.0748  0.1249 -0.0673
  393TMC3    O1 5881   1.740   4.574  11.479  0.1799 -0.3723 -0.1729
  393TMC3    O2 5882   1.204   4.696  11.320  0.0496  0.2177  0.0743
  394TMC3    C1 5883   3.702   0.878  10.831  0.5122 -0.8457 -0.9646
  394TMC3    C2 5884   3.629   0.786  10.754  0.6330 -0.2426  0.6552
  394TMC3    C3 5885   3.605   0.825  10.626 -0.3645  0.4805 -0.5137
  394TMC3    C4 5886   3.748   0.995  10.775 -0.0208  0.0585 -0.1874
  394TMC3    C5 5887   3.730   1.026  10.649 -0.7425 -0.5801 -0.5526
  394TMC3    C6 5888   3.664   0.937  10.566  0.2770  0.8505  1.2856
  394TMC3     C 5889   3.713   0.854  10.974 -1.0276  0.6452 -0.6715
  394TMC3     O 5890   3.688   0.739  11.004 -0.2265  0.1235 -0.0886
  394TMC3     H 5891   3.575   0.703  10.798  0.3800 -0.3006  0.2332
  394TMC3    H1 5892   3.799   1.071  10.833 -0.9787  1.2151 -0.8705
  394TMC3    H2 5893   3.641   0.967  10.465 -0.2858 -0.5737  0.9879
  394TMC3    C7 5894   3.781   1.153  10.595 -0.2325 -0.0712 -0.1439
  394TMC3    C8 5895   3.521   0.741  10.550  0.1120  0.3838 -0.4673
  394TMC3    O1 5896   3.718   1.184  10.492 -0.2477  0.6626 -0.2108
  394TMC3    O2 5897   3.490   0.631  10.594 -0.5440 -0.7822  0.0209
  395TMC3    C1 5898   2.809   2.991  14.271 -0.0838 -0.1706 -0.4292
  395TMC3    C2 5899   2.681   2.970  14.325 -0.1473 -0.3538  0.3738
  395TMC3    C3 5900   2.650   3.012  14.451 -0.1459  0.1854 -0.5333
  395TMC3    C4 5901   2.899   3.059  14.347 -0.3864 -0.0546  0.8948
  395TMC3    C5 5902   2.864   3.104  14.467  0.7617  0.4216  0.6554
  395TMC3    C6 5903   2.745   3.074  14.524 -0.0130 -0.5739 -0.0313
  395TMC3     C 5904   2.870   2.871  14.226 -0.0682 -0.9109 -0.1946
  395TMC3     O 5905   2.830   2.775  14.291  0.6420 -0.2922  0.4809
  395TMC3     H 5906   2.614   2.904  14.271  1.9670 -1.0428 -1.4428
  395TMC3    H1 5907   2.994   3.093  14.308 -0.6062  0.6068  0.9305
  395TMC3    H2 5908   2.733   3.113  14.625  0.4262  1.9404 -0.9443
  395TMC3    C7 5909   2.966   3.126  14.566 -0.7252 -0.1801 -0.1137
  395TMC3    C8 5910   2.571   2.927  14.530  0.1119 -0.1455 -0.1351
  395TMC3    O1 5911   2.946   3.200  14.663  0.6025  0.3930 -0.4492
  395TMC3    O2 5912   2.499   2.967  14.620 -0.3853  0.2307  0.1063
  396MPD2     C 5913   3.591   3.374  17.456 -0.4456  0.7488 -0.6016
  396MPD2    C1 5914   3.464   3.430  17.478 -0.5597  0.8574 -0.2889
  396MPD2    C2 5915   3.438   3.559  17.434  0.0247  0.2700 -1.1114
  396MPD2    C3 5916   3.535   3.627  17.368  0.1972 -0.9401  0.9101
  396MPD2    C4 5917   3.666   3.580  17.368 -0.3437  0.1387 -0.2835
  396MPD2    C5 5918   3.694   3.452  17.415  0.6513  0.4276  0.3031
  396MPD2     H 5919   3.334   3.588  17.441  0.0657 -0.0317  0.8804
  396MPD2    H1 5920   3.747   3.640  17.329  1.3524 -1.1512  1.2434
  396MPD2    H2 5921   3.612   3.271  17.485 -0.7088  1.1531  0.9843
  396MPD2    H3 5922   3.799   3.426  17.421  0.7245  0.7054  0.2258
  396MPD2     N 5923   3.507   3.758  17.315  0.0537  0.3216  0.1028
  396MPD2    H5 5924   3.589   3.803  17.277  1.1331 -1.7880 -0.0317
  396MPD2    N1 5925   3.368   3.337  17.527  0.6080  0.0214  0.3056
  396MPD2    H7 5926   3.397   3.243  17.550 -1.2768 -0.8831 -1.0106
  397TMC3    C1 5927   3.152   3.250  17.564 -0.0638  0.0266  0.0075
  397TMC3    C2 5928   3.130   3.195  17.441  0.2292  0.1588 -0.6665
  397TMC3    C3 5929   3.002   3.175  17.407  0.3451  0.4374 -0.2802
  397TMC3    C4 5930   3.054   3.273  17.652 -0.1386 -0.2552  0.3424
  397TMC3    C5 5931   2.926   3.237  17.615 -0.3247  0.0561  0.0238
  397TMC3    C6 5932   2.897   3.189  17.490 -0.6656  0.9112  0.6888
  397TMC3     C 5933   3.239   3.370  17.547 -0.5573 -0.0446  0.4477
  397TMC3     O 5934   3.191   3.483  17.575 -0.4325 -0.3825  0.1752
  397TMC3     H 5935   3.206   3.226  17.370  0.8325 -0.2872 -0.2229
  397TMC3    H1 5936   3.074   3.319   0.046  1.4706 -1.1678  0.4449
  397TMC3    H2 5937   2.792   3.169  17.468  0.1433 -0.2107 -2.0962
  397TMC3    C7 5938   2.813   3.234   0.002 -0.5290 -0.2381  0.1331
  397TMC3    C8 5939   2.971   3.178  17.267 -0.6415  0.0710  0.2143
  397TMC3    O1 5940   2.696   3.241  17.659  0.2782  0.0772 -0.6387
  397TMC3    O2 5941   3.031   3.251  17.187  0.0703 -0.2707 -0.6033
  398MPD2     C 5942   0.727   4.181   0.274 -0.8981  0.8032 -0.2062
  398MPD2    C1 5943   0.857   4.145   0.233 -0.4019  0.0439  0.3979
  398MPD2    C2 5944   0.963   4.225   0.268 -0.7188 -0.6270 -0.4723
  398MPD2    C3 5945   0.939   4.347   0.330  0.0007  0.3931  0.6245
  398MPD2    C4 5946   0.809   4.367   0.379 -0.5131  0.5498  0.5633
  398MPD2    C5 5947   0.711   4.290   0.350  0.3141  0.4257  0.8619
  398MPD2     H 5948   1.064   4.192   0.243 -0.2501  0.7149 -0.3106
  398MPD2    H1 5949   0.779   4.452   0.441 -0.1556  1.3841 -0.4143
  398MPD2    H2 5950   0.637   4.121   0.269  0.4666 -1.3497  0.8173
  398MPD2    H3 5951   0.609   4.320   0.372 -0.0635 -1.2569  1.4380
  398MPD2     N 5952   1.048   4.438   0.337  0.2656 -0.2073 -0.1182
  398MPD2    H5 5953   1.134   4.413   0.288 -0.0739 -0.9889 -0.3216
  398MPD2    N1 5954   0.886   4.020   0.170 -0.3252 -0.9782 -0.1546
  398MPD2    H7 5955   0.977   3.992   0.134 -1.0879  0.5178 -3.3065
  399TMC3    C1 5956   0.852   3.787   0.133 -0.4456  0.3114 -0.7389
  399TMC3    C2 5957   0.985   3.769   0.105  0.4620  0.9526  0.7520
  399TMC3    C3 5958   1.027   3.640   0.081  0.0942  0.2972 -0.1543
  399TMC3    C4 5959   0.772   3.685   0.151  1.0630 -0.2188 -0.2718
  399TMC3    C5 5960   0.818   3.560   0.136 -0.0252  0.6680 -0.3175
  399TMC3    C6 5961   0.941   3.536   0.089  0.4475  0.1912 -0.1144
  399TMC3     C 5962   0.790   3.918   0.168  0.4049 -0.1755 -0.2908
  399TMC3     O 5963   0.675   3.913   0.211  0.2335 -0.8311  0.2120
  399TMC3     H 5964   1.063   3.844   0.109  0.6944  0.7324  0.2942
  399TMC3    H1 5965   0.671   3.690   0.189  0.4858  2.2938 -2.1374
  399TMC3    H2 5966   0.985   3.437   0.083 -2.6572 -1.0723 -1.8425
  399TMC3    C7 5967   0.736   3.445   0.179 -0.0416 -0.3664  0.5628
  399TMC3    C8 5968   1.169   3.609   0.054  0.6000 -0.3231 -0.0452
  399TMC3    O1 5969   0.648   3.473   0.255 -0.0166 -1.0546 -0.4516
  399TMC3    O2 5970   1.198   3.497   0.004  0.5644 -0.0639  0.2288
  400TMC3    C1 5971   4.022   3.007  17.022 -0.0428 -0.0743  0.6838
  400TMC3    C2 5972   3.918   2.922  16.998 -0.2751 -0.7341 -0.6709
  400TMC3    C3 5973   3.846   2.945  16.882 -0.8051 -0.0965  0.7458
  400TMC3    C4 5974   4.061   3.109  16.937 -0.3448  0.2345  0.3373
  400TMC3    C5 5975   3.976   3.137  16.831  0.2043  0.7003  0.6914
  400TMC3    C6 5976   3.873   3.052  16.798  0.1184  0.5552  0.7034
  400TMC3     C 5977   4.134   2.948  17.100  0.4867  0.2739  0.3629
  400TMC3     O 5978   4.116   2.884  17.204 -0.0895 -0.7571 -0.2257
  400TMC3     H 5979   3.902   2.831  17.054  0.6116 -0.1324  0.5614
  400TMC3    H1 5980   4.145   3.175  16.960  0.3789 -1.2799  1.9955
  400TMC3    H2 5981   3.807   3.076  16.715  1.2065 -2.9460 -1.1889
  400TMC3    C7 5982   3.981   3.274  16.776  0.1744 -0.0008  1.0053
  400TMC3    C8 5983   3.728   2.861  16.859  0.3385  0.3095  0.3039
  400TMC3    O1 5984   3.903   3.294  16.683  0.1882  0.4908  0.2247
  400TMC3    O2 5985   3.683   2.854  16.748 -0.5388 -0.1493 -0.5035
  401MPD2     C 5986   3.541   2.122   1.890 -0.0369 -0.3111 -0.5309
  401MPD2    C1 5987   3.678   2.123   1.889  0.1708  0.7487  0.0760
  401MPD2    C2 5988   3.753   2.002   1.888 -0.5019  0.0703  0.0295
  401MPD2    C3 5989   3.685   1.886   1.879 -0.2770  0.0373 -0.2692
  401MPD2    C4 5990   3.546   1.884   1.891 -0.0499 -0.3803 -0.1637
  401MPD2    C5 5991   3.478   2.000   1.893  0.2716  0.5972  0.0575
  401MPD2     H 5992   3.860   2.010   1.899 -0.5205 -1.7949  1.4178
  401MPD2    H1 5993   3.489   1.792   1.883 -1.1259  0.4296 -1.7959
  401MPD2    H2 5994   3.472   2.204   1.872 -0.7706 -1.1209 -1.3446
  401MPD2    H3 5995   3.369   1.996   1.890  0.3646 -2.0267  0.0767
  401MPD2     N 5996   3.762   1.770   1.856  0.1083 -0.2126 -0.0970
  401MPD2    H5 5997   3.861   1.777   1.834  1.2583 -1.2993  4.9174
  401MPD2    N1 5998   3.750   2.241   1.884  0.4090  0.6184 -0.2555
  401MPD2    H7 5999   3.847   2.212   1.887  0.0875 -0.5980 -1.9731
  402TMC3    C1 6000   3.815   1.569   1.766  0.5452 -0.2786 -0.5471
  402TMC3    C2 6001   3.775   1.435   1.747 -0.2974  0.4291  0.2788
  402TMC3    C3 6002   3.827   1.369   1.638 -0.2177 -0.0147  0.3030
  402TMC3    C4 6003   3.892   1.633   1.671 -0.7183  0.2131  0.1979
  402TMC3    C5 6004   3.945   1.558   1.569  0.4945  0.1937 -0.5213
  402TMC3    C6 6005   3.908   1.429   1.541 -0.0090  0.6278 -0.1223
  402TMC3     C 6006   3.715   1.641   1.843  0.2931 -0.7363  0.2046
  402TMC3     O 6007   3.604   1.595   1.854 -0.5280 -0.6516 -0.4820
  402TMC3     H 6008   3.704   1.388   1.813  1.6477  1.3628  3.0037
  402TMC3    H1 6009   3.929   1.734   1.684  0.8440 -0.6084  2.0548
  402TMC3    H2 6010   3.934   1.371   1.454 -0.5805 -1.4696  1.1130
  402TMC3    C7 6011   4.019   1.639   1.482  0.0877 -0.4604 -0.0953
  402TMC3    C8 6012   3.793   1.232   1.612 -0.5427  0.4837 -0.5246
  402TMC3    O1 6013   4.058   1.746   1.521  0.3734 -0.0346  0.5130
  402TMC3    O2 6014   3.806   1.193   1.498 -0.0461  0.7522 -0.2908
  403MPD2     C 6015   1.184   0.336  13.188  0.2150  0.5457  0.5792
  403MPD2    C1 6016   1.133   0.247  13.277  0.2739  0.0404  0.5025
  403MPD2    C2 6017   1.178   0.248  13.407  0.5790  0.8041  0.2771
  403MPD2    C3 6018   1.268   0.349  13.448  0.5310  0.1219  0.2633
  403MPD2    C4 6019   1.304   0.446  13.360  1.1590 -0.2642  0.5632
  403MPD2    C5 6020   1.265   0.433  13.230 -0.7692  0.2266 -0.1147
  403MPD2     H 6021   1.149   0.167  13.473  1.2320  0.0054 -0.4112
  403MPD2    H1 6022   1.375   0.526  13.380  1.4093 -0.5891  0.9714
  403MPD2    H2 6023   1.186   0.315  13.082  0.2785  1.1816  0.4541
  403MPD2    H3 6024   1.315   0.492  13.155  0.1166 -2.0008 -1.2871
  403MPD2     N 6025   1.310   0.349  13.583 -0.1688  0.1780 -0.3598
  403MPD2    H5 6026   1.297   0.267  13.642  0.1603 -0.7209 -1.5246
  403MPD2    N1 6027   1.052   0.147  13.225 -0.7367 -0.7396 -0.4757
  403MPD2    H7 6028   1.069   0.118  13.130 -2.5648 -3.1876 -0.0548
  404TMC3    C1 6029   0.883   4.713  13.210  0.4507 -0.0359 -0.2340
  404TMC3    C2 6030   0.823   4.603  13.276  0.5854  0.5953 -0.0408
  404TMC3    C3 6031   0.732   4.539  13.197 -0.0358  0.2857 -0.3878
  404TMC3    C4 6032   0.861   0.029  13.085 -0.0587 -0.1356  0.8900
  404TMC3    C5 6033   0.767   4.685  13.015  0.3417 -0.7291 -0.6374
  404TMC3    C6 6034   0.698   4.576  13.071  0.0311 -0.0143  0.4079
  404TMC3     C 6035   0.952   0.079  13.295  1.0171 -0.3899 -0.2746
  404TMC3     O 6036   0.916   0.086  13.412  0.0191  0.2773 -0.0664
  404TMC3     H 6037   0.863   4.570  13.371  2.2262  0.5368 -0.7483
  404TMC3    H1 6038   0.902   0.122  13.048  1.5023 -0.9962  0.4340
  404TMC3    H2 6039   0.614   4.533  13.017 -1.0473  1.1512  1.1577
  404TMC3    C7 6040   0.770   4.715  12.871  0.1616 -0.3084 -0.0314
  404TMC3    C8 6041   0.692   4.405  13.240 -0.3365  0.5167  0.1488
  404TMC3    O1 6042   0.855   0.075  12.841  0.1377 -0.0907 -0.0652
  404TMC3    O2 6043   0.677   4.322  13.153 -0.0171 -0.5072  0.7363
  405MPD2     C 6044   1.022   0.441  15.170  0.8248  0.0914  0.8557
  405MPD2    C1 6045   1.023   0.409  15.042 -0.3315  0.0337 -0.1977
  405MPD2    C2 6046   1.013   0.513  14.952  0.0347  0.2325  0.6759
  405MPD2    C3 6047   0.967   0.643  14.978  0.1193 -0.3964 -0.1218
  405MPD2    C4 6048   0.965   0.673  15.112 -0.9670 -0.1196  0.2593
  405MPD2    C5 6049   0.982   0.569  15.204 -0.0407  0.5668 -0.7993
  405MPD2     H 6050   1.032   0.481  14.850 -0.2530  1.4891  0.2269
  405MPD2    H1 6051   0.947   0.775  15.143 -0.6211 -0.7773  2.6134
  405MPD2    H2 6052   1.023   0.362  15.243 -0.6717 -0.9790 -0.2971
  405MPD2    H3 6053   0.976   0.590  15.310 -1.8969  0.4113 -0.8721
  405MPD2     N 6054   0.962   0.739  14.873  0.1195  0.5750 -0.4232
  405MPD2    H5 6055   1.003   0.715  14.784 -0.7869  2.0797 -1.2393
  405MPD2    N1 6056   1.052   0.278  14.992  0.0039  0.6555 -0.7807
  405MPD2    H7 6057   1.057   0.274  14.891 -3.4106 -0.0186 -0.9022
  406TMC3    C1 6058   0.767   0.907  14.584 -0.8364 -0.3232  0.1547
  406TMC3    C2 6059   0.866   0.881  14.492  0.1107 -0.6255  0.0101
  406TMC3    C3 6060   0.992   0.880  14.548 -0.0552 -0.1292 -0.3144
  406TMC3    C4 6061   0.781   0.942  14.722 -0.4164  0.6191 -0.1750
  406TMC3    C5 6062   0.911   0.946  14.765 -0.0657 -0.2012  0.1516
  406TMC3    C6 6063   1.015   0.909  14.680  0.3555  0.3662 -0.0534
  406TMC3     C 6064   0.638   0.946  14.537  0.0068  0.0777 -0.4310
  406TMC3     O 6065   0.580   1.035  14.594 -0.2575  0.4258  0.8632
  406TMC3     H 6066   0.845   0.848  14.391 -1.2794 -2.9815  1.0598
  406TMC3    H1 6067   0.697   0.958  14.788  1.2749 -1.0580  2.3886
  406TMC3    H2 6068   1.116   0.897  14.719  0.0776 -1.3928  0.1217
  406TMC3    C7 6069   0.917   0.870  14.890  0.5801 -0.2265  0.2223
  406TMC3    C8 6070   1.092   0.804  14.485 -0.7650 -1.1838  0.5277
  406TMC3    O1 6071   0.846   0.906  14.984 -0.5527 -0.1345 -0.4934
  406TMC3    O2 6072   1.196   0.863  14.459  0.1505 -0.0018 -0.2575
  407MPD2     C 6073   3.680   2.675   9.727  0.1368 -0.5726 -0.3064
  407MPD2    C1 6074   3.777   2.715   9.816  0.1295 -0.4083 -1.4161
  407MPD2    C2 6075   3.749   2.771   9.941  0.3563  0.1141 -0.7809
  407MPD2    C3 6076   3.618   2.794   9.977 -0.3280 -0.4485  0.4747
  407MPD2    C4 6077   3.520   2.770   9.889  0.6054 -0.7529  0.3238
  407MPD2    C5 6078   3.547   2.695   9.772 -0.7515 -0.6059  0.1884
  407MPD2     H 6079   3.832   2.804  10.003  0.3400 -1.0424 -0.1363
  407MPD2    H1 6080   3.414   2.770   9.910  0.3622  1.3086 -0.9267
  407MPD2    H2 6081   3.702   2.635   9.629  0.1436  1.3077 -1.0829
  407MPD2    H3 6082   3.461   2.662   9.716 -0.6849 -0.4681  0.0079
  407MPD2     N 6083   3.586   2.849  10.101  0.1780 -0.0204 -0.3548
  407MPD2    H5 6084   3.491   2.867  10.131  0.3989 -0.0404  0.3391
  407MPD2    N1 6085   3.915   2.702   9.778 -0.2336  0.1258  0.1092
  407MPD2    H7 6086   3.975   2.765   9.831 -0.7017 -0.1029  0.9165
  408TMC3    C1 6087   4.117   2.628   9.709 -0.1996 -0.4938  0.4345
  408TMC3    C2 6088   4.187   2.511   9.699  0.2919  0.0090 -0.3194
  408TMC3    C3 6089   4.322   2.519   9.725  0.4338  0.6967  0.6662
  408TMC3    C4 6090   4.169   2.751   9.736 -0.9185 -0.3922  0.3024
  408TMC3    C5 6091   4.308   2.755   9.747  0.0395  0.5855 -0.2126
  408TMC3    C6 6092   4.384   2.644   9.746  0.0055  0.3852  1.0347
  408TMC3     C 6093   3.975   2.624   9.690  0.5144 -0.0699  0.0501
  408TMC3     O 6094   3.929   2.539   9.615  0.1312  0.2571  0.3353
  408TMC3     H 6095   4.130   2.421   9.681 -1.3066  0.4823  2.2585
  408TMC3    H1 6096   4.112   2.843   9.727 -1.5771 -0.8093  0.1881
  408TMC3    H2 6097   4.489   2.646   9.775  0.8965  0.8981 -2.1351
  408TMC3    C7 6098   4.375   2.884   9.780 -0.2774  0.0580 -0.1334
  408TMC3    C8 6099   4.399   2.394   9.756 -0.3337 -0.5847 -0.3766
  408TMC3    O1 6100   4.498   2.880   9.757  0.1115  0.3005  0.6176
  408TMC3    O2 6101   4.333   2.296   9.783 -0.5749  0.1698 -0.1263
  409MPD2     C 6102   2.987   2.662  17.312  0.4800  0.5514  0.3014
  409MPD2    C1 6103   3.107   2.684  17.384  0.8142 -0.5732 -0.1166
  409MPD2    C2 6104   3.192   2.788  17.344  0.0584  0.5413  0.0154
  409MPD2    C3 6105   3.167   2.864  17.232 -0.0011 -0.4978  0.7027
  409MPD2    C4 6106   3.051   2.838  17.163 -0.1618  0.0020  0.0477
  409MPD2    C5 6107   2.966   2.739  17.200 -0.6351 -0.4806  0.8903
  409MPD2     H 6108   3.284   2.806  17.398 -1.2857 -1.2618  2.8394
  409MPD2    H1 6109   3.025   2.893  17.074 -0.8628  0.5655  0.5994
  409MPD2    H2 6110   2.919   2.581  17.336  0.3682  1.0103  1.5105
  409MPD2    H3 6111   2.874   2.724  17.145  0.0054 -3.2678  0.5813
  409MPD2     N 6112   3.257   2.962  17.179 -0.1430  0.2058  0.1926
  409MPD2    H5 6113   3.234   3.002  17.088  2.6764  1.1482 -0.0911
  409MPD2    N1 6114   3.147   2.611  17.491  0.5858  0.3530 -0.6359
  409MPD2    H7 6115   3.229   2.644  17.540 -0.0637 -0.0479  0.7383
  410TMC3    C1 6116   3.462   3.071  17.136  0.0999  0.7832 -0.0249
  410TMC3    C2 6117   3.565   3.148  17.186  0.1353  0.1256 -0.2626
  410TMC3    C3 6118   3.648   3.203  17.097  0.4937  0.2108 -0.3601
  410TMC3    C4 6119   3.447   3.043  17.002  0.1685  0.1048 -0.3476
  410TMC3    C5 6120   3.526   3.112  16.913 -0.0992 -0.9984 -0.2411
  410TMC3    C6 6121   3.630   3.193  16.954  0.3171 -0.4070 -1.4087
  410TMC3     C 6122   3.372   3.005  17.231  0.1642 -0.4189  0.7571
  410TMC3     O 6123   3.421   2.989  17.340 -0.3751  0.0598  0.0232
  410TMC3     H 6124   3.565   3.176  17.291  1.5994 -0.6654 -0.0554
  410TMC3    H1 6125   3.379   2.968  16.962 -1.8680  2.1509 -0.6747
  410TMC3    H2 6126   3.693   3.250  16.887 -1.1265  0.9048 -1.6561
  410TMC3    C7 6127   3.482   3.116  16.767  0.3159  0.2424 -0.2199
  410TMC3    C8 6128   3.772   3.249  17.151  0.4562 -0.5127 -0.4054
  410TMC3    O1 6129   3.389   3.046  16.736 -0.2387  0.3332  0.4874
  410TMC3    O2 6130   3.840   3.318  17.071  0.4170  0.0122  0.8669
  411MPD2     C 6131   3.746   3.575  14.852 -0.1809  0.2268 -0.0229
  411MPD2    C1 6132   3.671   3.646  14.767  0.1691  0.1363 -0.0266
  411MPD2    C2 6133   3.593   3.572  14.678 -0.8341  0.4751 -0.5457
  411MPD2    C3 6134   3.602   3.432  14.671  0.4382  0.4837  0.7470
  411MPD2    C4 6135   3.690   3.361  14.749  0.6044 -0.5189  0.4137
  411MPD2    C5 6136   3.763   3.437  14.844 -0.3352 -0.0100 -0.0966
  411MPD2     H 6137   3.532   3.635  14.615 -2.4757  0.2061  0.7655
  411MPD2    H1 6138   3.687   3.253  14.757  1.0890 -0.6490 -1.1422
  411MPD2    H2 6139   3.803   3.623  14.931 -0.3713  0.5871 -0.1058
  411MPD2    H3 6140   3.831   3.392  14.915 -1.4680 -0.2712  0.8266
  411MPD2     N 6141   3.520   3.358  14.582  0.3949  0.0918 -0.1233
  411MPD2    H5 6142   3.539   3.260  14.568  1.6667  0.0964  1.5568
  411MPD2    N1 6143   3.683   3.784  14.776  0.0672  0.0008  0.3344
  411MPD2    H7 6144   3.733   3.815  14.858 -1.5593 -2.1907  2.1432
  412TMC3    C1 6145   3.351   3.300  14.429  0.0401  0.0547 -0.3530
  412TMC3    C2 6146   3.238   3.335  14.362 -0.8550  0.6034  1.0052
  412TMC3    C3 6147   3.179   3.253  14.271  0.2912  0.0042  0.5570
  412TMC3    C4 6148   3.432   3.201  14.376  0.1862  0.3515  0.3949
  412TMC3    C5 6149   3.379   3.125  14.277  0.3911  0.4755 -1.0864
  412TMC3    C6 6150   3.249   3.148  14.228  0.2276  0.1013 -0.2009
  412TMC3     C 6151   3.414   3.407  14.513  0.1890 -0.0322 -0.0809
  412TMC3     O 6152   3.362   3.519  14.516 -0.3912  0.0616 -0.1480
  412TMC3     H 6153   3.190   3.422  14.406 -3.8042 -1.5552  2.0199
  412TMC3    H1 6154   3.535   3.178  14.402 -0.2494 -1.9828  0.0569
  412TMC3    H2 6155   3.212   3.088  14.145  1.0894  0.0375 -0.5362
  412TMC3    C7 6156   3.465   3.125  14.165 -0.1284 -0.2197  0.3658
  412TMC3    C8 6157   3.115   3.332  14.172 -0.6608  0.5213 -0.6076
  412TMC3    O1 6158   3.462   3.224  14.098 -0.5787  0.7774 -0.1987
  412TMC3    O2 6159   2.990   3.346  14.173 -0.7827 -0.0418  0.4992
  413MPD2     C 6160   1.228   1.082  15.958  0.6094  0.0251  0.1808
  413MPD2    C1 6161   1.185   1.134  15.839  0.5465  0.3554 -0.1466
  413MPD2    C2 6162   1.198   1.048  15.723 -0.3850 -0.0797 -0.1114
  413MPD2    C3 6163   1.283   0.937  15.725  0.7653  0.3597  0.0924
  413MPD2    C4 6164   1.344   0.903  15.848  0.2602 -0.4252  0.1357
  413MPD2    C5 6165   1.309   0.969  15.963  0.0149 -0.4534 -0.6357
  413MPD2     H 6166   1.135   1.070  15.638 -0.2874  0.7779  0.0364
  413MPD2    H1 6167   1.397   0.811  15.868  0.3174 -0.6429 -1.0090
  413MPD2    H2 6168   1.204   1.128  16.054 -0.4780  0.0249 -0.0940
  413MPD2    H3 6169   1.357   0.929  16.052 -0.6120  2.2501  0.8885
  413MPD2     N 6170   1.276   0.861  15.610 -0.1472  0.1859 -0.4367
  413MPD2    H5 6171   1.231   0.892  15.524  0.3195 -0.4007 -0.8916
  413MPD2    N1 6172   1.101   1.247  15.846  0.5089 -0.5817  0.1871
  413MPD2    H7 6173   1.068   1.262  15.940 -0.1185 -2.4959  0.2772
  414TMC3    C1 6174   1.325   0.681  15.459 -0.0529 -0.3427 -0.3596
  414TMC3    C2 6175   1.355   0.544  15.446  0.5740 -0.0240  0.4733
  414TMC3    C3 6176   1.358   0.487  15.324  0.0710  0.1200 -0.7398
  414TMC3    C4 6177   1.269   0.746  15.349 -0.0114 -0.2867  0.3323
  414TMC3    C5 6178   1.281   0.688  15.222  0.3591  0.1119  0.0396
  414TMC3    C6 6179   1.334   0.563  15.212  0.0105 -0.2982 -0.2473
  414TMC3     C 6180   1.343   0.745  15.594  0.3581  0.1973 -0.3432
  414TMC3     O 6181   1.382   0.662  15.676  0.3809 -0.5649 -0.1522
  414TMC3     H 6182   1.361   0.481  15.534  0.7669 -1.1642 -0.3642
  414TMC3    H1 6183   1.238   0.849  15.350 -1.0653 -0.5686 -2.1780
  414TMC3    H2 6184   1.330   0.512  15.116 -3.0997  0.8369 -0.7071
  414TMC3    C7 6185   1.312   0.787  15.118 -0.0918 -0.1894  0.1958
  414TMC3    C8 6186   1.350   0.340  15.317 -0.2917 -0.5473 -0.6211
  414TMC3    O1 6187   1.278   0.905  15.145 -0.0518 -0.5210 -0.0084
  414TMC3    O2 6188   1.310   0.278  15.217 -0.0538  0.5590 -0.8583
  415TMC3    C1 6189   1.501   0.280  10.112 -0.3361 -0.1432  0.8879
  415TMC3    C2 6190   1.629   0.234  10.139  0.0176  0.2253 -0.4963
  415TMC3    C3 6191   1.731   0.301  10.083  0.3868  0.0751  0.2515
  415TMC3    C4 6192   1.478   0.379  10.020 -0.5234  0.1591  0.2071
  415TMC3    C5 6193   1.581   0.440   9.955  0.5467  0.0720 -0.3068
  415TMC3    C6 6194   1.709   0.401   9.992 -0.3546  0.5482  0.1680
  415TMC3     C 6195   1.375   0.206  10.160  0.3330  0.5898 -0.8126
  415TMC3     O 6196   1.266   0.242  10.115  0.5798  0.3160 -0.4467
  415TMC3     H 6197   1.648   0.154  10.209  2.0547  1.5383  0.4405
  415TMC3    H1 6198   1.379   0.423  10.019  0.0697  1.4420 -2.6499
  415TMC3    H2 6199   1.791   0.456   9.946  0.3486  0.4343  1.2709
  415TMC3    C7 6200   1.556   0.533   9.849  1.1997  0.0719 -0.3286
  415TMC3    C8 6201   1.858   0.232  10.081 -0.2907 -0.0433  0.0311
  415TMC3    O1 6202   1.640   0.606   9.799  0.2406  0.5199 -0.7923
  415TMC3    O2 6203   1.870   0.112  10.105  0.2973  0.1170 -0.1035
  416MPD2     C 6204   2.969   3.362  11.405  0.0079  0.0696 -0.3817
  416MPD2    C1 6205   2.862   3.390  11.326 -0.1011  0.1224 -0.0339
  416MPD2    C2 6206   2.837   3.303  11.218  0.0028  0.2343 -0.1989
  416MPD2    C3 6207   2.915   3.187  11.201  0.0418  0.0600  0.8814
  416MPD2    C4 6208   3.017   3.155  11.288 -0.0314  0.2047  0.4233
  416MPD2    C5 6209   3.050   3.257  11.371  0.1094 -0.3068  0.2638
  416MPD2     H 6210   2.756   3.322  11.148 -0.7261  0.9217  0.8450
  416MPD2    H1 6211   3.083   3.071  11.274 -0.9986 -0.4245 -0.3385
  416MPD2    H2 6212   2.993   3.422  11.493  2.2793 -1.4886  0.0764
  416MPD2    H3 6213   3.135   3.233  11.434 -0.1119 -1.4135  0.1510
  416MPD2     N 6214   2.877   3.090  11.098  1.3193  0.4043 -0.5366
  416MPD2    H5 6215   2.928   3.003  11.110  0.7893  0.2701  0.6560
  416MPD2    N1 6216   2.786   3.506  11.358  0.2397 -0.3001 -0.1380
  416MPD2    H7 6217   2.816   3.563  11.437 -0.7526  0.3635 -0.2512
  417TMC3    C1 6218   2.600   3.646  11.360 -0.0589 -0.3603  0.1228
  417TMC3    C2 6219   2.624   3.656  11.496  0.6167  0.2812  0.2863
  417TMC3    C3 6220   2.554   3.752  11.565 -0.3309 -0.1344 -0.6919
  417TMC3    C4 6221   2.500   3.715  11.299 -0.1645 -0.2268 -0.0139
  417TMC3    C5 6222   2.438   3.817  11.369  0.7473  0.4330  0.2262
  417TMC3    C6 6223   2.461   3.835  11.503  0.0074 -0.0125  0.1351
  417TMC3     C 6224   2.683   3.551  11.283 -0.1766  0.4967 -0.6540
  417TMC3     O 6225   2.634   3.514  11.179  0.7775 -0.3662 -0.1572
  417TMC3     H 6226   2.691   3.588  11.547  1.4363  1.4197  0.7325
  417TMC3    H1 6227   2.477   3.701  11.194  0.1068 -0.5201 -0.0324
  417TMC3    H2 6228   2.424   3.926  11.549  2.1240 -0.4229  2.6570
  417TMC3    C7 6229   2.441   3.945  11.295 -0.7101 -0.2277 -0.4014
  417TMC3    C8 6230   2.565   3.777  11.708 -0.3677 -0.1312 -0.7440
  417TMC3    O1 6231   2.486   4.039  11.355  0.5373 -0.5000  0.0073
  417TMC3    O2 6232   2.487   3.858  11.755  0.3573 -0.2448 -0.9251
  418TMC3    C1 6233   1.372   4.655   0.306  0.0360  0.5049  0.4865
  418TMC3    C2 6234   1.248   4.601   0.299  0.4533 -0.0479  0.1728
  418TMC3    C3 6235   1.155   4.636   0.395 -0.1861 -0.9488  0.1475
  418TMC3    C4 6236   1.418   0.003   0.409  0.1374 -0.9083 -0.7312
  418TMC3    C5 6237   1.328   0.026   0.506  0.3315 -0.7019  1.1096
  418TMC3    C6 6238   1.194   4.704   0.505 -0.6553 -0.2852 -0.3642
  418TMC3     C 6239   1.463   4.578   0.227  0.0177  0.3835 -0.5199
  418TMC3     O 6240   1.433   4.568   0.108 -0.2166  0.6956  0.4665
  418TMC3     H 6241   1.215   4.563   0.204 -1.2968 -1.1705  1.2309
  418TMC3    H1 6242   1.524   0.026   0.409  0.2029 -1.2353  0.2617
  418TMC3    H2 6243   1.129   4.706   0.591  0.6891 -0.6837  0.6656
  418TMC3    C7 6244   1.376   0.100   0.619  0.1225  0.7538  0.1741
  418TMC3    C8 6245   1.036   4.558   0.403  0.0177  0.4842  0.6358
  418TMC3    O1 6246   1.330   0.075   0.727  0.2666 -0.2588  0.0703
  418TMC3    O2 6247   0.956   4.592   0.490 -0.2691  0.1610  0.2800
  419MPD2     C 6248   0.596   3.416  11.870  0.0731  0.3971 -0.0657
  419MPD2    C1 6249   0.470   3.468  11.901 -0.9947  0.1675  0.0760
  419MPD2    C2 6250   0.427   3.462  12.032  0.4614  0.1334  0.0353
  419MPD2    C3 6251   0.509   3.407  12.130 -0.4114  0.1564  0.3197
  419MPD2    C4 6252   0.629   3.347  12.097 -0.0482  0.6032 -0.2175
  419MPD2    C5 6253   0.672   3.353  11.966  0.8588  0.9601 -0.3934
  419MPD2     H 6254   0.325   3.486  12.057 -0.9162 -3.2903 -2.2440
  419MPD2    H1 6255   0.697   3.296  12.164  0.1261  0.9906 -0.0959
  419MPD2    H2 6256   0.627   3.415  11.766 -0.7162  2.8432 -0.3254
  419MPD2    H3 6257   0.764   3.306  11.935  0.4026  1.2969 -2.2278
  419MPD2     N 6258   0.464   3.413  12.266  0.0151  0.4150 -0.2986
  419MPD2    H5 6259   0.373   3.457  12.275 -0.3724 -0.3534 -0.4660
  419MPD2    N1 6260   0.385   3.538  11.813 -0.5570 -0.2148 -0.6149
  419MPD2    H7 6261   0.316   3.601  11.853  1.0322  0.6416  0.7433
  420TMC3    C1 6262   0.450   3.382  12.499 -0.0630 -0.0447 -0.0236
  420TMC3    C2 6263   0.335   3.452  12.506 -0.4392  0.4202 -0.7454
  420TMC3    C3 6264   0.277   3.440  12.627 -0.1660 -0.2266 -0.6848
  420TMC3    C4 6265   0.508   3.321  12.611 -0.0839 -0.1578  0.3450
  420TMC3    C5 6266   0.454   3.336  12.736 -0.5959 -0.3855  0.2318
  420TMC3    C6 6267   0.327   3.393  12.752 -0.1923  0.4333 -0.1264
  420TMC3     C 6268   0.527   3.369  12.378  0.0993  0.2172  0.2234
  420TMC3     O 6269   0.633   3.313  12.393 -0.0852  0.5467  0.1141
  420TMC3     H 6270   0.273   3.485  12.424 -2.8996 -0.3478  0.7945
  420TMC3    H1 6271   0.599   3.263  12.601  0.0932 -0.0156  1.0753
  420TMC3    H2 6272   0.268   3.388  12.843 -0.8968 -0.5121 -0.6345
  420TMC3    C7 6273   0.518   3.270  12.845  0.2582  0.3022 -0.4157
  420TMC3    C8 6274   0.144   3.495  12.633 -0.0102 -0.3744  0.3363
  420TMC3    O1 6275   0.444   3.257  12.942  0.6951  0.3376 -0.1589
  420TMC3    O2 6276   0.135   3.602  12.574 -0.6455  0.5185 -0.0709
  421TMC3    C1 6277   1.463   0.422  13.759  0.9196 -0.7666 -0.6906
  421TMC3    C2 6278   1.508   0.535  13.829 -0.1670  0.1605 -0.0002
  421TMC3    C3 6279   1.620   0.514  13.903  0.4181 -0.0752 -0.0635
  421TMC3    C4 6280   1.518   0.297  13.767  0.0231 -0.4224  0.3507
  421TMC3    C5 6281   1.630   0.287  13.848 -0.1636  0.5008 -0.4368
  421TMC3    C6 6282   1.683   0.399  13.913 -0.0611  0.2939 -0.0836
  421TMC3     C 6283   1.366   0.455  13.648  0.0722 -0.3339 -0.0099
  421TMC3     O 6284   1.348   0.574  13.619  0.2098  0.3326 -0.3891
  421TMC3     H 6285   1.475   0.637  13.814  1.6149  0.6544 -0.5446
  421TMC3    H1 6286   1.466   0.211  13.726  0.3464 -0.6198  0.3484
  421TMC3    H2 6287   1.766   0.382  13.981 -0.5809 -1.3369  0.1389
  421TMC3    C7 6288   1.699   0.164  13.863  0.6305 -0.1249  0.1052
  421TMC3    C8 6289   1.674   0.632  13.968 -0.4692 -0.2310  0.1490
  421TMC3    O1 6290   1.809   0.166  13.922  0.0492 -0.0524 -0.1313
  421TMC3    O2 6291   1.592   0.707  14.019 -0.4554  0.4119  0.0298
  422TMC3    C1 6292   3.751   1.980  13.204 -0.0631 -0.9543 -0.1840
  422TMC3    C2 6293   3.720   2.095  13.131  0.5833 -0.3243  0.3992
  422TMC3    C3 6294   3.599   2.104  13.064 -0.2741  0.0073 -0.3246
  422TMC3    C4 6295   3.653   1.889  13.220 -0.0542  0.2713 -0.3561
  422TMC3    C5 6296   3.538   1.896  13.149  0.0431 -0.1238 -0.5335
  422TMC3    C6 6297   3.506   2.002  13.072 -0.2213  0.1484  0.0427
  422TMC3     C 6298   3.882   1.939  13.187 -0.1843  0.1772  0.3794
  422TMC3     O 6299   3.952   1.989  13.102 -0.0614 -0.2933  0.0965
  422TMC3     H 6300   3.790   2.178  13.125  1.1697 -0.8553 -0.1123
  422TMC3    H1 6301   3.663   1.797  13.278 -3.2672  0.5562  0.6465
  422TMC3    H2 6302   3.422   2.009  13.004 -0.1666 -0.6731 -0.1034
  422TMC3    C7 6303   3.451   1.776  13.144 -0.5830  0.6456 -0.2618
  422TMC3    C8 6304   3.606   2.187  12.942  0.4417 -0.2374  0.1664
  422TMC3    O1 6305   3.514   1.672  13.168  0.5188 -0.5313  0.0477
  422TMC3    O2 6306   3.716   2.222  12.907 -0.2159  0.1035 -0.0404
  423MPD2     C 6307   0.686   1.733   0.791  0.1258  0.0492  0.2187
  423MPD2    C1 6308   0.629   1.851   0.761 -0.2405 -0.2014 -0.1282
  423MPD2    C2 6309   0.629   1.886   0.627  0.2847  0.4148 -0.2345
  423MPD2    C3 6310   0.680   1.798   0.527 -0.2825  0.1354  0.0506
  423MPD2    C4 6311   0.735   1.672   0.561  0.2800 -0.8054 -0.2406
  423MPD2    C5 6312   0.730   1.644   0.694  0.3751 -0.0887 -0.6007
  423MPD2     H 6313   0.596   1.986   0.601  1.5880  1.0246  0.4616
  423MPD2    H1 6314   0.763   1.595   0.489  1.5427 -0.1456 -0.4451
  423MPD2    H2 6315   0.687   1.696   0.893  0.6712  0.6887  0.4443
  423MPD2    H3 6316   0.758   1.544   0.724 -0.7693 -0.8140 -1.9485
  423MPD2     N 6317   0.679   1.823   0.383  0.5854  0.1573  0.3117
  423MPD2    H5 6318   0.687   1.743   0.322 -1.4305 -0.8549  1.3787
  423MPD2    N1 6319   0.583   1.945   0.860  0.3969  0.1433 -0.1247
  423MPD2    H7 6320   0.548   2.037   0.836  1.3820  0.5498 -0.0055
  424TMC3    C1 6321   0.532   2.028   1.089  0.4414 -0.4466 -0.1540
  424TMC3    C2 6322   0.516   1.999   1.222  0.6823 -0.1760 -0.2285
  424TMC3    C3 6323   0.449   2.088   1.300  0.5327 -0.4909 -0.2268
  424TMC3    C4 6324   0.467   2.136   1.032  0.2616 -0.1827 -0.1079
  424TMC3    C5 6325   0.410   2.228   1.114  0.1640  0.2832 -0.5350
  424TMC3    C6 6326   0.403   2.208   1.252  0.5761  0.0643  0.7090
  424TMC3     C 6327   0.569   1.917   0.998  0.2857 -0.9424 -0.6137
  424TMC3     O 6328   0.589   1.813   1.058 -0.4795 -0.2170  0.1695
  424TMC3     H 6329   0.559   1.912   1.271 -1.3507  0.0466  1.9780
  424TMC3    H1 6330   0.464   2.152   0.924  1.3807 -0.5228 -0.1796
  424TMC3    H2 6331   0.357   2.277   1.323  0.8723 -0.7850  1.7249
  424TMC3    C7 6332   0.325   2.321   1.049  0.6884 -0.7856  0.4283
  424TMC3    C8 6333   0.455   2.077   1.449  0.3974 -0.5609  0.7460
  424TMC3    O1 6334   0.322   2.322   0.927  0.0590  0.0528 -0.2035
  424TMC3    O2 6335   0.476   2.181   1.518 -0.9555  0.3992  0.4961
  425MPD2     C 6336   4.024   1.808  17.528 -0.0674  0.2893  0.4405
  425MPD2    C1 6337   3.955   1.696  17.555 -0.2738 -0.4324 -0.0187
  425MPD2    C2 6338   3.851   1.697  17.651  0.0249 -0.3117 -0.4516
  425MPD2    C3 6339   3.819   1.817   0.010 -0.3002 -0.4156 -0.1075
  425MPD2    C4 6340   3.894   1.926  17.680 -0.2032  0.4346  0.9835
  425MPD2    C5 6341   3.999   1.922  17.592 -0.3928  0.0013  0.0103
  425MPD2     H 6342   3.802   1.606  17.682  1.5867 -0.7263  0.8365
  425MPD2    H1 6343   3.878   2.029   0.007  0.0033  1.1177 -1.3115
  425MPD2    H2 6344   4.103   1.805  17.453 -1.0330  1.9785 -0.6446
  425MPD2    H3 6345   4.057   2.009  17.564 -0.6311 -0.7006 -2.6659
  425MPD2     N 6346   3.705   1.826   0.097  0.2252 -0.2527 -0.4034
  425MPD2    H5 6347   3.676   1.738   0.139  0.8852 -1.8066 -3.1942
  425MPD2    N1 6348   3.996   1.573  17.487 -0.0699  0.3464 -0.4934
  425MPD2    H7 6349   4.091   1.572  17.452 -0.0973 -0.1874 -0.5404
  426TMC3    C1 6350   4.013   1.367  17.401  0.1418 -0.1199 -0.2974
  426TMC3    C2 6351   3.963   1.297  17.301 -0.3583  0.6303 -0.8710
  426TMC3    C3 6352   4.053   1.210  17.246 -0.5632  0.6450 -0.2862
  426TMC3    C4 6353   4.135   1.353  17.450 -0.3525  0.3726  0.4310
  426TMC3    C5 6354   4.225   1.273  17.390 -0.1694 -0.1027  0.1625
  426TMC3    C6 6355   4.183   1.201  17.278  0.0388 -0.4215  0.6079
  426TMC3     C 6356   3.925   1.455  17.473 -0.1392  0.4956 -0.3430
  426TMC3     O 6357   3.812   1.418  17.509 -0.0880 -0.2712 -0.2584
  426TMC3     H 6358   3.862   1.300  17.262 -1.0744  1.5942  1.0599
  426TMC3    H1 6359   4.157   1.403  17.543 -1.8360  0.4261  0.7428
  426TMC3    H2 6360   4.253   1.135  17.228  1.7981  2.7177 -1.0557
  426TMC3    C7 6361   4.350   1.233  17.450  0.1954 -0.0887  0.6172
  426TMC3    C8 6362   4.014   1.129  17.132 -0.4363  0.2635 -0.5455
  426TMC3    O1 6363   4.416   1.143  17.397 -0.1056  0.3718  0.4143
  426TMC3    O2 6364   4.114   1.084  17.075  0.6446 -0.1378 -0.1791
  427MPD2     C 6365   2.817   3.696  14.873  0.5716 -0.4795 -0.2114
  427MPD2    C1 6366   2.748   3.592  14.938  0.2022  0.7065 -0.5091
  427MPD2    C2 6367   2.607   3.589  14.940  0.1551 -0.3450  0.0754
  427MPD2    C3 6368   2.532   3.700  14.905 -0.2127 -0.4467  0.0480
  427MPD2    C4 6369   2.596   3.800  14.838 -0.6902  0.0620  0.0733
  427MPD2    C5 6370   2.736   3.800  14.832  0.4895  0.4274 -0.1945
  427MPD2     H 6371   2.564   3.502  14.989  2.1543 -1.7065 -0.5849
  427MPD2    H1 6372   2.544   3.892  14.814  2.7370  2.5008  1.8734
  427MPD2    H2 6373   2.922   3.699  14.846  0.4600  1.9465 -0.3598
  427MPD2    H3 6374   2.780   3.891  14.794 -0.3593  0.2338 -1.6434
  427MPD2     N 6375   2.395   3.697  14.926  0.3772 -0.4653 -0.1600
  427MPD2    H5 6376   2.353   3.613  14.963 -1.1883 -0.5070 -2.0252
  427MPD2    N1 6377   2.821   3.491  14.999 -0.0571  0.7257 -0.2400
  427MPD2    H7 6378   2.775   3.429  15.066  2.3908 -0.0978  0.6738
  428TMC3    C1 6379   3.016   3.370  15.083 -0.0625  0.3491  0.5061
  428TMC3    C2 6380   2.962   3.251  15.101 -0.5189 -0.6011  0.9307
  428TMC3    C3 6381   3.006   3.180  15.211  0.1861 -0.4045 -0.3113
  428TMC3    C4 6382   3.116   3.429  15.159  0.5848 -0.1045 -0.0946
  428TMC3    C5 6383   3.162   3.350  15.261  0.2276  0.0837  0.4094
  428TMC3    C6 6384   3.108   3.228  15.290 -0.1186 -0.3853  0.5856
  428TMC3     C 6385   2.961   3.466  14.983  0.4773  0.2579 -0.7716
  428TMC3     O 6386   3.033   3.524  14.907  0.2852 -0.2454 -0.2480
  428TMC3     H 6387   2.888   3.207  15.036  0.9608 -0.1592 -1.0523
  428TMC3    H1 6388   3.140   3.533  15.144  1.9201 -0.5871 -1.2953
  428TMC3    H2 6389   3.150   3.160  15.363  0.7917  0.8869  1.2636
  428TMC3    C7 6390   3.272   3.397  15.344  0.2642 -0.0245 -0.1829
  428TMC3    C8 6391   3.024   3.039  15.171 -0.3363 -0.7113 -0.3039
  428TMC3    O1 6392   3.269   3.358  15.459  0.7331  0.1495 -0.5965
  428TMC3    O2 6393   3.046   3.031  15.053 -1.0523  0.1608 -0.4092
  429MPD2     C 6394   3.663   3.696   0.081 -0.0163  0.1734  0.9360
  429MPD2    C1 6395   3.777   3.629   0.031  0.2746 -0.4281  0.3857
  429MPD2    C2 6396   3.863   3.695  17.638  0.5126  0.4152 -0.3318
  429MPD2    C3 6397   3.825   3.815  17.588 -0.0907  0.2416 -0.5162
  429MPD2    C4 6398   3.706   3.880  17.630 -0.0536 -0.4538  0.3378
  429MPD2    C5 6399   3.627   3.813   0.024 -0.4090 -0.4719 -0.2145
  429MPD2     H 6400   3.954   3.649  17.601  0.0189 -2.4324  1.9981
  429MPD2    H1 6401   3.677   3.977  17.590 -0.7118 -0.6558  0.3306
  429MPD2    H2 6402   3.598   3.651   0.155 -1.7287 -1.8652 -1.8083
  429MPD2    H3 6403   3.533   3.859   0.053  0.2476  1.2268 -0.7953
  429MPD2     N 6404   3.905   3.861  17.481 -0.3309  0.1843 -0.4042
  429MPD2    H5 6405   3.976   3.797  17.447  0.3649  2.2050 -2.7634
  429MPD2    N1 6406   3.808   3.498   0.070  0.3761  0.2983  0.0980
  429MPD2    H7 6407   3.896   3.457   0.041 -0.1160 -0.3242 -0.5056
  430TMC3    C1 6408   3.974   3.983  17.292  0.2182 -0.3801 -1.2629
  430TMC3    C2 6409   3.948   4.089  17.205 -0.0802 -0.0844  0.2950
  430TMC3    C3 6410   4.035   4.104  17.100  0.2841  0.0955  0.1620
  430TMC3    C4 6411   4.078   3.901  17.282 -0.0798 -0.0174  0.8577
  430TMC3    C5 6412   4.160   3.921  17.172 -0.6023  0.7448 -0.1319
  430TMC3    C6 6413   4.146   4.025  17.082  0.0614 -0.2681  0.2418
  430TMC3     C 6414   3.884   3.974  17.405  0.0193  0.2588  0.5037
  430TMC3     O 6415   3.791   4.052  17.411 -0.7419 -0.1575  0.0893
  430TMC3     H 6416   3.863   4.154  17.221  0.7452  1.2853 -0.8274
  430TMC3    H1 6417   4.088   3.811  17.342  2.6444 -0.9571 -1.0367
  430TMC3    H2 6418   4.214   4.042  16.999  0.2598  0.5063  0.5609
  430TMC3    C7 6419   4.183   3.803  17.096 -0.3713  0.4006 -0.1988
  430TMC3    C8 6420   3.965   4.132  16.976  0.0249  0.2523  0.4349
  430TMC3    O1 6421   4.194   3.702  17.164 -0.4736  0.1370  0.1515
  430TMC3    O2 6422   3.859   4.069  16.961  0.0677  0.1685 -0.7746
  431MPD2     C 6423   4.580   3.959  12.184 -0.5924 -0.1739 -0.2380
  431MPD2    C1 6424   4.631   4.052  12.095  0.4315 -0.2146  0.1662
  431MPD2    C2 6425   4.674   4.009  11.969  0.1433  0.1964 -0.4159
  431MPD2    C3 6426   4.657   3.874  11.931  0.0141  0.3394  0.3069
  431MPD2    C4 6427   4.604   3.789  12.026 -0.5596  0.0053  0.5425
  431MPD2    C5 6428   4.555   3.829  12.149 -0.8024 -0.4592  0.1973
  431MPD2     H 6429   0.005   4.084  11.915  1.7090 -0.0728  0.8305
  431MPD2    H1 6430   4.600   3.684  11.999 -1.6610  0.1757  0.0634
  431MPD2    H2 6431   4.554   3.972  12.289  0.4612 -1.0533  0.1329
  431MPD2    H3 6432   4.515   3.759  12.222 -2.3041 -2.9169 -3.0000
  431MPD2     N 6433   4.719   3.815  11.818 -0.2817 -0.1168 -0.2702
  431MPD2    H5 6434   0.027   3.720  11.826  0.0879  0.1746  1.5223
  431MPD2    N1 6435   4.668   4.183  12.134  0.5247 -0.4296 -0.2416
  431MPD2    H7 6436   4.718   4.242  12.069  0.3742  0.1199  0.1406
  432TMC3    C1 6437   0.142   3.820  11.636  0.2516  0.6587 -0.5183
  432TMC3    C2 6438   0.196   3.893  11.527  0.4966  0.5130 -0.4295
  432TMC3    C3 6439   0.313   3.850  11.475  0.7812 -0.4090  0.7529
  432TMC3    C4 6440   0.210   3.713  11.691  0.2777  1.1692 -0.7739
  432TMC3    C5 6441   0.332   3.680  11.634 -0.4292  1.2887  0.4811
  432TMC3    C6 6442   0.377   3.742  11.521  0.7476 -0.3153  0.2264
  432TMC3     C 6443   0.040   3.889  11.712  0.2190 -0.2681  0.2260
  432TMC3     O 6444   4.716   3.995  11.673 -0.4038 -0.0915  0.3485
  432TMC3     H 6445   0.167   3.996  11.509  0.7887  0.7386  0.3389
  432TMC3    H1 6446   0.164   3.666  11.778 -0.0218  3.4747  0.3375
  432TMC3    H2 6447   0.468   3.713  11.471  2.0294  2.2473  1.0710
  432TMC3    C7 6448   0.418   3.570  11.683  0.2718  0.7780  0.0183
  432TMC3    C8 6449   0.407   3.955  11.440 -0.2625 -0.1696  0.3307
  432TMC3    O1 6450   0.510   3.529  11.612  0.4764  0.1399  0.6714
  432TMC3    O2 6451   0.376   4.046  11.364  0.0767 -0.7038  0.4408
  433MPD2     C 6452   3.765   3.007  10.966  0.3121  0.1655 -0.1194
  433MPD2    C1 6453   3.734   2.888  11.027  0.6638 -0.4029  0.1455
  433MPD2    C2 6454   3.717   2.883  11.163  0.0672  0.2228  0.2304
  433MPD2    C3 6455   3.725   2.995  11.246  0.8672  0.1319  0.2956
  433MPD2    C4 6456   3.752   3.115  11.181  0.2596  0.3170  0.4624
  433MPD2    C5 6457   3.771   3.120  11.046  0.4220  0.9838  0.1276
  433MPD2     H 6458   3.715   2.790  11.218  0.2431  0.4308  0.5973
  433MPD2    H1 6459   3.759   3.207  11.238 -0.0478 -0.1610  1.2801
  433MPD2    H2 6460   3.777   3.015  10.858 -0.6457  0.9194 -0.1666
  433MPD2    H3 6461   3.810   3.211  11.003  0.1576  1.5300  1.0576
  433MPD2     N 6462   3.720   2.971  11.386 -0.6170  0.3666 -0.9189
  433MPD2    H5 6463   3.705   2.875  11.413  1.6041 -0.2727 -1.9984
  433MPD2    N1 6464   3.738   2.760  10.955 -0.6446 -0.2513  0.0186
  433MPD2    H7 6465   3.734   2.676  11.012  0.3377  2.0059  3.4632
  434TMC3    C1 6466   3.754   2.599  10.792 -0.3437 -0.3006 -0.3793
  434TMC3    C2 6467   3.836   2.523  10.877  0.3017 -0.0651  0.1287
  434TMC3    C3 6468   3.866   2.390  10.835  0.1640 -0.3721 -0.0906
  434TMC3    C4 6469   3.692   2.544  10.683  0.0191  0.3430  0.1309
  434TMC3    C5 6470   3.710   2.407  10.666 -0.4389  0.6401  0.6546
  434TMC3    C6 6471   3.800   2.330  10.733  0.2711  0.1692  0.2483
  434TMC3     C 6472   3.739   2.748  10.817  0.2603 -0.1744 -0.0656
  434TMC3     O 6473   3.702   2.826  10.730  0.4687  0.1666 -0.0485
  434TMC3     H 6474   3.892   2.563  10.960 -1.7326  2.1402  0.4677
  434TMC3    H1 6475   3.615   2.599  10.628 -1.2489  0.1552  1.7280
  434TMC3    H2 6476   3.839   2.237  10.694  0.5677  0.1733  0.5330
  434TMC3    C7 6477   3.599   2.343  10.599  0.1751 -0.4631  0.4479
  434TMC3    C8 6478   3.981   2.316  10.903  0.3795  0.1054  0.1089
  434TMC3    O1 6479   3.533   2.409  10.520  0.3418  0.2892  0.1437
  434TMC3    O2 6480   4.063   2.383  10.964  0.3878  0.4336  0.2277
  435MPD2     C 6481   1.047   2.311  15.262 -0.1915 -0.0035  0.0176
  435MPD2    C1 6482   0.980   2.265  15.377 -0.2937 -0.3619 -0.4680
  435MPD2    C2 6483   1.056   2.199  15.462  0.0112  0.5399 -0.5745
  435MPD2    C3 6484   1.194   2.166  15.441 -0.3254  0.3503  0.3465
  435MPD2    C4 6485   1.248   2.191  15.320  0.2088 -0.2102 -0.3816
  435MPD2    C5 6486   1.177   2.270  15.242 -0.2574  0.1991 -0.0715
  435MPD2     H 6487   1.013   2.166  15.556  0.9819  2.2624  0.4757
  435MPD2    H1 6488   1.347   2.155  15.294 -1.2186 -2.4603 -2.6362
  435MPD2    H2 6489   0.997   2.364  15.181  1.4704  1.7326  0.1169
  435MPD2    H3 6490   1.214   2.300  15.144 -2.8282  0.2298 -1.0421
  435MPD2     N 6491   1.263   2.119  15.562  0.1580 -0.2586  0.5978
  435MPD2    H5 6492   1.210   2.110  15.648  1.8564  0.4648  1.6961
  435MPD2    N1 6493   0.840   2.289  15.399  0.4268 -0.3630  0.0328
  435MPD2    H7 6494   0.805   2.262  15.490  0.8673 -0.0044  0.3155
  436TMC3    C1 6495   0.440   2.290  15.505 -0.7548  0.2354 -0.2608
  436TMC3    C2 6496   0.564   2.273  15.448 -0.5196 -0.1225  0.5843
  436TMC3    C3 6497   0.612   2.354  15.353 -0.0184  0.1229  0.4250
  436TMC3    C4 6498   0.355   2.370  15.434 -0.5009 -0.2273  0.6883
  436TMC3    C5 6499   0.402   2.442  15.327 -0.2943  0.0599  0.2653
  436TMC3    C6 6500   0.536   2.448  15.298 -0.0764  0.6248  0.0882
  436TMC3     C 6501   0.402   2.220  15.627 -0.1217 -0.2552 -0.2738
  436TMC3     O 6502   0.468   2.123  15.665 -0.3929  0.6724  0.1496
  436TMC3     H 6503   0.629   2.201  15.496  0.6620  0.7551  0.2767
  436TMC3    H1 6504   0.248   2.366  15.455 -0.6261  0.9466  0.2652
  436TMC3    H2 6505   0.577   2.501  15.212 -0.4356  1.1074  0.2140
  436TMC3    C7 6506   0.337   2.558  15.259 -0.9193  0.4645  0.0738
  436TMC3    C8 6507   0.755   2.353  15.308  0.7850  0.8836 -0.0591
  436TMC3    O1 6508   0.400   2.620  15.175 -0.3169 -0.3462  0.1555
  436TMC3    O2 6509   0.778   2.403  15.197 -0.0755  0.0048 -0.4765
  437TMC3    C1 6510   3.937   0.111  12.645  0.1651 -0.0241  0.4227
  437TMC3    C2 6511   3.822   0.183  12.673  0.1515  0.0028  0.7162
  437TMC3    C3 6512   3.839   0.320  12.653  0.2484 -0.4281  0.8519
  437TMC3    C4 6513   4.051   0.158  12.588 -0.4665  0.2286  0.0565
  437TMC3    C5 6514   4.057   0.293  12.570  0.2438 -0.3762  0.5606
  437TMC3    C6 6515   3.953   0.377  12.599  0.1067 -0.2756 -0.7779
  437TMC3     C 6516   3.925   4.698  12.680  0.3787  0.1066  0.2107
  437TMC3     O 6517   3.811   4.662  12.714 -0.0047  0.1441 -0.3316
  437TMC3     H 6518   3.737   0.140  12.725  0.2871 -2.7384 -1.3936
  437TMC3    H1 6519   4.121   0.093  12.537  0.3672  0.9412  0.2860
  437TMC3    H2 6520   3.963   0.485  12.590 -1.2150 -0.0581  0.3984
  437TMC3    C7 6521   4.165   0.342  12.491 -0.0150 -0.8750  0.0101
  437TMC3    C8 6522   3.761   0.411  12.732 -0.6305  0.2609  0.1479
  437TMC3    O1 6523   4.143   0.443  12.428  0.1930  0.3862  0.0844
  437TMC3    O2 6524   3.826   0.480  12.810  0.1161  0.7926 -0.2623
  438MPD2     C 6525   2.221   4.607  16.740 -0.0904 -0.3457  0.1721
  438MPD2    C1 6526   2.310   4.693  16.795  0.5224 -0.3989 -0.5125
  438MPD2    C2 6527   2.291   0.010  16.924  0.5805  0.1278 -0.0554
  438MPD2    C3 6528   2.183   4.680  16.993  0.4852 -0.0682 -1.0493
  438MPD2    C4 6529   2.098   4.587  16.938  0.0664  0.7234  0.4716
  438MPD2    C5 6530   2.113   4.558  16.808  0.1144  0.0794  0.1752
  438MPD2     H 6531   2.355   0.084  16.970 -0.6901  0.0281  1.8569
  438MPD2    H1 6532   2.019   4.536  16.991 -0.1954 -2.4707 -2.9624
  438MPD2    H2 6533   2.235   4.585  16.635  2.3417  0.3025  0.3526
  438MPD2    H3 6534   2.050   4.484  16.759  0.0339 -0.3039  0.8467
  438MPD2     N 6535   2.177   4.700  17.133  0.5048  0.0091 -0.9161
  438MPD2    H5 6536   2.119   4.637  17.188  0.4197  0.7708 -0.1423
  438MPD2    N1 6537   2.433   0.004  16.730 -0.0434 -0.4191  0.8112
  438MPD2    H7 6538   2.489   0.078  16.771 -0.7407 -0.3419  1.6222
  439TMC3    C1 6539   2.609   4.700  16.575  0.5816  0.0424 -0.1562
  439TMC3    C2 6540   2.637   4.640  16.454 -0.0141 -0.8378 -0.7178
  439TMC3    C3 6541   2.747   4.556  16.439 -0.3085 -0.4500 -0.2850
  439TMC3    C4 6542   2.695   4.681  16.680 -0.9742 -0.1567 -0.2025
  439TMC3    C5 6543   2.812   4.606  16.653 -0.1445  0.5129 -0.0843
  439TMC3    C6 6544   2.833   4.537  16.537  0.2836 -0.2836  0.3224
  439TMC3     C 6545   2.469   4.677  16.608 -0.1862 -0.8310 -0.4489
  439TMC3     O 6546   2.412   4.602  16.531  0.2629 -0.4106 -0.4919
  439TMC3     H 6547   2.565   4.655  16.374 -0.5301  2.4919  0.3520
  439TMC3    H1 6548   2.693   0.024  16.765  1.5439  0.3039 -0.5244
  439TMC3    H2 6549   2.923   4.481  16.520 -0.0126 -0.4838 -0.5810
  439TMC3    C7 6550   2.913   4.616  16.758 -0.2688  0.4141  0.0183
  439TMC3    C8 6551   2.706   4.430  16.376  0.3735  0.6779  0.2762
  439TMC3    O1 6552   2.871   4.625  16.877  0.9579 -0.0535  0.0463
  439TMC3    O2 6553   2.796   4.356  16.341  0.8143 -0.5924 -0.1654
  440MPD2     C 6554   0.264   0.224  15.263  0.2695  0.8347 -0.1729
  440MPD2    C1 6555   0.392   0.243  15.230  0.3393  0.2815 -0.4647
  440MPD2    C2 6556   0.479   0.141  15.246 -0.5293 -0.1503  0.5095
  440MPD2    C3 6557   0.442   0.019  15.290 -0.7020 -0.0901 -0.5511
  440MPD2    C4 6558   0.311   4.719  15.308 -0.3336  0.0508  1.1280
  440MPD2    C5 6559   0.223   0.102  15.300 -0.6334  0.7536 -0.7479
  440MPD2     H 6560   0.583   0.158  15.222 -0.9867  2.0733  0.0686
  440MPD2    H1 6561   0.277   4.620  15.338 -2.4627  0.0501 -1.2420
  440MPD2    H2 6562   0.192   0.305  15.260  0.6558  1.1895  0.1770
  440MPD2    H3 6563   0.116   0.104  15.321 -0.3708 -0.7467  0.7610
  440MPD2     N 6564   0.535   4.635  15.294 -0.6230  0.0593 -0.1105
  440MPD2    H5 6565   0.496   4.551  15.335 -1.1598 -0.0947 -0.9443
  440MPD2    N1 6566   0.442   0.369  15.209 -0.3063 -0.0377  0.1860
  440MPD2    H7 6567   0.542   0.374  15.192 -0.5421 -1.0002 -1.5604
  441TMC3    C1 6568   0.748   4.527  15.346 -0.6201  0.6580  0.0663
  441TMC3    C2 6569   0.878   4.544  15.365 -0.3283 -0.6753  0.1462
  441TMC3    C3 6570   0.933   4.467  15.468  0.3344 -0.1600  0.2896
  441TMC3    C4 6571   0.681   4.434  15.414  0.3237 -0.6025 -0.0360
  441TMC3    C5 6572   0.738   4.367  15.520  0.6675  0.5070 -0.5339
  441TMC3    C6 6573   0.866   4.388  15.546 -0.7206 -0.0689 -0.3177
  441TMC3     C 6574   0.675   4.644  15.285  0.2419  0.3984 -0.4243
  441TMC3     O 6575   0.748   0.007  15.238 -0.1469 -0.3083  0.4100
  441TMC3     H 6576   0.934   4.602  15.292  1.4124 -1.6490  0.7060
  441TMC3    H1 6577   0.578   4.418  15.387  0.3632 -1.3897  0.2739
  441TMC3    H2 6578   0.920   4.335  15.624  0.6109  2.2446  0.3121
  441TMC3    C7 6579   0.653   4.401  15.627  0.1134  0.1647  0.1844
  441TMC3    C8 6580   1.074   4.495  15.502  0.1794  0.0837  0.4982
  441TMC3    O1 6581   0.590   4.502  15.608 -0.1983 -0.4100  0.3940
  441TMC3    O2 6582   1.143   4.410  15.558 -0.0761  0.2602  0.1532
  442MPD2     C 6583   3.893   1.183  16.758  0.4091 -0.5497 -0.2040
  442MPD2    C1 6584   3.757   1.149  16.753  0.2569 -0.5773 -0.0894
  442MPD2    C2 6585   3.717   1.034  16.690  0.1246 -0.9173 -0.8886
  442MPD2    C3 6586   3.807   0.957  16.617  0.4104  0.4426 -0.3302
  442MPD2    C4 6587   3.940   0.998  16.614 -0.2072  0.3006  0.4252
  442MPD2    C5 6588   3.985   1.105  16.697  0.2665 -0.2728 -0.5359
  442MPD2     H 6589   3.613   1.003  16.693 -0.8506  2.2065 -2.6670
  442MPD2    H1 6590   4.008   0.948  16.545 -1.8881 -0.5513 -0.6132
  442MPD2    H2 6591   3.920   1.287  16.777 -1.1387 -0.1683 -0.0620
  442MPD2    H3 6592   4.084   1.149  16.692 -1.4697  3.6131 -0.7372
  442MPD2     N 6593   3.771   0.847  16.540 -0.5411 -0.1712  0.3416
  442MPD2    H5 6594   3.843   0.816  16.474  0.0216  1.5696  0.1320
  442MPD2    N1 6595   3.644   1.223  16.808  0.0958 -0.3122 -0.5335
  442MPD2    H7 6596   3.551   1.191  16.784  0.3280 -1.0353 -0.4733
  443TMC3    C1 6597   3.532   1.371  16.937 -0.1362 -0.2717 -0.3927
  443TMC3    C2 6598   3.450   1.432  16.848 -0.4463 -0.0965 -0.5673
  443TMC3    C3 6599   3.318   1.422  16.877  0.3540 -0.4525  0.6036
  443TMC3    C4 6600   3.493   1.317  17.055 -0.2527 -0.0424  0.6256
  443TMC3    C5 6601   3.359   1.306  17.073  0.2639 -0.1365 -0.0570
  443TMC3    C6 6602   3.273   1.356  16.986 -0.3003  0.1856  0.0134
  443TMC3     C 6603   3.658   1.324  16.899 -0.4164  0.3149  0.3930
  443TMC3     O 6604   3.762   1.369  16.946 -0.0383 -0.0007 -0.7337
  443TMC3     H 6605   3.478   1.465  16.749 -0.4547  2.5824  0.3194
  443TMC3    H1 6606   3.564   1.251  17.104  0.9701  0.2486 -0.7431
  443TMC3    H2 6607   3.166   1.335  16.991 -0.0280 -1.1658  0.1335
  443TMC3    C7 6608   3.311   1.186  17.134  0.4415  0.6411 -0.2660
  443TMC3    C8 6609   3.242   1.392  16.764 -0.3371 -0.6018 -0.8208
  443TMC3    O1 6610   3.213   1.137  17.077 -0.0068  0.0168 -0.3501
  443TMC3    O2 6611   3.183   1.286  16.777 -0.0095  0.7650 -0.3401
  444MPD2     C 6612   4.116   0.890  17.358 -0.0655  0.0923 -0.2984
  444MPD2    C1 6613   4.002   0.821  17.322 -0.1340 -0.6393 -0.4481
  444MPD2    C2 6614   4.016   0.730  17.226  0.1351  0.6897 -0.7792
  444MPD2    C3 6615   4.142   0.688  17.183 -0.2135 -0.3344 -0.4660
  444MPD2    C4 6616   4.251   0.770  17.209  0.2597  0.4992  0.0978
  444MPD2    C5 6617   4.233   0.874  17.296  0.0943 -0.2555  0.2690
  444MPD2     H 6618   3.934   0.668  17.190 -0.7643  0.0497  2.3211
  444MPD2    H1 6619   4.349   0.755  17.165 -0.1190  0.1071 -0.6064
  444MPD2    H2 6620   4.114   0.976  17.425  2.3740 -0.1840  0.1292
  444MPD2    H3 6621   4.316   0.939  17.321 -1.6238  1.9347  0.2870
  444MPD2     N 6622   4.144   0.568  17.109 -0.0908  0.0979 -0.2746
  444MPD2    H5 6623   4.053   0.526  17.094 -1.2567  1.0455  4.0523
  444MPD2    N1 6624   3.876   0.842  17.384 -0.1843 -0.5326 -0.0417
  444MPD2    H7 6625   3.804   0.772  17.365  1.0112 -1.6326 -0.5146
  445TMC3    C1 6626   4.233   0.396  16.976 -0.6957 -0.5883 -0.4931
  445TMC3    C2 6627   4.113   0.328  16.980  0.6262  0.2973 -0.1639
  445TMC3    C3 6628   4.089   0.222  16.888  0.5943  0.5443  0.4310
  445TMC3    C4 6629   4.340   0.342  16.912 -0.2575 -1.0431  0.0583
  445TMC3    C5 6630   4.315   0.241  16.828 -0.5913 -0.3635 -0.3443
  445TMC3    C6 6631   4.189   0.183  16.810 -0.3720 -0.2586  0.7673
  445TMC3     C 6632   4.257   0.508  17.063 -0.2817  0.2914  0.1875
  445TMC3     O 6633   4.375   0.539  17.070 -0.0938 -0.0010  0.6952
  445TMC3     H 6634   4.037   0.348  17.055 -0.0073  1.2053 -1.0480
  445TMC3    H1 6635   4.437   0.390  16.914 -0.4888 -0.7253  5.2199
  445TMC3    H2 6636   4.189   0.096  16.746 -3.6800  0.4272 -0.1775
  445TMC3    C7 6637   4.417   0.187  16.747 -0.3096 -0.6664  0.0185
  445TMC3    C8 6638   3.959   0.153  16.882  1.0785  0.0895 -0.7306
  445TMC3    O1 6639   4.386   0.156  16.632 -0.0045  0.1703 -0.6096
  445TMC3    O2 6640   3.864   0.220  16.924 -0.2440  0.3950 -0.0786
  446MPD2     C 6641   3.802   2.104  11.454 -0.3560 -0.4191  0.5863
  446MPD2    C1 6642   3.781   2.137  11.324  0.5295  0.2892  0.1693
  446MPD2    C2 6643   3.878   2.221  11.266 -0.2124 -1.2219  0.8076
  446MPD2    C3 6644   3.984   2.284  11.331  0.4677  0.1030  0.2751
  446MPD2    C4 6645   4.002   2.242  11.467 -0.4908  0.2269 -0.0490
  446MPD2    C5 6646   3.914   2.149  11.522  0.1828 -0.5754  0.2952
  446MPD2     H 6647   3.861   2.255  11.164 -2.1159 -1.9546  0.8771
  446MPD2    H1 6648   4.082   2.277  11.532 -0.1840 -0.9990  0.2404
  446MPD2    H2 6649   3.736   2.037  11.507 -1.1172 -1.1154 -1.2908
  446MPD2    H3 6650   3.941   2.114  11.621  0.2137 -0.3534  0.3654
  446MPD2     N 6651   4.054   2.393  11.272 -0.0113 -0.0590 -0.2177
  446MPD2    H5 6652   4.029   2.433  11.183 -0.3730 -0.5768 -0.3479
  446MPD2    N1 6653   3.666   2.098  11.251  0.1741 -0.6635  0.2825
  446MPD2    H7 6654   3.648   2.138  11.160 -1.3876  0.8868  1.2764
  447TMC3    C1 6655   4.237   2.547  11.249 -0.5588  0.4428 -0.4366
  447TMC3    C2 6656   4.172   2.602  11.142 -0.3724 -0.3449 -0.2184
  447TMC3    C3 6657   4.245   2.635  11.037 -0.0805  0.2244  0.0322
  447TMC3    C4 6658   4.368   2.529  11.253 -0.0075  1.1777 -0.1784
  447TMC3    C5 6659   4.438   2.572  11.148  0.5743 -0.5832  0.3121
  447TMC3    C6 6660   4.385   2.636  11.036  0.8964  0.3919  0.4866
  447TMC3     C 6661   4.171   2.442  11.321  0.4090  0.0058  0.6157
  447TMC3     O 6662   4.246   2.391  11.406  0.0853  0.0788 -0.1993
  447TMC3     H 6663   4.070   2.638  11.156 -0.2474 -0.4017  0.7957
  447TMC3    H1 6664   4.422   2.485  11.336  0.6476  2.9928  0.3476
  447TMC3    H2 6665   4.448   2.638  10.948  0.0390 -1.7274 -0.1748
  447TMC3    C7 6666   4.583   2.539  11.163  0.0288  0.1386  0.3503
  447TMC3    C8 6667   4.187   2.719  10.939 -0.1065 -0.6810 -0.2452
  447TMC3    O1 6668   4.624   2.459  11.249  0.1677 -0.0711 -0.4754
  447TMC3    O2 6669   4.073   2.755  10.965  0.6056 -0.3637  0.7318
  448TMC3    C1 6670   1.945   1.548  16.725 -0.3023  0.2833 -0.0829
  448TMC3    C2 6671   1.954   1.430  16.664  0.1652 -0.9094  0.1554
  448TMC3    C3 6672   2.066   1.352  16.676  0.1495 -0.3001 -0.3274
  448TMC3    C4 6673   2.048   1.596  16.796 -0.4772  0.3883  0.5798
  448TMC3    C5 6674   2.152   1.513  16.820 -0.2982  0.3069 -0.6001
  448TMC3    C6 6675   2.167   1.388  16.758  0.5757 -0.9971 -0.5054
  448TMC3     C 6676   1.885   1.650  16.640  0.4911 -0.4259 -0.3329
  448TMC3     O 6677   1.853   1.607  16.530 -0.0185 -0.5414  0.4345
  448TMC3     H 6678   1.875   1.392  16.599 -1.2250  2.9122 -0.4165
  448TMC3    H1 6679   2.046   1.691  16.849  0.1380  1.0906 -0.6636
  448TMC3    H2 6680   2.254   1.324  16.762 -0.0068 -1.7539  0.0934
  448TMC3    C7 6681   2.269   1.561  16.885 -0.6376 -0.2788 -0.5868
  448TMC3    C8 6682   2.066   1.207  16.624  0.0247  0.3830  0.3906
  448TMC3    O1 6683   2.274   1.682  16.897 -0.1633 -0.1084 -0.3363
  448TMC3    O2 6684   2.101   1.121  16.702 -0.6735 -0.1291 -0.5875
  449MPD2     C 6685   3.347   0.471  13.829 -0.8505  0.2163  1.0572
  449MPD2    C1 6686   3.278   0.357  13.817 -0.1661 -0.1388  0.1545
  449MPD2    C2 6687   3.286   0.266  13.920 -0.6432 -0.4275  0.5274
  449MPD2    C3 6688   3.382   0.278  14.019  1.0148  0.2733 -0.0337
  449MPD2    C4 6689   3.456   0.397  14.027 -0.3228 -0.4417 -0.1513
  449MPD2    C5 6690   3.433   0.498  13.936  0.2169  0.2741  0.6148
  449MPD2     H 6691   3.217   0.183  13.927 -1.4094  0.3485  2.1653
  449MPD2    H1 6692   3.532   0.412  14.103 -1.7033  0.7238  0.9861
  449MPD2    H2 6693   3.343   0.541  13.746  0.0766 -0.8606  0.1133
  449MPD2    H3 6694   3.493   0.588  13.943 -1.5275  1.4549  0.5129
  449MPD2     N 6695   3.412   0.161  14.100 -0.1404  0.3874 -0.5807
  449MPD2    H5 6696   3.353   0.080  14.081 -0.1202  0.3418 -0.4501
  449MPD2    N1 6697   3.193   0.324  13.709 -0.3380 -0.1576 -0.2894
  449MPD2    H7 6698   3.154   0.230  13.714 -0.6226 -0.0394 -0.3104
  450TMC3    C1 6699   3.075   0.321  13.515 -0.2880  0.0248  0.0392
  450TMC3    C2 6700   3.119   0.319  13.387 -0.0794  0.3909 -0.0733
  450TMC3    C3 6701   3.136   0.197  13.326  0.1938  0.9152 -0.0101
  450TMC3    C4 6702   3.028   0.202  13.568 -0.0262 -0.0561 -0.2163
  450TMC3    C5 6703   3.041   0.082  13.504  0.1589  0.6423 -0.4823
  450TMC3    C6 6704   3.108   0.076  13.383  0.7207 -0.4931 -0.5653
  450TMC3     C 6705   3.168   0.397  13.598 -0.3962  0.4723  0.2437
  450TMC3     O 6706   3.210   0.503  13.562 -0.2072 -0.2091  0.2159
  450TMC3     H 6707   3.163   0.405  13.340 -0.2796  1.5171  1.7905
  450TMC3    H1 6708   2.982   0.204  13.666 -0.3481  1.1219 -0.3871
  450TMC3    H2 6709   3.139   4.707  13.338 -1.0941 -0.8956 -0.9944
  450TMC3    C7 6710   3.103   4.716  13.603  0.4830  0.6761  0.0718
  450TMC3    C8 6711   3.162   0.208  13.184  0.4814 -0.3162  0.0582
  450TMC3    O1 6712   3.133   0.057  13.702  0.6148 -0.4010 -0.0552
  450TMC3    O2 6713   3.116   0.306  13.126  0.6839 -0.7361 -0.0023
  451MPD2     C 6714   0.244   4.210   1.056  0.8262  0.5022  0.4666
  451MPD2    C1 6715   0.223   4.202   1.194  0.1173 -0.3869  0.4550
  451MPD2    C2 6716   0.255   4.082   1.263 -0.6902  0.7741  0.4270
  451MPD2    C3 6717   0.297   3.968   1.194 -0.0427 -0.1610  0.0414
  451MPD2    C4 6718   0.303   3.969   1.058 -0.3762  0.7527  0.0072
  451MPD2    C5 6719   0.283   4.090   0.991 -0.0372  0.7468 -0.4397
  451MPD2     H 6720   0.230   4.077   1.368 -1.9759 -2.0419 -0.0114
  451MPD2    H1 6721   0.321   3.871   1.014  1.3419  1.8843 -1.7858
  451MPD2    H2 6722   0.207   4.294   0.997 -0.2660  0.1865  0.6881
  451MPD2    H3 6723   0.270   4.089   0.883 -0.0840 -2.0169 -0.4014
  451MPD2     N 6724   0.327   3.840   1.257  0.5265  0.0397 -0.6082
  451MPD2    H5 6725   0.347   3.758   1.201  1.5474 -0.7965  0.9944
  451MPD2    N1 6726   0.179   4.327   1.267 -0.0046  0.2864 -0.1233
  451MPD2    H7 6727   0.163   4.402   1.199 -1.8690 -0.9454 -1.0386
  452TMC3    C1 6728   0.372   3.686   1.439  0.1068 -0.2735  1.0049
  452TMC3    C2 6729   0.412   3.667   1.566 -0.6662 -0.0346 -0.6430
  452TMC3    C3 6730   0.409   3.539   1.610  0.5178 -0.0584  0.1280
  452TMC3    C4 6731   0.339   3.583   1.353  0.3010  0.1245 -0.0568
  452TMC3    C5 6732   0.341   3.456   1.410 -0.4949  0.1574  0.3519
  452TMC3    C6 6733   0.375   3.430   1.537  0.2429  0.0409  0.4264
  452TMC3     C 6734   0.369   3.829   1.391  0.1233  0.5188  0.3013
  452TMC3     O 6735   0.389   3.914   1.478 -0.9917 -0.0402  0.1551
  452TMC3     H 6736   0.439   3.754   1.625  1.7849 -0.9902 -0.3627
  452TMC3    H1 6737   0.286   3.611   1.263  1.7975 -1.8776 -1.5481
  452TMC3    H2 6738   0.369   3.332   1.583 -2.0792 -0.6159 -1.2839
  452TMC3    C7 6739   0.302   3.342   1.325 -0.0810 -0.3362 -0.6146
  452TMC3    C8 6740   0.447   3.514   1.750  0.1495 -0.1310 -0.2557
  452TMC3    O1 6741   0.277   3.368   1.208  0.3394 -0.3428  0.5451
  452TMC3    O2 6742   0.422   3.403   1.795 -0.3873  0.2971  0.3832
  453TMC3    C1 6743   1.339   1.092  11.782  0.1315 -0.1925 -0.2576
  453TMC3    C2 6744   1.236   1.020  11.833 -0.0215 -0.5124  0.6738
  453TMC3    C3 6745   1.149   0.972  11.741 -0.1829  1.2556 -0.1295
  453TMC3    C4 6746   1.370   1.090  11.651 -0.8528  0.7121 -0.0907
  453TMC3    C5 6747   1.277   1.032  11.566  0.7613 -1.0075  0.2472
  453TMC3    C6 6748   1.165   0.970  11.607  1.0002 -0.2007  0.4349
  453TMC3     C 6749   1.440   1.145  11.869 -0.0037 -0.2682  0.4501
  453TMC3     O 6750   1.479   1.261  11.851  0.1859 -0.4938  0.4029
  453TMC3     H 6751   1.218   1.019  11.940 -0.6624  1.0327  0.5875
  453TMC3    H1 6752   1.453   1.157  11.628  0.8950 -1.3312  0.3142
  453TMC3    H2 6753   1.095   0.918  11.542 -1.3584 -0.6350  3.2763
  453TMC3    C7 6754   1.324   0.966  11.451  0.0587  0.1186  0.0267
  453TMC3    C8 6755   1.040   0.888  11.790  0.5192  0.2233  0.3017
  453TMC3    O1 6756   1.245   0.901  11.388  0.5851 -0.6546 -0.3410
  453TMC3    O2 6757   0.926   0.901  11.740 -0.3788 -0.0230  0.4887
  454MPD2     C 6758   0.021   0.732  16.349 -0.2280  0.3152 -0.0708
  454MPD2    C1 6759   4.669   0.626  16.296 -0.0397 -0.7195 -0.5337
  454MPD2    C2 6760   4.573   0.568  16.383 -0.0325 -0.3898 -0.8408
  454MPD2    C3 6761   4.549   0.608  16.513 -0.6010  0.7138 -0.3698
  454MPD2    C4 6762   4.632   0.713  16.558  0.2711  0.1400  0.5819
  454MPD2    C5 6763   4.724   0.772  16.477  0.2220 -0.2811 -0.4409
  454MPD2     H 6764   4.525   0.481  16.339 -2.3886  1.8219 -2.6598
  454MPD2    H1 6765   4.610   0.756  16.655 -0.2442  0.7127  0.2074
  454MPD2    H2 6766   0.101   0.779  16.294 -1.5572  0.3080 -2.0159
  454MPD2    H3 6767   0.044   0.864  16.510 -0.6107 -0.2832  0.6939
  454MPD2     N 6768   4.441   0.560  16.593  0.0913 -0.1157 -0.1976
  454MPD2    H5 6769   4.432   0.603  16.684 -1.7541 -0.5839 -0.1786
  454MPD2    N1 6770   4.697   0.580  16.162  0.4063 -0.5174 -0.8534
  454MPD2    H7 6771   0.027   0.644  16.106 -1.3498  0.3696 -1.5789
  455TMC3    C1 6772   4.215   0.473  16.629 -0.7286 -0.2254 -0.7473
  455TMC3    C2 6773   4.182   0.579  16.707  0.1303 -0.2860 -0.5759
  455TMC3    C3 6774   4.041   0.603  16.713  0.4712  0.5956 -0.0588
  455TMC3    C4 6775   4.129   0.387  16.568  0.3635 -0.0508 -0.4771
  455TMC3    C5 6776   3.999   0.415  16.582 -0.6413  0.3709  0.3998
  455TMC3    C6 6777   3.952   0.514  16.661 -0.0400  0.3173 -0.4293
  455TMC3     C 6778   4.342   0.481  16.550  0.7140  0.0072  0.3264
  455TMC3     O 6779   4.329   0.423  16.445 -0.2321 -0.0676  0.3924
  455TMC3     H 6780   4.250   0.662  16.721  1.0800 -1.3973  1.3557
  455TMC3    H1 6781   4.167   0.300  16.515 -3.5506 -1.4952 -0.9740
  455TMC3    H2 6782   3.846   0.537  16.661  0.0928  0.9173 -2.0550
  455TMC3    C7 6783   3.904   0.329  16.524 -1.0145 -0.1424 -0.0872
  455TMC3    C8 6784   4.009   0.703  16.811 -0.4176 -0.7637 -1.0162
  455TMC3    O1 6785   3.795   0.315  16.578 -0.4260 -0.3433  0.4848
  455TMC3    O2 6786   4.098   0.782  16.837  0.3624  0.3352  0.2934
  456MPD2     C 6787   2.408   4.552  16.114 -0.3680 -0.3014  0.0183
  456MPD2    C1 6788   2.499   4.649  16.095 -0.5880 -0.0864 -0.1012
  456MPD2    C2 6789   2.479   0.047  16.151  0.0324  0.0957 -0.3289
  456MPD2    C3 6790   2.369   0.059  16.235  0.2444  0.5562 -0.1569
  456MPD2    C4 6791   2.271   4.688  16.243 -0.1177  0.8990  0.0248
  456MPD2    C5 6792   2.294   4.567  16.190 -0.4427  0.2945  0.6887
  456MPD2     H 6793   2.547   0.132  16.146  0.3431 -0.2029 -1.3291
  456MPD2    H1 6794   2.188   4.687  16.312 -0.7046 -1.3407 -0.7288
  456MPD2    H2 6795   2.428   4.456  16.069 -0.4112 -0.0058 -0.6299
  456MPD2    H3 6796   2.215   4.495  16.208  0.9277 -1.0688  1.3065
  456MPD2     N 6797   2.361   0.181  16.302  0.0353  0.9686 -0.1700
  456MPD2    H5 6798   2.447   0.229  16.326 -0.1609  0.8102  0.8179
  456MPD2    N1 6799   2.620   4.618  16.018 -0.0125  0.3376  0.6663
  456MPD2    H7 6800   2.625   4.520  15.994 -3.5969  0.0449  1.0610
  457TMC3    C1 6801   2.275   0.324  16.442  0.2142 -0.7860  0.1341
  457TMC3    C2 6802   2.213   0.448  16.443  0.9980 -0.2369  0.4339
  457TMC3    C3 6803   2.245   0.543  16.534  0.4534  0.1883  0.6888
  457TMC3    C4 6804   2.365   0.299  16.547  0.7092 -0.1530  0.4718
  457TMC3    C5 6805   2.394   0.400  16.639 -0.3393  0.1721 -0.5472
  457TMC3    C6 6806   2.342   0.527  16.629  0.3186 -0.4173 -0.0078
  457TMC3     C 6807   2.242   0.233  16.346 -0.1318 -0.3690  0.2749
  457TMC3     O 6808   2.127   0.211  16.315  0.3146 -0.1427 -0.0534
  457TMC3     H 6809   2.144   0.460  16.360  2.5874  0.3730 -0.8098
  457TMC3    H1 6810   2.414   0.205  16.569  3.9190  1.1989 -0.9633
  457TMC3    H2 6811   2.349   0.604  16.705  0.6258  0.8717 -1.3488
  457TMC3    C7 6812   2.487   0.383  16.751 -0.1109 -0.2573  0.0648
  457TMC3    C8 6813   2.195   0.682  16.526 -0.4713 -0.1923 -0.2464
  457TMC3    O1 6814   2.526   0.270  16.785 -0.1633  0.1375 -0.0022
  457TMC3    O2 6815   2.228   0.752  16.622  0.1218 -0.1291 -0.0014
  458MPD2     C 6816   4.645   0.353  12.327  0.1669 -0.2410 -0.2034
  458MPD2    C1 6817   4.642   0.262  12.435  0.2016  0.4414  0.7447
  458MPD2    C2 6818   4.522   0.232  12.493  0.1266  0.0006  0.5726
  458MPD2    C3 6819   4.405   0.291  12.451 -0.5065  0.0962 -0.6620
  458MPD2    C4 6820   4.413   0.384  12.353  0.4931 -0.4225  0.4226
  458MPD2    C5 6821   4.532   0.412  12.295 -0.4155 -0.2714  0.2320
  458MPD2     H 6822   4.513   0.151  12.565  2.3287 -0.3690  0.4246
  458MPD2    H1 6823   4.325   0.423  12.305  1.8191  2.4154  0.2730
  458MPD2    H2 6824   0.005   0.381  12.266 -0.7920 -1.5824 -2.1529
  458MPD2    H3 6825   4.541   0.486  12.216  3.3171 -0.9043  0.0290
  458MPD2     N 6826   4.283   0.266  12.516  0.4248 -0.1120 -0.2960
  458MPD2    H5 6827   4.280   0.192  12.586  0.8968  0.3348  0.1888
  458MPD2    N1 6828   0.037   0.207  12.473  0.3501  0.3900 -0.2202
  458MPD2    H7 6829   0.114   0.261  12.433  1.5936 -1.9833 -0.9894
  459TMC3    C1 6830   0.200   0.089  12.599 -0.7763  0.7737 -0.0475
  459TMC3    C2 6831   0.285   0.191  12.561 -0.0580 -0.1250 -0.5223
  459TMC3    C3 6832   0.384   0.227  12.643  0.3343 -0.2379  0.4353
  459TMC3    C4 6833   0.219   0.026  12.718  0.4953  0.3049 -0.2684
  459TMC3    C5 6834   0.327   0.066  12.795  0.2509  0.2663  0.2446
  459TMC3    C6 6835   0.399   0.175  12.767 -0.0915 -0.0051 -0.2622
  459TMC3     C 6836   0.056   0.103  12.562 -0.3425 -0.1720  0.5076
  459TMC3     O 6837   4.698   0.048  12.629  0.8946  0.0171  0.0387
  459TMC3     H 6838   0.285   0.231  12.460  2.1783  2.5541  0.5491
  459TMC3    H1 6839   0.168   4.658  12.740  1.9628 -0.5495 -0.4790
  459TMC3    H2 6840   0.483   0.189  12.834 -1.5192  0.1178  1.4935
  459TMC3    C7 6841   0.348   4.712  12.922  0.5484  0.2986  0.0641
  459TMC3    C8 6842   0.502   0.291  12.578 -0.7788  0.9859  0.2982
  459TMC3    O1 6843   0.287   4.607  12.938  0.2199  0.1105  0.0376
  459TMC3    O2 6844   0.604   0.300  12.640  0.2841  0.3055 -0.0417
  460MPD2     C 6845   4.329   2.865  10.623 -0.6201 -0.3699 -0.1162
  460MPD2    C1 6846   4.230   2.829  10.714  0.8933  0.6927  0.8648
  460MPD2    C2 6847   4.097   2.875  10.691 -0.2106 -0.5482 -0.1482
  460MPD2    C3 6848   4.080   2.955  10.583  0.0817 -0.2683 -0.3554
  460MPD2    C4 6849   4.183   3.000  10.503  0.1242  0.4541  0.1022
  460MPD2    C5 6850   4.313   2.953  10.524 -0.3233 -0.1371  0.1315
  460MPD2     H 6851   4.013   2.842  10.751 -0.5109  0.9886  0.2798
  460MPD2    H1 6852   4.164   3.065  10.418 -1.4573 -1.1746 -0.7954
  460MPD2    H2 6853   4.428   2.834  10.654  0.9833  0.5168 -4.3279
  460MPD2    H3 6854   4.397   2.981  10.462 -0.7204 -0.6734 -0.6430
  460MPD2     N 6855   3.946   2.974  10.553  0.8108 -0.2941 -0.2892
  460MPD2    H5 6856   3.877   2.920  10.605  1.7451 -1.9932 -0.7892
  460MPD2    N1 6857   4.266   2.745  10.827 -0.3731  0.2006  0.2344
  460MPD2    H7 6858   4.362   2.717  10.811 -0.0249  1.9426 -0.7395
  461TMC3    C1 6859   3.762   3.066  10.452 -0.2217  0.3168  0.3930
  461TMC3    C2 6860   3.735   2.940  10.406  0.4875  0.0168 -0.2878
  461TMC3    C3 6861   3.623   2.918  10.322  0.7639  0.0449  0.0341
  461TMC3    C4 6862   3.696   3.177  10.402 -0.4391 -0.6921 -0.5858
  461TMC3    C5 6863   3.592   3.151  10.314 -0.2426 -0.0279  0.0364
  461TMC3    C6 6864   3.552   3.027  10.284  0.4860  0.2683  0.2247
  461TMC3     C 6865   3.907   3.077  10.476  0.3467  0.2004 -0.5041
  461TMC3     O 6866   3.957   3.161  10.406 -0.0098 -0.0767 -0.3530
  461TMC3     H 6867   3.797   2.857  10.438  2.4298  1.5528 -0.0821
  461TMC3    H1 6868   3.741   3.275  10.416  0.1687 -0.7938 -1.7822
  461TMC3    H2 6869   3.461   3.016  10.227  0.2581  0.3800  0.5712
  461TMC3    C7 6870   3.549   3.253  10.222 -0.2586 -0.3218  0.0841
  461TMC3    C8 6871   3.664   2.842  10.211  0.4769 -0.9404 -0.6680
  461TMC3    O1 6872   3.498   3.210  10.121 -0.1567  0.1816 -0.1428
  461TMC3    O2 6873   3.772   2.787  10.229  0.0235  0.2387 -0.2630
  462TMC3    C1 6874   3.717   3.950   0.304 -0.1892  0.4191  0.5463
  462TMC3    C2 6875   3.844   3.979   0.258 -0.4452  0.1069  0.2865
  462TMC3    C3 6876   3.938   3.881   0.284  0.5281  0.9944  0.3163
  462TMC3    C4 6877   3.681   3.836   0.370  0.7763 -0.0962  1.1114
  462TMC3    C5 6878   3.778   3.744   0.389 -0.0739  0.5507 -0.1334
  462TMC3    C6 6879   3.904   3.759   0.341  0.1246 -0.7761 -1.2143
  462TMC3     C 6880   3.611   4.055   0.308 -0.7520 -0.5757 -0.0701
  462TMC3     O 6881   3.519   4.038   0.389 -0.0119  0.0683  0.1622
  462TMC3     H 6882   3.883   4.073   0.223 -0.0905  0.8764  2.7235
  462TMC3    H1 6883   3.578   3.823   0.401 -0.0287 -1.1787 -2.0058
  462TMC3    H2 6884   3.986   3.694   0.369 -0.1475 -1.6570 -2.4487
  462TMC3    C7 6885   3.756   3.608   0.445  0.1650 -0.5458 -0.3606
  462TMC3    C8 6886   4.025   3.872   0.173 -0.4169 -0.4436  0.0081
  462TMC3    O1 6887   3.855   3.543   0.467  0.3420  0.1751  0.1771
  462TMC3    O2 6888   4.024   3.966   0.093 -0.6097 -0.2970  0.3720
  463MPD2     C 6889   0.588   2.156   2.157 -0.5278 -0.6159 -0.4075
  463MPD2    C1 6890   0.503   2.179   2.054 -0.5201 -0.6808 -0.2989
  463MPD2    C2 6891   0.527   2.283   1.961  0.1238 -0.0210 -0.5187
  463MPD2    C3 6892   0.640   2.365   1.970 -0.0684  0.1269 -0.4557
  463MPD2    C4 6893   0.734   2.338   2.071 -0.1954  0.0668 -0.7814
  463MPD2    C5 6894   0.699   2.234   2.160 -0.2965 -0.2202  0.2870
  463MPD2     H 6895   0.454   2.299   1.883 -2.2914 -2.6959  1.2127
  463MPD2    H1 6896   0.822   2.400   2.084  2.0371 -3.0437 -0.9227
  463MPD2    H2 6897   0.575   2.071   2.224  0.8667  0.3375  1.0874
  463MPD2    H3 6898   0.783   2.215   2.227 -0.7022 -2.4482  0.1734
  463MPD2     N 6899   0.685   2.458   1.872 -0.4495 -0.6140  0.1112
  463MPD2    H5 6900   0.769   2.512   1.894 -0.9391  0.5783 -0.9838
  463MPD2    N1 6901   0.386   2.107   2.032  0.2824 -0.9349  0.3970
  463MPD2    H7 6902   0.340   2.127   1.944 -0.6077 -2.0234  0.6031
  464TMC3    C1 6903   0.217   1.939   2.039 -0.0822  0.4075  0.4986
  464TMC3    C2 6904   0.128   2.018   1.973 -0.5480  0.6710 -0.5352
  464TMC3    C3 6905   0.037   1.951   1.897 -0.0792 -0.1117  0.5073
  464TMC3    C4 6906   0.209   1.802   2.039 -0.3813 -0.0584 -0.0529
  464TMC3    C5 6907   0.130   1.748   1.948 -0.2352  0.1312 -0.3400
  464TMC3    C6 6908   0.042   1.821   1.872 -0.2507 -0.2293 -0.0122
  464TMC3     C 6909   0.337   1.993   2.099 -0.4942 -0.0237  0.1546
  464TMC3     O 6910   0.369   1.933   2.200  0.6007  0.1823 -0.3621
  464TMC3     H 6911   0.139   2.126   1.965  1.6543  0.4389 -0.6526
  464TMC3    H1 6912   0.278   1.733   2.086 -0.6665  0.1894  0.7278
  464TMC3    H2 6913   4.686   1.776   1.816 -0.5597 -1.9681  1.7937
  464TMC3    C7 6914   0.108   1.605   1.958 -0.3914 -0.5658  0.0946
  464TMC3    C8 6915   4.683   2.039   1.813 -0.4375 -0.8263  0.1848
  464TMC3    O1 6916   0.148   1.545   2.060 -1.2037  0.1941  0.2825
  464TMC3    O2 6917   4.654   1.997   1.699 -0.5527 -0.0245  0.4604
  465MPD2     C 6918   1.920   0.231  17.263  0.0397 -0.3180  0.5439
  465MPD2    C1 6919   1.796   0.238  17.320  0.6386 -0.2194  0.3316
  465MPD2    C2 6920   1.693   0.297  17.247  0.7438  0.3854  0.3778
  465MPD2    C3 6921   1.719   0.342  17.116 -0.0283  0.3439  0.5876
  465MPD2    C4 6922   1.841   0.316  17.061  0.4236 -0.8597  0.2952
  465MPD2    C5 6923   1.943   0.265  17.138  0.6532  0.4394 -0.7306
  465MPD2     H 6924   1.592   0.304  17.286  0.1179 -0.2191 -1.1580
  465MPD2    H1 6925   1.855   0.323  16.954 -1.2180  0.7706  0.1759
  465MPD2    H2 6926   2.004   0.191  17.319 -0.0418 -0.0567  0.8519
  465MPD2    H3 6927   2.039   0.233  17.099 -0.3293 -2.9170 -0.4263
  465MPD2     N 6928   1.604   0.392  17.039  0.1394 -0.2155  0.8534
  465MPD2    H5 6929   1.515   0.392  17.089 -0.7028  0.3406 -0.6382
  465MPD2    N1 6930   1.770   0.197  17.455 -0.4213 -0.5697 -0.6267
  465MPD2    H7 6931   1.674   0.215  17.482  0.6458 -0.8819  3.3572
  466TMC3    C1 6932   1.266   0.537  16.898  0.0634 -0.5686 -0.1092
  466TMC3    C2 6933   1.270   0.633  16.796 -0.0897  0.0166 -0.2624
  466TMC3    C3 6934   1.387   0.657  16.726  0.1141  0.2088  0.1282
  466TMC3    C4 6935   1.381   0.478  16.939 -0.7534 -0.3547 -0.7132
  466TMC3    C5 6936   1.497   0.522  16.881  0.3280  0.1029  0.0675
  466TMC3    C6 6937   1.506   0.606  16.771  0.6355  0.1413  0.4317
  466TMC3     C 6938   1.142   0.515  16.977  0.0513 -0.0509  0.3685
  466TMC3     O 6939   1.164   0.468  17.085  0.6186  0.4632  0.7229
  466TMC3     H 6940   1.182   0.685  16.763  0.3121 -1.5107 -3.7562
  466TMC3    H1 6941   1.384   0.400  17.015 -0.1803  1.7280  1.4149
  466TMC3    H2 6942   1.592   0.638  16.713 -0.9173  2.3854 -0.6543
  466TMC3    C7 6943   1.619   0.457  16.921  0.3778 -0.9862 -0.4440
  466TMC3    C8 6944   1.389   0.772  16.634 -0.0367 -0.1282  0.1914
  466TMC3    O1 6945   1.720   0.482  16.853 -0.2279  0.0018  0.9225
  466TMC3    O2 6946   1.481   0.777  16.557 -0.3226  0.2307 -0.9020
  467TMC3    C1 6947   2.118   3.965  14.033  0.2162  0.0131  0.0947
  467TMC3    C2 6948   2.050   3.958  13.913  0.0905 -0.2056  0.8951
  467TMC3    C3 6949   1.914   3.937  13.910 -0.0697  0.2625 -0.8467
  467TMC3    C4 6950   2.048   3.956  14.149  0.0971  0.8842 -0.4803
  467TMC3    C5 6951   1.911   3.935  14.148 -0.6893 -0.1898  0.0659
  467TMC3    C6 6952   1.842   3.925  14.025  0.8920  0.4270  0.6176
  467TMC3     C 6953   2.259   3.985  14.031  0.1442 -0.4323 -0.6216
  467TMC3     O 6954   2.319   3.942  13.937 -0.0164  0.0172 -0.0104
  467TMC3     H 6955   2.109   3.979  13.824 -1.0134 -0.0898  0.1873
  467TMC3    H1 6956   2.089   3.966  14.248  2.6889 -0.7491 -1.3987
  467TMC3    H2 6957   1.742   3.887  14.008  2.0520 -2.3729  0.1216
  467TMC3    C7 6958   1.858   3.882  14.275 -0.0262 -0.9589 -0.0962
  467TMC3    C8 6959   1.860   3.900  13.781  0.4389 -0.3909  0.7389
  467TMC3    O1 6960   1.934   3.826  14.346 -0.4896 -0.0590  0.1785
  467TMC3    O2 6961   1.772   3.812  13.772  0.4758 -0.3417  0.3841
  468MPD2     C 6962   1.263   1.789  10.469 -0.5272 -0.3305 -0.2410
  468MPD2    C1 6963   1.331   1.762  10.584  0.0917 -0.1250  0.3472
  468MPD2    C2 6964   1.367   1.625  10.608  0.2052 -0.0714  0.6474
  468MPD2    C3 6965   1.322   1.523  10.522  0.0084  0.1142 -0.8445
  468MPD2    C4 6966   1.233   1.552  10.423  0.4838 -0.0355  0.1511
  468MPD2    C5 6967   1.208   1.685  10.393 -1.0797 -0.9378  0.0305
  468MPD2     H 6968   1.424   1.603  10.697  1.0161 -0.7113 -0.0308
  468MPD2    H1 6969   1.199   1.479  10.351  3.1210 -1.6819  0.5641
  468MPD2    H2 6970   1.259   1.890  10.430  2.5943 -1.3362 -3.2291
  468MPD2    H3 6971   1.146   1.706  10.307 -1.5531 -0.7564  0.4109
  468MPD2     N 6972   1.361   1.393  10.547 -0.0831 -0.0317  0.4401
  468MPD2    H5 6973   1.308   1.327  10.491  0.2253  0.1424 -0.0580
  468MPD2    N1 6974   1.382   1.861  10.663 -0.1041  0.1888 -0.4553
  468MPD2    H7 6975   1.420   1.825  10.751  0.6167  1.6107 -0.1884
  469TMC3    C1 6976   1.415   2.067  10.768  0.2727 -0.5256  0.3214
  469TMC3    C2 6977   1.531   2.027  10.828  0.3310  0.4774 -0.1662
  469TMC3    C3 6978   1.602   2.116  10.912  0.3677  0.8072 -0.3893
  469TMC3    C4 6979   1.375   2.204  10.785 -0.4289 -0.9759  0.2470
  469TMC3    C5 6980   1.456   2.285  10.860 -0.1148 -0.6531  0.3216
  469TMC3    C6 6981   1.570   2.245  10.928 -0.2868 -0.2525  0.5289
  469TMC3     C 6982   1.364   1.997  10.652 -0.1194 -0.4949  0.2942
  469TMC3     O 6983   1.310   2.060  10.564  0.6390 -0.2453 -0.2267
  469TMC3     H 6984   1.579   1.937  10.792  1.6518  0.7902  0.8341
  469TMC3    H1 6985   1.287   2.241  10.735 -1.8695 -1.7592  2.1843
  469TMC3    H2 6986   1.639   2.310  10.980 -0.3465  0.8173 -0.7204
  469TMC3    C7 6987   1.426   2.424  10.877  0.1152 -0.2505  0.2005
  469TMC3    C8 6988   1.700   2.048  11.002 -0.2836 -0.7092  0.3896
  469TMC3    O1 6989   1.499   2.493  10.946  0.0004  0.3535  0.2542
  469TMC3    O2 6990   1.719   1.930  10.986 -0.7547  0.0624  0.4535
  470TMC3    C1 6991   3.718   2.975   1.378 -0.0242  0.2054 -0.7325
  470TMC3    C2 6992   3.793   3.073   1.320  0.0728 -0.1616 -0.4716
  470TMC3    C3 6993   3.883   3.141   1.398 -0.0774  0.7148  0.1432
  470TMC3    C4 6994   3.726   2.951   1.514 -0.6223  0.3827  0.7160
  470TMC3    C5 6995   3.812   3.022   1.595  0.5151 -0.2023  0.3259
  470TMC3    C6 6996   3.888   3.123   1.534  0.4617 -0.3205  0.0367
  470TMC3     C 6997   3.659   2.874   1.286 -0.3040 -0.4162 -0.1803
  470TMC3     O 6998   3.602   2.913   1.182  0.1688  0.3949  0.0931
  470TMC3     H 6999   3.785   3.093   1.214  1.5128 -1.1236 -0.7621
  470TMC3    H1 7000   3.670   2.870   1.559 -1.5774  0.0324 -1.0756
  470TMC3    H2 7001   3.956   3.182   1.595 -0.0230  0.6714 -0.3848
  470TMC3    C7 7002   3.814   3.015   1.740  0.0920 -0.0375  0.3374
  470TMC3    C8 7003   3.964   3.244   1.339 -0.3066  0.2615  0.0072
  470TMC3    O1 7004   3.904   3.082   1.793  0.8536  0.3846 -0.3031
  470TMC3    O2 7005   3.911   3.307   1.246  0.0955 -0.1540  0.9115
  471MPD2     C 7006   4.036   4.191  16.466  0.4292 -0.1197  0.9990
  471MPD2    C1 7007   3.945   4.112  16.537 -0.1317 -0.2056 -0.3729
  471MPD2    C2 7008   3.942   4.123  16.676  0.4020  0.1394 -0.8026
  471MPD2    C3 7009   4.030   4.210  16.754 -0.4700  0.0585  0.1285
  471MPD2    C4 7010   4.115   4.287  16.671  0.1890 -0.3084 -0.2889
  471MPD2    C5 7011   4.125   4.272  16.534 -0.2871 -0.1445  0.3092
  471MPD2     H 7012   3.869   4.057  16.721  0.1963  1.9170  1.4784
  471MPD2    H1 7013   4.185   4.358  16.713  1.3861 -0.3439 -2.2484
  471MPD2    H2 7014   4.049   4.179  16.359  0.2808  1.5715  0.7948
  471MPD2    H3 7015   4.198   4.322  16.473 -0.2373  0.6038  0.9808
  471MPD2     N 7016   4.039   4.216  16.894 -0.2985 -0.0402 -0.4670
  471MPD2    H5 7017   4.111   4.269  16.941 -1.1557  1.1463 -0.5028
  471MPD2    N1 7018   3.858   4.032  16.472 -0.1538  0.5067 -0.2614
  471MPD2    H7 7019   3.813   3.960  16.528 -1.6872  1.1159 -0.7188
  472TMC3    C1 7020   3.762   3.927  16.293 -0.1840 -0.9926  0.2786
  472TMC3    C2 7021   3.682   3.948  16.184 -0.0397  0.0214 -0.1494
  472TMC3    C3 7022   3.612   3.839  16.136 -0.6261  0.2795  0.0612
  472TMC3    C4 7023   3.787   3.796  16.339 -0.0107 -0.7443 -0.0206
  472TMC3    C5 7024   3.722   3.696  16.274 -0.3380  0.3660  0.0018
  472TMC3    C6 7025   3.627   3.711  16.181 -0.8439  0.3064  0.0124
  472TMC3     C 7026   3.835   4.033  16.338  0.2961 -0.7336 -0.6361
  472TMC3     O 7027   3.875   4.118  16.253 -0.0925 -0.1616 -0.5387
  472TMC3     H 7028   3.674   4.042  16.131  0.3659  0.4815  0.6102
  472TMC3    H1 7029   3.852   3.782  16.425  0.2629  2.4955  0.3035
  472TMC3    H2 7030   3.578   3.625  16.136 -0.7094  0.9366 -1.3469
  472TMC3    C7 7031   3.708   3.582  16.364  0.0183  0.2446 -0.3332
  472TMC3    C8 7032   3.493   3.856  16.066 -0.5706  0.3044  0.2604
  472TMC3    O1 7033   3.746   3.593  16.479  0.5513 -0.0277 -0.0803
  472TMC3    O2 7034   3.476   3.946  15.988  0.6362  0.2275 -0.6998
  473MPD2     C 7035   3.703   1.260  14.000  0.6497 -0.2360  0.1779
  473MPD2    C1 7036   3.654   1.379  13.961 -0.1859  0.3998 -1.3259
  473MPD2    C2 7037   3.712   1.490  14.023 -0.2466  0.1348  0.1317
  473MPD2    C3 7038   3.815   1.476  14.117 -0.2074  0.4093 -0.0205
  473MPD2    C4 7039   3.856   1.349  14.147  0.5752  0.1244  0.0091
  473MPD2    C5 7040   3.802   1.244  14.091 -0.1011  0.8441 -0.7829
  473MPD2     H 7041   3.675   1.586  13.986 -1.8173 -0.8807 -0.9372
  473MPD2    H1 7042   3.933   1.335  14.222  0.8109 -0.5553 -0.3611
  473MPD2    H2 7043   3.665   1.170  13.952 -2.4958 -0.6056  3.3801
  473MPD2    H3 7044   3.821   1.142  14.121  1.1627  1.0839 -0.7702
  473MPD2     N 7045   3.872   1.577  14.195  1.0405  0.0414 -0.0074
  473MPD2    H5 7046   3.937   1.542  14.265 -0.1116  1.1906  1.6338
  473MPD2    N1 7047   3.552   1.404  13.864  0.2580  0.2391 -0.4718
  473MPD2    H7 7048   3.529   1.502  13.848  0.4312  0.2085 -0.9041
  474TMC3    C1 7049   3.907   1.798  14.271 -0.3919  0.6486 -0.7074
  474TMC3    C2 7050   3.841   1.917  14.287  0.0730  0.7739  0.2679
  474TMC3    C3 7051   3.913   2.016  14.349  0.0636  0.1836 -0.5729
  474TMC3    C4 7052   4.039   1.777  14.302  0.8513 -0.3548  0.3315
  474TMC3    C5 7053   4.104   1.883  14.360 -0.5297 -0.7287 -0.1748
  474TMC3    C6 7054   4.045   2.009  14.372  0.0339 -0.2746 -0.2725
  474TMC3     C 7055   3.837   1.706  14.188  0.0670 -0.3974 -0.6359
  474TMC3     O 7056   3.739   1.758  14.130  0.0726 -0.9997 -0.3294
  474TMC3     H 7057   3.736   1.939  14.276 -0.4148 -1.7380 -0.1112
  474TMC3    H1 7058   4.088   1.682  14.286  2.5271  0.3658  1.2410
  474TMC3    H2 7059   4.099   2.087  14.424  0.1215 -0.8989  0.5800
  474TMC3    C7 7060   4.240   1.872  14.411 -0.0201 -0.0914  0.5958
  474TMC3    C8 7061   3.855   2.142  14.367 -0.4162 -0.2343  0.3618
  474TMC3    O1 7062   4.310   1.789  14.356 -0.2568 -0.5641 -0.0395
  474TMC3    O2 7063   3.737   2.141  14.402  0.2050  0.4297 -0.5794
  475MPD2     C 7064   2.261   4.452  11.393 -0.5011  0.5302  0.3579
  475MPD2    C1 7065   2.228   4.476  11.257 -0.1966 -0.3452 -0.1811
  475MPD2    C2 7066   2.099   4.502  11.225  0.3072 -0.5804 -0.2242
  475MPD2    C3 7067   2.002   4.530  11.321  0.2517 -0.6264 -0.6003
  475MPD2    C4 7068   2.043   4.521  11.454  0.0445 -0.6441  1.1245
  475MPD2    C5 7069   2.167   4.474  11.486  0.0113 -0.2086  0.7622
  475MPD2     H 7070   2.072   4.516  11.121 -2.1192 -0.7770  0.3837
  475MPD2    H1 7071   1.989   4.546  11.545 -1.5766  0.8756 -0.2506
  475MPD2    H2 7072   2.363   4.431  11.423 -0.0958 -0.9783 -2.0828
  475MPD2    H3 7073   2.189   4.467  11.592  0.7458  0.5028  0.6645
  475MPD2     N 7074   1.868   4.562  11.278  0.7103  0.0732  0.3686
  475MPD2    H5 7075   1.863   4.586  11.180  0.2819 -0.3211  0.2940
  475MPD2    N1 7076   2.326   4.470  11.159 -0.2678 -0.4617 -1.0199
  475MPD2    H7 7077   2.422   4.481  11.192 -0.4837  0.2631 -0.6490
  476TMC3    C1 7078   2.423   4.501  10.953 -0.0524  0.1662  0.5631
  476TMC3    C2 7079   2.384   4.544  10.828  0.2702 -0.3297 -0.0228
  476TMC3    C3 7080   2.435   4.668  10.789  0.3403  0.2390 -0.0919
  476TMC3    C4 7081   2.525   4.567  11.032 -0.2366 -0.2281  0.1104
  476TMC3    C5 7082   2.560   4.690  10.988 -0.1677 -0.2788 -0.4034
  476TMC3    C6 7083   2.523   0.012  10.866  0.1929 -0.8472  0.0126
  476TMC3     C 7084   2.305   4.471  11.026 -0.4889 -0.4101 -0.4024
  476TMC3     O 7085   2.204   4.447  10.952 -0.0946  0.4882  0.1885
  476TMC3     H 7086   2.315   4.491  10.763  2.2370 -1.4539 -1.1973
  476TMC3    H1 7087   2.568   4.516  11.117  2.0729  0.2451 -0.7548
  476TMC3    H2 7088   2.556   0.108  10.829 -0.4649 -0.4631  0.4029
  476TMC3    C7 7089   2.626   0.051  11.084 -0.4219  0.7944 -0.5304
  476TMC3    C8 7090   2.346   0.025  10.701  0.6935  0.2259  0.7656
  476TMC3    O1 7091   2.648   4.715  11.188  0.4304 -0.2263  0.0105
  476TMC3    O2 7092   2.384   0.138  10.680  0.5235  0.7534 -0.8618
  477MPD2     C 7093   0.272   1.855  11.831 -0.8191  1.0411  0.4270
  477MPD2    C1 7094   0.142   1.824  11.801 -0.4708  0.6786  0.7589
  477MPD2    C2 7095   0.096   1.700  11.856 -0.0731  0.0287 -0.3865
  477MPD2    C3 7096   0.179   1.623  11.938 -0.3760 -0.4939  0.6398
  477MPD2    C4 7097   0.309   1.663  11.963 -0.4532 -0.0667 -0.0808
  477MPD2    C5 7098   0.353   1.782  11.911  0.6973  0.5804  0.1858
  477MPD2     H 7099   4.721   1.665  11.837 -0.3651 -0.1733  1.5074
  477MPD2    H1 7100   0.380   1.610  12.027  1.0660  1.1736 -0.7260
  477MPD2    H2 7101   0.320   1.934  11.774  0.0498 -1.4022 -2.2452
  477MPD2    H3 7102   0.456   1.804  11.939  1.4089 -1.8676 -0.4700
  477MPD2     N 7103   0.128   1.502  11.989 -0.1220 -0.4049 -0.7791
  477MPD2    H5 7104   0.032   1.484  11.964 -1.4353  4.9847  0.3603
  477MPD2    N1 7105   0.064   1.905  11.718 -0.0573 -0.9577 -0.0481
  477MPD2    H7 7106   0.093   2.001  11.705  2.3847 -2.2322 -3.9155
  478TMC3    C1 7107   4.625   1.968  11.570 -0.1188 -0.0970  0.2643
  478TMC3    C2 7108   4.604   2.087  11.640 -0.1090  0.5425 -0.5828
  478TMC3    C3 7109   4.499   2.164  11.601  0.3166 -0.8100  0.3242
  478TMC3    C4 7110   4.549   1.921  11.467 -0.0813  0.4646 -0.2701
  478TMC3    C5 7111   4.448   2.011  11.424 -0.0286 -0.2980  0.1015
  478TMC3    C6 7112   4.417   2.125  11.502  0.6086 -0.7365  0.4081
  478TMC3     C 7113   4.687   1.862  11.637  0.1885  0.6454  0.1142
  478TMC3     O 7114   4.646   1.748  11.615  0.3622  0.7805  0.1410
  478TMC3     H 7115   4.653   2.112  11.733  0.2799  0.1516 -0.6829
  478TMC3    H1 7116   4.560   1.821  11.428 -0.1018  0.9559 -1.5352
  478TMC3    H2 7117   4.333   2.188  11.475  1.7348  0.1063 -1.1181
  478TMC3    C7 7118   4.362   1.951  11.324  0.5692 -0.3847 -0.3628
  478TMC3    C8 7119   4.465   2.270  11.697  0.0021  0.2826 -0.4200
  478TMC3    O1 7120   4.344   1.830  11.328  0.5581 -0.3618  0.0122
  478TMC3    O2 7121   4.554   2.308  11.768 -0.4141  0.4199 -0.0753
  479MPD2     C 7122   3.523   3.622  15.221  0.6297 -0.7973 -0.3145
  479MPD2    C1 7123   3.459   3.553  15.317  0.0495  0.6774  0.5843
  479MPD2    C2 7124   3.498   3.554  15.447  0.1039 -0.2369 -0.2089
  479MPD2    C3 7125   3.607   3.631  15.488 -0.1795 -0.1338  0.0649
  479MPD2    C4 7126   3.680   3.687  15.386  0.0332 -0.7979 -0.3385
  479MPD2    C5 7127   3.637   3.693  15.256 -0.1728 -0.6161 -0.4981
  479MPD2     H 7128   3.440   3.496  15.517  2.9805  0.7300  2.9650
  479MPD2    H1 7129   3.774   3.737  15.407 -0.0410 -1.1602  0.8516
  479MPD2    H2 7130   3.504   3.607  15.116 -0.8257 -0.0461 -0.1685
  479MPD2    H3 7131   3.688   3.744  15.174 -2.9464 -0.1039 -1.9353
  479MPD2     N 7132   3.659   3.646  15.625 -0.8601 -0.1989 -0.3058
  479MPD2    H5 7133   3.755   3.675  15.636 -0.9743  1.4019 -3.6657
  479MPD2    N1 7134   3.351   3.482  15.265 -0.0245  0.6076 -0.3575
  479MPD2    H7 7135   3.326   3.503  15.169 -0.8446 -1.6229 -0.6432
  480TMC3    C1 7136   3.272   3.529  15.847  0.4975 -0.5569 -0.2392
  480TMC3    C2 7137   3.190   3.616  15.777  0.3519 -0.8421 -0.1288
  480TMC3    C3 7138   3.245   3.698  15.677  0.4556  0.4333  0.1510
  480TMC3    C4 7139   3.403   3.541  15.838  0.0045  0.3869  1.0125
  480TMC3    C5 7140   3.453   3.644  15.756 -0.2161 -0.1746  0.0539
  480TMC3    C6 7141   3.375   3.720  15.673  0.9302 -0.4947  1.1280
  480TMC3     C 7142   3.233   3.460  15.958 -0.0635  0.2800  0.0412
  480TMC3     O 7143   3.324   3.427  16.036  0.2145 -0.1747 -0.4633
  480TMC3     H 7144   3.082   3.602  15.778  0.2939 -0.4181 -0.5262
  480TMC3    H1 7145   3.468   3.463  15.875 -1.2277  0.5626  3.5815
  480TMC3    H2 7146   3.417   3.780  15.594  1.5926 -1.6195  0.6364
  480TMC3    C7 7147   3.598   3.637  15.755  0.4790 -0.1614  0.0222
  480TMC3    C8 7148   3.163   3.700  15.552 -0.2209  0.7852 -0.6481
  480TMC3    O1 7149   3.644   3.640  15.867 -0.2643 -0.1319  0.4655
  480TMC3    O2 7150   3.059   3.634  15.555 -0.3947  0.1648 -0.2596
  481MPD2     C 7151   0.822   2.469  13.803 -0.2768  1.0171 -0.3292
  481MPD2    C1 7152   0.717   2.554  13.834 -0.1052  0.0515  0.5304
  481MPD2    C2 7153   0.664   2.533  13.964 -0.0226 -0.3847  0.6710
  481MPD2    C3 7154   0.728   2.450  14.059 -0.7904 -0.3187  0.0367
  481MPD2    C4 7155   0.843   2.384  14.025  0.1381 -0.5106  0.2007
  481MPD2    C5 7156   0.889   2.402  13.901 -0.0460  0.3419 -0.5321
  481MPD2     H 7157   0.574   2.587  13.993  0.8984  0.9606  1.0008
  481MPD2    H1 7158   0.897   2.337  14.106  1.1526 -0.8647 -0.6927
  481MPD2    H2 7159   0.861   2.477  13.703  1.8426  1.3299  0.5191
  481MPD2    H3 7160   0.985   2.358  13.875 -0.0965 -1.0140  1.6388
  481MPD2     N 7161   0.687   2.422  14.191  0.5210  0.5465  0.2932
  481MPD2    H5 7162   0.757   2.373  14.245  1.1421  1.6422  0.4774
  481MPD2    N1 7163   0.669   2.645  13.739  0.1858  0.0913 -0.0224
  481MPD2    H7 7164   0.720   2.638  13.652  0.7859 -2.8600  0.5796
  482TMC3    C1 7165   0.542   2.826  13.652  0.8278  0.4129  0.1910
  482TMC3    C2 7166   0.413   2.863  13.635  0.0704 -0.2322 -0.7933
  482TMC3    C3 7167   0.386   2.908  13.514  0.2311 -0.1026  0.2358
  482TMC3    C4 7168   0.647   2.843  13.557 -0.1704  0.2961 -0.2264
  482TMC3    C5 7169   0.612   2.889  13.430  0.2546 -0.9439  0.4364
  482TMC3    C6 7170   0.476   2.920  13.412 -0.6774 -0.3084 -0.5579
  482TMC3     C 7171   0.553   2.716  13.751 -0.8757 -0.5046  0.2164
  482TMC3     O 7172   0.458   2.698  13.827  0.4433 -0.0918  0.5753
  482TMC3     H 7173   0.339   2.863  13.714  0.8063  0.9062 -0.1122
  482TMC3    H1 7174   0.749   2.822  13.587 -1.2068 -0.7042  2.5533
  482TMC3    H2 7175   0.445   2.932  13.308 -0.7238 -0.8999 -0.6102
  482TMC3    C7 7176   0.711   2.885  13.326 -1.0357  0.1306 -0.1680
  482TMC3    C8 7177   0.246   2.927  13.484 -0.3626 -0.0574 -0.7799
  482TMC3    O1 7178   0.827   2.863  13.352 -0.0893 -0.2424 -0.0008
  482TMC3    O2 7179   0.169   2.864  13.552  0.1436  0.4050 -0.1789
  483TMC3    C1 7180   3.819   2.453   1.845  0.0875 -0.7022 -0.3639
  483TMC3    C2 7181   3.849   2.534   1.737  0.1227 -0.7771  0.1980
  483TMC3    C3 7182   3.970   2.604   1.725 -0.5975  0.4658 -0.3627
  483TMC3    C4 7183   3.918   2.432   1.936 -0.2986 -0.4158  0.4763
  483TMC3    C5 7184   4.036   2.509   1.932 -0.0531 -0.2267  0.0245
  483TMC3    C6 7185   4.059   2.598   1.827  0.2876 -0.6403 -0.0076
  483TMC3     C 7186   3.706   2.365   1.850 -0.4330  0.2648  0.2711
  483TMC3     O 7187   3.602   2.401   1.797  0.5457 -0.5504  0.3182
  483TMC3     H 7188   3.770   2.541   1.663 -3.7554 -1.4042  4.2096
  483TMC3    H1 7189   3.894   2.375   2.025 -2.8196 -0.0967  0.0243
  483TMC3    H2 7190   4.156   2.647   1.824  0.1044 -0.3555 -1.2552
  483TMC3    C7 7191   4.151   2.452   1.997  0.3854  0.3403 -0.1994
  483TMC3    C8 7192   3.979   2.690   1.610 -1.2049  0.2046 -0.2455
  483TMC3    O1 7193   4.230   2.525   2.056  0.0007  0.2897  0.1146
  483TMC3    O2 7194   3.879   2.705   1.544 -0.5537 -0.0805  0.0038
  484MPD2     C 7195   0.523   0.561  12.337 -0.4429 -0.1022 -0.0332
  484MPD2    C1 7196   0.570   0.456  12.410  0.1946  0.3090 -1.1076
  484MPD2    C2 7197   0.706   0.430  12.407  0.2582  0.0619 -0.2284
  484MPD2    C3 7198   0.786   0.517  12.349 -0.6858 -0.4076 -0.2371
  484MPD2    C4 7199   0.729   0.631  12.294  0.2224  0.6594  0.8183
  484MPD2    C5 7200   0.600   0.656  12.286  0.1442 -0.3425 -0.6854
  484MPD2     H 7201   0.738   0.342  12.462 -0.7893  0.6377  1.2943
  484MPD2    H1 7202   0.807   0.692  12.248  1.0842 -1.9675 -1.1828
  484MPD2    H2 7203   0.415   0.569  12.334 -0.5415 -0.8872  1.3244
  484MPD2    H3 7204   0.552   0.738  12.232  2.3964  0.9741 -0.6792
  484MPD2     N 7205   0.929   0.508  12.349  0.2535  0.4069  0.3651
  484MPD2    H5 7206   0.987   0.576  12.301 -0.9724  1.9312  1.0377
  484MPD2    N1 7207   0.472   0.374  12.470 -0.0616 -0.4177 -0.3039
  484MPD2    H7 7208   0.378   0.391  12.438 -0.6305  0.0042  1.6230
  485TMC3    C1 7209   1.143   0.409  12.384  0.7048  0.7886 -0.1318
  485TMC3    C2 7210   1.207   0.321  12.458 -0.0884 -0.9200  0.6470
  485TMC3    C3 7211   1.310   0.365  12.531 -1.2082 -0.4979  0.6041
  485TMC3    C4 7212   1.194   0.534  12.361 -0.6129  0.2001 -0.6114
  485TMC3    C5 7213   1.306   0.572  12.426 -0.5706 -0.5253 -0.0118
  485TMC3    C6 7214   1.358   0.488  12.521  0.0607  0.1631  0.4950
  485TMC3     C 7215   1.000   0.395  12.392 -0.8131 -0.3325 -0.4174
  485TMC3     O 7216   0.959   0.289  12.432  0.5688  0.4549  0.1063
  485TMC3     H 7217   1.174   0.218  12.466 -1.2690 -0.5848  0.1135
  485TMC3    H1 7218   1.159   0.595  12.278 -2.5202  0.2735  0.2678
  485TMC3    H2 7219   1.423   0.529  12.597 -1.4903  1.5616  1.0611
  485TMC3    C7 7220   1.407   0.609  12.326 -0.5634 -0.1042  0.0328
  485TMC3    C8 7221   1.417   0.272  12.570  0.2578 -0.5742  0.3215
  485TMC3    O1 7222   1.363   0.673  12.232 -0.2206 -0.4844 -0.4662
  485TMC3    O2 7223   1.530   0.318  12.557  0.2439  0.6416 -0.2373
  486MPD2     C 7224   2.929   4.079  12.974  0.2025 -0.2350 -0.4951
  486MPD2    C1 7225   2.888   4.050  12.844  0.1723 -0.6489 -0.0141
  486MPD2    C2 7226   2.830   4.158  12.773 -0.0059 -0.6132 -0.2161
  486MPD2    C3 7227   2.814   4.282  12.836  0.9395 -0.1224  0.5859
  486MPD2    C4 7228   2.847   4.301  12.968  0.6719 -0.6701  0.3255
  486MPD2    C5 7229   2.911   4.200  13.036 -0.4657  0.2935 -0.2725
  486MPD2     H 7230   2.796   4.142  12.671 -1.4394  0.4803  0.0969
  486MPD2    H1 7231   2.829   4.391  13.026  0.2428 -0.0716 -0.7480
  486MPD2    H2 7232   2.965   4.001  13.039 -2.7007 -1.7577 -0.6882
  486MPD2    H3 7233   2.929   4.213  13.142  0.9208 -0.2533 -0.4368
  486MPD2     N 7234   2.763   4.384  12.757  0.5903  0.1463  0.1436
  486MPD2    H5 7235   2.757   4.371  12.656  1.7884  1.6112 -0.0997
  486MPD2    N1 7236   2.893   3.913  12.799  0.0914 -0.3435 -0.2726
  486MPD2    H7 7237   2.932   3.843  12.861  1.5334 -0.0867 -0.8895
  487TMC3    C1 7238   2.888   3.735  12.652  0.8793  0.2596 -0.3343
  487TMC3    C2 7239   2.825   3.671  12.546  0.4561 -0.4286  0.3155
  487TMC3    C3 7240   2.848   3.536  12.528  0.1331  0.3438  0.1996
  487TMC3    C4 7241   2.984   3.667  12.736  0.3432  0.2258  0.1653
  487TMC3    C5 7242   3.003   3.530  12.710  0.4784 -0.7794  0.0620
  487TMC3    C6 7243   2.948   3.473  12.598 -0.6052  0.3164  0.2938
  487TMC3     C 7244   2.854   3.868  12.673 -0.4907  0.3405  0.4747
  487TMC3     O 7245   2.799   3.931  12.583  0.0101  0.0791  0.4380
  487TMC3     H 7246   2.740   3.716  12.496  0.6236  1.0724  1.3948
  487TMC3    H1 7247   3.043   3.709  12.817  2.7898 -0.8580 -1.0581
  487TMC3    H2 7248   2.967   3.368  12.583  1.6198  0.8788 -0.8785
  487TMC3    C7 7249   3.105   3.468  12.789 -0.1096  0.2106  0.1437
  487TMC3    C8 7250   2.760   3.469  12.440 -0.4084  1.4882 -0.1853
  487TMC3    O1 7251   3.141   3.533  12.886 -0.0679  0.2974 -0.1726
  487TMC3    O2 7252   2.706   3.543  12.357 -0.1472  0.1544 -0.1478
  488MPD2     C 7253   3.114   0.418  16.349  0.3575  0.3909  1.1577
  488MPD2    C1 7254   3.175   0.516  16.425 -0.8187  0.1896  0.3246
  488MPD2    C2 7255   3.174   0.506  16.564 -0.0394 -0.5198  0.8723
  488MPD2    C3 7256   3.121   0.398  16.627  0.7064 -0.1120  0.0470
  488MPD2    C4 7257   3.070   0.296  16.555  0.4267 -1.1664  0.2222
  488MPD2    C5 7258   3.068   0.311  16.419  0.0393 -0.2740  0.4607
  488MPD2     H 7259   3.203   0.590  16.626  0.2087  0.3980 -0.4823
  488MPD2    H1 7260   3.031   0.209  16.607 -2.0890  0.8287  1.6334
  488MPD2    H2 7261   3.114   0.426  16.241 -0.9377 -2.4949  0.9608
  488MPD2    H3 7262   3.034   0.226  16.360 -1.7010  0.4888  0.3617
  488MPD2     N 7263   3.115   0.404  16.767  0.9667 -0.2341  0.1868
  488MPD2    H5 7264   3.179   0.468  16.813 -1.4262  1.6744  0.8295
  488MPD2    N1 7265   3.229   0.634  16.370  0.6339 -0.8559  0.5083
  488MPD2    H7 7266   3.258   0.708  16.433  1.4993  2.6851 -4.0687
  489TMC3    C1 7267   3.047   0.369  16.993 -0.0618  1.0156  0.0859
  489TMC3    C2 7268   3.079   0.499  17.013 -0.5456 -0.1323  0.5614
  489TMC3    C3 7269   3.104   0.541  17.141  0.2564 -0.7227  0.5374
  489TMC3    C4 7270   3.055   0.272  17.089  0.5755 -0.0650 -0.2657
  489TMC3    C5 7271   3.070   0.317  17.220  0.7873 -0.1866 -0.0173
  489TMC3    C6 7272   3.097   0.450  17.242 -0.1884  0.3234  0.0838
  489TMC3     C 7273   3.038   0.323  16.850  0.1949 -0.3958 -0.4116
  489TMC3     O 7274   2.945   0.246  16.823 -0.0476 -0.5509 -0.4114
  489TMC3     H 7275   3.076   0.574  16.935 -0.5504 -1.2675 -0.5149
  489TMC3    H1 7276   3.044   0.168  17.060  0.2664  0.1260 -0.8487
  489TMC3    H2 7277   3.100   0.487  17.344  1.4619  1.3800 -0.3324
  489TMC3    C7 7278   3.025   0.238  17.338 -0.8410 -0.0673 -0.1469
  489TMC3    C8 7279   3.176   0.668  17.153  0.1244  0.4034 -0.2759
  489TMC3    O1 7280   3.064   0.273  17.449  0.8901  0.4413  0.4518
  489TMC3    O2 7281   3.148   0.745  17.061  0.2073 -0.6379 -0.4137
  490MPD2     C 7282   3.770   0.359   0.422 -0.2550 -0.0040  0.4257
  490MPD2    C1 7283   3.814   0.347   0.298 -0.2463 -0.7667 -0.3733
  490MPD2    C2 7284   3.878   0.458   0.241 -0.1443  0.4912  0.0051
  490MPD2    C3 7285   3.898   0.578   0.311  0.0776  0.1748 -0.4867
  490MPD2    C4 7286   3.841   0.583   0.439 -0.7458  0.6662  0.1382
  490MPD2    C5 7287   3.783   0.474   0.494  0.2279 -0.2057 -0.4106
  490MPD2     H 7288   3.915   0.440   0.141  2.4759  0.3058  1.0127
  490MPD2    H1 7289   3.846   0.669   0.506 -0.4658 -0.1009  1.0991
  490MPD2    H2 7290   3.728   0.278   0.480  0.9074 -0.2779  0.8934
  490MPD2    H3 7291   3.742   0.489   0.593  1.6307 -0.3711  0.2059
  490MPD2     N 7292   3.984   0.674   0.258 -0.0065  0.0765  0.1337
  490MPD2    H5 7293   4.016   0.744   0.324  0.2416 -0.7711  0.9098
  490MPD2    N1 7294   3.812   0.223   0.228  0.3253 -0.3623  0.1750
  490MPD2    H7 7295   3.870   0.212   0.145 -0.2187  2.1050 -0.5315
  491TMC3    C1 7296   3.813   4.710   0.216  0.2683 -0.4715  0.7330
  491TMC3    C2 7297   3.845   4.605   0.296  0.1832 -0.2509 -0.0353
  491TMC3    C3 7298   3.910   4.499   0.239  0.4563 -0.3343 -0.6148
  491TMC3    C4 7299   3.819   4.700   0.080  0.1163  0.3914  0.7861
  491TMC3    C5 7300   3.880   4.592   0.023 -0.1886 -0.0240 -0.0522
  491TMC3    C6 7301   3.928   4.491   0.106 -0.4181  0.1548  0.0707
  491TMC3     C 7302   3.769   0.102   0.287  0.1875  0.3384  0.3566
  491TMC3     O 7303   3.694   0.081   0.382 -1.1377 -0.4418  0.6164
  491TMC3     H 7304   3.845   4.623   0.402 -1.5289  1.2975 -0.2987
  491TMC3    H1 7305   3.784   0.061   0.024 -0.4913  0.9840  2.0660
  491TMC3    H2 7306   3.967   4.397   0.070 -0.7370  0.2507 -0.5255
  491TMC3    C7 7307   3.835   4.554  17.594  0.0958 -0.5076 -0.2422
  491TMC3    C8 7308   3.906   4.377   0.323 -0.0705 -0.3930  0.0705
  491TMC3    O1 7309   3.872   4.442  17.564 -0.1173 -0.1748 -0.3972
  491TMC3    O2 7310   3.971   4.283   0.290  0.4436 -0.5518  0.1512
  492MPD2     C 7311   4.197   0.172  11.681  0.3258  0.3756 -0.6631
  492MPD2    C1 7312   4.165   0.083  11.581  0.2436 -1.1222  0.4942
  492MPD2    C2 7313   4.092   4.690  11.613  0.0162 -0.4892  0.1535
  492MPD2    C3 7314   4.072   4.657  11.747  0.5515 -1.1951 -0.7718
  492MPD2    C4 7315   4.118   0.023  11.843  0.5133 -1.0548  0.2805
  492MPD2    C5 7316   4.176   0.144  11.809  0.0347  0.0391 -0.1548
  492MPD2     H 7317   4.050   4.632  11.531 -3.6975  1.3544  0.7891
  492MPD2    H1 7318   4.091   0.009  11.947  0.4564 -0.7865  0.3035
  492MPD2    H2 7319   4.214   0.277  11.660 -2.5581  1.2287  1.2556
  492MPD2    H3 7320   4.188   0.216  11.888  1.5973  0.2598 -0.5942
  492MPD2     N 7321   3.997   4.545  11.785 -0.3042  0.7594 -0.1551
  492MPD2    H5 7322   3.990   4.534  11.885 -0.3190  2.2516  0.0086
  492MPD2    N1 7323   4.191   0.126  11.447  0.6710  0.1353 -0.1428
  492MPD2    H7 7324   4.237   0.216  11.447  2.4809 -0.7824 -2.6989
  493TMC3    C1 7325   4.183   0.147  11.213  0.0251  0.6321 -0.1895
  493TMC3    C2 7326   4.269   0.247  11.235  0.8180 -0.5498 -0.9557
  493TMC3    C3 7327   4.280   0.353  11.145  0.3523  0.8555 -0.0774
  493TMC3    C4 7328   4.090   0.153  11.114 -0.3842 -1.4457 -0.1005
  493TMC3    C5 7329   4.097   0.260  11.030 -0.5076 -0.1493  0.6041
  493TMC3    C6 7330   4.194   0.354  11.036  0.2052 -0.0932 -1.2341
  493TMC3     C 7331   4.152   0.071  11.329  0.6041  0.0798 -0.3365
  493TMC3     O 7332   4.080   4.698  11.307 -0.3543 -0.4295 -0.4135
  493TMC3     H 7333   4.338   0.249  11.319 -1.2596 -0.2553  0.7713
  493TMC3    H1 7334   4.016   0.075  11.101 -2.7698  0.7066  0.7058
  493TMC3    H2 7335   4.202   0.417  10.948 -1.1812  2.8731  0.7707
  493TMC3    C7 7336   4.022   0.253  10.903 -0.6613  0.1048 -0.6387
  493TMC3    C8 7337   4.382   0.449  11.162  0.3240 -0.6576  0.7035
  493TMC3    O1 7338   3.956   0.155  10.874  0.3789  0.1909 -0.0046
  493TMC3    O2 7339   4.470   0.426  11.247 -0.9168  0.3805  0.2777
  494TMC3    C1 7340   0.269   1.935   0.553 -0.3734  0.2225  0.1569
  494TMC3    C2 7341   0.317   1.804   0.544 -0.0152 -1.1152 -0.4821
  494TMC3    C3 7342   0.333   1.752   0.420  0.4947  0.1450  0.6870
  494TMC3    C4 7343   0.237   2.002   0.440  0.1983 -1.3655 -1.1644
  494TMC3    C5 7344   0.270   1.952   0.320  0.3317  0.7270 -0.5868
  494TMC3    C6 7345   0.305   1.821   0.308 -0.2461  0.4929 -0.8857
  494TMC3     C 7346   0.225   1.993   0.679 -0.4755  0.0093  0.1313
  494TMC3     O 7347   0.231   2.114   0.681 -0.4946 -0.2657 -0.2788
  494TMC3     H 7348   0.347   1.753   0.635  2.4104  2.1573  0.5930
  494TMC3    H1 7349   0.182   2.094   0.459 -0.4978 -1.9037 -0.5694
  494TMC3    H2 7350   0.314   1.779   0.208  3.5009  1.6739 -1.0545
  494TMC3    C7 7351   0.243   2.026   0.203 -0.7073  0.3818  0.3884
  494TMC3    C8 7352   0.379   1.617   0.407 -0.9064 -0.0101  0.2540
  494TMC3    O1 7353   0.256   1.963   0.097 -0.0679  0.0257  0.6921
  494TMC3    O2 7354   0.417   1.566   0.510 -0.9420  0.0558  0.3323
  495TMC3    C1 7355   3.625   4.014  14.726 -0.0211 -0.3617  0.0474
  495TMC3    C2 7356   3.557   4.078  14.625  0.2063  0.4880  0.4827
  495TMC3    C3 7357   3.429   4.109  14.656  0.2922 -0.2331  0.3117
  495TMC3    C4 7358   3.580   4.015  14.860 -0.3065  0.1549  0.4665
  495TMC3    C5 7359   3.448   4.052  14.884 -0.3620 -0.0570 -0.3256
  495TMC3    C6 7360   3.365   4.079  14.781 -0.0658  0.0901  0.6366
  495TMC3     C 7361   3.649   3.877  14.681  0.3539 -0.9270 -0.5289
  495TMC3     O 7362   3.613   3.860  14.567  0.7482  0.4554 -0.0491
  495TMC3     H 7363   3.596   4.099  14.526  1.4780 -4.0092  0.0247
  495TMC3    H1 7364   3.644   3.975  14.938  0.1424 -0.2990 -0.1233
  495TMC3    H2 7365   3.257   4.085  14.791 -0.1480 -0.9277  0.3040
  495TMC3    C7 7366   3.388   4.023  15.010  0.3335 -0.5001  0.0664
  495TMC3    C8 7367   3.335   4.093  14.545 -0.6734 -0.5809 -0.0136
  495TMC3    O1 7368   3.457   4.043  15.109  0.1168  1.1140  0.4925
  495TMC3    O2 7369   3.237   4.171  14.537 -0.0072  0.0953 -0.2619
  496MPD2     C 7370   0.187   3.512  15.251 -0.0258  0.5528  0.2432
  496MPD2    C1 7371   0.249   3.408  15.317  0.6351  0.6586 -0.3205
  496MPD2    C2 7372   0.286   3.429  15.455  0.4456  0.6002  0.2740
  496MPD2    C3 7373   0.250   3.547  15.520 -0.1026 -0.8756  0.9333
  496MPD2    C4 7374   0.184   3.650  15.450 -0.7799 -0.3840  0.0678
  496MPD2    C5 7375   0.154   3.626  15.316 -0.6036  1.2196 -0.1441
  496MPD2     H 7376   0.339   3.354  15.513 -1.5064  0.5087  1.9333
  496MPD2    H1 7377   0.149   3.740  15.500 -2.5342 -0.3839 -1.1846
  496MPD2    H2 7378   0.175   3.498  15.144 -0.5606 -3.0839  0.7738
  496MPD2    H3 7379   0.110   3.705  15.257 -2.4787 -0.2245 -0.6976
  496MPD2     N 7380   0.293   3.566  15.653  0.1074  0.3609  0.1208
  496MPD2    H5 7381   0.341   3.485  15.691 -0.5240  0.1091  0.3847
  496MPD2    N1 7382   0.282   3.298  15.238 -0.1100  0.2196 -0.1354
  496MPD2    H7 7383   0.270   3.300  15.137 -0.2047  1.1120 -0.1072
  497TMC3    C1 7384   0.349   3.665  15.861 -0.1031  0.3413 -0.2349
  497TMC3    C2 7385   0.418   3.546  15.893 -0.3997 -0.4562  0.1552
  497TMC3    C3 7386   0.492   3.564  16.007 -0.3020  0.5080  1.0147
  497TMC3    C4 7387   0.351   3.780  15.928 -0.2230  0.3017  0.4185
  497TMC3    C5 7388   0.440   3.789  16.038  0.6423 -0.1636 -0.4155
  497TMC3    C6 7389   0.503   3.677  16.081  0.1879  0.4844  1.0353
  497TMC3     C 7390   0.291   3.684  15.728  0.1448  0.2064 -0.0990
  497TMC3     O 7391   0.258   3.798  15.700 -0.1222 -0.1989  0.0684
  497TMC3     H 7392   0.411   3.453  15.838  1.4912  0.6350 -1.9233
  497TMC3    H1 7393   0.295   3.871  15.912  0.9839  0.7901 -1.0546
  497TMC3    H2 7394   0.559   3.682  16.174  2.4137 -1.4914 -0.2017
  497TMC3    C7 7395   0.432   3.901  16.133 -0.0654  0.1149 -0.3281
  497TMC3    C8 7396   0.580   3.458  16.043  0.1239  0.3253  0.2918
  497TMC3    O1 7397   0.324   3.951  16.141 -0.3778  0.3623  0.0683
  497TMC3    O2 7398   0.636   3.464  16.150 -0.8252  0.3869 -0.1142
  498MPD2     C 7399   2.370   0.315  10.058  0.1709  0.2625 -0.2173
  498MPD2    C1 7400   2.300   0.434  10.028  0.2006  0.5628 -0.3799
  498MPD2    C2 7401   2.163   0.432  10.026 -0.1166  0.2638  0.0786
  498MPD2    C3 7402   2.092   0.316  10.051 -0.2699  0.4839 -0.4028
  498MPD2    C4 7403   2.155   0.199  10.081  0.2555  0.1284 -0.3425
  498MPD2    C5 7404   2.291   0.208  10.081  0.6590 -0.4683 -0.1205
  498MPD2     H 7405   2.111   0.523  10.000 -0.1774  0.3468  0.4902
  498MPD2    H1 7406   2.116   0.101  10.107  1.3540 -0.9917 -2.9005
  498MPD2    H2 7407   2.476   0.306  10.078 -0.6697  0.6858  4.4067
  498MPD2    H3 7408   2.344   0.117  10.109  0.2354 -0.6845 -0.0228
  498MPD2     N 7409   1.949   0.326  10.053 -0.1137 -0.3038  0.1713
  498MPD2    H5 7410   1.907   0.418  10.046  1.9581  0.4428 -2.5684
  498MPD2    N1 7411   2.358   0.556   9.970  0.2345 -0.1257  0.0134
  498MPD2    H7 7412   2.292   0.617   9.925  0.0933 -1.8926 -2.1966
  499TMC3    C1 7413   2.519   0.690   9.873  0.0547 -0.1619 -0.2991
  499TMC3    C2 7414   2.648   0.708   9.834 -1.0176  0.2268 -0.3306
  499TMC3    C3 7415   2.672   0.827   9.760  0.4278  0.5289 -0.1643
  499TMC3    C4 7416   2.420   0.782   9.847  0.5834  0.3391 -0.5701
  499TMC3    C5 7417   2.452   0.886   9.765 -0.3498  0.3473  0.1308
  499TMC3    C6 7418   2.579   0.922   9.727  0.3494 -0.4154  0.0092
  499TMC3     C 7419   2.495   0.574   9.953  0.0396 -0.3920  0.0142
  499TMC3     O 7420   2.592   0.506   9.987  0.4619  0.2674 -0.0338
  499TMC3     H 7421   2.721   0.629   9.850 -1.0432  0.0323 -1.1367
  499TMC3    H1 7422   2.318   0.755   9.871  0.6636 -0.2177 -0.8511
  499TMC3    H2 7423   2.603   1.006   9.663 -0.5877 -0.5326 -0.4912
  499TMC3    C7 7424   2.347   0.977   9.732 -1.1808  0.2036  0.5518
  499TMC3    C8 7425   2.813   0.868   9.742 -0.6876 -1.0391 -0.0871
  499TMC3    O1 7426   2.379   1.092   9.702 -0.0764  0.7643  0.0323
  499TMC3    O2 7427   2.836   0.986   9.728 -0.0831 -0.7885  0.8976
  500MPD2     C 7428   3.244   1.074  10.546 -0.2858 -1.1785 -0.1028
  500MPD2    C1 7429   3.252   1.212  10.525  0.4750 -0.3688  0.0334
  500MPD2    C2 7430   3.181   1.265  10.416  0.2495  0.5340  0.1571
  500MPD2    C3 7431   3.118   1.184  10.317  0.8343 -0.7799 -0.2600
  500MPD2    C4 7432   3.119   1.047  10.337  0.0923  0.5838 -0.1543
  500MPD2    C5 7433   3.172   0.998  10.455 -0.5056 -0.0010  0.3615
  500MPD2     H 7434   3.178   1.373  10.400 -2.0281  0.4231 -0.2103
  500MPD2    H1 7435   3.067   0.975  10.274  2.3140 -0.0117 -1.3227
  500MPD2    H2 7436   3.289   1.021  10.629  0.3669  1.3909  1.1765
  500MPD2    H3 7437   3.168   0.891  10.468  1.2240 -0.1321 -0.2051
  500MPD2     N 7438   3.028   1.228  10.213  0.4361 -0.9358  0.3131
  500MPD2    H5 7439   2.989   1.160  10.149 -0.0469 -2.8050  2.5910
  500MPD2    N1 7440   3.328   1.292  10.613 -0.1796  0.2075 -0.4672
  500MPD2    H7 7441   3.336   1.392  10.594 -1.2748  0.5973  1.0705
  501TMC3    C1 7442   3.517   1.351  10.752 -0.3747 -0.0988  0.2830
  501TMC3    C2 7443   3.496   1.485  10.712 -0.3982 -0.1515 -0.0405
  501TMC3    C3 7444   3.582   1.573  10.765 -0.0807  0.0596  0.2271
  501TMC3    C4 7445   3.605   1.314  10.845  1.1488  0.4315 -0.0800
  501TMC3    C5 7446   3.698   1.413  10.881 -1.3730 -0.1537  0.0883
  501TMC3    C6 7447   3.684   1.541  10.853  0.2384  0.3234  0.0046
  501TMC3     C 7448   3.418   1.250  10.708 -0.5030  0.0304  0.6970
  501TMC3     O 7449   3.440   1.134  10.743  0.0370  0.0114 -0.2750
  501TMC3     H 7450   3.415   1.516  10.647 -0.0707 -0.9746 -0.8414
  501TMC3    H1 7451   3.611   1.210  10.871  2.3177  0.3651 -0.6456
  501TMC3    H2 7452   3.757   1.617  10.879 -0.4706  1.7223 -2.1117
  501TMC3    C7 7453   3.807   1.356  10.960  0.0554 -0.1127 -0.2332
  501TMC3    C8 7454   3.555   1.720  10.750  0.5593 -0.1064 -0.4483
  501TMC3    O1 7455   3.804   1.242  10.998 -0.3352  0.5560  0.5836
  501TMC3    O2 7456   3.631   1.793  10.816 -0.0822 -0.0878  0.2902
  502TMC3    C1 7457   2.876   4.520  15.333  0.5172  0.0601 -0.1623
  502TMC3    C2 7458   2.890   4.636  15.261  0.1287  0.2589  0.4675
  502TMC3    C3 7459   2.787   4.678  15.192  0.4943  0.4020 -0.0499
  502TMC3    C4 7460   2.765   4.447  15.328  0.2190  0.5729 -0.1247
  502TMC3    C5 7461   2.652   4.497  15.270 -0.1532  0.4129 -0.4006
  502TMC3    C6 7462   2.667   4.615  15.191 -0.0635  0.5265  1.1216
  502TMC3     C 7463   2.995   4.473  15.395  0.3614  0.3252 -0.0937
  502TMC3     O 7464   3.099   4.527  15.363 -0.2806  0.3000 -0.0792
  502TMC3     H 7465   2.982   4.693  15.269 -0.4127  1.5142 -2.0140
  502TMC3    H1 7466   2.760   4.354  15.384 -0.6104  0.0954 -0.9847
  502TMC3    H2 7467   2.580   4.652  15.137  0.2895 -1.1155 -0.5892
  502TMC3    C7 7468   2.523   4.433  15.286  0.2439 -0.1117 -0.4515
  502TMC3    C8 7469   2.802   0.071  15.107 -0.0107  0.1695  0.2090
  502TMC3    O1 7470   2.524   4.312  15.291 -0.5749  0.2283 -0.3509
  502TMC3    O2 7471   2.897   0.146  15.130 -0.1852 -0.1223  0.3668
  503MPD2     C 7472   0.068   0.587  16.993 -0.0776  0.4895 -0.2030
  503MPD2    C1 7473   0.121   0.666  17.088 -0.0931 -0.0368  0.3555
  503MPD2    C2 7474   0.226   0.615  17.163  0.3862  1.0197  0.3115
  503MPD2    C3 7475   0.268   0.490  17.151  0.4720  0.0379  0.3193
  503MPD2    C4 7476   0.198   0.406  17.072  0.1120  0.7130 -0.0557
  503MPD2    C5 7477   0.104   0.458  16.987  0.4675 -0.2436 -0.2583
  503MPD2     H 7478   0.267   0.681  17.239  0.0323  0.8907  0.6185
  503MPD2    H1 7479   0.224   0.302  17.057  1.5508  1.2500 -1.3168
  503MPD2    H2 7480   4.714   0.625  16.929 -2.2655 -3.3304  0.2626
  503MPD2    H3 7481   0.058   0.386  16.920  1.0688 -1.1691  0.3062
  503MPD2     N 7482   0.388   0.458  17.214 -0.0049  0.1962  0.5071
  503MPD2    H5 7483   0.433   0.529  17.272 -0.9453  0.9977  0.2453
  503MPD2    N1 7484   0.095   0.802  17.104 -0.4927 -0.5653 -0.3818
  503MPD2    H7 7485   0.157   0.849  17.169 -0.5610 -1.1908  0.1343
  504TMC3    C1 7486   0.591   0.344  17.257 -0.3130  0.4748 -0.0138
  504TMC3    C2 7487   0.602   0.371  17.394 -0.1152 -0.0505  0.6787
  504TMC3    C3 7488   0.718   0.325  17.455 -0.0767 -0.4423 -0.1245
  504TMC3    C4 7489   0.688   0.276  17.193  0.4980  0.5584  0.3240
  504TMC3    C5 7490   0.810   0.242  17.256 -0.0954 -0.4302  0.2194
  504TMC3    C6 7491   0.822   0.267  17.394 -0.0942  0.0085  0.3972
  504TMC3     C 7492   0.460   0.344  17.194  0.5653  0.9406 -0.3246
  504TMC3     O 7493   0.425   0.247  17.122  0.1876 -0.0624 -0.0713
  504TMC3     H 7494   0.517   0.398  17.455 -1.3455  1.1461 -1.5471
  504TMC3    H1 7495   0.673   0.258  17.088 -4.0617  1.0274  0.8651
  504TMC3    H2 7496   0.910   0.243  17.453 -0.9139  1.3087  2.1510
  504TMC3    C7 7497   0.923   0.216  17.170  0.2690 -0.3797  0.0689
  504TMC3    C8 7498   0.695   0.293  17.596  0.2536 -0.7458  0.6273
  504TMC3    O1 7499   0.891   0.221  17.050 -0.1801 -0.0343  0.0838
  504TMC3    O2 7500   0.622   0.360  17.667  0.6277  0.6021  0.0986
  505MPD2     C 7501   0.645   0.759  10.037  0.4242 -0.4357 -0.1716
  505MPD2    C1 7502   0.607   0.650   9.964 -0.0647 -0.1316 -0.1278
  505MPD2    C2 7503   0.567   0.535  10.028 -0.2779  0.1579  0.1198
  505MPD2    C3 7504   0.564   0.523  10.162 -0.1189  0.6268 -0.0283
  505MPD2    C4 7505   0.599   0.635  10.239  0.0382 -0.6218 -0.4583
  505MPD2    C5 7506   0.635   0.749  10.174  0.5846  0.3942 -0.4856
  505MPD2     H 7507   0.530   0.453   9.968  1.0934 -1.3473  1.3617
  505MPD2    H1 7508   0.595   0.641  10.347 -1.1407 -0.9956 -0.4855
  505MPD2    H2 7509   0.678   0.851   9.991 -1.2126  0.4394  0.3993
  505MPD2    H3 7510   0.651   0.838  10.235  0.9367 -0.2785  0.4010
  505MPD2     N 7511   0.535   0.402  10.227 -0.2303 -0.0453  0.4631
  505MPD2    H5 7512   0.558   0.404  10.326 -2.8208  0.5492  1.0424
  505MPD2    N1 7513   0.603   0.663   9.823 -0.2102  0.5473  0.4979
  505MPD2    H7 7514   0.643   0.748   9.784  2.0295 -1.3384 -1.2916
  506TMC3    C1 7515   0.622   0.596   9.598 -0.4266  0.3905  1.0066
  506TMC3    C2 7516   0.746   0.645   9.585  0.2535  0.3834  0.5457
  506TMC3    C3 7517   0.818   0.611   9.474 -0.4975 -0.3815  0.2005
  506TMC3    C4 7518   0.569   0.512   9.509 -0.9669 -0.9947 -0.5705
  506TMC3    C5 7519   0.649   0.461   9.408  0.6103 -0.0418 -0.6240
  506TMC3    C6 7520   0.763   0.527   9.381  0.4160 -0.0377 -0.0645
  506TMC3     C 7521   0.578   0.567   9.731 -0.4063  0.2713  0.4635
  506TMC3     O 7522   0.526   0.460   9.739 -0.7617 -0.3991 -0.3964
  506TMC3     H 7523   0.791   0.713   9.656 -0.0467  0.1915  0.9161
  506TMC3    H1 7524   0.470   0.469   9.523 -2.0155  1.7358  0.2989
  506TMC3    H2 7525   0.822   0.505   9.293 -0.2279 -0.5933 -0.3562
  506TMC3    C7 7526   0.668   0.311   9.433  0.7021 -0.3514 -0.3456
  506TMC3    C8 7527   0.960   0.648   9.465 -0.7282 -0.8104  0.0193
  506TMC3    O1 7528   0.730   0.246   9.348 -0.0416 -0.6783 -0.1368
  506TMC3    O2 7529   0.991   0.700   9.358  0.5386  0.2994 -0.1971
  507TMC3    C1 7530   0.897   4.667  14.830 -0.2981 -0.4093  0.0747
  507TMC3    C2 7531   0.960   4.707  14.713  0.6633  0.4460 -1.2328
  507TMC3    C3 7532   1.073   0.058  14.727 -0.3961 -0.8129 -0.4123
  507TMC3    C4 7533   0.948   4.697  14.959 -0.3400  0.9489 -0.8070
  507TMC3    C5 7534   1.057   0.054  14.964 -0.0799  0.3004 -0.8118
  507TMC3    C6 7535   1.123   0.093  14.851 -0.0781 -0.8424  0.3181
  507TMC3     C 7536   0.781   4.597  14.807  0.6583  0.1260 -0.1943
  507TMC3     O 7537   0.699   4.642  14.729  0.5570 -0.0202 -0.5654
  507TMC3     H 7538   0.925   4.679  14.614  0.2335  0.2546 -1.0283
  507TMC3    H1 7539   0.883   4.681  15.045  1.2697 -1.6545 -0.0861
  507TMC3    H2 7540   1.221   0.136  14.865 -0.0390 -0.6033 -0.6843
  507TMC3    C7 7541   1.051   0.161  15.064 -0.1699  0.0422  0.3171
  507TMC3    C8 7542   1.082   0.157  14.622 -0.2580 -0.5200 -0.3408
  507TMC3    O1 7543   1.025   0.136  15.182  0.1228 -0.0501 -0.8438
  507TMC3    O2 7544   0.971   0.197  14.585 -0.0806 -0.6205 -0.1657
  508MPD2     C 7545   1.696   2.671  16.018 -0.1837 -0.3708  0.2224
  508MPD2    C1 7546   1.825   2.706  15.991 -0.9354  0.0912  0.1654
  508MPD2    C2 7547   1.879   2.670  15.868  0.3323 -0.4602 -0.5497
  508MPD2    C3 7548   1.797   2.629  15.767  0.8811 -0.4571  0.2514
  508MPD2    C4 7549   1.663   2.600  15.794  0.0684 -0.2441  0.0103
  508MPD2    C5 7550   1.615   2.617  15.919 -0.3747 -0.2331 -0.5336
  508MPD2     H 7551   1.985   2.687  15.850  0.7744  0.0699  2.5468
  508MPD2    H1 7552   1.600   2.556  15.718  1.7769 -0.4679 -1.2776
  508MPD2    H2 7553   1.650   2.697  16.113  1.2822  0.5473  0.6622
  508MPD2    H3 7554   1.513   2.593  15.945 -1.0477 -0.0728 -3.0155
  508MPD2     N 7555   1.846   2.615  15.634  0.8249 -0.5347 -0.1908
  508MPD2    H5 7556   1.947   2.623  15.630  0.9127 -0.7045  2.0973
  508MPD2    N1 7557   1.903   2.765  16.095  0.6278  0.0822 -0.0416
  508MPD2    H7 7558   1.847   2.792  16.175  1.4957  3.5126 -0.5897
  509TMC3    C1 7559   1.860   2.778  15.219  0.3132 -0.3418  0.4072
  509TMC3    C2 7560   1.996   2.802  15.238 -0.0361 -0.0602  0.0443
  509TMC3    C3 7561   2.066   2.741  15.337 -0.4938 -0.0069 -0.6945
  509TMC3    C4 7562   1.797   2.692  15.297  0.1338 -0.1141  0.0721
  509TMC3    C5 7563   1.865   2.634  15.403  0.7175  0.4714 -0.4880
  509TMC3    C6 7564   2.001   2.663  15.425  0.6247 -0.1900 -0.7406
  509TMC3     C 7565   1.796   2.841  15.104 -0.1655  0.8886  0.2841
  509TMC3     O 7566   1.722   2.771  15.037 -0.1864 -0.0577 -1.0340
  509TMC3     H 7567   2.046   2.851  15.156  1.7577 -1.1810  0.4745
  509TMC3    H1 7568   1.690   2.681  15.284  0.6272 -2.6789 -1.6490
  509TMC3    H2 7569   2.060   2.619  15.504  0.2128  0.5756 -0.0028
  509TMC3    C7 7570   1.777   2.605  15.515 -0.0346  0.5109  0.1829
  509TMC3    C8 7571   2.208   2.776  15.358  0.3039  0.6543 -0.0009
  509TMC3    O1 7572   1.656   2.614  15.498 -0.5836 -0.1747 -0.3300
  509TMC3    O2 7573   2.266   2.715  15.445 -0.5346 -0.4581 -0.3940
  510MPD2     C 7574   0.079   4.397  14.599 -0.3824  0.5146  0.4724
  510MPD2    C1 7575   0.132   4.281  14.654 -0.6408 -0.7316  0.0280
  510MPD2    C2 7576   0.253   4.238  14.590  0.4965 -0.7170  0.2574
  510MPD2    C3 7577   0.307   4.303  14.480 -0.2009  0.0161  0.7919
  510MPD2    C4 7578   0.259   4.425  14.446  0.9189 -0.1628 -0.0755
  510MPD2    C5 7579   0.149   4.468  14.508 -0.3273  0.0906  0.1698
  510MPD2     H 7580   0.300   4.150  14.632  0.2235 -1.5668 -1.2003
  510MPD2    H1 7581   0.301   4.488  14.368  2.1227 -1.4602 -0.4756
  510MPD2    H2 7582   4.722   4.455  14.641 -0.6673 -0.3752  1.1392
  510MPD2    H3 7583   0.108   4.562  14.471  1.3778 -0.2683 -2.6343
  510MPD2     N 7584   0.422   4.250  14.415  0.9466 -0.3538 -0.2033
  510MPD2    H5 7585   0.478   4.182  14.468  2.4305  0.5442 -0.6222
  510MPD2    N1 7586   0.057   4.214  14.750  0.7910  0.5086  0.0107
  510MPD2    H7 7587   4.697   4.254  14.786  0.1857  0.8129 -1.7456
  511TMC3    C1 7588   4.719   4.036  14.897 -0.8533 -0.1523  0.2808
  511TMC3    C2 7589   4.591   4.092  14.911 -0.6288 -0.1633  0.1751
  511TMC3    C3 7590   4.505   4.023  14.989  1.0741  0.6132  0.0039
  511TMC3    C4 7591   0.025   3.919  14.944 -0.1241  0.0561 -0.5086
  511TMC3    C5 7592   4.660   3.850  15.021  0.0482 -1.1770 -0.5435
  511TMC3    C6 7593   4.538   3.901  15.044  0.5591 -0.4937 -0.5018
  511TMC3     C 7594   0.088   4.091  14.796 -0.0242 -0.1150 -0.1893
  511TMC3     O 7595   0.193   4.025  14.777  0.0933 -0.0342  0.2267
  511TMC3     H 7596   4.546   4.174  14.857  0.2328 -0.7250 -1.3894
  511TMC3    H1 7597   0.129   3.886  14.948  0.5559  2.2241  0.0130
  511TMC3    H2 7598   4.474   3.837  15.104  0.1126  0.2395 -0.2004
  511TMC3    C7 7599   4.673   3.713  14.997  0.8052  0.5421 -0.2228
  511TMC3    C8 7600   4.405   4.099  15.059 -0.4958 -0.2896 -0.4704
  511TMC3    O1 7601   0.021   3.683  14.902 -0.6741 -0.8308  0.0230
  511TMC3    O2 7602   4.409   4.219  15.052 -0.1707  0.1214 -0.4923
  512TMC3    C1 7603   3.500   3.533  12.793 -0.6085  0.0450  0.0981
  512TMC3    C2 7604   3.581   3.487  12.893  0.7706 -0.2541 -0.8838
  512TMC3    C3 7605   3.612   3.354  12.897  0.3099  0.8955  0.2425
  512TMC3    C4 7606   3.468   3.460  12.684  0.0635  0.8577 -0.0860
  512TMC3    C5 7607   3.506   3.326  12.690 -0.7601  0.4119  0.0350
  512TMC3    C6 7608   3.581   3.270  12.790  0.7873  0.5991  0.3476
  512TMC3     C 7609   3.460   3.673  12.792  0.0390 -0.4587 -0.4296
  512TMC3     O 7610   3.458   3.724  12.682  0.3293 -0.2982  0.1265
  512TMC3     H 7611   3.596   3.557  12.974 -1.2345 -2.2954  1.2669
  512TMC3    H1 7612   3.433   3.511  12.595  0.6475 -0.8683 -1.2996
  512TMC3    H2 7613   3.628   3.174  12.775 -2.9734 -1.4175  1.4843
  512TMC3    C7 7614   3.484   3.248  12.564  0.3466  0.0546  0.2456
  512TMC3    C8 7615   3.697   3.292  12.999 -0.6761 -0.7332 -0.0072
  512TMC3    O1 7616   3.429   3.301  12.469  1.1945  0.0335  0.1176
  512TMC3    O2 7617   3.712   3.168  12.999 -0.2380  0.4613 -0.1447
  513MPD2     C 7618   0.448   3.616  13.515  0.0158 -0.2499 -0.8194
  513MPD2    C1 7619   0.560   3.642  13.444  0.4039 -0.3078  0.1804
  513MPD2    C2 7620   0.675   3.677  13.509 -0.1245  0.3218  0.0687
  513MPD2    C3 7621   0.683   3.679  13.647 -0.0903  0.1176  0.3998
  513MPD2    C4 7622   0.578   3.636  13.712 -0.0348 -0.1185  0.5101
  513MPD2    C5 7623   0.464   3.601  13.645  0.3058  0.1017  0.1051
  513MPD2     H 7624   0.768   3.706  13.460  0.0166  1.4278  0.9791
  513MPD2    H1 7625   0.576   3.612  13.818 -0.6989  0.4405  0.6265
  513MPD2    H2 7626   0.349   3.591  13.479 -0.7156 -0.7583  1.5035
  513MPD2    H3 7627   0.379   3.562  13.700 -1.6499  1.7227 -1.7738
  513MPD2     N 7628   0.797   3.729  13.712 -1.0015 -0.4046 -0.0367
  513MPD2    H5 7629   0.869   3.763  13.648  0.1534 -1.7091  0.5730
  513MPD2    N1 7630   0.555   3.628  13.302 -0.0079 -0.5067 -0.2014
  513MPD2    H7 7631   0.470   3.586  13.264 -0.7562 -1.4217  2.4992
  514TMC3    C1 7632   0.662   3.569  13.096  0.2148 -0.0543 -0.4482
  514TMC3    C2 7633   0.622   3.632  12.979 -0.1962 -0.4148 -0.5035
  514TMC3    C3 7634   0.699   3.622  12.868  0.0857  0.9382  0.0525
  514TMC3    C4 7635   0.781   3.501  13.096  1.0252  0.3103  0.3967
  514TMC3    C5 7636   0.862   3.499  12.983 -0.2056 -0.5220  0.5038
  514TMC3    C6 7637   0.824   3.556  12.868  0.0116  0.2786  0.5145
  514TMC3     C 7638   0.664   3.646  13.220 -0.5537 -0.3801 -0.3690
  514TMC3     O 7639   0.781   3.677  13.238  0.1598 -0.8836 -0.1209
  514TMC3     H 7640   0.525   3.681  12.984 -0.6601 -1.4554  0.7526
  514TMC3    H1 7641   0.820   3.454  13.185  0.9816  1.4317  1.0059
  514TMC3    H2 7642   0.885   3.551  12.779 -0.6364  0.5118  0.0549
  514TMC3    C7 7643   1.004   3.520  13.010  0.1334  0.3927 -0.8002
  514TMC3    C8 7644   0.626   3.651  12.741 -0.7266  0.0224  0.7293
  514TMC3    O1 7645   1.084   3.493  12.919  0.2859  0.0796 -0.5109
  514TMC3    O2 7646   0.504   3.667  12.748 -0.3565  0.3471 -0.3461
  515MPD2     C 7647   3.284   0.484  14.752  0.2181  0.6737 -0.1545
  515MPD2    C1 7648   3.338   0.579  14.657 -0.3052 -0.3133 -0.9462
  515MPD2    C2 7649   3.430   0.671  14.704  0.6398  0.3124  0.8344
  515MPD2    C3 7650   3.465   0.673  14.838  0.5603  0.4535 -0.2402
  515MPD2    C4 7651   3.403   0.578  14.927 -0.3776 -0.2189 -0.5411
  515MPD2    C5 7652   3.312   0.479  14.883  0.4063  0.3726  0.1747
  515MPD2     H 7653   3.466   0.747  14.636 -1.3752  1.4640  1.0298
  515MPD2    H1 7654   3.433   0.579  15.031  0.6321  0.0205 -0.8384
  515MPD2    H2 7655   3.224   0.403  14.710 -1.2108 -0.0081  3.2208
  515MPD2    H3 7656   3.268   0.407  14.951  0.4104 -0.1619 -0.3858
  515MPD2     N 7657   3.564   0.765  14.889 -0.2315 -0.4810  0.3879
  515MPD2    H5 7658   3.569   0.775  14.990 -0.9954 -1.0499  0.4907
  515MPD2    N1 7659   3.309   0.562  14.517  0.1173 -0.3655  0.1478
  515MPD2    H7 7660   3.251   0.483  14.491  0.1849  0.6177 -2.9696
  516TMC3    C1 7661   3.326   0.577  14.291 -0.1205  0.3139 -0.2433
  516TMC3    C2 7662   3.246   0.647  14.207 -1.1810  0.1275  0.3670
  516TMC3    C3 7663   3.140   0.577  14.151 -0.0515 -0.3142 -0.9378
  516TMC3    C4 7664   3.315   0.443  14.314  0.5464  0.4964 -0.4975
  516TMC3    C5 7665   3.201   0.385  14.260 -0.5229  0.1503  0.3302
  516TMC3    C6 7666   3.124   0.448  14.167  0.2817 -0.3954  0.3990
  516TMC3     C 7667   3.353   0.644  14.413 -0.1794 -0.3692  0.4386
  516TMC3     O 7668   3.383   0.764  14.417  0.7361  0.4425  0.3257
  516TMC3     H 7669   3.246   0.754  14.225 -2.7453  0.2367 -0.2501
  516TMC3    H1 7670   3.377   0.388  14.384 -1.7238 -1.6650 -0.1836
  516TMC3    H2 7671   3.036   0.395  14.132  1.3539 -0.6807 -1.8727
  516TMC3    C7 7672   3.149   0.268  14.333 -0.5431  0.1207 -0.2168
  516TMC3    C8 7673   3.085   0.617  14.022  0.4114 -0.5136 -0.2618
  516TMC3    O1 7674   3.205   0.257  14.445 -0.5577  0.1482  0.2344
  516TMC3    O2 7675   2.999   0.543  13.978 -0.0418 -0.1532 -0.4120
  517MPD2     C 7676   3.796   2.070   0.847  0.7503  0.0550 -0.2983
  517MPD2    C1 7677   3.741   2.139   0.745 -0.2091  0.3258 -0.2184
  517MPD2    C2 7678   3.752   2.280   0.750 -0.4317 -0.4730 -0.1718
  517MPD2    C3 7679   3.818   2.345   0.856  0.2641 -0.3608  0.0455
  517MPD2    C4 7680   3.854   2.264   0.959 -0.3426 -0.2336 -0.0045
  517MPD2    C5 7681   3.856   2.131   0.954 -0.8757  0.3003 -1.2132
  517MPD2     H 7682   3.720   2.338   0.665 -1.1712  1.5423  1.4747
  517MPD2    H1 7683   3.889   2.315   1.048 -2.1688  1.3070 -0.1650
  517MPD2    H2 7684   3.801   1.962   0.847 -1.2897 -0.0258  1.2714
  517MPD2    H3 7685   3.908   2.074   1.030 -1.5018  0.7652 -0.4412
  517MPD2     N 7686   3.837   2.485   0.870 -0.5036 -0.9556  0.1545
  517MPD2    H5 7687   3.899   2.520   0.942 -1.9687  0.2762  0.8045
  517MPD2    N1 7688   3.676   2.080   0.635  0.6387  0.2697  0.8474
  517MPD2    H7 7689   3.650   2.144   0.561  0.1789 -0.1228  0.6761
  518TMC3    C1 7690   3.602   1.899   0.498  0.0282  0.7881  0.2029
  518TMC3    C2 7691   3.554   1.773   0.497  0.5030  0.2526  0.2243
  518TMC3    C3 7692   3.505   1.721   0.380  0.2004  0.1940 -0.1627
  518TMC3    C4 7693   3.621   1.970   0.381 -0.2005  0.4681 -0.4017
  518TMC3    C5 7694   3.576   1.916   0.269 -0.0630  0.7721 -0.1018
  518TMC3    C6 7695   3.509   1.793   0.264 -0.0714 -0.6898  0.5421
  518TMC3     C 7696   3.655   1.944   0.626 -0.3032  0.0175 -0.1752
  518TMC3     O 7697   3.672   1.849   0.701  0.6816  0.3476 -0.3420
  518TMC3     H 7698   3.512   1.737   0.591 -1.2989  1.1164 -0.2656
  518TMC3    H1 7699   3.669   2.067   0.374  2.0162 -0.5508  0.5581
  518TMC3    H2 7700   3.470   1.748   0.174  0.2852  0.5455 -0.2389
  518TMC3    C7 7701   3.660   1.944   0.153 -0.0507  0.0794  0.5366
  518TMC3    C8 7702   3.549   1.588   0.352  0.4915  1.0958 -0.5555
  518TMC3    O1 7703   3.707   2.059   0.154  0.0048  0.3062 -0.1296
  518TMC3    O2 7704   3.540   1.546   0.240 -0.2545  0.1273  0.1215
  519MPD2     C 7705   4.672   0.583  14.480  0.4541 -0.3532 -0.1924
  519MPD2    C1 7706   4.646   0.565  14.346  0.5234 -0.0789  0.4353
  519MPD2    C2 7707   4.687   0.447  14.291  0.0530  0.6241 -0.0440
  519MPD2    C3 7708   0.021   0.355  14.375 -0.1461 -0.2932  0.2399
  519MPD2    C4 7709   0.051   0.374  14.511 -0.5262  0.1281 -0.6320
  519MPD2    C5 7710   0.017   0.498  14.560 -0.2051  0.3768  0.1564
  519MPD2     H 7711   4.667   0.424  14.187 -2.6934 -1.2330  0.8813
  519MPD2    H1 7712   0.100   0.306  14.580 -0.3718  0.7624 -0.1175
  519MPD2    H2 7713   4.636   0.673  14.529  1.9701 -0.2475  0.7245
  519MPD2    H3 7714   0.037   0.540  14.658 -1.1768  1.0837  0.0445
  519MPD2     N 7715   0.069   0.227  14.330 -0.3172 -0.6510 -0.0798
  519MPD2    H5 7716   0.117   0.169  14.398  2.3333  1.7948  0.1736
  519MPD2    N1 7717   4.572   0.668  14.284  0.0434 -0.3987  0.4662
  519MPD2    H7 7718   4.524   0.739  14.339  0.7775  0.8305 -0.4705
  520TMC3    C1 7719   0.121   0.045  14.190  0.4608  0.2110 -0.0063
  520TMC3    C2 7720   0.051   4.703  14.098 -0.5547 -0.1454 -0.6623
  520TMC3    C3 7721   0.129   4.616  14.024 -0.7895 -0.4809  0.5732
  520TMC3    C4 7722   0.251   0.033  14.230  0.0915 -0.3790 -0.5140
  520TMC3    C5 7723   0.313   4.655  14.165 -0.6985  0.1812  0.3810
  520TMC3    C6 7724   0.254   4.585  14.065  0.0579  0.2652  0.8227
  520TMC3     C 7725   0.056   0.178  14.206 -0.2752 -0.7217  0.3939
  520TMC3     O 7726   4.717   0.215  14.111 -0.2525 -0.4589  0.1644
  520TMC3     H 7727   4.674   0.003  14.074 -0.3581  0.1383 -1.1968
  520TMC3    H1 7728   0.307   0.101  14.293 -2.2432  0.0085  1.1609
  520TMC3    H2 7729   0.308   4.502  14.020 -1.7304  0.7423 -2.1423
  520TMC3    C7 7730   0.450   4.638  14.192 -0.7948 -0.0660  0.1548
  520TMC3    C8 7731   0.072   4.555  13.894 -0.6842 -0.0363  0.2758
  520TMC3    O1 7732   0.489   4.635  14.309  0.7450  0.9558  0.2078
  520TMC3    O2 7733   0.148   4.477  13.840 -0.1027  0.2545  0.0831
  521MPD2     C 7734   0.688   3.594  17.275 -0.1198  0.3027 -0.5140
  521MPD2    C1 7735   0.673   3.506  17.172  0.3456 -0.0908 -0.7643
  521MPD2    C2 7736   0.787   3.448  17.120  0.1280 -0.1228 -0.4001
  521MPD2    C3 7737   0.918   3.489  17.148 -0.0098 -0.0599  0.7780
  521MPD2    C4 7738   0.934   3.586  17.249 -1.3490  0.5216  0.0935
  521MPD2    C5 7739   0.816   3.634  17.307 -0.5132 -0.9226  1.0862
  521MPD2     H 7740   0.777   3.377  17.039  0.0550  0.7549 -1.1562
  521MPD2    H1 7741   1.028   3.618  17.291 -2.7039  2.1531  1.8401
  521MPD2    H2 7742   0.601   3.632  17.328  0.6562  0.4862  0.6469
  521MPD2    H3 7743   0.828   3.704  17.389  2.4165  1.5124 -1.4596
  521MPD2     N 7744   1.031   3.424  17.097  0.7684 -1.0767 -0.8306
  521MPD2    H5 7745   1.008   3.328  17.072 -0.8526 -1.3809  1.7727
  521MPD2    N1 7746   0.542   3.462  17.141 -0.6241  0.0147 -0.0792
  521MPD2    H7 7747   0.463   3.495  17.197  0.7090 -0.7690  2.2534
  522TMC3    C1 7748   1.270   3.382  17.088 -0.3242  0.5581 -0.1716
  522TMC3    C2 7749   1.380   3.428  17.020  0.7813  0.3017 -0.0057
  522TMC3    C3 7750   1.480   3.340  16.993 -0.1929 -0.4698 -0.4487
  522TMC3    C4 7751   1.257   3.250  17.119  0.7488 -0.0686 -1.1259
  522TMC3    C5 7752   1.367   3.170  17.106 -0.2563 -0.4925  0.0474
  522TMC3    C6 7753   1.483   3.215  17.047  0.3729 -0.0325 -0.0272
  522TMC3     C 7754   1.157   3.478  17.103 -0.1448 -0.3487  0.2623
  522TMC3     O 7755   1.184   3.600  17.097 -0.3973 -0.3032 -0.0545
  522TMC3     H 7756   1.387   3.528  16.980 -0.6949 -0.1306 -1.3478
  522TMC3    H1 7757   1.177   3.221  17.187 -0.3220 -0.9715 -2.7783
  522TMC3    H2 7758   1.567   3.150  17.027  0.2783  1.5067 -5.3921
  522TMC3    C7 7759   1.360   3.022  17.130 -0.2516 -0.1408  0.6866
  522TMC3    C8 7760   1.604   3.393  16.943 -0.0578  0.0369  0.5759
  522TMC3    O1 7761   1.459   2.955  17.163  0.7010  0.6078  0.7356
  522TMC3    O2 7762   1.617   3.513  16.942  0.4658 -0.0877 -0.3564
  523MPD2     C 7763   3.642   3.604  10.186  0.0332 -0.2261 -0.1981
  523MPD2    C1 7764   3.565   3.490  10.165  0.0882 -0.2237  0.6075
  523MPD2    C2 7765   3.461   3.498  10.068 -0.3928 -0.0098  0.0524
  523MPD2    C3 7766   3.442   3.611   9.988 -0.6788  0.9246 -0.2685
  523MPD2    C4 7767   3.529   3.715  10.010 -0.0124  0.0455  0.2920
  523MPD2    C5 7768   3.626   3.710  10.102  0.3447  0.3853 -0.0498
  523MPD2     H 7769   3.409   3.406  10.042  1.4975 -0.3656 -2.4426
  523MPD2    H1 7770   3.525   3.805   9.950  2.0569 -0.4129 -0.5401
  523MPD2    H2 7771   3.729   3.606  10.251 -0.2423 -0.0676  0.1709
  523MPD2    H3 7772   3.690   3.798  10.108  0.7311  0.0209  1.1057
  523MPD2     N 7773   3.343   3.631   9.886 -0.1579 -0.5112 -0.1797
  523MPD2    H5 7774   3.349   3.722   9.842  0.1368  0.1038  1.1397
  523MPD2    N1 7775   3.586   3.382  10.250  0.4728 -0.2201  0.6598
  523MPD2    H7 7776   3.639   3.406  10.333 -0.1371 -2.6337  1.7600
  524TMC3    C1 7777   3.155   3.612   9.743 -0.4741  0.2385 -0.0329
  524TMC3    C2 7778   3.022   3.566   9.748  0.4575  0.1420  0.4020
  524TMC3    C3 7779   2.926   3.667   9.728 -0.1227 -0.4269  0.4746
  524TMC3    C4 7780   3.184   3.736   9.690 -0.5054 -0.6059 -0.3978
  524TMC3    C5 7781   3.082   3.824   9.657 -0.0246 -0.2818 -0.6895
  524TMC3    C6 7782   2.956   3.794   9.675  0.1466 -0.8035 -0.1671
  524TMC3     C 7783   3.246   3.540   9.838  0.1658 -0.6993 -0.1062
  524TMC3     O 7784   3.229   3.419   9.854  0.1130 -0.2433 -0.5713
  524TMC3     H 7785   2.994   3.485   9.815 -0.6574  1.5446  1.6388
  524TMC3    H1 7786   3.287   3.766   9.701 -1.2201  1.5300  0.3766
  524TMC3    H2 7787   2.877   3.854   9.632 -0.2317 -0.2235  1.3344
  524TMC3    C7 7788   3.122   3.963   9.613 -0.2603  0.1537  0.7625
  524TMC3    C8 7789   2.786   3.621   9.733 -0.2790 -0.2716 -0.0819
  524TMC3    O1 7790   3.242   3.985   9.581  0.2120 -0.5820 -0.1591
  524TMC3    O2 7791   2.773   3.501   9.753 -0.8220  0.3873  0.9592
  525MPD2     C 7792   1.494   0.131  14.256  0.5736 -0.2422  0.3119
  525MPD2    C1 7793   1.612   0.132  14.321  0.1642 -0.2763 -0.1997
  525MPD2    C2 7794   1.703   0.232  14.303  0.2765  0.4698 -0.2303
  525MPD2    C3 7795   1.669   0.345  14.242 -0.1726  0.3686 -0.1947
  525MPD2    C4 7796   1.549   0.346  14.178  0.1054  0.4978 -0.7454
  525MPD2    C5 7797   1.459   0.242  14.183 -0.1634  0.2091  0.7193
  525MPD2     H 7798   1.796   0.231  14.357 -0.1778  1.9298  0.5873
  525MPD2    H1 7799   1.523   0.443  14.137  0.3117  0.0845 -1.8527
  525MPD2    H2 7800   1.422   0.050  14.260  1.4248 -0.8975  1.9873
  525MPD2    H3 7801   1.379   0.241  14.110 -0.0891  3.9255  0.6271
  525MPD2     N 7802   1.745   0.463  14.251 -0.5814 -0.8357  0.1070
  525MPD2    H5 7803   1.706   0.552  14.220 -0.2168  0.1333  2.4711
  525MPD2    N1 7804   1.644   0.032  14.412  0.2644  0.0844 -0.1814
  525MPD2    H7 7805   1.734   0.036  14.459 -0.3212 -0.1002  0.9578
  526TMC3    C1 7806   1.658   4.552  14.531  0.2715 -0.5444 -0.4584
  526TMC3    C2 7807   1.579   4.480  14.615  0.3826  0.5782  0.1551
  526TMC3    C3 7808   1.652   4.439  14.722 -0.8178  0.2361 -0.2541
  526TMC3    C4 7809   1.792   4.578  14.545  0.2469  0.5604 -0.5177
  526TMC3    C5 7810   1.855   4.527  14.655 -0.6300 -1.1039 -0.0493
  526TMC3    C6 7811   1.784   4.456  14.746  0.6666  0.6261  0.1958
  526TMC3     C 7812   1.580   4.640  14.446 -0.5573  0.0612 -0.8833
  526TMC3     O 7813   1.470   4.604  14.411  0.6856 -0.4696 -0.1346
  526TMC3     H 7814   1.474   4.457  14.609  0.3865  1.0176 -1.4199
  526TMC3    H1 7815   1.852   4.613  14.462 -0.1686  0.3934 -0.8916
  526TMC3    H2 7816   1.829   4.415  14.836 -2.5997  0.4175  1.7151
  526TMC3    C7 7817   1.993   4.549  14.657  0.1528  0.1420  0.1088
  526TMC3    C8 7818   1.576   4.351  14.815  0.5740 -0.3780 -0.6319
  526TMC3    O1 7819   2.028   4.662  14.623  0.6206  0.5467 -0.0567
  526TMC3    O2 7820   1.487   4.276  14.770  0.6946  0.2558 -0.1586
  527MPD2     C 7821   0.017   2.725   1.060  0.7019  0.3651  0.5461
  527MPD2    C1 7822   0.038   2.686   1.188  0.3634 -0.1210  0.1525
  527MPD2    C2 7823   0.123   2.580   1.211 -0.0712 -0.8110  0.0247
  527MPD2    C3 7824   0.190   2.516   1.106  0.1298  0.0783 -1.0169
  527MPD2    C4 7825   0.160   2.555   0.980 -0.0022 -0.1611 -0.3633
  527MPD2    C5 7826   0.083   2.664   0.956 -0.6301 -0.0837 -0.1091
  527MPD2     H 7827   0.158   2.538   1.305 -0.8614  0.7770  1.0331
  527MPD2    H1 7828   0.212   2.514   0.895  0.7347 -1.6739  0.8344
  527MPD2    H2 7829   4.675   2.803   1.025 -1.6395 -2.1536 -0.5518
  527MPD2    H3 7830   0.066   2.696   0.854  0.3550 -0.6810 -0.4537
  527MPD2     N 7831   0.269   2.407   1.140  0.3186 -0.3587 -0.6975
  527MPD2    H5 7832   0.292   2.401   1.239  1.0010 -0.3752 -0.8568
  527MPD2    N1 7833   4.716   2.758   1.308 -0.1371 -0.6138 -0.5430
  527MPD2    H7 7834   0.006   2.718   1.400  1.6125  1.3370  0.0181
  528TMC3    C1 7835   4.632   2.951   1.411  0.2822  0.3461  0.6275
  528TMC3    C2 7836   4.623   2.875   1.527  0.1201 -0.0821  0.0629
  528TMC3    C3 7837   4.573   2.941   1.634 -0.4867  0.6232 -0.0719
  528TMC3    C4 7838   4.635   3.091   1.421  0.1710  0.0414  0.4143
  528TMC3    C5 7839   4.609   3.155   1.537  0.2718  0.1068  0.2394
  528TMC3    C6 7840   4.576   3.081   1.646 -0.2203 -0.1815 -0.4084
  528TMC3     C 7841   4.661   2.881   1.291  0.4730 -0.1558 -0.0072
  528TMC3     O 7842   4.655   2.945   1.188 -0.6927  0.1216 -0.0505
  528TMC3     H 7843   4.588   2.772   1.519 -0.6180 -0.0200  2.3537
  528TMC3    H1 7844   4.679   3.141   1.336 -0.5304  1.3291  0.8004
  528TMC3    H2 7845   4.549   3.128   1.740  0.7797  2.9855 -1.7157
  528TMC3    C7 7846   4.630   3.298   1.558  0.4693  0.1206  0.0375
  528TMC3    C8 7847   4.580   2.874   1.757 -0.0535 -0.2958 -0.0301
  528TMC3    O1 7848   4.626   3.333   1.675 -0.1579  0.0836 -0.3607
  528TMC3    O2 7849   4.477   2.822   1.801 -0.2707 -0.4426 -0.0849
  529MPD2     C 7850   3.391   1.115   0.219 -0.6141 -0.3460 -0.2631
  529MPD2    C1 7851   3.298   1.016   0.223  0.1152  0.0501  0.4525
  529MPD2    C2 7852   3.215   1.007   0.114  0.3564 -1.3299 -0.6374
  529MPD2    C3 7853   3.216   1.090   0.003  0.0732  0.8983 -0.3305
  529MPD2    C4 7854   3.310   1.186   0.007 -0.1463  0.5994 -0.4582
  529MPD2    C5 7855   3.390   1.204   0.115  0.1731 -0.4538  0.1134
  529MPD2     H 7856   3.140   0.928   0.115 -0.5036 -0.4832  1.5998
  529MPD2    H1 7857   3.326   1.264  17.635  1.0765 -0.8715 -1.7417
  529MPD2    H2 7858   3.459   1.122   0.302 -0.8349  0.5955 -0.1624
  529MPD2    H3 7859   3.472   1.274   0.116  1.0194 -1.4324 -0.1596
  529MPD2     N 7860   3.142   1.073  17.587  0.3047  0.3064 -0.2407
  529MPD2    H5 7861   3.160   1.153  17.526  1.1790  0.9128  0.8078
  529MPD2    N1 7862   3.284   0.923   0.333 -0.3430 -0.0161 -0.0841
  529MPD2    H7 7863   3.341   0.941   0.415  0.8402 -1.3151 -0.6295
  530TMC3    C1 7864   3.176   0.784   0.483  0.0512 -0.4129  0.2128
  530TMC3    C2 7865   3.261   0.829   0.583 -0.0404  0.2762 -0.0188
  530TMC3    C3 7866   3.220   0.784   0.709 -0.1625 -0.2190 -0.3255
  530TMC3    C4 7867   3.068   0.694   0.501  0.7051 -0.3249 -0.2841
  530TMC3    C5 7868   3.050   0.642   0.628 -0.3036 -0.3156  0.2630
  530TMC3    C6 7869   3.119   0.689   0.734 -0.6623  0.5385  0.4234
  530TMC3     C 7870   3.195   0.819   0.339  0.3649  0.2735  0.2795
  530TMC3     O 7871   3.135   0.753   0.258 -0.7657  0.9839  0.2667
  530TMC3     H 7872   3.325   0.915   0.571  0.4017  0.2156  1.9530
  530TMC3    H1 7873   3.002   0.673   0.418 -2.0132 -0.2611  1.8707
  530TMC3    H2 7874   3.111   0.631   0.826 -0.5918 -1.4023 -0.8037
  530TMC3    C7 7875   2.913   0.591   0.642 -0.0475  0.0579 -0.4728
  530TMC3    C8 7876   3.308   0.839   0.810 -0.0435 -0.1823  0.6310
  530TMC3    O1 7877   2.847   0.552   0.542 -1.1336 -0.0405 -0.2273
  530TMC3    O2 7878   3.410   0.888   0.766 -0.0815  0.1162  0.4240
  531MPD2     C 7879   1.363   3.682  13.334 -0.1262 -0.3388  0.3945
  531MPD2    C1 7880   1.245   3.703  13.394 -0.2283 -0.0613 -0.0783
  531MPD2    C2 7881   1.128   3.664  13.328 -0.0593 -0.2299 -0.3791
  531MPD2    C3 7882   1.138   3.599  13.204  0.1218 -0.4640  0.4161
  531MPD2    C4 7883   1.263   3.581  13.147  0.5367 -0.3503 -0.2073
  531MPD2    C5 7884   1.369   3.623  13.214 -0.2315 -0.3368  0.1753
  531MPD2     H 7885   1.026   3.680  13.361  0.2535 -1.6351  1.2719
  531MPD2    H1 7886   1.273   3.534  13.050  0.5296  1.6182 -1.1508
  531MPD2    H2 7887   1.463   3.695  13.374  0.1692 -0.0485 -0.4502
  531MPD2    H3 7888   1.466   3.614  13.165 -0.3811  0.6576 -0.3113
  531MPD2     N 7889   1.018   3.564  13.140  0.1016  0.1628 -0.2650
  531MPD2    H5 7890   0.928   3.582  13.184  0.9477  3.3130  0.1443
  531MPD2    N1 7891   1.250   3.777  13.512  0.4390  0.0624 -0.1961
  531MPD2    H7 7892   1.342   3.811  13.538  1.6706 -1.3960 -2.7114
  532TMC3    C1 7893   1.151   3.864  13.719  0.1844  0.2752  0.0011
  532TMC3    C2 7894   1.018   3.858  13.764 -0.4337 -0.6863  0.0698
  532TMC3    C3 7895   0.976   3.759  13.855 -0.0381 -1.2917  0.0500
  532TMC3    C4 7896   1.241   3.787  13.788 -0.0071  0.2058 -0.3890
  532TMC3    C5 7897   1.202   3.693  13.877 -0.3528 -0.3897  0.2603
  532TMC3    C6 7898   1.068   3.678  13.915 -0.0561 -0.3643 -0.4927
  532TMC3     C 7899   1.137   3.825  13.578  0.7057 -0.2110  0.5716
  532TMC3     O 7900   1.020   3.801  13.551 -0.1881 -0.0169  0.6176
  532TMC3     H 7901   0.944   3.928  13.729 -0.7102 -0.8159  0.3977
  532TMC3    H1 7902   1.346   3.786  13.760  0.1853  1.0111  0.2944
  532TMC3    H2 7903   1.042   3.604  13.989  0.5979  0.0437  0.1534
  532TMC3    C7 7904   1.296   3.593  13.918 -0.3489 -0.1636  0.1779
  532TMC3    C8 7905   0.842   3.703  13.839  0.6225 -0.3249 -0.4781
  532TMC3    O1 7906   1.273   3.478  13.886 -0.1508 -0.4468 -0.2080
  532TMC3    O2 7907   0.801   3.638  13.932  0.3420 -0.4484  0.3384
  533TMC3    C1 7908   1.915   0.589  14.344 -0.1972  0.0452 -0.3897
  533TMC3    C2 7909   2.052   0.608  14.354 -0.2307 -0.3698  0.2275
  533TMC3    C3 7910   2.105   0.685  14.461  0.6644  0.3321 -0.7242
  533TMC3    C4 7911   1.832   0.641  14.438 -0.0482 -0.1482 -0.2349
  533TMC3    C5 7912   1.877   0.709  14.540  0.8004  0.1651 -0.1918
  533TMC3    C6 7913   2.017   0.738  14.554 -0.7602 -0.5319 -0.3311
  533TMC3     C 7914   1.875   0.464  14.292  0.1450  0.1447  1.1267
  533TMC3     O 7915   1.967   0.385  14.266  0.2029  0.4178 -0.1967
  533TMC3     H 7916   2.121   0.581  14.274 -2.1471 -2.9411 -0.5565
  533TMC3    H1 7917   1.724   0.627  14.431  0.2882 -1.9824 -1.8307
  533TMC3    H2 7918   2.049   0.804  14.633 -3.5338 -1.0420  1.2235
  533TMC3    C7 7919   1.811   0.669  14.665  0.4603 -0.6635 -0.1705
  533TMC3    C8 7920   2.249   0.721  14.453  0.8615  0.4464 -0.3897
  533TMC3    O1 7921   1.753   0.563  14.654 -0.1666 -0.1277 -0.5357
  533TMC3    O2 7922   2.335   0.635  14.432  0.7260 -0.3768  0.1198
  534MPD2     C 7923   4.713   1.339   1.937  0.7121 -0.9644  0.0519
  534MPD2    C1 7924   0.017   1.421   1.826 -0.0340  0.0675  0.1055
  534MPD2    C2 7925   4.724   1.380   1.694  0.0424 -0.0954 -0.1618
  534MPD2    C3 7926   4.686   1.248   1.670  0.6242 -0.3034  0.5387
  534MPD2    C4 7927   4.661   1.165   1.784 -0.1611  0.8742 -0.4836
  534MPD2    C5 7928   4.689   1.207   1.916 -0.0963  0.1939  0.1403
  534MPD2     H 7929   0.032   1.446   1.614 -0.0601  1.1692  0.8318
  534MPD2    H1 7930   4.627   1.063   1.777 -0.0477  0.7628  0.5255
  534MPD2    H2 7931   4.719   1.370   2.041 -0.6638  0.0348 -0.1643
  534MPD2    H3 7932   4.675   1.138   1.998 -0.1388 -1.8144 -1.5508
  534MPD2     N 7933   4.658   1.191   1.542 -0.0591  0.1068  0.1744
  534MPD2    H5 7934   4.613   1.100   1.539  2.1153 -0.9458 -0.2928
  534MPD2    N1 7935   0.071   1.554   1.840 -1.1254 -0.1717 -0.6363
  534MPD2    H7 7936   0.076   1.609   1.755  0.8482 -0.3124 -0.6167
  535TMC3    C1 7937   4.594   1.209   1.299 -0.9071  0.4201 -0.3851
  535TMC3    C2 7938   4.525   1.093   1.307  0.4017 -0.6950  0.1403
  535TMC3    C3 7939   4.496   1.042   1.188 -0.9653  0.0879 -0.2144
  535TMC3    C4 7940   4.637   1.271   1.180 -0.6277 -0.2575  0.2036
  535TMC3    C5 7941   4.631   1.201   1.073  0.4315  0.0589  0.2956
  535TMC3    C6 7942   4.553   1.088   1.070  0.2167 -0.5879 -0.0157
  535TMC3     C 7943   4.669   1.262   1.420  0.3543  0.1004 -0.0553
  535TMC3     O 7944   0.009   1.362   1.392 -0.6529  0.0527 -0.2660
  535TMC3     H 7945   4.493   1.049   1.401 -1.7011  1.0008  0.1990
  535TMC3    H1 7946   4.692   1.364   1.183 -1.3847  0.2409 -1.3044
  535TMC3    H2 7947   4.542   1.036   0.976 -2.4024  0.6539 -0.3933
  535TMC3    C7 7948   4.676   1.249   0.942  0.8101  0.1848 -1.2979
  535TMC3    C8 7949   4.360   1.006   1.164  0.7296 -0.3122  0.0712
  535TMC3    O1 7950   4.688   1.162   0.857 -0.3285  0.3199 -0.2325
  535TMC3    O2 7951   4.289   0.980   1.260 -0.4245  0.0070 -0.3727
  536MPD2     C 7952   3.536   4.150  16.613  0.0721 -0.2870 -0.6854
  536MPD2    C1 7953   3.418   4.112  16.667 -0.1610 -0.6787 -0.2433
  536MPD2    C2 7954   3.304   4.085  16.592  0.0692 -0.7191 -0.0308
  536MPD2    C3 7955   3.312   4.093  16.459  0.0779 -0.3472  0.2205
  536MPD2    C4 7956   3.430   4.140  16.401 -0.5169  0.0967  0.2513
  536MPD2    C5 7957   3.537   4.175  16.480  0.7359  0.9982  0.2406
  536MPD2     H 7958   3.214   4.045  16.636  0.1833 -1.6055 -0.6111
  536MPD2    H1 7959   3.453   4.142  16.296  0.7854 -0.0564  0.5356
  536MPD2    H2 7960   3.630   4.153  16.666 -0.5157  2.8136  0.1887
  536MPD2    H3 7961   3.631   4.201  16.433 -0.2656 -0.2205 -2.3896
  536MPD2     N 7962   3.206   4.056  16.371 -0.0676  0.0828 -0.1406
  536MPD2    H5 7963   3.218   4.066  16.271 -0.0106  2.3255  0.0944
  536MPD2    N1 7964   3.419   4.100  16.807 -0.7906 -0.5525  0.1713
  536MPD2    H7 7965   3.501   4.136  16.854 -0.9717  0.0964 -0.0090
  537TMC3    C1 7966   3.354   4.049  17.027  0.0334 -0.1022 -0.1239
  537TMC3    C2 7967   3.426   4.159  17.069  0.2815 -0.2372  0.9844
  537TMC3    C3 7968   3.492   4.140  17.193  0.0518 -0.5430 -0.0987
  537TMC3    C4 7969   3.333   3.939  17.099 -0.2368  0.0762  0.9060
  537TMC3    C5 7970   3.396   3.932  17.217  0.5324  0.2603  0.0315
  537TMC3    C6 7971   3.475   4.031  17.268  1.0101 -0.4801  0.6055
  537TMC3     C 7972   3.334   4.026  16.885 -0.1237 -0.4796  0.1651
  537TMC3     O 7973   3.247   3.945  16.850 -0.8227  0.6471 -0.3629
  537TMC3     H 7974   3.426   4.248  17.007 -2.0416 -0.4047  0.7542
  537TMC3    H1 7975   3.294   3.846  17.060 -0.0640 -0.1625  1.2997
  537TMC3    H2 7976   3.538   4.020  17.355 -1.9580  0.7491  2.9184
  537TMC3    C7 7977   3.385   3.807  17.288  0.7298 -0.0476  0.4893
  537TMC3    C8 7978   3.541   4.257  17.266 -0.2357  0.2475  0.7674
  537TMC3    O1 7979   3.277   3.748  17.286  0.5616  0.4105  0.4298
  537TMC3    O2 7980   3.526   4.255  17.390 -0.1333 -0.5278 -0.1616
  538TMC3    C1 7981   4.351   3.193  10.889  0.1274  0.8383 -0.0102
  538TMC3    C2 7982   4.434   3.113  10.818  0.1948  0.3005 -0.3233
  538TMC3    C3 7983   4.458   3.148  10.689  0.3563 -0.3473 -0.7210
  538TMC3    C4 7984   4.286   3.296  10.830  0.4400  0.1838  0.0103
  538TMC3    C5 7985   4.316   3.325  10.699 -0.2479 -0.1780 -0.1832
  538TMC3    C6 7986   4.403   3.255  10.625 -0.4811  0.0367 -0.5550
  538TMC3     C 7987   4.269   3.136  10.990  0.4435 -0.5545  0.1979
  538TMC3     O 7988   4.153   3.178  11.004  0.0147  0.2202 -0.0432
  538TMC3     H 7989   4.484   3.027  10.861 -0.8815 -0.4678 -0.6020
  538TMC3    H1 7990   4.235   3.364  10.897 -0.2036  0.2192 -0.5214
  538TMC3    H2 7991   4.407   3.275  10.519 -3.6566  0.8359 -0.5119
  538TMC3    C7 7992   4.211   3.391  10.627 -0.0120  0.2019 -0.3386
  538TMC3    C8 7993   4.575   3.086  10.644  0.2471  0.6123  0.2772
  538TMC3    O1 7994   4.245   3.445  10.520 -0.2120  0.1730  0.2954
  538TMC3    O2 7995   4.637   3.024  10.725  0.0114 -0.0451  0.2263
  539MPD2     C 7996   4.312   2.404  11.904 -0.5254  0.3747  0.4375
  539MPD2    C1 7997   4.278   2.413  11.771  0.5046  0.2799 -0.2679
  539MPD2    C2 7998   4.181   2.501  11.733  0.1941  0.8598  0.1269
  539MPD2    C3 7999   4.104   2.571  11.829 -0.0727  0.2270 -0.2054
  539MPD2    C4 8000   4.147   2.558  11.959 -0.3574 -0.7701  0.3634
  539MPD2    C5 8001   4.247   2.474  11.994 -0.5424 -0.1829 -0.5008
  539MPD2     H 8002   4.159   2.511  11.628  1.1239 -0.8938 -0.2333
  539MPD2    H1 8003   4.098   2.613  12.038 -0.9648 -3.6210  1.9602
  539MPD2    H2 8004   4.389   2.345  11.952 -1.9537 -1.6112  0.2617
  539MPD2    H3 8005   4.264   2.455  12.099  0.2396  0.9157 -0.4288
  539MPD2     N 8006   3.993   2.652  11.800  0.2684  0.7236  0.6472
  539MPD2    H5 8007   3.942   2.686  11.881 -1.5400  0.2459 -0.2917
  539MPD2    N1 8008   4.344   2.335  11.673 -0.2458  0.1516 -0.1610
  539MPD2    H7 8009   4.303   2.342  11.581  0.0343  2.9644 -0.0576
  540TMC3    C1 8010   3.848   2.796  11.689 -0.1447 -1.4546  0.3392
  540TMC3    C2 8011   3.867   2.906  11.612 -0.1432  0.0950  0.2374
  540TMC3    C3 8012   3.766   3.002  11.609  0.2533  0.1787  0.0350
  540TMC3    C4 8013   3.740   2.786  11.773 -0.4671  0.5421 -0.9929
  540TMC3    C5 8014   3.643   2.888  11.770  0.2760 -0.3399  0.2887
  540TMC3    C6 8015   3.659   2.993  11.692  0.2175  0.1746 -0.0900
  540TMC3     C 8016   3.952   2.698  11.680 -0.0635 -0.1669  0.4507
  540TMC3     O 8017   4.012   2.683  11.572 -0.2085 -0.7146 -0.2383
  540TMC3     H 8018   3.949   2.912  11.542  1.5391 -0.3858  2.1756
  540TMC3    H1 8019   3.723   2.693  11.825 -0.7351 -0.1696 -2.3390
  540TMC3    H2 8020   3.574   3.056  11.669  1.2137  1.1887 -0.9513
  540TMC3    C7 8021   3.528   2.890  11.863  0.4737 -0.2819 -0.1959
  540TMC3    C8 8022   3.746   3.064  11.481 -0.0728 -0.0042 -0.0376
  540TMC3    O1 8023   3.461   2.990  11.874 -0.2934 -0.0053 -0.5823
  540TMC3    O2 8024   3.776   3.179  11.468 -0.5637 -0.2084 -0.1194
  541MPD2     C 8025   2.460   4.011  13.222  0.3507  0.6263 -0.4699
  541MPD2    C1 8026   2.513   3.921  13.128 -0.5024  0.7002 -0.1800
  541MPD2    C2 8027   2.510   3.950  12.990  0.1259  0.1972  0.4471
  541MPD2    C3 8028   2.457   4.066  12.942  0.2600  0.2844 -0.3043
  541MPD2    C4 8029   2.405   4.156  13.039  0.7858  0.4486  0.0784
  541MPD2    C5 8030   2.408   4.127  13.172  0.0744 -0.2024  0.1783
  541MPD2     H 8031   2.557   3.882  12.921 -0.9984  1.1054 -1.2211
  541MPD2    H1 8032   2.372   4.257  13.020  0.5050  0.0476 -1.5559
  541MPD2    H2 8033   2.459   3.990  13.328 -0.7628 -0.7243 -0.7492
  541MPD2    H3 8034   2.344   4.190  13.233 -0.6524 -0.6747 -0.0917
  541MPD2     N 8035   2.462   4.090  12.800 -0.0710  0.4364  0.6145
  541MPD2    H5 8036   2.418   4.176  12.768  0.5910  0.2006 -0.9574
  541MPD2    N1 8037   2.576   3.809  13.182  0.6016 -0.4293 -0.1832
  541MPD2    H7 8038   2.587   3.825  13.281 -0.6764  1.3765 -0.3449
  542TMC3    C1 8039   2.520   4.075  12.566 -0.1327 -0.4796  0.1370
  542TMC3    C2 8040   2.533   3.996  12.458  0.7115  0.3324 -0.1648
  542TMC3    C3 8041   2.503   4.050  12.336  0.0232  0.0973 -0.0369
  542TMC3    C4 8042   2.490   4.210  12.563  0.1903 -0.0998  0.4136
  542TMC3    C5 8043   2.468   4.261  12.436 -0.3429  0.3052  1.1343
  542TMC3    C6 8044   2.464   4.182  12.316  0.2952  0.0786  0.1951
  542TMC3     C 8045   2.523   4.007  12.703 -0.1451 -0.3688 -0.4424
  542TMC3     O 8046   2.523   3.883  12.708 -0.5634 -0.9004 -0.4212
  542TMC3     H 8047   2.558   3.892  12.471 -1.7385 -0.1720  0.4020
  542TMC3    H1 8048   2.494   4.283  12.643  1.3784  1.2309 -0.8566
  542TMC3    H2 8049   2.451   4.216  12.214 -0.6072 -0.8818 -0.0153
  542TMC3    C7 8050   2.453   4.403  12.422  0.4417 -0.1055 -0.3441
  542TMC3    C8 8051   2.524   3.963  12.222  0.0469 -0.2073 -0.7725
  542TMC3    O1 8052   2.427   4.466  12.522 -0.1600 -0.0022 -0.0977
  542TMC3    O2 8053   2.457   3.978  12.123 -0.6914  0.2971 -0.0114
  543TMC3    C1 8054   2.242   0.031  17.349 -0.1662 -0.6767 -0.4405
  543TMC3    C2 8055   2.226   4.618  17.385 -0.1821  0.0698 -0.0954
  543TMC3    C3 8056   2.219   4.597  17.521  0.4502  0.1308 -0.4198
  543TMC3    C4 8057   2.255   0.133  17.436  0.2834  0.8121  0.2313
  543TMC3    C5 8058   2.253   0.098  17.575 -0.0990 -0.1036  0.3375
  543TMC3    C6 8059   2.236   4.692  17.615  0.7489 -0.1434 -0.0751
  543TMC3     C 8060   2.250   0.066  17.205 -0.0120 -0.1009  0.3414
  543TMC3     O 8061   2.279   0.181  17.179  0.2858  0.2309 -0.0201
  543TMC3     H 8062   2.235   4.534  17.316 -1.6946  0.3232 -0.5953
  543TMC3    H1 8063   2.277   0.235  17.408 -0.1344  0.5598 -1.0091
  543TMC3    H2 8064   2.223   4.668   0.018  0.1214  0.5323 -0.0051
  543TMC3    C7 8065   2.182   0.192  17.662 -0.2615  0.2577  0.4314
  543TMC3    C8 8066   2.185   4.461  17.553 -0.2054 -0.4364 -0.5488
  543TMC3    O1 8067   2.123   0.285  17.610  0.0855 -0.2514  0.3307
  543TMC3    O2 8068   2.158   4.387  17.458 -1.3094  0.3532  0.0191
  544MPD2     C 8069   2.176   4.076   0.175 -0.0508 -0.3026  0.2611
  544MPD2    C1 8070   2.146   4.083   0.047 -0.4076  0.3206  0.7300
  544MPD2    C2 8071   2.146   4.204  17.684  0.7071  0.4248  0.4404
  544MPD2    C3 8072   2.192   4.316   0.052  0.5357 -0.4774 -0.1213
  544MPD2    C4 8073   2.232   4.305   0.175  0.5504  0.3999  0.1651
  544MPD2    C5 8074   2.221   4.186   0.248  0.3998  0.2985 -0.5382
  544MPD2     H 8075   2.119   4.209  17.579  0.7600  3.1278  0.5742
  544MPD2    H1 8076   2.277   4.391   0.224  2.2864 -0.3188 -0.1663
  544MPD2    H2 8077   2.172   3.977   0.221  3.3461 -0.2583  0.6398
  544MPD2    H3 8078   2.250   4.181   0.352 -1.0073 -2.2302 -0.2630
  544MPD2     N 8079   2.203   4.441  17.690  0.3280  0.3708 -0.3894
  544MPD2    H5 8080   2.231   4.514   0.052 -1.1777 -0.4396  1.1685
  544MPD2    N1 8081   2.133   3.963  17.687 -0.5733  0.3563 -0.0076
  544MPD2    H7 8082   2.157   3.883   0.043 -1.8866  0.4949  0.7409
  545TMC3    C1 8083   2.078   3.795  17.524 -0.2627 -0.4888  0.2276
  545TMC3    C2 8084   2.115   3.750  17.397 -0.2752  0.4987  0.5391
  545TMC3    C3 8085   2.111   3.612  17.366 -0.2111  0.7896  0.4289
  545TMC3    C4 8086   2.038   3.707  17.621 -0.0860  0.0265 -0.3873
  545TMC3    C5 8087   2.037   3.578  17.582  0.1659 -0.7406 -0.4585
  545TMC3    C6 8088   2.080   3.523  17.464  0.0759 -0.3235  0.1313
  545TMC3     C 8089   2.088   3.936  17.562 -0.8433  0.2186  1.1128
  545TMC3     O 8090   2.068   4.002  17.462 -0.0105  0.3049 -0.3518
  545TMC3     H 8091   2.136   3.831  17.328  1.4029 -1.6278 -1.4812
  545TMC3    H1 8092   2.011   3.738   0.020 -0.7124 -0.4918 -0.3978
  545TMC3    H2 8093   2.072   3.418  17.441 -1.8503 -0.0466 -0.4707
  545TMC3    C7 8094   2.011   3.479  17.681  0.9435 -0.2328 -0.0105
  545TMC3    C8 8095   2.182   3.571  17.253  0.3410 -0.1972  0.1381
  545TMC3    O1 8096   1.958   3.375  17.647  0.1688 -0.4057 -0.1085
  545TMC3    O2 8097   2.270   3.492  17.285 -0.6373  0.2714  0.2781
  546MPD2     C 8098   3.262   0.266   0.214 -0.6800  1.1207  1.4954
  546MPD2    C1 8099   3.337   0.252   0.097 -0.1313  1.0917  0.1873
  546MPD2    C2 8100   3.430   0.351   0.062 -1.0434  0.0291 -0.3419
  546MPD2    C3 8101   3.452   0.460   0.144 -0.1937 -0.8903  0.3453
  546MPD2    C4 8102   3.372   0.474   0.257 -0.0059 -0.6382 -0.0094
  546MPD2    C5 8103   3.272   0.380   0.290 -0.0833 -0.0560  0.2702
  546MPD2     H 8104   3.495   0.344  17.677  0.4961 -1.5773  0.9403
  546MPD2    H1 8105   3.385   0.559   0.323 -0.8245 -0.8731  0.4570
  546MPD2    H2 8106   3.176   0.200   0.227  0.0329 -0.2857 -0.8513
  546MPD2    H3 8107   3.203   0.405   0.370  0.9329  2.7811  0.2380
  546MPD2     N 8108   3.547   0.560   0.125 -0.5358 -0.4006 -0.2073
  546MPD2    H5 8109   3.548   0.639   0.189  2.3568 -1.2901  0.8511
  546MPD2    N1 8110   3.310   0.137   0.018  0.4611 -0.2041 -0.1422
  546MPD2    H7 8111   3.239   0.073   0.052  1.1331 -0.8342  0.0868
  547TMC3    C1 8112   3.303   0.001  17.525 -0.2933  0.0401  0.0610
  547TMC3    C2 8113   3.308   4.722  17.383 -0.7438 -0.3932  0.3094
  547TMC3    C3 8114   3.287   4.597  17.324  0.7734  0.8078  0.1555
  547TMC3    C4 8115   3.284   4.614  17.599  0.5117 -0.1152  0.3495
  547TMC3    C5 8116   3.266   4.494  17.532 -0.2769  0.0235 -1.1021
  547TMC3    C6 8117   3.259   4.485  17.395  0.0608  0.6701  0.2449
  547TMC3     C 8118   3.361   0.123  17.592 -0.1125 -1.0626 -0.0830
  547TMC3     O 8119   3.428   0.191  17.515  0.0873 -0.2371 -0.1694
  547TMC3     H 8120   3.316   0.092  17.330  2.4370 -1.1916 -0.5904
  547TMC3    H1 8121   3.279   4.617   0.005 -0.5527 -1.0695  0.3275
  547TMC3    H2 8122   3.238   4.388  17.349 -0.4052  1.3824 -1.0420
  547TMC3    C7 8123   3.221   4.390  17.613 -0.4687  0.3857  0.4218
  547TMC3    C8 8124   3.241   4.597  17.187 -0.0814  0.0796 -0.7250
  547TMC3    O1 8125   3.152   4.415   0.012 -0.7396 -0.1200 -0.4361
  547TMC3    O2 8126   3.175   4.501  17.151 -0.4250  0.7659 -0.0557
  548MPD2     C 8127   3.154   0.820  12.573  1.2603  0.2730 -0.2896
  548MPD2    C1 8128   3.039   0.770  12.632  0.4509  0.8603  0.3325
  548MPD2    C2 8129   3.008   0.633  12.617  0.7215  0.3421  0.1006
  548MPD2    C3 8130   3.100   0.552  12.562 -0.2645 -0.8175 -0.2980
  548MPD2    C4 8131   3.212   0.598  12.499  0.4048  0.2923 -0.0598
  548MPD2    C5 8132   3.232   0.736  12.502 -0.6352 -0.0225  0.0886
  548MPD2     H 8133   2.921   0.597  12.670  1.3609 -1.2465  0.0884
  548MPD2    H1 8134   3.278   0.534  12.442 -1.7788 -1.6037 -0.4632
  548MPD2    H2 8135   3.180   0.925  12.574  0.9468  0.3455  0.6992
  548MPD2    H3 8136   3.316   0.781  12.450  0.3358 -0.2027  1.5025
  548MPD2     N 8137   3.052   0.421  12.555 -0.0044  0.2594 -0.2520
  548MPD2    H5 8138   2.963   0.400  12.600  0.9347 -1.0631  1.0301
  548MPD2    N1 8139   2.944   0.849  12.707 -0.1243  0.3937 -0.1135
  548MPD2    H7 8140   2.864   0.796  12.742 -1.5845  1.8540 -1.2480
  549TMC3    C1 8141   2.823   1.024  12.791 -0.0983  0.2266 -0.2695
  549TMC3    C2 8142   2.772   1.138  12.740  0.5091 -0.0053 -0.1256
  549TMC3    C3 8143   2.639   1.168  12.765 -0.2359 -0.6182  0.4513
  549TMC3    C4 8144   2.752   0.931  12.859  0.2758  0.1673  0.3366
  549TMC3    C5 8145   2.623   0.955  12.878 -0.1309  0.1774  0.8039
  549TMC3    C6 8146   2.564   1.065  12.821  0.3849  0.5386 -0.4077
  549TMC3     C 8147   2.944   0.985  12.727  0.3896 -0.1431 -0.1353
  549TMC3     O 8148   3.019   1.070  12.684  0.5770 -0.1330  0.3496
  549TMC3     H 8149   2.822   1.198  12.664  1.6282  0.0455  0.6514
  549TMC3    H1 8150   2.805   0.848  12.904  1.8286  0.0841 -1.6454
  549TMC3    H2 8151   2.456   1.076  12.817  0.4487  1.1440 -0.4280
  549TMC3    C7 8152   2.540   0.860  12.954 -0.4139  0.2119 -0.8892
  549TMC3    C8 8153   2.575   1.275  12.690  0.2783  0.2061 -0.0123
  549TMC3    O1 8154   2.437   0.895  13.013 -0.2393  0.0918  0.5641
  549TMC3    O2 8155   2.450   1.266  12.700 -0.5263 -0.1870 -0.4292
  550TMC3    C1 8156   1.668   3.912  12.953 -0.4579  0.0972  0.0166
  550TMC3    C2 8157   1.529   3.910  12.971  0.3367 -0.3680  0.1560
  550TMC3    C3 8158   1.464   4.029  12.940 -0.7611  0.3426 -0.7683
  550TMC3    C4 8159   1.741   4.013  12.896 -0.3629  0.0310 -0.8744
  550TMC3    C5 8160   1.667   4.123  12.853 -0.8800 -0.1897 -0.1979
  550TMC3    C6 8161   1.529   4.128  12.865  0.7432 -0.3468  0.1422
  550TMC3     C 8162   1.744   3.785  12.965  0.6136 -0.4914  0.1410
  550TMC3     O 8163   1.701   3.698  13.035 -0.2297 -0.3273 -0.3054
  550TMC3     H 8164   1.485   3.825  13.022  1.7779 -0.3677  1.4061
  550TMC3    H1 8165   1.849   4.018  12.888 -0.2062 -1.2812  0.3974
  550TMC3    H2 8166   1.478   4.221  12.842 -2.3238 -1.9601  0.4918
  550TMC3    C7 8167   1.722   4.184  12.740 -0.0449 -0.0863  0.2135
  550TMC3    C8 8168   1.316   4.023  12.924  0.3654 -0.4500  0.6641
  550TMC3    O1 8169   1.841   4.202  12.729  0.6187  0.4274 -0.6880
  550TMC3    O2 8170   1.277   4.073  12.824  0.0690 -0.2286 -0.3871
  551TMC3    C1 8171   4.525   1.549  13.852  0.5660  0.0132 -0.4941
  551TMC3    C2 8172   4.624   1.591  13.773  0.8342  0.3066 -0.0334
  551TMC3    C3 8173   0.029   1.577  13.825  0.0618  0.0766  0.5193
  551TMC3    C4 8174   4.543   1.472  13.966  0.5861  0.0897 -0.2485
  551TMC3    C5 8175   4.677   1.446  14.009 -0.5375 -0.2333 -0.0931
  551TMC3    C6 8176   0.056   1.510  13.947 -0.1079 -1.0689  0.0212
  551TMC3     C 8177   4.401   1.547  13.787  0.0714 -0.3199 -0.0487
  551TMC3     O 8178   4.396   1.503  13.671  0.2663  0.5142  0.6195
  551TMC3     H 8179   4.609   1.634  13.674 -0.4335 -1.7145 -0.7286
  551TMC3    H1 8180   4.458   1.441  14.025 -1.0924  1.9246 -1.7106
  551TMC3    H2 8181   0.161   1.494  13.965 -0.3281 -2.2399  0.2780
  551TMC3    C7 8182   4.712   1.378  14.133 -0.0883  0.0379 -0.0619
  551TMC3    C8 8183   0.144   1.635  13.758  0.3581  0.0860 -0.0667
  551TMC3    O1 8184   0.079   1.429  14.194  0.1923 -0.3197 -0.1229
  551TMC3    O2 8185   0.252   1.653  13.817 -0.1259  0.2543 -0.4362
  552MPD2     C 8186   1.177   3.118  14.130 -0.1986  0.3242  0.5327
  552MPD2    C1 8187   1.226   2.994  14.138 -0.0005 -0.1366  0.0271
  552MPD2    C2 8188   1.348   2.969  14.188  0.3625 -0.0733  0.6706
  552MPD2    C3 8189   1.433   3.075  14.208 -0.0553  0.0724  0.2079
  552MPD2    C4 8190   1.387   3.206  14.183 -0.6498 -0.1786  0.5914
  552MPD2    C5 8191   1.255   3.226  14.161 -0.8905 -0.0251  0.4529
  552MPD2     H 8192   1.383   2.867  14.183 -1.7475 -0.7782  0.4561
  552MPD2    H1 8193   1.450   3.294  14.191  0.8831 -1.1441 -0.8745
  552MPD2    H2 8194   1.080   3.142  14.088 -1.3383 -0.1329  2.9065
  552MPD2    H3 8195   1.214   3.326  14.151 -2.0848 -0.4561  1.0719
  552MPD2     N 8196   1.569   3.062  14.248 -0.2051 -0.2810  0.6752
  552MPD2    H5 8197   1.616   3.150  14.269  0.9373 -0.7777  0.2043
  552MPD2    N1 8198   1.148   2.886  14.083  0.3250 -0.9097  0.5765
  552MPD2    H7 8199   1.167   2.792  14.116  0.8478 -0.8177  0.5258
  553TMC3    C1 8200   1.017   2.770  13.925 -0.3472 -0.0550  0.6350
  553TMC3    C2 8201   0.954   2.801  13.811  0.4473 -0.1247 -0.1046
  553TMC3    C3 8202   1.023   2.781  13.696  0.6362  0.8542  0.6402
  553TMC3    C4 8203   1.135   2.694  13.934 -0.3607 -0.0042  0.0346
  553TMC3    C5 8204   1.199   2.671  13.811 -0.3636 -0.1452  0.3517
  553TMC3    C6 8205   1.148   2.722  13.690  0.3858 -0.2052  0.2268
  553TMC3     C 8206   1.041   2.894  13.994  0.0948 -0.5833  0.7841
  553TMC3     O 8207   0.989   2.990  13.933  0.4679 -0.2976 -0.1415
  553TMC3     H 8208   0.855   2.846  13.816 -0.1486 -1.4788  0.3069
  553TMC3    H1 8209   1.184   2.658  14.023 -0.6243 -1.1634 -0.2907
  553TMC3    H2 8210   1.194   2.702  13.594 -0.0191 -1.5148  0.3031
  553TMC3    C7 8211   1.342   2.700  13.814  0.1037 -0.3085 -0.0004
  553TMC3    C8 8212   1.016   2.903  13.609 -0.6655  0.8114  0.1190
  553TMC3    O1 8213   1.419   2.613  13.855  0.7658 -0.1664  0.0475
  553TMC3    O2 8214   0.956   2.997  13.660 -0.4959  0.4515  0.0652
  554TMC3    C1 8215   2.941   2.454  11.699 -0.3736  0.2565 -0.1998
  554TMC3    C2 8216   2.863   2.390  11.604  0.9004 -0.1081  0.0366
  554TMC3    C3 8217   2.903   2.396  11.467 -0.2609  1.0339  0.2302
  554TMC3    C4 8218   3.042   2.539  11.661  0.1266 -0.2768  1.0097
  554TMC3    C5 8219   3.062   2.561  11.528 -0.1869 -0.5990  0.2450
  554TMC3    C6 8220   2.999   2.480  11.436  0.3737 -0.0106  0.6067
  554TMC3     C 8221   2.911   2.428  11.841 -0.1593  0.0312 -0.8141
  554TMC3     O 8222   2.792   2.448  11.866  0.2509 -0.5971 -0.0752
  554TMC3     H 8223   2.780   2.327  11.635  0.9463  0.0877  0.5405
  554TMC3    H1 8224   3.099   2.586  11.741  0.0474  0.4659  0.6274
  554TMC3    H2 8225   3.039   2.472  11.336  1.7359  2.1384  0.9710
  554TMC3    C7 8226   3.150   2.664  11.471 -0.6565 -0.0296  0.3883
  554TMC3    C8 8227   2.804   2.384  11.368 -0.3201 -0.1380 -0.6120
  554TMC3    O1 8228   3.165   2.672  11.350  0.8378  0.4716 -0.0404
  554TMC3    O2 8229   2.798   2.483  11.296  0.1043  0.8528 -0.3312
  555TMC3    C1 8230   2.294   1.658  15.318  0.3951  0.3241 -0.4050
  555TMC3    C2 8231   2.346   1.712  15.431  0.3922 -0.0164 -0.0239
  555TMC3    C3 8232   2.365   1.633  15.544  0.8113  0.0882 -0.0193
  555TMC3    C4 8233   2.271   1.525  15.310  0.6886  0.2791 -0.2340
  555TMC3    C5 8234   2.277   1.449  15.425 -0.7590 -0.0649 -0.2298
  555TMC3    C6 8235   2.321   1.500  15.547  0.4786 -0.0642  0.3515
  555TMC3     C 8236   2.263   1.739  15.199  0.2091 -0.6457 -0.3853
  555TMC3     O 8237   2.190   1.687  15.113  0.1157 -0.1613  0.4519
  555TMC3     H 8238   2.388   1.812  15.438 -0.3722  0.2647  0.5496
  555TMC3    H1 8239   2.227   1.492  15.217 -0.0412  2.6800 -0.7280
  555TMC3    H2 8240   2.309   1.455  15.646 -0.5405  0.0435  0.2814
  555TMC3    C7 8241   2.238   1.308  15.423 -0.1144  0.5157 -0.3928
  555TMC3    C8 8242   2.385   1.707  15.671 -0.3151  0.4260  0.1785
  555TMC3    O1 8243   2.262   1.244  15.523  0.0998 -0.2843 -0.6390
  555TMC3    O2 8244   2.348   1.818  15.675  0.0835  0.0737 -0.3174
  556MPD2     C 8245   0.568   3.844  10.518 -0.8041 -0.3718  0.0649
  556MPD2    C1 8246   0.442   3.780  10.519  0.0275 -0.4467  0.7376
  556MPD2    C2 8247   0.402   3.703  10.413 -0.1929 -0.0876 -0.0680
  556MPD2    C3 8248   0.489   3.680  10.302  0.7050 -0.0780 -0.6012
  556MPD2    C4 8249   0.615   3.737  10.309  0.0829 -0.2476  0.1610
  556MPD2    C5 8250   0.655   3.823  10.407  0.4768  0.8497 -0.2205
  556MPD2     H 8251   0.305   3.656  10.416 -0.5083  0.7009  2.3908
  556MPD2    H1 8252   0.689   3.713  10.233 -0.2084 -1.6202  0.3013
  556MPD2    H2 8253   0.607   3.912  10.593 -2.3931 -1.1703  1.6062
  556MPD2    H3 8254   0.753   3.870  10.410  1.5822 -1.4771 -0.4235
  556MPD2     N 8255   0.440   3.593  10.201 -0.4068  0.2830  0.1649
  556MPD2    H5 8256   0.349   3.553  10.221 -0.8331  0.5407 -1.2792
  556MPD2    N1 8257   0.354   3.782  10.628  0.7305 -0.5830 -0.2479
  556MPD2    H7 8258   0.264   3.736  10.625 -0.8071  2.3641  0.6559
  557TMC3    C1 8259   0.426   3.456  10.012  0.1983 -0.5831  0.2097
  557TMC3    C2 8260   0.497   3.387   9.916 -0.9048  0.0423  0.7414
  557TMC3    C3 8261   0.458   3.260   9.873  0.2264  0.2690  0.4997
  557TMC3    C4 8262   0.302   3.410  10.055  0.2647  0.6852  0.7579
  557TMC3    C5 8263   0.260   3.286  10.006 -0.2408 -0.2904  0.1702
  557TMC3    C6 8264   0.340   3.210   9.920 -0.4455  0.2775 -0.2752
  557TMC3     C 8265   0.507   3.550  10.090  0.0234 -0.0101  0.3892
  557TMC3     O 8266   0.623   3.572  10.053  0.4476  0.4570 -0.8959
  557TMC3     H 8267   0.592   3.424   9.881 -1.7690  0.8637 -0.7271
  557TMC3    H1 8268   0.264   3.447  10.149 -0.7808 -0.3025  0.7227
  557TMC3    H2 8269   0.309   3.113   9.883  0.0017 -0.7835  2.0973
  557TMC3    C7 8270   0.162   3.228  10.095 -0.0194  0.2277  0.3118
  557TMC3    C8 8271   0.550   3.180   9.786 -0.6955  0.0929 -0.1121
  557TMC3    O1 8272   0.073   3.304  10.129 -0.1091 -0.0322  0.1871
  557TMC3    O2 8273   0.613   3.236   9.698  0.1919 -0.1615  0.1300
  558TMC3    C1 8274   2.880   1.365  10.104 -0.1074 -0.1068  0.3956
  558TMC3    C2 8275   2.777   1.285  10.153  0.3333 -0.4665 -0.8170
  558TMC3    C3 8276   2.647   1.328  10.136  0.0629  0.0311  0.8230
  558TMC3    C4 8277   2.860   1.480  10.041 -0.0069  0.0633  0.2324
  558TMC3    C5 8278   2.726   1.516  10.032  0.3061  0.6100  0.0271
  558TMC3    C6 8279   2.620   1.447  10.079 -0.1779  0.2115 -0.3808
  558TMC3     C 8280   3.002   1.355  10.181 -0.1897  0.7560 -0.3679
  558TMC3     O 8281   3.046   1.456  10.229 -0.0078  0.1519  0.0670
  558TMC3     H 8282   2.802   1.191  10.201  0.1933  0.3540  0.8459
  558TMC3    H1 8283   2.942   1.542  10.005 -0.3178 -1.1009 -2.4571
  558TMC3    H2 8284   2.519   1.484  10.093 -0.3968 -0.2415 -0.7494
  558TMC3    C7 8285   2.704   1.620   9.935  0.0082 -0.9173  0.3622
  558TMC3    C8 8286   2.551   1.266  10.212  0.4647  0.6006 -0.6013
  558TMC3    O1 8287   2.787   1.709   9.916  0.2685  0.1058  0.1152
  558TMC3    O2 8288   2.442   1.236  10.165 -0.2148 -0.4954 -0.1944
  559MPD2     C 8289   2.845   2.131  10.623 -0.1375  0.1607  0.4148
  559MPD2    C1 8290   2.849   2.005  10.672 -0.0809  0.0223 -0.2369
  559MPD2    C2 8291   2.961   1.964  10.729 -1.1096  0.0433 -0.4310
  559MPD2    C3 8292   3.068   2.055  10.759 -0.4439 -0.1639  0.3231
  559MPD2    C4 8293   3.060   2.183  10.709 -0.1849 -0.6928  0.0132
  559MPD2    C5 8294   2.950   2.223  10.639 -0.0215  0.2466 -0.4986
  559MPD2     H 8295   2.975   1.861  10.760  1.0595  0.7537  1.0002
  559MPD2    H1 8296   3.147   2.247  10.722 -0.0945 -0.3267 -2.3638
  559MPD2    H2 8297   2.754   2.164  10.575 -0.8223  0.0652  1.6454
  559MPD2    H3 8298   2.946   2.319  10.588  0.7287  0.4048 -0.2620
  559MPD2     N 8299   3.168   2.010  10.852 -0.5622  0.0665  0.0946
  559MPD2    H5 8300   3.159   1.912  10.876 -0.3452  0.2370  0.8481
  559MPD2    N1 8301   2.734   1.922  10.661 -0.2511 -0.1085 -0.4901
  559MPD2    H7 8302   2.647   1.967  10.634  0.1822  0.3975 -1.0500
  560TMC3    C1 8303   3.346   1.989  10.990  0.7473 -0.2231 -0.6023
  560TMC3    C2 8304   3.322   1.853  10.983 -0.1663  0.2424  0.0389
  560TMC3    C3 8305   3.393   1.776  11.067 -0.0330  0.1892  0.3852
  560TMC3    C4 8306   3.433   2.046  11.082  0.6769 -0.0638 -0.2807
  560TMC3    C5 8307   3.476   1.963  11.178 -0.0481 -0.3339  0.8702
  560TMC3    C6 8308   3.467   1.827  11.163 -0.4995  0.0772 -0.3882
  560TMC3     C 8309   3.272   2.082  10.908 -0.0936 -0.4098  0.1117
  560TMC3     O 8310   3.313   2.194  10.897 -0.2170 -0.3048 -0.0159
  560TMC3     H 8311   3.266   1.797  10.908 -1.3224  0.8668  0.4407
  560TMC3    H1 8312   3.444   2.153  11.100 -2.6772  0.9358 -4.0840
  560TMC3    H2 8313   3.518   1.771  11.241  1.0951  1.6159 -0.3113
  560TMC3    C7 8314   3.567   2.006  11.292  0.2808  0.1227  0.3798
  560TMC3    C8 8315   3.347   1.640  11.070 -0.3051 -0.2966  0.5556
  560TMC3    O1 8316   3.557   1.938  11.391 -0.0580 -0.0476  0.7079
  560TMC3    O2 8317   3.230   1.620  11.037 -0.4164  0.1124  0.7246
  561TMC3    C1 8318   0.947   0.526  11.451 -0.1242  0.1451  0.0082
  561TMC3    C2 8319   0.839   0.483  11.532 -0.4927 -0.2887  0.6185
  561TMC3    C3 8320   0.733   0.572  11.541  0.0556 -0.0793  0.2273
  561TMC3    C4 8321   0.958   0.656  11.399 -0.4519 -0.4575  0.0287
  561TMC3    C5 8322   0.848   0.740  11.418 -0.1968  0.1740 -0.6451
  561TMC3    C6 8323   0.732   0.695  11.479 -0.2396 -0.0895 -0.5115
  561TMC3     C 8324   1.005   0.416  11.382 -0.4809 -0.0072 -0.3228
  561TMC3     O 8325   0.946   0.308  11.370 -0.0524 -0.4386  0.3348
  561TMC3     H 8326   0.844   0.377  11.557  1.1387 -0.2062  0.6293
  561TMC3    H1 8327   1.053   0.700  11.370 -1.4835  2.5665  1.2477
  561TMC3    H2 8328   0.646   0.759  11.471  1.0386  1.4708 -1.8136
  561TMC3    C7 8329   0.850   0.880  11.370  0.7465  0.8163  0.0022
  561TMC3    C8 8330   0.656   0.549  11.654 -0.2309  0.4181  0.3496
  561TMC3    O1 8331   0.764   0.954  11.420 -0.2949  0.4080 -0.2916
  561TMC3    O2 8332   0.689   0.442  11.708  0.5539  0.5002 -0.2716
  562TMC3    C1 8333   2.133   1.887  16.258  1.2306 -0.2526  0.2983
  562TMC3    C2 8334   2.066   1.999  16.204  0.6366 -0.1853 -0.1196
  562TMC3    C3 8335   2.017   1.993  16.077  0.4883 -0.7939  0.1338
  562TMC3    C4 8336   2.144   1.775  16.187 -0.0456 -0.4899 -0.3733
  562TMC3    C5 8337   2.085   1.770  16.064 -0.0276 -0.0545  0.4328
  562TMC3    C6 8338   2.028   1.881  16.005  0.2896 -0.3424  0.0753
  562TMC3     C 8339   2.202   1.899  16.384  0.2137 -0.2450 -0.3236
  562TMC3     O 8340   2.222   1.796  16.448  0.4050 -0.0646 -0.2925
  562TMC3     H 8341   2.052   2.092  16.259 -0.3610  1.2133 -2.7362
  562TMC3    H1 8342   2.212   1.694  16.213 -0.7043 -0.1904  2.2977
  562TMC3    H2 8343   1.981   1.867  15.909 -0.3904 -0.7121  0.4598
  562TMC3    C7 8344   2.107   1.649  15.988  0.9163 -0.7586  0.5323
  562TMC3    C8 8345   1.919   2.092  16.027 -0.5312  0.6584  0.9709
  562TMC3    O1 8346   2.106   1.663  15.868 -0.3406 -0.4834  0.0083
  562TMC3    O2 8347   1.862   2.165  16.108  0.0968 -0.1202  0.1691
  563MPD2     C 8348   4.141   2.961  15.787 -0.0354  0.1741 -0.5592
  563MPD2    C1 8349   4.181   3.033  15.901  0.1157 -0.4072  0.6620
  563MPD2    C2 8350   4.318   3.059  15.914 -0.1256 -0.4500 -0.6127
  563MPD2    C3 8351   4.409   2.997  15.832  0.7305  0.8459 -0.3421
  563MPD2    C4 8352   4.369   2.924  15.721  0.0576 -0.6298 -0.0221
  563MPD2    C5 8353   4.230   2.912  15.698 -0.1023 -0.3351  0.5274
  563MPD2     H 8354   4.360   3.114  15.998 -2.9409  0.1736  0.3844
  563MPD2    H1 8355   4.438   2.906  15.640  0.7350 -0.3579  0.4893
  563MPD2    H2 8356   4.037   2.952  15.755 -0.4030  0.0146  0.6739
  563MPD2    H3 8357   4.203   2.854  15.611  0.6827 -1.2311  0.8780
  563MPD2     N 8358   4.546   3.017  15.858 -0.6089 -0.0895 -0.2598
  563MPD2    H5 8359   4.572   3.076  15.937 -0.8631 -1.2939  0.7353
  563MPD2    N1 8360   4.086   3.079  15.991 -0.1784 -0.6312  0.4305
  563MPD2    H7 8361   3.997   3.031  15.985 -0.8255  0.6971 -0.4111
  564TMC3    C1 8362   4.005   3.164  16.195  0.3340  0.5401  0.1911
  564TMC3    C2 8363   3.890   3.091  16.174 -0.4298 -0.3700  0.4984
  564TMC3    C3 8364   3.803   3.075  16.285  0.2314  0.7414  0.0025
  564TMC3    C4 8365   4.043   3.210  16.320  0.6311 -0.7694 -0.0321
  564TMC3    C5 8366   3.972   3.169  16.429  0.0597  0.2523  0.2569
  564TMC3    C6 8367   3.849   3.110  16.413 -0.4353 -0.2081 -0.5028
  564TMC3     C 8368   4.107   3.169  16.093  0.7096  0.2631 -0.8710
  564TMC3     O 8369   4.211   3.225  16.123 -0.0387 -0.9898  0.2998
  564TMC3     H 8370   3.854   3.075  16.073  0.9101  0.4072 -0.1001
  564TMC3    H1 8371   4.143   3.250  16.334  0.3980 -0.3274  0.3530
  564TMC3    H2 8372   3.794   3.081  16.502  3.2623  0.0065  1.8669
  564TMC3    C7 8373   4.061   3.095  16.514 -0.4426  0.3963  1.1539
  564TMC3    C8 8374   3.739   2.949  16.282  0.0543  0.6788  0.2710
  564TMC3    O1 8375   4.169   3.144  16.539  0.4746 -0.6972  0.2041
  564TMC3    O2 8376   3.747   2.879  16.385  0.1285 -0.3368 -0.4553
  565TMC3    C1 8377   4.507   0.331  10.332  0.4124 -0.5158  0.1843
  565TMC3    C2 8378   4.541   0.213  10.393 -0.3458  0.0506 -0.1475
  565TMC3    C3 8379   4.485   0.098  10.347  0.4106 -0.3096  0.0267
  565TMC3    C4 8380   4.429   0.339  10.218  0.1116 -0.6306  0.0625
  565TMC3    C5 8381   4.398   0.211  10.161  0.4778  0.0359 -0.1157
  565TMC3    C6 8382   4.407   0.097  10.231 -0.1297  0.2495 -0.1007
  565TMC3     C 8383   4.568   0.457  10.373  0.3966 -0.1549  0.5274
  565TMC3     O 8384   4.554   0.559  10.306  0.4424 -0.4260 -0.7487
  565TMC3     H 8385   4.603   0.203  10.481 -0.3474  1.2696 -0.0122
  565TMC3    H1 8386   4.395   0.436  10.183 -0.2516  0.1415  2.5545
  565TMC3    H2 8387   4.396   0.008  10.170 -1.8516 -0.1026  0.7327
  565TMC3    C7 8388   4.300   0.204  10.052  0.5077 -0.4107  0.6648
  565TMC3    C8 8389   4.572   4.711  10.368  0.6321  0.0675  0.0639
  565TMC3    O1 8390   4.227   0.105  10.036  0.6300 -0.0585  0.4585
  565TMC3    O2 8391   4.683   0.009  10.410  0.2014  0.7146 -0.0845
  566MPD2     C 8392   1.299   1.631  14.140  0.9605 -0.8776 -0.6046
  566MPD2    C1 8393   1.407   1.605  14.062 -0.4336  0.3751 -0.3257
  566MPD2    C2 8394   1.386   1.525  13.954  0.4617  0.6481 -0.2475
  566MPD2    C3 8395   1.258   1.476  13.913 -0.2830  0.4355 -0.4921
  566MPD2    C4 8396   1.154   1.503  13.997 -0.0688 -0.1998  0.2954
  566MPD2    C5 8397   1.179   1.574  14.112  0.3355 -0.8872 -0.0827
  566MPD2     H 8398   1.467   1.510  13.882 -0.6871 -0.0415 -1.3948
  566MPD2    H1 8399   1.054   1.467  13.975  0.3099 -1.6239  0.9092
  566MPD2    H2 8400   1.311   1.700  14.223  1.1034  0.0538 -1.3983
  566MPD2    H3 8401   1.099   1.596  14.181  0.7920  0.1070  0.1176
  566MPD2     N 8402   1.234   1.417  13.784  0.0399  0.4773 -0.1280
  566MPD2    H5 8403   1.143   1.423  13.739  0.1996  0.7645 -0.4123
  566MPD2    N1 8404   1.542   1.642  14.093  1.0290  0.2003  0.3975
  566MPD2    H7 8405   1.608   1.628  14.017  1.2261  1.1372  0.3944
  567TMC3    C1 8406   1.719   1.760  14.205  1.0293 -0.2244 -0.6364
  567TMC3    C2 8407   1.736   1.850  14.105  0.4121  0.4520  0.2271
  567TMC3    C3 8408   1.869   1.888  14.079 -0.4192 -0.9728  0.6084
  567TMC3    C4 8409   1.823   1.711  14.284  0.2148 -0.0353 -0.1637
  567TMC3    C5 8410   1.953   1.748  14.249  1.0585 -0.5178 -0.1633
  567TMC3    C6 8411   1.980   1.842  14.148  1.1941 -0.7608 -0.4292
  567TMC3     C 8412   1.586   1.693  14.209  0.1062  0.1854  0.9401
  567TMC3     O 8413   1.539   1.665  14.319 -0.4034  0.0994 -0.4403
  567TMC3     H 8414   1.648   1.905  14.075  0.2271 -1.8120 -3.3341
  567TMC3    H1 8415   1.795   1.633  14.353 -1.0771  1.1896  0.6890
  567TMC3    H2 8416   2.081   1.875  14.129  1.1186  0.5723  1.4750
  567TMC3    C7 8417   2.066   1.720  14.330  0.5823  0.0907  0.3115
  567TMC3    C8 8418   1.888   1.981  13.973 -0.0249  0.5440 -0.2747
  567TMC3    O1 8419   2.173   1.754  14.291 -0.1137 -0.1281 -0.6541
  567TMC3    O2 8420   1.786   2.028  13.922  0.2685  0.2053  0.9298
  568MPD2     C 8421   3.854   1.822  16.533 -0.4639 -0.4683  0.4675
  568MPD2    C1 8422   3.746   1.796  16.610  0.3008  0.2191 -0.5869
  568MPD2    C2 8423   3.622   1.849  16.567 -0.2562  0.4099  0.2172
  568MPD2    C3 8424   3.607   1.927  16.456 -0.4123  0.1580  0.3367
  568MPD2    C4 8425   3.720   1.955  16.380 -0.6090 -0.2371 -0.4661
  568MPD2    C5 8426   3.841   1.910  16.430 -0.2680  0.0463 -0.1997
  568MPD2     H 8427   3.532   1.834  16.626 -1.6945  0.4094 -1.9440
  568MPD2    H1 8428   3.723   2.027  16.300  0.6873  0.2223  0.0026
  568MPD2    H2 8429   3.951   1.787  16.567 -1.0033 -1.7321  0.7396
  568MPD2    H3 8430   3.931   1.936  16.375 -1.4519  2.5579 -0.9000
  568MPD2     N 8431   3.493   1.997  16.414 -0.4083 -0.4946 -0.3309
  568MPD2    H5 8432   3.501   2.069  16.343 -0.4800  1.8182  2.0001
  568MPD2    N1 8433   3.763   1.721  16.729  0.1784 -0.6090 -0.3317
  568MPD2    H7 8434   3.862   1.702  16.744  0.1239 -0.8899 -0.3289
  569TMC3    C1 8435   3.307   2.124  16.467 -0.2163  0.0756  0.3862
  569TMC3    C2 8436   3.277   2.187  16.584 -0.5671  0.5293 -0.1027
  569TMC3    C3 8437   3.299   2.323  16.593 -0.4055 -0.6341 -0.4402
  569TMC3    C4 8438   3.338   2.197  16.361 -0.3127 -0.5368 -0.5241
  569TMC3    C5 8439   3.368   2.332  16.378  0.8790  0.2594 -0.2779
  569TMC3    C6 8440   3.346   2.397  16.493 -0.3619  0.7631 -0.0458
  569TMC3     C 8441   3.373   1.996  16.481  0.3332 -0.1159  0.2871
  569TMC3     O 8442   3.336   1.918  16.565 -0.0502 -0.3108  0.4399
  569TMC3     H 8443   3.251   2.134  16.675  1.5761  1.1388  0.8540
  569TMC3    H1 8444   3.346   2.147  16.265 -0.3189  0.5970 -1.1096
  569TMC3    H2 8445   3.367   2.503  16.506  0.1060  1.0148 -2.7840
  569TMC3    C7 8446   3.388   2.410  16.263  0.1441  0.0799 -0.2287
  569TMC3    C8 8447   3.299   2.379  16.727 -0.2254  0.0797  0.2188
  569TMC3    O1 8448   3.343   2.362  16.163 -0.5401  0.3710  0.1294
  569TMC3    O2 8449   3.204   2.342  16.794  0.6599  0.4393  0.2053
  570TMC3    C1 8450   3.280   0.793  16.205  1.1508  0.3258  0.8878
  570TMC3    C2 8451   3.326   0.809  16.083  0.4447  0.4018  0.3443
  570TMC3    C3 8452   3.340   0.936  16.040 -0.0978  0.6690 -0.6611
  570TMC3    C4 8453   3.224   0.896  16.273 -0.5008  1.2234 -0.1403
  570TMC3    C5 8454   3.224   1.024  16.222  0.4809  0.0494  0.2202
  570TMC3    C6 8455   3.290   1.046  16.108 -0.2652 -0.0727  0.1524
  570TMC3     C 8456   3.237   0.658  16.238 -0.6426 -0.4022  0.3427
  570TMC3     O 8457   3.242   0.576  16.148  0.1319 -0.1538 -0.1280
  570TMC3     H 8458   3.366   0.722  16.034  1.6483  1.1704 -0.0581
  570TMC3    H1 8459   3.163   0.868  16.359 -1.0969 -0.7404 -1.1963
  570TMC3    H2 8460   3.294   1.149  16.073  1.8802 -0.2152  0.0085
  570TMC3    C7 8461   3.194   1.129  16.319  0.1953 -0.1175 -0.7042
  570TMC3    C8 8462   3.450   0.963  15.945 -0.3478  0.1276 -0.3895
  570TMC3    O1 8463   3.205   1.095  16.436  0.1491 -0.1370 -0.5679
  570TMC3    O2 8464   3.474   1.078  15.924 -0.4693  0.0476  0.2746
  571MPD2     C 8465   2.046   3.201  17.003  0.6157  0.1213  0.2040
  571MPD2    C1 8466   1.954   3.107  17.045 -0.4816  0.0042  0.6547
  571MPD2    C2 8467   1.853   3.155  17.119 -0.7853 -0.1132 -0.2219
  571MPD2    C3 8468   1.849   3.290  17.154  0.4218  0.0793  0.2993
  571MPD2    C4 8469   1.955   3.376  17.113 -0.3429 -0.2901 -0.9067
  571MPD2    C5 8470   2.047   3.332  17.027 -0.7718  0.3812 -0.1393
  571MPD2     H 8471   1.772   3.090  17.150 -1.1864  0.1229 -0.7753
  571MPD2    H1 8472   1.947   3.480  17.142  0.5053 -0.3226 -0.5787
  571MPD2    H2 8473   2.132   3.167  16.946 -1.4173 -2.9917 -0.9663
  571MPD2    H3 8474   2.120   3.398  16.980  0.8798 -0.6898  0.9394
  571MPD2     N 8475   1.740   3.329  17.233  0.5644 -0.1624 -0.0036
  571MPD2    H5 8476   1.662   3.265  17.241  0.3869 -0.0612 -0.9234
  571MPD2    N1 8477   1.970   2.968  17.011  0.4650 -0.1295 -0.1172
  571MPD2    H7 8478   2.065   2.947  16.981  1.0879  0.3686  1.5191
  572TMC3    C1 8479   1.585   3.459  17.334 -0.3872 -0.9432 -0.9639
  572TMC3    C2 8480   1.510   3.349  17.371 -0.4991 -0.4531  0.5872
  572TMC3    C3 8481   1.384   3.359  17.430  0.7193 -0.0701 -0.0034
  572TMC3    C4 8482   1.522   3.582  17.345 -0.5580 -0.0524 -0.3939
  572TMC3    C5 8483   1.386   3.588  17.378 -0.5097  0.4305 -0.4120
  572TMC3    C6 8484   1.315   3.480  17.427  0.0690  0.0080  0.3461
  572TMC3     C 8485   1.718   3.450  17.282  0.2177  0.3314 -0.6265
  572TMC3     O 8486   1.787   3.548  17.299  0.8213  0.4413  0.2861
  572TMC3     H 8487   1.564   3.255  17.373 -1.0886 -0.7890  0.6813
  572TMC3    H1 8488   1.578   3.668  17.308 -2.1799  1.6893  1.1620
  572TMC3    H2 8489   1.211   3.495  17.455  1.0867  1.9746  3.0688
  572TMC3    C7 8490   1.325   3.721  17.398 -0.2520  0.0328 -0.3651
  572TMC3    C8 8491   1.328   3.235  17.478 -0.2517  0.1233 -0.2046
  572TMC3    O1 8492   1.209   3.742  17.380  0.0853 -0.0846  0.2559
  572TMC3    O2 8493   1.336   3.137  17.402 -0.3020  0.7512  0.2896
  573MPD2     C 8494   2.374   3.387   1.528  0.1404  0.3644 -0.1474
  573MPD2    C1 8495   2.496   3.407   1.480  0.4550  0.2608  0.5987
  573MPD2    C2 8496   2.524   3.400   1.341 -0.6116  0.1403 -0.0806
  573MPD2    C3 8497   2.430   3.359   1.255  1.1528 -0.2845 -0.6536
  573MPD2    C4 8498   2.301   3.330   1.302  0.0572  0.3769 -0.3565
  573MPD2    C5 8499   2.271   3.350   1.440  0.0269 -0.1292 -0.2010
  573MPD2     H 8500   2.624   3.428   1.311 -0.4590 -1.5134 -1.1504
  573MPD2    H1 8501   2.225   3.283   1.241  0.7461 -1.3370  0.1140
  573MPD2    H2 8502   2.357   3.402   1.634  0.5010  0.1078 -0.0553
  573MPD2    H3 8503   2.180   3.319   1.491  0.3056  0.2325  0.5096
  573MPD2     N 8504   2.453   3.341   1.117  0.3190 -0.3857 -0.0113
  573MPD2    H5 8505   2.378   3.321   1.052  0.1654 -0.6624  0.2486
  573MPD2    N1 8506   2.585   3.462   1.573 -0.0695  0.0178  0.5070
  573MPD2    H7 8507   2.554   3.464   1.670  0.0630 -0.4314  0.5600
  574TMC3    C1 8508   2.557   3.371   0.905 -0.0436  0.2351  0.5396
  574TMC3    C2 8509   2.435   3.366   0.848 -0.5813 -0.3075 -0.2213
  574TMC3    C3 8510   2.429   3.393   0.712  0.1315  0.3025 -0.2649
  574TMC3    C4 8511   2.673   3.382   0.826  0.5380 -0.4471  0.2787
  574TMC3    C5 8512   2.659   3.429   0.695 -0.0113  0.3327  0.1756
  574TMC3    C6 8513   2.539   3.418   0.628 -0.2462  0.8276  0.2844
  574TMC3     C 8514   2.573   3.367   1.054  0.4744  0.0774  1.2983
  574TMC3     O 8515   2.689   3.369   1.099 -0.1793 -0.0515 -0.1204
  574TMC3     H 8516   2.346   3.354   0.908 -0.5581 -2.7973 -0.6823
  574TMC3    H1 8517   2.771   3.362   0.869  0.2791  0.4132  1.2779
  574TMC3    H2 8518   2.527   3.428   0.520 -0.1316 -0.2831  0.1676
  574TMC3    C7 8519   2.774   3.422   0.611 -0.1534 -1.0832 -0.8029
  574TMC3    C8 8520   2.295   3.377   0.656  0.5909 -0.1953 -0.1758
  574TMC3    O1 8521   2.861   3.346   0.647 -0.5746 -0.3131 -0.4710
  574TMC3    O2 8522   2.214   3.315   0.723  0.6903  0.2877  0.4002
  575TMC3    C1 8523   0.610   4.378  10.440  0.3875  0.7436 -0.4198
  575TMC3    C2 8524   0.659   4.268  10.368 -0.1510  0.8629 -0.5677
  575TMC3    C3 8525   0.585   4.210  10.262  0.5970 -0.8324 -0.1424
  575TMC3    C4 8526   0.487   4.432  10.398 -1.3196 -0.2156 -0.1100
  575TMC3    C5 8527   0.413   4.364  10.304  0.3143 -0.3353 -0.1012
  575TMC3    C6 8528   0.464   4.267  10.227  0.1075  0.4504 -0.7265
  575TMC3     C 8529   0.703   4.451  10.523 -1.2123 -0.0375 -0.3830
  575TMC3     O 8530   0.822   4.422  10.499  0.0758  0.0137  0.6629
  575TMC3     H 8531   0.752   4.218  10.393 -0.1355  1.3933  0.4309
  575TMC3    H1 8532   0.433   4.504  10.459 -4.1704 -1.4145 -1.2379
  575TMC3    H2 8533   0.400   4.219  10.154  1.8110 -2.1838 -0.4451
  575TMC3    C7 8534   0.284   4.423  10.271 -0.4042 -0.3945 -0.0169
  575TMC3    C8 8535   0.640   4.097  10.186 -0.0105  0.4275  1.5674
  575TMC3    O1 8536   0.273   4.547  10.281  0.2964  0.2916 -0.0301
  575TMC3    O2 8537   0.563   4.055  10.104 -0.2363  0.4555  0.0520
  576MPD2     C 8538   4.510   1.130  12.604 -0.1245 -0.1614 -0.4887
  576MPD2    C1 8539   4.642   1.098  12.576  0.5583 -0.4624 -0.3967
  576MPD2    C2 8540   4.705   1.022  12.667 -0.1298 -0.2100  0.7055
  576MPD2    C3 8541   4.643   0.962  12.772  0.1396 -0.0194 -0.4428
  576MPD2    C4 8542   4.510   0.999  12.808 -0.0422 -0.4410 -0.2219
  576MPD2    C5 8543   4.448   1.085  12.722 -0.0865 -0.4000  0.4384
  576MPD2     H 8544   0.086   1.010  12.647  0.3755  3.3665  1.2732
  576MPD2    H1 8545   4.456   0.955  12.891  0.9912 -1.4959 -0.1031
  576MPD2    H2 8546   4.452   1.192  12.537 -1.4501 -1.6842 -0.7414
  576MPD2    H3 8547   4.345   1.109  12.745  0.1879 -0.3828  1.6894
  576MPD2     N 8548   0.003   0.884  12.856  0.8912  0.6405  0.1852
  576MPD2    H5 8549   0.100   0.867  12.831  0.4524 -0.1343 -1.0026
  576MPD2    N1 8550   4.702   1.126  12.447 -0.4137 -0.9127 -0.5670
  576MPD2    H7 8551   0.063   1.074  12.428 -1.0018 -2.1839  0.2186
  577TMC3    C1 8552   4.722   1.185  12.227  0.9347  0.6234  0.3717
  577TMC3    C2 8553   0.048   1.062  12.206  0.0588  0.3155  0.6839
  577TMC3    C3 8554   0.139   1.044  12.102 -0.0090 -0.1261 -0.7894
  577TMC3    C4 8555   0.033   1.292  12.157  0.4447  0.5188 -0.0382
  577TMC3    C5 8556   0.127   1.275  12.056 -0.5072 -0.4017 -0.4299
  577TMC3    C6 8557   0.186   1.158  12.029 -0.0832  0.1692 -0.4252
  577TMC3     C 8558   4.648   1.206  12.348 -0.2227  0.0762  0.3422
  577TMC3     O 8559   4.550   1.279  12.348 -0.4745  0.5083  0.4342
  577TMC3     H 8560   0.001   0.981  12.260 -0.7707 -0.7921 -1.7162
  577TMC3    H1 8561   4.722   1.391  12.182  2.5405  0.7853  1.9403
  577TMC3    H2 8562   0.255   1.148  11.946 -1.3155  0.1347 -1.4294
  577TMC3    C7 8563   0.203   1.393  12.021  0.8502  0.6899 -0.0822
  577TMC3    C8 8564   0.220   0.918  12.112  0.4089 -0.1378  0.0455
  577TMC3    O1 8565   0.317   1.373  11.988 -0.0521  0.0335  0.4003
  577TMC3    O2 8566   0.192   0.843  12.204  0.2045 -0.0448 -0.0770
  578MPD2     C 8567   3.648   0.980   1.834 -0.1170  0.3328 -0.4231
  578MPD2    C1 8568   3.705   1.024   1.719  0.3903  0.0870  0.5503
  578MPD2    C2 8569   3.699   0.952   1.601  0.7248  0.3320 -0.3534
  578MPD2    C3 8570   3.648   0.821   1.601 -0.2883  0.1200  0.4085
  578MPD2    C4 8571   3.585   0.784   1.720 -0.0847  0.7792 -0.1640
  578MPD2    C5 8572   3.585   0.865   1.830 -0.3956  0.1108 -0.0957
  578MPD2     H 8573   3.742   0.992   1.509  0.5631 -0.1674 -0.6474
  578MPD2    H1 8574   3.562   0.679   1.727  0.6331  0.5450 -1.3281
  578MPD2    H2 8575   3.657   1.037   1.926 -1.2497 -0.1855  0.0143
  578MPD2    H3 8576   3.539   0.823   1.918 -1.1908  0.2011 -0.4688
  578MPD2     N 8577   3.655   0.749   1.479 -0.2725  0.0270  0.0174
  578MPD2    H5 8578   3.710   0.788   1.403 -1.1041  0.2258 -0.4941
  578MPD2    N1 8579   3.743   1.163   1.722  0.2790  0.0279 -0.5416
  578MPD2    H7 8580   3.750   1.206   1.813 -0.9672 -1.4843  0.2556
  579TMC3    C1 8581   3.595   0.613   1.295 -0.2774 -0.2558 -0.6885
  579TMC3    C2 8582   3.688   0.674   1.218  0.0737 -0.0751  0.2332
  579TMC3    C3 8583   3.690   0.650   1.078 -0.2302 -0.5267 -0.1694
  579TMC3    C4 8584   3.484   0.548   1.238 -0.2895 -0.4566  0.0993
  579TMC3    C5 8585   3.480   0.539   1.100  0.3338  0.6911 -0.1033
  579TMC3    C6 8586   3.587   0.579   1.023 -0.2390  0.2297  0.3885
  579TMC3     C 8587   3.574   0.647   1.439 -0.2099 -0.2315 -0.4856
  579TMC3     O 8588   3.490   0.582   1.500 -0.1446  0.0279  0.1081
  579TMC3     H 8589   3.763   0.741   1.258  1.1220 -0.4821 -1.0258
  579TMC3    H1 8590   3.399   0.511   1.295  0.0981  0.4098  1.2397
  579TMC3    H2 8591   3.575   0.567   0.916  0.4963 -0.1391  0.3468
  579TMC3    C7 8592   3.369   0.475   1.033 -0.1927  0.3386 -0.9353
  579TMC3    C8 8593   3.781   0.708   0.982  0.1363 -0.0782  0.4851
  579TMC3    O1 8594   3.378   0.444   0.914  0.0402  0.1166  0.1571
  579TMC3    O2 8595   3.739   0.701   0.869  0.8171 -0.2456 -0.0630
  580TMC3    C1 8596   2.831   0.988  11.963  0.1838  0.6057  1.0440
  580TMC3    C2 8597   2.930   1.010  12.058 -0.1076 -0.3260  0.2791
  580TMC3    C3 8598   2.957   0.921  12.156  0.0285 -0.3875  0.2125
  580TMC3    C4 8599   2.772   0.863  11.962 -0.1570  0.3832 -0.4707
  580TMC3    C5 8600   2.783   0.781  12.067 -0.7815 -0.0188 -0.0731
  580TMC3    C6 8601   2.874   0.809  12.163 -0.2103 -0.4929  0.0908
  580TMC3     C 8602   2.813   1.076  11.846 -0.3987 -0.0264  0.5061
  580TMC3     O 8603   2.906   1.151  11.822 -0.1569 -0.3849 -0.0280
  580TMC3     H 8604   2.999   1.092  12.047  0.4729 -0.6913  1.2223
  580TMC3    H1 8605   2.699   0.835  11.887 -0.5205 -1.9985  0.7699
  580TMC3    H2 8606   2.896   0.739  12.243  0.2032 -0.8733 -0.3581
  580TMC3    C7 8607   2.805   0.643  12.018  0.6891 -0.0295 -0.2322
  580TMC3    C8 8608   3.097   0.870  12.155  0.5261  0.7171  0.0955
  580TMC3    O1 8609   2.841   0.626  11.908  0.0988 -0.0489 -0.2434
  580TMC3    O2 8610   3.112   0.746  12.145  0.1399  0.1338  0.1253
  581MPD2     C 8611   0.255   0.091  14.940 -0.2808  0.1381 -0.8084
  581MPD2    C1 8612   0.153   4.724  14.914 -0.3328  0.6165  0.0892
  581MPD2    C2 8613   0.036   0.042  14.859  0.3265 -0.7211 -0.1525
  581MPD2    C3 8614   0.017   0.181  14.838  0.4477  0.3176  0.1478
  581MPD2    C4 8615   0.119   0.271  14.872 -0.4463 -0.0127  0.1585
  581MPD2    C5 8616   0.238   0.223  14.919  0.0171  0.1531  0.5834
  581MPD2     H 8617   4.677   4.703  14.834  0.4542 -0.9538  0.0176
  581MPD2    H1 8618   0.111   0.377  14.852 -3.2383 -0.1754  0.4186
  581MPD2    H2 8619   0.353   0.059  14.972 -0.1261  0.8146 -0.5949
  581MPD2    H3 8620   0.325   0.283  14.943  0.4866 -0.5740  0.7123
  581MPD2     N 8621   4.622   0.223  14.775 -0.2642  1.1329 -1.0374
  581MPD2    H5 8622   4.570   0.146  14.732 -0.6525  1.5653 -1.3408
  581MPD2    N1 8623   0.173   4.589  14.955  0.8655  0.2512 -0.6171
  581MPD2    H7 8624   0.264   4.569  14.994  0.6625 -1.3174 -0.9561
  582TMC3    C1 8625   0.069   4.405  15.088 -0.1179 -0.4688 -0.7361
  582TMC3    C2 8626   0.185   4.386  15.157  0.0702 -0.0491  0.1460
  582TMC3    C3 8627   0.189   4.300  15.263  0.8703 -0.4749  0.2525
  582TMC3    C4 8628   4.676   4.342  15.125 -0.1207  0.3723  0.0008
  582TMC3    C5 8629   4.682   4.253  15.228 -0.1435  0.1417  0.6498
  582TMC3    C6 8630   0.076   4.231  15.289 -0.0397  0.4262 -0.6747
  582TMC3     C 8631   0.067   4.494  14.974 -0.0219  0.3619 -0.1289
  582TMC3     O 8632   4.679   4.489  14.920 -0.9374 -0.0941 -0.2742
  582TMC3     H 8633   0.279   4.429  15.125  0.4872  0.4796  2.1137
  582TMC3    H1 8634   4.581   4.357  15.076 -1.8463 -3.0626  2.2752
  582TMC3    H2 8635   0.070   4.195  15.391 -0.2092  0.8004 -0.5506
  582TMC3    C7 8636   4.567   4.273  15.311  0.2717  0.1665  0.6103
  582TMC3    C8 8637   0.290   4.310  15.369  0.3519  0.5771 -0.3484
  582TMC3    O1 8638   4.541   4.187  15.395  0.3288 -0.1225  0.0117
  582TMC3    O2 8639   0.345   4.417  15.378  0.0130 -0.2724 -0.2444
  583MPD2     C 8640   0.721   1.481  16.927 -0.1923  0.5687  0.6166
  583MPD2    C1 8641   0.706   1.573  16.824 -0.3631  0.3431 -0.7386
  583MPD2    C2 8642   0.656   1.699  16.854  0.4255  0.5282 -0.2760
  583MPD2    C3 8643   0.636   1.736  16.981 -0.1553  0.6636  0.1734
  583MPD2    C4 8644   0.655   1.644  17.086 -0.2262  0.2773  0.1779
  583MPD2    C5 8645   0.694   1.511  17.051  0.4528  0.0385 -0.8366
  583MPD2     H 8646   0.654   1.781  16.783 -3.1493 -0.4185 -1.2757
  583MPD2    H1 8647   0.632   1.654  17.191 -1.1300 -0.1990  0.0284
  583MPD2    H2 8648   0.755   1.380  16.905 -2.2176 -0.4875  2.3479
  583MPD2    H3 8649   0.714   1.438  17.129 -0.4481  0.8627  0.1647
  583MPD2     N 8650   0.597   1.872  17.020  0.2481  0.5041 -0.1865
  583MPD2    H5 8651   0.569   1.927  16.939 -1.5608 -1.5538 -0.9548
  583MPD2    N1 8652   0.738   1.539  16.690  0.1471 -0.2010 -0.8685
  583MPD2    H7 8653   0.711   1.608  16.621 -0.0504 -1.9616 -2.5477
  584TMC3    C1 8654   0.530   2.057  17.160 -0.1887  0.2286  0.2553
  584TMC3    C2 8655   0.534   2.151  17.063  0.4857  1.2798 -0.7070
  584TMC3    C3 8656   0.471   2.270  17.079 -0.0093  0.1580  0.6593
  584TMC3    C4 8657   0.457   2.080  17.278 -0.9721  0.2784 -0.6233
  584TMC3    C5 8658   0.393   2.200  17.295 -0.4931  0.1963  0.1002
  584TMC3    C6 8659   0.392   2.292  17.190 -0.2040  0.1457  0.2812
  584TMC3     C 8660   0.590   1.925  17.149  0.0294  0.2659 -0.3351
  584TMC3     O 8661   0.617   1.873  17.257  0.0162 -0.2301 -0.1431
  584TMC3     H 8662   0.598   2.135  16.977 -0.9311 -0.7340 -1.3820
  584TMC3    H1 8663   0.436   1.995  17.341 -1.0404 -0.3680 -1.5135
  584TMC3    H2 8664   0.328   2.379  17.194  0.3381  0.4688  2.2935
  584TMC3    C7 8665   0.298   2.202  17.407 -0.3982  0.5439  0.1224
  584TMC3    C8 8666   0.471   2.372  16.974 -0.1497 -0.1424  0.0956
  584TMC3    O1 8667   0.242   2.094  17.428  0.1518  0.0874 -0.2895
  584TMC3    O2 8668   0.508   2.331  16.868 -0.1647 -0.5440  0.6852
  585MPD2     C 8669   0.021   0.971   0.583 -0.7553 -0.2846 -1.0697
  585MPD2    C1 8670   0.057   0.929   0.457  0.1129 -0.0683 -0.3962
  585MPD2    C2 8671   4.698   0.851   0.378 -0.8044  0.3509  0.4622
  585MPD2    C3 8672   4.569   0.820   0.422  0.5468  0.3787  0.1677
  585MPD2    C4 8673   4.533   0.870   0.545 -0.3190  0.1267  0.7650
  585MPD2    C5 8674   4.622   0.934   0.624 -0.1880  0.0367 -0.3267
  585MPD2     H 8675   0.016   0.833   0.281 -0.8094  0.0029  0.5238
  585MPD2    H1 8676   4.433   0.848   0.581 -0.3010  0.5298  1.0610
  585MPD2    H2 8677   0.093   1.016   0.650  0.2754  0.3110 -2.5857
  585MPD2    H3 8678   4.597   0.961   0.726 -0.3753 -0.8717 -0.1270
  585MPD2     N 8679   4.473   0.751   0.341  0.1873 -0.3188  0.0161
  585MPD2    H5 8680   4.388   0.730   0.392  0.7060 -0.3880  0.8630
  585MPD2    N1 8681   0.178   0.986   0.418 -0.1567 -0.2267 -0.1920
  585MPD2    H7 8682   0.221   1.056   0.477 -0.8364  0.5501 -0.6252
  586TMC3    C1 8683   4.374   0.703   0.134 -0.0151  0.7780 -0.0882
  586TMC3    C2 8684   4.393   0.685  17.698 -0.2365  0.5820  0.7421
  586TMC3    C3 8685   4.289   0.699  17.608 -0.4226  0.3798 -0.6904
  586TMC3    C4 8686   4.248   0.731   0.179  0.1661 -0.8520  0.5767
  586TMC3    C5 8687   4.145   0.750   0.090  0.5167 -0.0670 -0.6754
  586TMC3    C6 8688   4.167   0.743  17.658  0.5499 -0.1625  0.1266
  586TMC3     C 8689   4.498   0.727   0.207  0.2014 -0.5199 -0.1920
  586TMC3     O 8690   4.604   0.724   0.148  0.1643  0.1883  0.0663
  586TMC3     H 8691   4.487   0.651  17.657  0.0803  0.9295  1.1878
  586TMC3    H1 8692   4.231   0.750   0.284  0.3749  1.6686  0.1430
  586TMC3    H2 8693   4.082   0.754  17.591  0.8520  1.8448  0.0664
  586TMC3    C7 8694   4.023   0.679   0.126 -0.4411 -0.8942 -0.0993
  586TMC3    C8 8695   4.267   0.588  17.518  0.0827 -0.4428 -0.0401
  586TMC3    O1 8696   3.976   0.631   0.026 -0.2405 -0.3499  0.8341
  586TMC3    O2 8697   4.372   0.546  17.472  0.2641 -0.3601  0.6914
  587TMC3    C1 8698   1.875   3.846  16.131 -0.0049  0.2879 -0.5990
  587TMC3    C2 8699   1.885   3.982  16.134 -0.1353 -0.5447 -1.0842
  587TMC3    C3 8700   2.007   4.032  16.103  0.5191 -0.4438 -0.1943
  587TMC3    C4 8701   1.981   3.760  16.118 -0.7459 -0.2097  0.0992
  587TMC3    C5 8702   2.098   3.816  16.066  0.6165  0.2734  0.1218
  587TMC3    C6 8703   2.115   3.954  16.063 -0.0640 -0.7201  0.4739
  587TMC3     C 8704   1.751   3.787  16.173 -0.3622  0.4875 -0.0033
  587TMC3     O 8705   1.740   3.672  16.134 -0.0025 -0.3317  0.1061
  587TMC3     H 8706   1.797   4.043  16.118  0.0858  0.2856  0.9457
  587TMC3    H1 8707   1.967   3.657  16.148  2.9959  0.4933  4.1822
  587TMC3    H2 8708   2.210   3.999  16.034 -0.6441  0.0221 -0.2675
  587TMC3    C7 8709   2.221   3.737  16.064 -0.4269  0.7188 -0.0359
  587TMC3    C8 8710   2.027   4.175  16.079 -0.4566  0.4698  0.6725
  587TMC3    O1 8711   2.327   3.800  16.051  0.1671 -0.7356 -0.2117
  587TMC3    O2 8712   2.127   4.211  16.018 -0.3960  0.1857  1.0951
  588TMC3    C1 8713   4.100   1.979   9.863 -0.5454  0.3706 -0.3050
  588TMC3    C2 8714   4.029   1.863   9.893  0.5846  0.0751  0.3700
  588TMC3    C3 8715   4.095   1.756   9.945 -0.4508 -0.1169 -0.8745
  588TMC3    C4 8716   4.227   1.987   9.905 -0.4117 -0.3397  0.5964
  588TMC3    C5 8717   4.287   1.882   9.965 -0.6060  0.3920 -0.2417
  588TMC3    C6 8718   4.223   1.766  10.001 -0.6475 -0.4353  0.3704
  588TMC3     C 8719   4.014   2.096   9.864  0.0785  0.5847 -0.3898
  588TMC3     O 8720   3.893   2.079   9.854  0.0734  0.2822 -0.1895
  588TMC3     H 8721   3.922   1.855   9.873  0.6911  0.2827 -0.2586
  588TMC3    H1 8722   4.285   2.068   9.862 -0.7133 -1.1387 -1.3354
  588TMC3    H2 8723   4.279   1.678  10.032  1.2755  1.0756  1.1563
  588TMC3    C7 8724   4.400   1.913  10.045  0.1316 -0.1141 -0.3336
  588TMC3    C8 8725   4.007   1.651   9.996  0.4362  0.6469 -0.1445
  588TMC3    O1 8726   4.496   1.839  10.036  0.1248 -0.3305  0.2413
  588TMC3    O2 8727   3.900   1.629   9.939  0.8477  0.4617  0.7644
  589TMC3    C1 8728   3.667   4.022   1.372  0.8950 -0.0528  0.3640
  589TMC3    C2 8729   3.723   4.106   1.463 -0.3351 -0.4736  0.1720
  589TMC3    C3 8730   3.841   4.068   1.512 -0.1006  0.0961  0.1107
  589TMC3    C4 8731   3.738   3.924   1.309 -0.4284 -0.8883 -0.0354
  589TMC3    C5 8732   3.863   3.894   1.357  0.4533 -0.1207 -0.1624
  589TMC3    C6 8733   3.920   3.963   1.464  0.8394 -0.8359 -0.0385
  589TMC3     C 8734   3.519   4.005   1.369 -0.1528  0.0257  0.2459
  589TMC3     O 8735   3.482   3.909   1.303  0.8135  1.0719  0.0136
  589TMC3     H 8736   3.664   4.187   1.503  2.8973  1.6326  0.6340
  589TMC3    H1 8737   3.693   3.864   1.231  1.6349 -1.3056 -0.9025
  589TMC3    H2 8738   4.005   3.923   1.517  1.3955  0.2988 -0.0628
  589TMC3    C7 8739   3.926   3.768   1.310 -0.1645 -0.3460  0.3688
  589TMC3    C8 8740   3.902   4.162   1.609  0.3799  0.2693 -0.3433
  589TMC3    O1 8741   3.857   3.689   1.248 -0.2744  0.5370 -0.3674
  589TMC3    O2 8742   3.831   4.249   1.657 -0.1708 -0.7178 -0.0981
  590MPD2     C 8743   2.459   2.624  16.720 -0.3267 -0.4485 -0.0389
  590MPD2    C1 8744   2.471   2.726  16.633 -0.0020  0.8287  0.1663
  590MPD2    C2 8745   2.593   2.788  16.620 -0.5607 -0.0810  0.4293
  590MPD2    C3 8746   2.702   2.742  16.694 -0.1603 -0.5982  0.5035
  590MPD2    C4 8747   2.692   2.633  16.778  0.1457  0.3440  0.3002
  590MPD2    C5 8748   2.571   2.579  16.789 -0.2017 -0.3579 -0.2515
  590MPD2     H 8749   2.592   2.871  16.550  1.7932 -1.8335 -1.6505
  590MPD2    H1 8750   2.768   2.593  16.844  3.5604  3.4961 -1.7225
  590MPD2    H2 8751   2.361   2.581  16.736 -0.6790 -0.0189 -1.0672
  590MPD2    H3 8752   2.565   2.499  16.862  1.0271  0.3997  0.6660
  590MPD2     N 8753   2.819   2.821  16.682 -0.0287  0.3774 -0.1366
  590MPD2    H5 8754   2.806   2.904  16.626 -1.6278 -0.6544 -1.2901
  590MPD2    N1 8755   2.359   2.747  16.553  0.3417 -0.0177  0.9770
  590MPD2    H7 8756   2.273   2.717  16.598 -0.7648 -3.3951 -3.3631
  591TMC3    C1 8757   3.043   2.885  16.705  0.1950 -0.5833  0.3952
  591TMC3    C2 8758   3.135   2.817  16.638  0.5066 -0.5255  0.1437
  591TMC3    C3 8759   3.184   2.871  16.516  0.2566 -0.0455  0.3838
  591TMC3    C4 8760   3.001   3.011  16.673 -0.3369 -0.4525 -0.3033
  591TMC3    C5 8761   3.063   3.071  16.567 -0.1860 -1.0761  0.8758
  591TMC3    C6 8762   3.153   3.005  16.488 -0.3967 -0.0331  0.3030
  591TMC3     C 8763   2.941   2.789  16.740 -0.3569  0.0978  0.3828
  591TMC3     O 8764   2.963   2.682  16.796  0.2557  0.5481  0.4408
  591TMC3     H 8765   3.159   2.714  16.661 -1.4086 -0.9817  0.1294
  591TMC3    H1 8766   2.921   3.055  16.732 -1.4339 -0.5853 -1.7032
  591TMC3    H2 8767   3.213   3.053  16.411 -0.5534  0.5844  0.5677
  591TMC3    C7 8768   2.976   3.164  16.500 -0.3685  0.0720 -0.2977
  591TMC3    C8 8769   3.183   2.780  16.407  0.5292 -0.2117  0.4521
  591TMC3    O1 8770   2.855   3.157  16.520 -0.1616  0.3801  0.5908
  591TMC3    O2 8771   3.205   2.661  16.426  0.1297  0.1124  0.1659
  592MPD2     C 8772   3.619   4.479  11.531 -0.0033 -0.0753  0.6156
  592MPD2    C1 8773   3.579   4.503  11.665 -0.4211 -0.2895 -0.5810
  592MPD2    C2 8774   3.504   4.408  11.741 -0.5706 -0.2840 -0.0141
  592MPD2    C3 8775   3.468   4.284  11.679 -0.1953 -0.1000 -0.0051
  592MPD2    C4 8776   3.511   4.263  11.545 -0.3069 -0.7172  0.5633
  592MPD2    C5 8777   3.597   4.353  11.482 -1.0630 -0.1591  0.1735
  592MPD2     H 8778   3.480   4.423  11.846 -1.8449 -0.6254 -0.2632
  592MPD2    H1 8779   3.484   4.179  11.483  2.0092 -0.0500 -1.3440
  592MPD2    H2 8780   3.657   4.557  11.466 -0.9325 -1.2550 -1.3443
  592MPD2    H3 8781   3.637   4.326  11.385  1.5854 -1.7086  1.7099
  592MPD2     N 8782   3.389   4.192  11.757 -0.2024 -0.6124  0.1861
  592MPD2    H5 8783   3.359   4.225  11.848 -2.2646 -2.8248  0.3037
  592MPD2    N1 8784   3.615   4.629  11.707 -0.1082 -0.1544  0.3238
  592MPD2    H7 8785   3.651   4.691  11.635  0.0483 -1.3679 -0.6363
  593TMC3    C1 8786   3.662   0.076  11.859  0.4356  0.5154  0.5702
  593TMC3    C2 8787   3.624   0.148  11.967 -0.1996 -0.6206  0.4234
  593TMC3    C3 8788   3.695   0.257  12.007  0.4279  0.0592 -0.4429
  593TMC3    C4 8789   3.758   0.118  11.772  0.0815 -0.6135  0.8145
  593TMC3    C5 8790   3.815   0.241  11.799  0.0531  0.2434 -0.4720
  593TMC3    C6 8791   3.789   0.309  11.914  0.4417  0.1493  0.7138
  593TMC3     C 8792   3.604   4.672  11.840  0.0853 -0.4697  0.1279
  593TMC3     O 8793   3.543   4.624  11.937  0.5643 -0.1421  0.1492
  593TMC3     H 8794   3.536   0.123  12.025  0.1426  1.0162  1.6474
  593TMC3    H1 8795   3.801   0.060  11.691  0.7868 -0.8803  1.3838
  593TMC3    H2 8796   3.847   0.399  11.931  0.8377 -0.1103  0.7483
  593TMC3    C7 8797   3.897   0.303  11.702  0.1920  0.1483  0.6758
  593TMC3    C8 8798   3.643   0.335  12.113 -0.6873  1.2892 -0.9710
  593TMC3    O1 8799   3.958   0.402  11.729 -0.1640  0.2114 -0.3606
  593TMC3    O2 8800   3.525   0.321  12.150  0.3470  0.4934 -0.0513
  594MPD2     C 8801   2.094   3.388  14.051 -0.0946  0.1374  0.0122
  594MPD2    C1 8802   2.091   3.383  14.192 -0.2115  0.4833  0.2524
  594MPD2    C2 8803   2.179   3.464  14.257 -0.1804  0.1212 -0.2939
  594MPD2    C3 8804   2.275   3.552  14.198  0.6696 -0.4416 -0.5578
  594MPD2    C4 8805   2.273   3.539  14.064 -0.4801 -0.3912  0.1341
  594MPD2    C5 8806   2.190   3.460  13.992 -0.4657 -0.0258 -0.2677
  594MPD2     H 8807   2.177   3.454  14.365  0.6255 -1.5434 -0.4363
  594MPD2    H1 8808   2.345   3.601  14.013 -2.1876  3.4124  2.3626
  594MPD2    H2 8809   2.037   3.313  13.997  1.8339 -1.4018  0.1207
  594MPD2    H3 8810   2.206   3.466  13.885 -0.1487  0.0422 -0.2165
  594MPD2     N 8811   2.345   3.637  14.291 -0.2336 -0.5953 -0.3888
  594MPD2    H5 8812   2.314   3.629  14.388 -2.2592 -1.4121 -1.1040
  594MPD2    N1 8813   1.997   3.298  14.257 -0.7728 -0.0827 -0.7758
  594MPD2    H7 8814   1.943   3.248  14.187  0.8466 -1.0327 -1.3429
  595TMC3    C1 8815   2.693   3.907  14.429  0.4072 -0.0204 -0.0403
  595TMC3    C2 8816   2.643   3.816  14.342  1.2755 -0.5504 -0.9059
  595TMC3    C3 8817   2.508   3.801  14.352  0.0844  0.1355 -0.1158
  595TMC3    C4 8818   2.615   3.965  14.534  0.1943 -0.1884  0.1578
  595TMC3    C5 8819   2.485   3.939  14.527 -0.6587 -0.3159 -0.2289
  595TMC3    C6 8820   2.429   3.850  14.450 -0.3618 -0.2031  0.9536
  595TMC3     C 8821   2.837   3.926  14.444 -0.2669  0.0879 -0.0544
  595TMC3     O 8822   2.886   3.984  14.547  0.8903  0.2906  0.0460
  595TMC3     H 8823   2.698   3.791  14.252 -1.3833 -1.2840 -2.2916
  595TMC3    H1 8824   2.660   4.024  14.613  1.0624  0.8931 -1.1415
  595TMC3    H2 8825   2.324   3.824  14.450 -0.9034  2.0461 -0.6958
  595TMC3    C7 8826   2.400   4.048  14.574 -0.2676  0.0791 -0.2404
  595TMC3    C8 8827   2.445   3.723  14.250  0.3335  0.4422  0.0256
  595TMC3    O1 8828   2.278   4.022  14.583  0.5699  0.2218  0.4538
  595TMC3    O2 8829   2.510   3.717  14.147  0.0019  0.1926 -0.1134
  596MPD2     C 8830   1.534   1.541  16.835 -0.8014  0.8665 -0.0365
  596MPD2    C1 8831   1.491   1.634  16.742  0.1356  0.5481 -0.5573
  596MPD2    C2 8832   1.507   1.614  16.608  0.4206 -0.1446 -0.6929
  596MPD2    C3 8833   1.561   1.489  16.569 -0.9734  0.0586 -0.4370
  596MPD2    C4 8834   1.593   1.394  16.664  0.5301  0.1703 -0.2191
  596MPD2    C5 8835   1.586   1.421  16.796 -0.3088  0.0908 -0.1064
  596MPD2     H 8836   1.481   1.684  16.529 -0.7451  0.2734  0.0439
  596MPD2    H1 8837   1.628   1.297  16.632 -0.3059 -0.2092 -0.0063
  596MPD2    H2 8838   1.537   1.559  16.942  0.7317 -1.5564  0.3279
  596MPD2    H3 8839   1.619   1.349  16.870  0.9711  1.7917  0.9895
  596MPD2     N 8840   1.562   1.446  16.434  0.0956 -0.3866 -0.4195
  596MPD2    H5 8841   1.604   1.356  16.412  0.7923 -1.3584  4.8543
  596MPD2    N1 8842   1.429   1.752  16.787  0.5412 -0.2725 -0.0277
  596MPD2    H7 8843   1.411   1.819  16.713  0.6574  0.6993  0.8282
  597TMC3    C1 8844   1.337   1.927  16.922 -0.1005  0.0191  1.1505
  597TMC3    C2 8845   1.375   2.027  16.838  1.3004 -0.0714 -0.9155
  597TMC3    C3 8846   1.318   2.150  16.858 -0.5849  0.0351  0.2208
  597TMC3    C4 8847   1.270   1.953  17.041  0.2478 -0.3877  0.4017
  597TMC3    C5 8848   1.226   2.082  17.061 -0.1536  0.0478  0.4871
  597TMC3    C6 8849   1.255   2.188  16.972  0.2798 -1.1666 -0.3580
  597TMC3     C 8850   1.389   1.785  16.913 -0.6196  0.3996 -0.3214
  597TMC3     O 8851   1.388   1.722  17.020 -0.2795  0.3139 -0.1390
  597TMC3     H 8852   1.431   2.007  16.748 -1.3369  0.8648 -2.7633
  597TMC3    H1 8853   1.233   1.873  17.105 -1.4303  0.6622  0.7596
  597TMC3    H2 8854   1.221   2.289  16.988 -0.7516 -1.3644 -1.2560
  597TMC3    C7 8855   1.112   2.089  17.149 -0.0663  0.5424 -0.6326
  597TMC3    C8 8856   1.309   2.247  16.747 -0.7031 -1.0478 -0.3002
  597TMC3    O1 8857   1.073   1.990  17.209 -0.4342  0.1919 -0.1419
  597TMC3    O2 8858   1.236   2.340  16.762  0.8212  0.1994  0.1291
  598TMC3    C1 8859   4.070   3.193  15.510 -0.5440 -0.4594  0.4818
  598TMC3    C2 8860   3.984   3.088  15.492  0.2386  0.4894 -0.9878
  598TMC3    C3 8861   4.008   2.995  15.397 -0.5086  1.0686  0.5677
  598TMC3    C4 8862   4.172   3.205  15.428 -0.9150  0.5259  0.3917
  598TMC3    C5 8863   4.189   3.113  15.320 -0.0366  0.4677  0.7787
  598TMC3    C6 8864   4.110   3.003  15.305 -0.6669  0.3369  0.2521
  598TMC3     C 8865   4.063   3.284  15.620  0.5225  0.6962 -0.6313
  598TMC3     O 8866   3.957   3.274  15.680 -0.6073  0.7067 -0.1902
  598TMC3     H 8867   3.896   3.086  15.556  1.7330  1.5626  1.1254
  598TMC3    H1 8868   4.227   3.297  15.412 -2.0492  1.5436  2.3393
  598TMC3    H2 8869   4.135   2.929  15.229  2.3788 -1.3788  2.9387
  598TMC3    C7 8870   4.309   3.126  15.245  0.1597  0.4562  0.2539
  598TMC3    C8 8871   3.891   2.930  15.356  0.2497 -1.0370 -0.3681
  598TMC3    O1 8872   4.331   3.034  15.164 -0.1577  0.2180 -0.9750
  598TMC3    O2 8873   3.807   2.908  15.437 -0.2454 -0.9345 -0.5253
  599MPD2     C 8874   4.207   0.845  15.913 -0.6507 -0.2316 -0.0338
  599MPD2    C1 8875   4.170   0.716  15.926 -0.7222 -0.4040 -0.1180
  599MPD2    C2 8876   4.046   0.688  15.982 -0.1066 -0.8403  0.2084
  599MPD2    C3 8877   3.959   0.793  16.011  0.0612  0.3195  0.2996
  599MPD2    C4 8878   3.996   0.923  15.990 -0.0865  0.1435 -0.0182
  599MPD2    C5 8879   4.125   0.951  15.950 -0.1891 -0.0430 -0.4726
  599MPD2     H 8880   4.013   0.589  16.010 -0.2338 -1.5416 -2.4046
  599MPD2    H1 8881   3.927   1.006  16.001  1.0382  1.2255 -1.1826
  599MPD2    H2 8882   4.303   0.873  15.872 -0.1074 -2.5887 -0.3364
  599MPD2    H3 8883   4.147   1.055  15.927 -1.0986  0.2045 -0.2245
  599MPD2     N 8884   3.831   0.769  16.065  0.1524  0.3130 -0.6915
  599MPD2    H5 8885   3.794   0.858  16.098 -0.7448 -0.6640  0.9734
  599MPD2    N1 8886   4.267   0.624  15.880 -0.6724 -0.5406  0.4281
  599MPD2    H7 8887   4.351   0.655  15.832 -0.2784 -0.5137  1.1378
  600TMC3    C1 8888   3.680   0.648  16.201  0.3698 -0.2862 -0.2273
  600TMC3    C2 8889   3.599   0.537  16.210 -0.1074 -0.2804 -0.6902
  600TMC3    C3 8890   3.536   0.506  16.323 -0.0931  0.0355  0.5837
  600TMC3    C4 8891   3.703   0.726  16.306 -0.2805 -0.3238 -0.0606
  600TMC3    C5 8892   3.628   0.700  16.422  0.0912 -0.4531  0.0402
  600TMC3    C6 8893   3.551   0.589  16.435  0.1494 -0.5383  0.4238
  600TMC3     C 8894   3.771   0.649  16.090 -0.2349 -0.2715 -0.4903
  600TMC3     O 8895   3.802   0.538  16.057 -0.1248 -0.3824  0.3004
  600TMC3     H 8896   3.591   0.476  16.121 -1.9982 -0.1233 -0.6151
  600TMC3    H1 8897   3.769   0.811  16.296 -1.8903  0.9152 -0.0916
  600TMC3    H2 8898   3.480   0.581  16.517  0.6990  1.2448  1.0662
  600TMC3    C7 8899   3.645   0.780  16.542  0.4765 -0.2315 -0.3300
  600TMC3    C8 8900   3.495   0.378  16.358 -0.0375  0.3274 -0.2497
  600TMC3    O1 8901   3.556   0.777  16.622  0.0312 -0.0356  0.1704
  600TMC3    O2 8902   3.472   0.362  16.480 -0.6653 -0.1395  0.4405
  601MPD2     C 8903   1.396   4.221  17.497  0.0690 -0.2664  0.3578
  601MPD2    C1 8904   1.302   4.154  17.416  0.0617  0.1271  0.9885
  601MPD2    C2 8905   1.302   4.017  17.405 -0.3244  0.9310 -0.3957
  601MPD2    C3 8906   1.399   3.948  17.469 -0.4068  0.1330  0.0988
  601MPD2    C4 8907   1.498   4.009  17.543  0.1143  0.2873 -0.5657
  601MPD2    C5 8908   1.494   4.147  17.560 -0.2079  0.5039  0.4102
  601MPD2     H 8909   1.233   3.973  17.333 -0.0966 -1.4152  0.8211
  601MPD2    H1 8910   1.587   3.961  17.583  0.8862  2.5627  0.4449
  601MPD2    H2 8911   1.391   4.329  17.510 -2.5846 -0.4871  1.2140
  601MPD2    H3 8912   1.573   4.195  17.616  1.4296 -1.4336 -0.2392
  601MPD2     N 8913   1.415   3.814  17.448 -0.0251  0.7417  0.1547
  601MPD2    H5 8914   1.494   3.768  17.492  1.1683  1.7835 -0.9213
  601MPD2    N1 8915   1.206   4.227  17.342  0.6545 -0.3999 -0.6454
  601MPD2    H7 8916   1.150   4.160  17.291  2.0238  0.0460 -2.7177
  602TMC3    C1 8917   1.059   4.395  17.277  0.1795 -0.2594 -0.3939
  602TMC3    C2 8918   0.985   4.500  17.330  0.6506 -0.0760 -0.0420
  602TMC3    C3 8919   0.866   4.530  17.274 -0.3926  0.0470 -0.5911
  602TMC3    C4 8920   1.023   4.328  17.165  0.0697 -0.7118  0.4586
  602TMC3    C5 8921   0.902   4.360  17.114 -0.5137  0.0641 -0.1807
  602TMC3    C6 8922   0.826   4.466  17.160  0.2162 -0.1591 -0.2812
  602TMC3     C 8923   1.178   4.357  17.354  0.2863 -1.1048  0.0336
  602TMC3     O 8924   1.244   4.450  17.398 -0.2193  0.0563 -0.0359
  602TMC3     H 8925   1.015   4.558  17.416  1.5220  0.2262 -0.5553
  602TMC3    H1 8926   1.069   4.240  17.121 -1.4702 -0.9695 -0.6298
  602TMC3    H2 8927   0.735   4.492  17.108 -0.8695 -1.2713  1.0717
  602TMC3    C7 8928   0.841   4.279  17.010  0.6013  0.0490  0.1626
  602TMC3    C8 8929   0.768   4.616  17.349  0.9975  0.9612  0.2504
  602TMC3    O1 8930   0.914   4.220  16.925  0.0161 -0.4386  0.0200
  602TMC3    O2 8931   0.801   4.701  17.432 -0.4815 -0.2101 -0.3006
  603TMC3    C1 8932   4.403   4.383  10.858 -0.2795  0.8929 -0.3981
  603TMC3    C2 8933   4.420   4.333  10.982  0.6706 -0.2245  0.5563
  603TMC3    C3 8934   4.384   4.417  11.090  0.1532  0.5293  0.0223
  603TMC3    C4 8935   4.373   4.515  10.830 -0.4238  0.2747  0.0096
  603TMC3    C5 8936   4.355   4.599  10.939  0.1425  0.1663  0.2691
  603TMC3    C6 8937   4.368   4.551  11.071 -0.5024 -0.2994 -0.1392
  603TMC3     C 8938   4.383   4.292  10.746 -0.6916  0.3563  0.0600
  603TMC3     O 8939   4.458   4.199  10.747  0.0375 -0.6493 -0.9043
  603TMC3     H 8940   4.427   4.225  10.991  0.0462 -0.3900 -0.8567
  603TMC3    H1 8941   4.355   4.548  10.728 -3.3182 -1.4752 -0.0317
  603TMC3    H2 8942   4.315   4.616  11.139 -0.5949 -0.1270 -0.3737
  603TMC3    C7 8943   4.369   0.021  10.934  0.4895 -0.4118 -0.8198
  603TMC3    C8 8944   4.386   4.361  11.220 -0.0849 -0.0331  0.1079
  603TMC3    O1 8945   4.412   0.081  11.034 -0.0482 -0.7995  0.1679
  603TMC3    O2 8946   4.429   4.247  11.229  0.0386 -0.7753  0.0263
  604MPD2     C 8947   0.219   2.273  16.103  0.7120 -1.0709 -0.0247
  604MPD2    C1 8948   0.171   2.378  16.030 -0.4244  0.2959  0.1115
  604MPD2    C2 8949   0.194   2.378  15.895 -0.3306 -0.2328 -0.6203
  604MPD2    C3 8950   0.282   2.278  15.843 -0.0242 -0.2997 -0.4559
  604MPD2    C4 8951   0.326   2.172  15.916 -0.1931  0.6158  0.1141
  604MPD2    C5 8952   0.288   2.170  16.045 -0.3321 -0.0369 -0.5086
  604MPD2     H 8953   0.161   2.466  15.841  1.4131  0.2717 -0.8635
  604MPD2    H1 8954   0.381   2.086  15.881 -0.0522  0.2550  1.2370
  604MPD2    H2 8955   0.220   2.269  16.211 -0.1783  1.0134  0.0583
  604MPD2    H3 8956   0.320   2.083  16.100 -0.5645  0.0086 -0.3027
  604MPD2     N 8957   0.318   2.292  15.704  0.0765 -0.3847  0.5062
  604MPD2    H5 8958   0.290   2.374  15.651 -1.4081 -0.6001  0.9408
  604MPD2    N1 8959   0.123   2.491  16.099 -0.7464  0.2449 -0.6357
  604MPD2    H7 8960   0.132   2.491  16.200  0.7341 -1.6161 -0.7823
  605TMC3    C1 8961   0.005   2.692  16.126 -0.5977 -0.0220  0.8454
  605TMC3    C2 8962   0.111   2.748  16.186 -0.5604 -1.0137 -0.4437
  605TMC3    C3 8963   0.094   2.875  16.233 -0.2182  0.1962 -0.6976
  605TMC3    C4 8964   4.611   2.750  16.112 -0.4243 -0.6438 -0.0477
  605TMC3    C5 8965   4.596   2.872  16.176 -0.0077  0.7890 -0.6097
  605TMC3    C6 8966   4.702   2.936  16.236  0.3996 -0.0106 -0.5570
  605TMC3     C 8967   0.038   2.581  16.043 -0.4705  0.0701  0.6563
  605TMC3     O 8968   4.699   2.574  15.938  0.6012 -0.0711  0.1251
  605TMC3     H 8969   0.209   2.707  16.166  0.3247  1.1193 -0.4743
  605TMC3    H1 8970   4.527   2.698  16.067 -1.8218  0.1625  1.6005
  605TMC3    H2 8971   4.686   3.006  16.318 -0.4925 -0.6809 -0.1505
  605TMC3    C7 8972   4.466   2.898  16.242  0.4934 -0.4632 -0.0348
  605TMC3    C8 8973   0.197   2.915  16.324  0.4043  0.0161 -0.0835
  605TMC3    O1 8974   4.449   3.014  16.269 -0.4080 -0.0001 -0.0594
  605TMC3    O2 8975   0.271   2.819  16.358 -0.3442 -0.0806 -0.2992
  606TMC3    C1 8976   1.824   0.620  17.272 -0.2808 -0.0951  0.1141
  606TMC3    C2 8977   1.958   0.595  17.258  0.5519 -0.2963 -0.5063
  606TMC3    C3 8978   2.020   0.529  17.359  0.0504  0.0409  0.3698
  606TMC3    C4 8979   1.756   0.591  17.389 -0.0451  0.7615  0.1939
  606TMC3    C5 8980   1.831   0.541  17.500  0.7682 -0.0680  0.0819
  606TMC3    C6 8981   1.963   0.513  17.486  0.2696  0.7970  0.5632
  606TMC3     C 8982   1.768   0.702  17.165  0.3483  0.8989 -0.0841
  606TMC3     O 8983   1.842   0.718  17.074 -0.1815 -0.0196  0.5581
  606TMC3     H 8984   2.008   0.609  17.163 -0.2852  1.2616 -0.7297
  606TMC3    H1 8985   1.647   0.598  17.389 -0.0126  1.3150 -2.1137
  606TMC3    H2 8986   2.003   0.462  17.573  1.1464  0.1454 -0.2228
  606TMC3    C7 8987   1.778   0.548  17.634 -0.2754 -0.5091 -0.1126
  606TMC3    C8 8988   2.164   0.569  17.359  0.3725 -0.4314 -0.1514
  606TMC3    O1 8989   1.855   0.565   0.028  0.5050  0.3038  0.7774
  606TMC3    O2 8990   2.205   0.646  17.277 -0.2349 -0.1391 -0.1789
  607MPD2     C 8991   3.978   3.665  11.825 -0.2597  0.2704  0.1766
  607MPD2    C1 8992   3.881   3.742  11.889  0.8487 -0.2990  0.2152
  607MPD2    C2 8993   3.796   3.675  11.977 -0.0183  0.2422  1.0487
  607MPD2    C3 8994   3.832   3.550  12.027 -0.4019 -0.5128 -0.8244
  607MPD2    C4 8995   3.946   3.484  11.986  0.4736 -0.4774 -0.1045
  607MPD2    C5 8996   4.011   3.542  11.876 -0.0724  0.4759  0.5046
  607MPD2     H 8997   3.716   3.729  12.026  0.4042  0.6400  1.3086
  607MPD2    H1 8998   3.974   3.382  12.010  0.9955 -0.5249 -0.8942
  607MPD2    H2 8999   4.042   3.724  11.760  0.9482 -1.6511 -0.3811
  607MPD2    H3 9000   4.090   3.480  11.835 -1.6025 -0.5705 -0.8761
  607MPD2     N 9001   3.743   3.498  12.123  0.7924 -0.1432 -0.5375
  607MPD2    H5 9002   3.660   3.555  12.135  1.4620  0.4167  1.4866
  607MPD2    N1 9003   3.846   3.879  11.866  0.5161 -0.1170 -0.2142
  607MPD2    H7 9004   3.763   3.903  11.920  0.8437  2.2769 -0.7755
  608TMC3    C1 9005   3.870   4.107  11.814  0.3517  0.0237  0.6717
  608TMC3    C2 9006   3.791   4.140  11.922 -0.6846 -0.2372 -0.0852
  608TMC3    C3 9007   3.743   4.266  11.941 -0.0879  0.6540 -0.2747
  608TMC3    C4 9008   3.913   4.207  11.731 -0.2957  0.1963 -0.0241
  608TMC3    C5 9009   3.885   4.337  11.775  0.5029 -0.5638 -0.1584
  608TMC3    C6 9010   3.810   4.362  11.884 -0.2544  0.6688 -0.3712
  608TMC3     C 9011   3.918   3.975  11.796 -0.6196  0.1025  0.8816
  608TMC3     O 9012   4.019   3.961  11.732 -1.3562  0.2481  0.1947
  608TMC3     H 9013   3.787   4.073  12.007 -0.4532 -0.1963 -0.0416
  608TMC3    H1 9014   3.985   4.196  11.651  2.0604 -0.1176  2.1151
  608TMC3    H2 9015   3.782   4.464  11.907  0.3021  0.4554  1.2456
  608TMC3    C7 9016   3.947   4.447  11.703 -0.1113 -0.2880 -0.5538
  608TMC3    C8 9017   3.666   4.297  12.054  0.5659 -0.0277 -0.1225
  608TMC3    O1 9018   3.970   4.429  11.585  0.1257  0.7006 -0.1000
  608TMC3    O2 9019   3.686   4.403  12.108  1.0682  0.3095  0.1534
  609TMC3    C1 9020   2.042   3.226   9.509 -0.5091 -0.0141 -0.3901
  609TMC3    C2 9021   2.007   3.175   9.388  0.6378  0.5240 -0.1885
  609TMC3    C3 9022   2.027   3.044   9.363 -0.3872  0.3077  0.6603
  609TMC3    C4 9023   2.091   3.146   9.610  0.4695 -0.2481 -0.1626
  609TMC3    C5 9024   2.137   3.019   9.571  0.7558 -0.9046 -0.2523
  609TMC3    C6 9025   2.096   2.967   9.450 -0.1593 -0.0586 -0.4208
  609TMC3     C 9026   2.028   3.367   9.543 -0.3911 -0.0610  0.6926
  609TMC3     O 9027   2.049   3.403   9.658  0.1947 -0.2448 -0.7119
  609TMC3     H 9028   1.967   3.232   9.305  0.1645 -1.3669 -1.2603
  609TMC3    H1 9029   2.122   3.181   9.708 -1.5479  0.7005  0.1420
  609TMC3    H2 9030   2.117   2.864   9.426  1.8466  0.4065 -0.6735
  609TMC3    C7 9031   2.246   2.959   9.641 -0.2463 -0.0437  0.6255
  609TMC3    C8 9032   2.002   3.000   9.231  1.1340  0.1681 -0.1822
  609TMC3    O1 9033   2.242   2.967   9.762  0.0772 -0.4337  0.1617
  609TMC3    O2 9034   2.076   2.914   9.185 -0.5790 -0.1243  0.4493
  610TMC3    C1 9035   4.064   3.912  12.586 -0.0478 -0.7196 -1.3811
  610TMC3    C2 9036   4.088   4.029  12.519 -0.3988  0.1315  0.1421
  610TMC3    C3 9037   4.215   4.066  12.474 -0.3788  0.2440  0.6350
  610TMC3    C4 9038   4.172   3.835  12.606 -0.5639 -0.1350 -0.3821
  610TMC3    C5 9039   4.301   3.875  12.571  0.6798  0.1297  0.2879
  610TMC3    C6 9040   4.327   3.994  12.500 -0.3237 -0.8011  0.2249
  610TMC3     C 9041   3.965   3.888  12.687  0.1535 -0.3556  0.1609
  610TMC3     O 9042   3.997   3.813  12.779 -0.2208  0.4530  0.2509
  610TMC3     H 9043   4.014   4.108  12.517 -0.2155  0.2910 -0.3114
  610TMC3    H1 9044   4.168   3.739  12.656 -2.0517 -1.3361 -2.8387
  610TMC3    H2 9045   4.431   4.023  12.486 -0.5337  0.8053  2.0446
  610TMC3    C7 9046   4.409   3.797  12.619 -0.7212 -0.0965  0.3948
  610TMC3    C8 9047   4.226   4.195  12.416 -0.5060  0.0279 -0.1843
  610TMC3    O1 9048   4.509   3.806  12.547 -0.2045  0.1901  0.6283
  610TMC3    O2 9049   4.124   4.232  12.352 -0.1759  0.1529 -0.5190
  611MPD2     C 9050   3.496   0.141   9.872  1.1407 -0.2297 -0.8536
  611MPD2    C1 9051   3.605   0.073   9.923  0.5103  1.3759 -0.5067
  611MPD2    C2 9052   3.715   0.150   9.967 -0.4524 -0.4265 -0.3762
  611MPD2    C3 9053   3.711   0.290   9.954  0.4299  0.3064  0.9816
  611MPD2    C4 9054   3.611   0.349   9.886  0.7546  0.0536  0.2094
  611MPD2    C5 9055   3.505   0.273   9.840  0.4380 -0.0244 -0.3328
  611MPD2     H 9056   3.799   0.104  10.017  1.5786  1.8356 -1.7126
  611MPD2    H1 9057   3.618   0.454   9.861  0.3717  0.0671  0.1501
  611MPD2    H2 9058   3.405   0.092   9.841 -0.2457  1.2268  0.8618
  611MPD2    H3 9059   3.427   0.321   9.782  0.8830  0.7018 -0.3300
  611MPD2     N 9060   3.806   0.377  10.017  0.6840  0.0244  0.2283
  611MPD2    H5 9061   3.791   0.475   9.998  0.1322  0.1474  1.2830
  611MPD2    N1 9062   3.604   4.656   9.928 -0.2285  0.9648 -0.1845
  611MPD2    H7 9063   3.513   4.613   9.941  0.6423 -0.4053  1.4239
  612TMC3    C1 9064   3.993   0.436  10.142 -0.9633 -0.9537  0.1013
  612TMC3    C2 9065   4.052   0.432  10.265  0.2087  0.5073  0.5756
  612TMC3    C3 9066   4.143   0.528  10.287 -0.4294 -0.0294  0.4594
  612TMC3    C4 9067   4.019   0.533  10.054 -0.2997 -0.4062 -0.1170
  612TMC3    C5 9068   4.101   0.638  10.084  1.3215 -0.4171 -0.2995
  612TMC3    C6 9069   4.163   0.632  10.204 -0.2044  0.4823  0.3516
  612TMC3     C 9070   3.895   0.335  10.112  0.5673  0.1674  0.2886
  612TMC3     O 9071   3.909   0.231  10.170  0.2202  0.9628  0.3553
  612TMC3     H 9072   4.012   0.366  10.341  2.7765  1.8014  3.0757
  612TMC3    H1 9073   3.988   0.522   9.951  0.1669  1.0299 -0.4048
  612TMC3    H2 9074   4.220   0.717  10.240 -1.2041  1.5324 -0.5333
  612TMC3    C7 9075   4.165   0.707   9.983  0.3485  0.0940  0.2119
  612TMC3    C8 9076   4.220   0.526  10.416  0.2130 -0.4181 -0.8743
  612TMC3    O1 9077   4.284   0.730  10.005 -0.0905  0.0504 -0.3575
  612TMC3    O2 9078   4.280   0.627  10.448 -0.1197 -0.6809 -0.0326
  613MPD2     C 9079   2.906   1.211  16.979 -0.4743  0.6331 -0.5734
  613MPD2    C1 9080   2.844   1.282  16.882 -0.3601  0.1260 -0.0360
  613MPD2    C2 9081   2.732   1.226  16.824 -0.1617 -0.7451 -0.2690
  613MPD2    C3 9082   2.694   1.093  16.847 -0.1791  0.2683 -0.5310
  613MPD2    C4 9083   2.771   1.019  16.934 -0.6829  0.8089  0.2839
  613MPD2    C5 9084   2.865   1.084  17.003  0.1653  0.0322  0.1622
  613MPD2     H 9085   2.675   1.286  16.754  0.4319  0.4156  0.2578
  613MPD2    H1 9086   2.759   0.912  16.938  0.4870  0.7253  1.3641
  613MPD2    H2 9087   2.987   1.249  17.040 -0.1757 -0.1247 -0.5035
  613MPD2    H3 9088   2.929   1.032  17.073  1.5791  0.1041 -1.0818
  613MPD2     N 9089   2.612   1.018  16.758  0.9456  0.4401 -0.5675
  613MPD2    H5 9090   2.587   0.922  16.779  0.6604  1.2555  2.7544
  613MPD2    N1 9091   2.893   1.411  16.854  0.0614 -0.4959 -0.1807
  613MPD2    H7 9092   2.947   1.448  16.932 -3.0047 -1.5388  2.4437
  614TMC3    C1 9093   2.820   1.439  16.622 -0.1028  0.1339  0.1238
  614TMC3    C2 9094   2.870   1.322  16.580 -0.0747 -0.2269  0.6036
  614TMC3    C3 9095   2.824   1.273  16.454  0.4149 -0.4418  0.5452
  614TMC3    C4 9096   2.733   1.510  16.544  0.3859 -0.0853 -0.0765
  614TMC3    C5 9097   2.685   1.461  16.425 -0.1273  1.2258  0.0843
  614TMC3    C6 9098   2.732   1.345  16.382  0.2028  0.3881 -0.0087
  614TMC3     C 9099   2.865   1.502  16.753  0.7886 -0.4333 -1.0975
  614TMC3     O 9100   2.885   1.622  16.764 -0.4240 -0.4586 -0.3501
  614TMC3     H 9101   2.950   1.275  16.635  1.8290 -1.1730 -2.9899
  614TMC3    H1 9102   2.689   1.598  16.589  0.3921 -0.9608  1.6396
  614TMC3    H2 9103   2.689   1.292  16.299 -1.1476 -0.3358  1.1559
  614TMC3    C7 9104   2.655   1.564  16.335  0.0292  0.5892  0.5183
  614TMC3    C8 9105   2.828   1.136  16.429 -0.2484  0.5457 -0.4216
  614TMC3    O1 9106   2.679   1.674  16.378  0.3595 -0.0971 -0.1841
  614TMC3    O2 9107   2.740   1.085  16.357 -0.2040 -0.7801 -0.0206
  615MPD2     C 9108   1.848   3.075  15.898  0.5153  0.1137  0.0803
  615MPD2    C1 9109   1.725   3.078  15.957 -0.1050 -0.3887 -0.4307
  615MPD2    C2 9110   1.619   3.021  15.892  0.4739  0.1991  0.3158
  615MPD2    C3 9111   1.627   2.956  15.771 -0.0558 -0.6639 -0.0530
  615MPD2    C4 9112   1.755   2.950  15.719  0.5087 -0.2977  0.3710
  615MPD2    C5 9113   1.864   3.016  15.774  0.3980  0.4540  0.5629
  615MPD2     H 9114   1.516   3.022  15.927  0.3200 -1.7355 -0.1068
  615MPD2    H1 9115   1.784   2.907  15.623  0.4819 -2.2943  1.2772
  615MPD2    H2 9116   1.940   3.104  15.949  0.1205 -0.4663  1.1104
  615MPD2    H3 9117   1.963   2.994  15.737 -0.1510 -0.9369 -0.0749
  615MPD2     N 9118   1.525   2.873  15.709 -0.1546 -0.2343  0.9752
  615MPD2    H5 9119   1.557   2.815  15.633 -1.2577  0.6679 -0.1831
  615MPD2    N1 9120   1.717   3.135  16.087  0.6807 -0.0205  0.2294
  615MPD2    H7 9121   1.624   3.135  16.127  1.0278  0.0932  1.0326
  616TMC3    C1 9122   1.771   3.262  16.279  0.3325 -0.0297  0.5099
  616TMC3    C2 9123   1.834   3.381  16.291  0.4024  0.0030  0.1386
  616TMC3    C3 9124   1.796   3.463  16.395  0.4240 -0.2271  0.2747
  616TMC3    C4 9125   1.659   3.223  16.356  0.1368  1.0435  0.5541
  616TMC3    C5 9126   1.623   3.320  16.449 -0.2569  0.3618 -0.1953
  616TMC3    C6 9127   1.690   3.438  16.470  0.4447  0.7152 -0.0630
  616TMC3     C 9128   1.821   3.184  16.163 -0.8232  0.6815 -0.2321
  616TMC3     O 9129   1.940   3.194  16.137 -0.3735 -0.0121 -0.1629
  616TMC3     H 9130   1.914   3.409  16.224 -1.0928 -1.3499 -2.1827
  616TMC3    H1 9131   1.603   3.135  16.327  1.1306  0.5405  0.1741
  616TMC3    H2 9132   1.661   3.502  16.552  1.3382  0.4507  0.4540
  616TMC3    C7 9133   1.513   3.294  16.546  0.6067  0.1300 -0.2041
  616TMC3    C8 9134   1.875   3.582  16.429  0.2476 -0.0582 -0.4358
  616TMC3    O1 9135   1.465   3.389  16.606  0.2135  0.1473  0.1056
  616TMC3    O2 9136   1.827   3.678  16.487 -0.3511  0.2660 -0.3532
  617MPD2     C 9137   0.185   1.253  13.710 -0.3574 -0.3946  0.5805
  617MPD2    C1 9138   0.136   1.171  13.803 -0.1178 -0.5628 -0.7550
  617MPD2    C2 9139   4.724   1.153  13.814  0.2478 -0.0611 -0.3043
  617MPD2    C3 9140   4.639   1.226  13.730  0.5352  0.4379  0.1613
  617MPD2    C4 9141   4.697   1.308  13.637 -0.5575  0.1901  0.2090
  617MPD2    C5 9142   0.104   1.320  13.622 -0.2582  0.2935  0.9145
  617MPD2     H 9143   4.686   1.088  13.892 -0.0276  0.7160  0.2066
  617MPD2    H1 9144   4.635   1.352  13.561 -0.7496  2.0263  1.4343
  617MPD2    H2 9145   0.293   1.258  13.706 -0.3065 -2.7960 -1.1998
  617MPD2    H3 9146   0.142   1.397  13.556 -0.2009 -1.8466 -1.5350
  617MPD2     N 9147   4.502   1.208  13.725  0.0733  0.2560 -0.4525
  617MPD2    H5 9148   4.451   1.247  13.647 -1.0880  0.1406  0.2597
  617MPD2    N1 9149   0.224   1.125  13.901  0.1876 -0.0616  0.0386
  617MPD2    H7 9150   0.316   1.167  13.914  0.3370  0.3143 -2.2223
  618TMC3    C1 9151   0.336   1.001  14.045  0.8111  0.0523 -0.2647
  618TMC3    C2 9152   0.394   0.882  14.021 -0.2379 -0.4676 -0.2771
  618TMC3    C3 9153   0.533   0.871  14.049  0.1209  0.3833  0.0611
  618TMC3    C4 9154   0.399   1.105  14.110 -0.4876 -0.6227 -0.1540
  618TMC3    C5 9155   0.536   1.093  14.125 -0.7323  0.1415  0.4041
  618TMC3    C6 9156   0.604   0.977  14.097  0.4345 -1.1442 -0.4604
  618TMC3     C 9157   0.207   1.020  13.984 -1.0073  0.7051 -0.2397
  618TMC3     O 9158   0.131   0.924  13.974  0.5651 -0.0811 -0.0980
  618TMC3     H 9159   0.356   0.814  13.947 -2.7709 -1.2619  1.7577
  618TMC3    H1 9160   0.341   1.193  14.136  0.4608 -0.4609  1.4665
  618TMC3    H2 9161   0.707   0.974  14.131  0.1463  0.1591  0.5072
  618TMC3    C7 9162   0.609   1.192  14.203  0.1655  0.1271  0.0758
  618TMC3    C8 9163   0.605   0.770  13.976  0.2592 -0.1365 -0.0922
  618TMC3    O1 9164   0.564   1.207  14.315  0.5287 -0.7022 -0.2369
  618TMC3    O2 9165   0.538   0.674  13.934  0.1951 -0.6453  0.1060
  619MPD2     C 9166   1.733   2.670  13.622 -0.1502 -0.3438  0.1670
  619MPD2    C1 9167   1.661   2.744  13.538  0.3226 -0.0750 -0.5021
  619MPD2    C2 9168   1.540   2.695  13.481  0.0928 -0.8152  0.0371
  619MPD2    C3 9169   1.501   2.563  13.510 -0.1805  0.0059 -0.1278
  619MPD2    C4 9170   1.583   2.492  13.596  0.1276  0.3961  0.4017
  619MPD2    C5 9171   1.699   2.544  13.654 -0.0751 -0.1385  0.1392
  619MPD2     H 9172   1.495   2.755  13.403 -0.0015  0.9366  1.4374
  619MPD2    H1 9173   1.545   2.396  13.629 -1.8727  0.7040 -1.0282
  619MPD2    H2 9174   1.813   2.713  13.681 -1.2521  2.4472 -0.3726
  619MPD2    H3 9175   1.751   2.487  13.730 -0.2420 -1.8885 -1.0389
  619MPD2     N 9176   1.382   2.504  13.464 -0.3821  0.5276  0.0933
  619MPD2    H5 9177   1.366   2.411  13.501 -1.7199  1.4184  1.7354
  619MPD2    N1 9178   1.708   2.864  13.486 -0.8400 -0.5398  0.0872
  619MPD2    H7 9179   1.642   2.910  13.424 -0.9863  1.6838  1.8928
  620TMC3    C1 9180   1.787   3.070  13.472 -0.1687  0.1742 -1.2068
  620TMC3    C2 9181   1.732   3.064  13.348  0.3283 -0.4101  0.6476
  620TMC3    C3 9182   1.647   3.168  13.304 -0.1111 -0.5602  0.1172
  620TMC3    C4 9183   1.765   3.169  13.560 -0.1488 -0.6249  0.4819
  620TMC3    C5 9184   1.695   3.272  13.509 -0.8847 -0.0489 -0.4826
  620TMC3    C6 9185   1.636   3.277  13.384  0.1348 -0.0709 -0.2433
  620TMC3     C 9186   1.810   2.942  13.526  0.1208 -0.1815 -0.4175
  620TMC3     O 9187   1.887   2.925  13.616  0.3147  0.5371 -0.2239
  620TMC3     H 9188   1.757   2.992  13.271 -1.5562 -0.8783  0.4968
  620TMC3    H1 9189   1.807   3.157  13.659  0.4175  0.4836  0.3783
  620TMC3    H2 9190   1.581   3.364  13.349  2.1526  1.5255  0.5533
  620TMC3    C7 9191   1.626   3.360  13.603  0.1078 -0.0846 -0.4860
  620TMC3    C8 9192   1.527   3.111  13.254 -0.3650  0.7579 -0.0372
  620TMC3    O1 9193   1.523   3.410  13.572 -0.3225  0.6756 -0.0917
  620TMC3    O2 9194   1.527   2.988  13.269 -0.4720 -0.1360  0.4940
  621MPD2     C 9195   1.125   2.565  10.403 -0.2819 -0.1900  0.2512
  621MPD2    C1 9196   1.248   2.624  10.386  0.5709 -0.0941 -0.0706
  621MPD2    C2 9197   1.258   2.755  10.341 -0.1021 -0.3882 -0.2780
  621MPD2    C3 9198   1.143   2.826  10.307 -0.1347  0.7551  0.8701
  621MPD2    C4 9199   1.023   2.766  10.313  0.4423 -0.1992 -0.8095
  621MPD2    C5 9200   1.017   2.634  10.354 -0.2071  1.3116 -0.4197
  621MPD2     H 9201   1.350   2.809  10.325  0.2304 -0.6361  0.7836
  621MPD2    H1 9202   0.929   2.808  10.280 -0.5648 -0.4374  1.7821
  621MPD2    H2 9203   1.106   2.468  10.449 -2.0934  0.5642  1.0734
  621MPD2    H3 9204   0.924   2.577  10.356  0.1784  0.6840 -0.5571
  621MPD2     N 9205   1.173   2.950  10.240 -0.5552 -0.1339  0.0682
  621MPD2    H5 9206   1.269   2.984  10.235 -0.0587 -1.5939 -0.4088
  621MPD2    N1 9207   1.369   2.557  10.409  0.0717  0.6226 -0.3772
  621MPD2    H7 9208   1.448   2.617  10.387  1.8065 -1.9312 -1.1033
  622TMC3    C1 9209   1.529   2.396  10.397  0.1149 -0.0883 -0.2340
  622TMC3    C2 9210   1.602   2.494  10.331  0.0815 -0.5356 -0.2632
  622TMC3    C3 9211   1.732   2.458  10.301 -0.2961 -0.1389  0.4385
  622TMC3    C4 9212   1.581   2.281  10.448 -0.0114 -0.3429  0.0134
  622TMC3    C5 9213   1.715   2.256  10.417 -0.3478  0.2250  0.1735
  622TMC3    C6 9214   1.793   2.346  10.351  0.4277 -0.1932 -0.5765
  622TMC3     C 9215   1.390   2.427  10.431  0.6468 -0.0736 -0.1709
  622TMC3     O 9216   1.313   2.341  10.475 -0.2002 -0.3981  0.0753
  622TMC3     H 9217   1.570   2.588  10.287  2.4049  0.9572  1.2657
  622TMC3    H1 9218   1.523   2.216  10.512 -0.7709  0.6701  0.3467
  622TMC3    H2 9219   1.900   2.340  10.333  0.7414 -1.7991  1.8014
  622TMC3    C7 9220   1.785   2.145  10.480 -0.4489  0.1943  0.1010
  622TMC3    C8 9221   1.806   2.537  10.202 -0.6760  0.2038  0.1622
  622TMC3    O1 9222   1.905   2.140  10.488 -0.1319 -0.5727 -0.0983
  622TMC3    O2 9223   1.925   2.536  10.223 -0.2244 -0.3877 -0.0515
  623MPD2     C 9224   0.451   2.553  16.064 -0.2333 -0.0454 -0.0722
  623MPD2    C1 9225   0.467   2.683  16.101 -0.5630 -0.1238 -0.1871
  623MPD2    C2 9226   0.523   2.707  16.226  0.1955  0.4751 -0.1402
  623MPD2    C3 9227   0.573   2.618  16.312  1.4792 -0.4126  0.2774
  623MPD2    C4 9228   0.566   2.489  16.269 -0.4249  0.1115 -0.0160
  623MPD2    C5 9229   0.504   2.455  16.149  0.2021 -0.3114  0.1423
  623MPD2     H 9230   0.531   2.810  16.261  1.5513  0.9123 -1.7131
  623MPD2    H1 9231   0.613   2.409  16.325  0.9269  0.6280 -0.4326
  623MPD2    H2 9232   0.410   2.533  15.965 -1.4664 -0.2184  0.4843
  623MPD2    H3 9233   0.496   2.354  16.112 -0.9626 -0.5377  1.0068
  623MPD2     N 9234   0.627   2.660  16.436  0.1287  0.5105 -0.0061
  623MPD2    H5 9235   0.641   2.759  16.454 -0.8571  0.6063  0.2211
  623MPD2    N1 9236   0.420   2.791  16.023  0.2553 -0.0266  0.0921
  623MPD2    H7 9237   0.441   2.878  16.069  1.1690 -0.5984  0.7628
  624TMC3    C1 9238   0.721   2.758  16.819 -0.5672  0.7174  0.1094
  624TMC3    C2 9239   0.734   2.886  16.762 -0.2237 -0.5877 -0.2509
  624TMC3    C3 9240   0.767   2.897  16.633  0.5598 -0.4080 -0.2492
  624TMC3    C4 9241   0.740   2.647  16.749 -0.0825 -0.0782  0.1568
  624TMC3    C5 9242   0.763   2.659  16.618 -0.1046  0.4396  0.4287
  624TMC3    C6 9243   0.797   2.778  16.562 -0.6894  0.4910 -0.5424
  624TMC3     C 9244   0.798   2.751  16.939  1.2317  0.6546 -0.0299
  624TMC3     O 9245   0.779   2.850  17.011 -0.5754  0.1146 -0.1107
  624TMC3     H 9246   0.722   2.973  16.826  1.4879 -0.6060  0.0931
  624TMC3    H1 9247   0.691   2.556  16.779  0.8275  0.1168  2.2756
  624TMC3    H2 9248   0.826   2.788  16.458 -2.8404  0.2097 -1.1839
  624TMC3    C7 9249   0.682   2.578  16.531 -0.6085  0.2511 -0.0243
  624TMC3    C8 9250   0.672   2.972  16.563 -0.0810 -0.1261  0.1484
  624TMC3    O1 9251   0.682   2.454  16.546 -0.3609 -0.5050  0.1097
  624TMC3    O2 9252   0.650   2.930  16.446 -1.1421  0.1256 -0.7099
  625MPD2     C 9253   1.124   4.582   1.010  0.6345 -0.4246  0.0441
  625MPD2    C1 9254   1.128   4.720   1.013 -0.2178  0.1721 -0.1187
  625MPD2    C2 9255   1.235   0.051   1.088  0.0138  0.2490 -0.3763
  625MPD2    C3 9256   1.324   4.700   1.160  0.7101  0.3195 -0.3344
  625MPD2    C4 9257   1.315   4.564   1.151  0.3640  0.0782 -0.4349
  625MPD2    C5 9258   1.217   4.507   1.073 -0.8554 -0.4927 -0.4090
  625MPD2     H 9259   1.231   0.159   1.093 -1.6867  0.1869 -0.2974
  625MPD2    H1 9260   1.386   4.502   1.204 -3.2521 -2.3675  1.5113
  625MPD2    H2 9261   1.046   4.531   0.956 -0.7711  0.0376  1.6468
  625MPD2    H3 9262   1.201   4.400   1.068  1.1362 -0.8690  1.4780
  625MPD2     N 9263   1.416   0.050   1.235 -0.0120  0.1148 -0.4418
  625MPD2    H5 9264   1.410   0.151   1.236  0.4624  0.1246  0.9424
  625MPD2    N1 9265   1.034   0.079   0.954 -0.3574  0.1952 -0.4501
  625MPD2    H7 9266   1.044   0.178   0.972 -0.6230  0.5392 -2.1960
  626TMC3    C1 9267   0.874   0.149   0.790  0.1471  0.0708 -1.2123
  626TMC3    C2 9268   0.835   0.132   0.662 -0.2328 -0.2481  0.7871
  626TMC3    C3 9269   0.766   0.237   0.600 -0.2500  0.0893 -0.5755
  626TMC3    C4 9270   0.834   0.257   0.866  0.6365 -0.2911  0.3816
  626TMC3    C5 9271   0.769   0.357   0.800  0.4547 -0.2293  0.0790
  626TMC3    C6 9272   0.738   0.353   0.670 -0.6103 -0.6562 -0.5128
  626TMC3     C 9273   0.948   0.044   0.851 -0.4947  0.0959  0.4431
  626TMC3     O 9274   0.942   4.659   0.795 -0.4993 -0.4883  0.4235
  626TMC3     H 9275   0.879   0.053   0.602  1.3940  1.5468 -0.4059
  626TMC3    H1 9276   0.870   0.275   0.967  3.5384  2.2590 -1.1023
  626TMC3    H2 9277   0.686   0.436   0.624 -1.1535  0.5372  2.2373
  626TMC3    C7 9278   0.688   0.432   0.886 -0.3673 -0.4129 -0.7365
  626TMC3    C8 9279   0.768   0.232   0.457  0.0542 -0.1658 -0.3886
  626TMC3    O1 9280   0.731   0.455   0.999 -0.8164 -0.3518 -0.5082
  626TMC3    O2 9281   0.801   0.334   0.402 -0.0948 -0.0371  0.6275
  627MPD2     C 9282   4.286   0.048  14.193 -0.4424 -0.3394  0.2332
  627MPD2    C1 9283   4.278   0.031  14.329  0.0270 -0.4626  0.3639
  627MPD2    C2 9284   4.240   4.632  14.384  0.4932 -0.3680  0.0009
  627MPD2    C3 9285   4.218   4.521  14.307  0.0237  0.5981  0.6573
  627MPD2    C4 9286   4.240   4.540  14.173  0.0942 -0.0514  0.1914
  627MPD2    C5 9287   4.273   4.663  14.121  0.2118 -0.4931 -0.8123
  627MPD2     H 9288   4.216   4.635  14.490  0.1567 -1.7089 -0.0296
  627MPD2    H1 9289   4.242   4.458  14.102 -1.2241  0.1802 -0.1140
  627MPD2    H2 9290   4.314   0.137  14.137 -1.6847 -0.0181  0.1258
  627MPD2    H3 9291   4.278   4.677  14.013 -3.1594  4.0397 -0.3690
  627MPD2     N 9292   4.171   4.405  14.371  0.1729 -0.3743  0.1495
  627MPD2    H5 9293   4.180   4.402  14.472  0.0842 -0.6300  0.1513
  627MPD2    N1 9294   4.315   0.132  14.426  0.9583 -0.1086  0.2031
  627MPD2    H7 9295   4.311   0.107  14.524  1.1509  0.0192  0.2456
  628TMC3    C1 9296   4.343   0.350  14.517  0.7951  0.0926 -0.5710
  628TMC3    C2 9297   4.407   0.297  14.623  0.0458 -0.5326 -0.0314
  628TMC3    C3 9298   4.457   0.384  14.716  0.8130 -0.4079 -0.1979
  628TMC3    C4 9299   4.316   0.479  14.496  0.2545 -0.2066 -0.3608
  628TMC3    C5 9300   4.348   0.563  14.602  0.2046  0.9061  0.0443
  628TMC3    C6 9301   4.424   0.514  14.707  0.2135  0.2697 -0.5336
  628TMC3     C 9302   4.317   0.264  14.404  0.5094 -0.1430  0.1482
  628TMC3     O 9303   4.300   0.314  14.294 -0.1772 -0.3397 -0.0814
  628TMC3     H 9304   4.432   0.192  14.621 -0.1878 -0.5508 -2.0963
  628TMC3    H1 9305   4.262   0.519  14.411 -0.0475 -0.9784 -0.5336
  628TMC3    H2 9306   4.427   0.567  14.801 -0.8015 -0.5147 -0.0541
  628TMC3    C7 9307   4.324   0.706  14.591  0.5968  0.1312 -0.0622
  628TMC3    C8 9308   4.575   0.349  14.801  0.3892  0.3047 -0.2426
  628TMC3    O1 9309   4.415   0.779  14.636  0.2875 -0.2376 -0.5124
  628TMC3    O2 9310   4.630   0.445  14.856 -0.2745  0.3293  0.4304
  629MPD2     C 9311   2.335   3.802  16.449  0.3541  0.2814  0.7969
  629MPD2    C1 9312   2.350   3.670  16.428  0.3473  0.3664 -0.1776
  629MPD2    C2 9313   2.239   3.590  16.408  0.5794 -0.3550  0.6764
  629MPD2    C3 9314   2.110   3.640  16.419  0.3070  0.1679  0.6153
  629MPD2    C4 9315   2.099   3.775  16.444  0.8198  0.0095 -0.2748
  629MPD2    C5 9316   2.205   3.858  16.455  0.4154  0.1654 -0.6444
  629MPD2     H 9317   2.260   3.487  16.381  2.2114  0.4751 -1.2132
  629MPD2    H1 9318   2.004   3.827  16.448 -0.1098 -1.7457  0.4832
  629MPD2    H2 9319   2.418   3.871  16.464 -1.0282  1.8100  1.3521
  629MPD2    H3 9320   2.200   3.965  16.468  0.2056 -0.0624  1.1341
  629MPD2     N 9321   1.999   3.556  16.387 -0.3408 -0.0930  0.4307
  629MPD2    H5 9322   2.017   3.458  16.370  0.8703  0.1244  0.4629
  629MPD2    N1 9323   2.483   3.623  16.435  0.1286  0.4015  0.2442
  629MPD2    H7 9324   2.563   3.680  16.461  2.0477 -1.9039 -0.5512
  630TMC3    C1 9325   2.650   3.480  16.491 -0.0918  0.2493  0.0767
  630TMC3    C2 9326   2.738   3.558  16.428  0.5227  0.6131 -0.1838
  630TMC3    C3 9327   2.862   3.572  16.485 -0.3137 -0.2774 -1.0080
  630TMC3    C4 9328   2.685   3.410  16.602 -0.7446  0.3437  0.5626
  630TMC3    C5 9329   2.807   3.432  16.656  0.4734 -0.7565 -0.2717
  630TMC3    C6 9330   2.897   3.511  16.598  0.2101 -0.0437  0.3059
  630TMC3     C 9331   2.513   3.489  16.458 -0.1501 -0.0722 -0.0767
  630TMC3     O 9332   2.448   3.387  16.477 -0.2181 -0.2278  0.4508
  630TMC3     H 9333   2.725   3.595  16.327  1.0127  0.5708 -0.2616
  630TMC3    H1 9334   2.602   3.383  16.667  0.2129 -3.2804  0.3242
  630TMC3    H2 9335   2.996   3.522  16.643 -1.2170  0.8781  3.2781
  630TMC3    C7 9336   2.843   3.363  16.776 -0.3424  0.6785  0.7150
  630TMC3    C8 9337   2.975   3.617  16.406  0.0485 -0.4979 -0.3687
  630TMC3    O1 9338   2.950   3.385  16.831  0.1374 -0.4805  0.0137
  630TMC3    O2 9339   3.084   3.618  16.462 -0.6322  0.1540  0.1126
  631MPD2     C 9340   0.557   2.690  15.627  0.1202 -0.3070 -0.0759
  631MPD2    C1 9341   0.638   2.713  15.514 -0.9897  0.2052  0.9924
  631MPD2    C2 9342   0.765   2.670  15.507 -0.0152  0.4100 -0.3558
  631MPD2    C3 9343   0.827   2.618  15.621  0.4077  0.7785  0.2065
  631MPD2    C4 9344   0.749   2.600  15.733 -0.0663 -0.1365 -0.2577
  631MPD2    C5 9345   0.615   2.631  15.728  0.0256 -0.4505 -0.0078
  631MPD2     H 9346   0.824   2.667  15.416 -0.9488  1.4505 -0.9938
  631MPD2    H1 9347   0.788   2.556  15.824 -2.0760 -1.5289 -0.0766
  631MPD2    H2 9348   0.453   2.720  15.637 -0.5264 -2.5906  0.0392
  631MPD2    H3 9349   0.544   2.617  15.809 -1.0105  1.8230 -0.5248
  631MPD2     N 9350   0.962   2.586  15.622  0.5433 -0.6935  0.5918
  631MPD2    H5 9351   1.018   2.611  15.540  0.6690 -0.7140  0.6715
  631MPD2    N1 9352   0.576   2.790  15.413  1.0121  0.4259 -0.1103
  631MPD2    H7 9353   0.495   2.848  15.432  0.9157 -0.5547  2.5913
  632TMC3    C1 9354   0.553   2.914  15.208  0.1051  0.1550 -0.3993
  632TMC3    C2 9355   0.443   2.976  15.257  0.3889  0.1778 -0.0739
  632TMC3    C3 9356   0.411   3.099  15.202  0.1847  0.9611  0.5724
  632TMC3    C4 9357   0.629   2.960  15.106 -0.0543  0.9226 -0.2050
  632TMC3    C5 9358   0.586   3.084  15.059  0.2819  0.6613 -0.1725
  632TMC3    C6 9359   0.483   3.158  15.106 -0.1975 -0.6018  0.3363
  632TMC3     C 9360   0.628   2.810  15.285  0.4417  0.0719  0.7472
  632TMC3     O 9361   0.731   2.768  15.240 -0.3443 -0.4282  0.2708
  632TMC3     H 9362   0.385   2.926  15.333 -1.2006  2.2266  0.0843
  632TMC3    H1 9363   0.709   2.899  15.064  0.3592  0.6140  1.0273
  632TMC3    H2 9364   0.461   3.256  15.067  0.0115 -0.3169  0.9455
  632TMC3    C7 9365   0.666   3.144  14.950 -0.4644  0.1525  0.0435
  632TMC3    C8 9366   0.328   3.183  15.290  0.5030 -0.0896 -0.3778
  632TMC3    O1 9367   0.621   3.230  14.874 -0.4956 -0.3204 -0.0449
  632TMC3    O2 9368   0.312   3.144  15.406  0.5215 -0.4558 -0.2040
  633MPD2     C 9369   1.019   1.514  17.579 -0.3015  0.5015 -0.8579
  633MPD2    C1 9370   1.001   1.419  17.479  0.3718 -0.3279  0.9576
  633MPD2    C2 9371   0.968   1.289  17.509 -0.2107  0.3347 -0.2238
  633MPD2    C3 9372   0.948   1.259  17.643 -0.3634  0.1458  0.4434
  633MPD2    C4 9373   0.968   1.355   0.037  0.1694  0.4245  0.3153
  633MPD2    C5 9374   1.002   1.484   0.005 -0.0475  0.5452  0.1759
  633MPD2     H 9375   0.958   1.216  17.429 -0.3065  2.5412 -2.2124
  633MPD2    H1 9376   0.958   1.334   0.143  0.0781  2.1375  0.6613
  633MPD2    H2 9377   1.045   1.617  17.560 -0.9341  0.5923 -1.2312
  633MPD2    H3 9378   1.015   1.560   0.081  0.1667  0.7706 -0.0875
  633MPD2     N 9379   0.908   1.134  17.685 -0.3427 -0.2635  0.9036
  633MPD2    H5 9380   0.907   1.115   0.083 -2.0393  0.5636  1.0479
  633MPD2    N1 9381   1.025   1.448  17.335  0.2201  0.7130  0.0633
  633MPD2    H7 9382   1.010   1.372  17.270  0.2171  1.0974 -0.3870
  634TMC3    C1 9383   1.047   1.564  17.129 -0.5902  0.0459 -0.1599
  634TMC3    C2 9384   1.100   1.449  17.068 -0.0249 -0.2162  0.3712
  634TMC3    C3 9385   1.117   1.452  16.934  0.3167  0.3769 -0.2397
  634TMC3    C4 9386   1.013   1.679  17.062  0.5483  0.2533 -0.2340
  634TMC3    C5 9387   1.030   1.677  16.928  0.2368  0.3996  0.6821
  634TMC3    C6 9388   1.087   1.566  16.857  0.6729  0.1079  0.8317
  634TMC3     C 9389   1.024   1.567  17.272  0.2891 -0.1862  0.4335
  634TMC3     O 9390   1.013   1.680  17.328  0.0057 -0.0377  0.5796
  634TMC3     H 9391   1.142   1.361  17.117 -0.4404 -0.5221  0.1777
  634TMC3    H1 9392   0.961   1.756  17.117 -0.0990 -0.6722  0.4482
  634TMC3    H2 9393   1.078   1.571  16.750  1.0859  1.3707  0.8554
  634TMC3    C7 9394   0.980   1.781  16.844 -0.0413  0.4163  0.2167
  634TMC3    C8 9395   1.145   1.327  16.862 -0.1683  0.2253 -0.0923
  634TMC3    O1 9396   1.010   1.781  16.726  0.1396  0.0053  0.4411
  634TMC3    O2 9397   1.129   1.221  16.920 -0.4235  0.3337  0.1209
  635TMC3    C1 9398   1.929   2.733  16.981 -0.1046  0.2453  0.2333
  635TMC3    C2 9399   1.968   2.727  16.851  0.3772 -0.4380  0.4159
  635TMC3    C3 9400   1.929   2.633  16.763 -0.3972 -0.6034  0.2861
  635TMC3    C4 9401   1.873   2.624  17.037 -0.7962 -0.0514 -0.1210
  635TMC3    C5 9402   1.850   2.516  16.951 -0.7353  0.3297  0.1193
  635TMC3    C6 9403   1.873   2.513  16.809 -0.1582 -1.0277 -0.4015
  635TMC3     C 9404   1.880   2.863  17.024  0.3863 -0.7229  0.6076
  635TMC3     O 9405   1.759   2.868  17.034 -0.1984  0.2673  0.5836
  635TMC3     H 9406   2.019   2.816  16.817  0.7427  0.0468  2.2180
  635TMC3    H1 9407   1.858   2.618  17.144  1.3182  0.0910  0.1926
  635TMC3    H2 9408   1.847   2.425  16.751 -0.7700 -0.2991 -1.2228
  635TMC3    C7 9409   1.756   2.413  17.007 -0.1791  0.3271  0.3755
  635TMC3    C8 9410   2.006   2.629  16.643 -0.3532 -0.1543  0.1994
  635TMC3    O1 9411   1.761   2.303  16.953  0.0776 -0.2640 -0.2672
  635TMC3    O2 9412   2.119   2.679  16.647  0.3197 -0.0312 -0.1016
  636MPD2     C 9413   2.165   1.351  15.904  0.4739 -0.7392  0.4812
  636MPD2    C1 9414   2.175   1.406  16.027 -0.3258  0.0427 -0.0825
  636MPD2    C2 9415   2.224   1.331  16.129  0.5260  0.0261 -0.2121
  636MPD2    C3 9416   2.264   1.200  16.103  0.3704 -0.1672 -0.7101
  636MPD2    C4 9417   2.236   1.139  15.980  0.3016  0.1771 -0.4847
  636MPD2    C5 9418   2.188   1.219  15.879 -0.9401  0.6391  0.0397
  636MPD2     H 9419   2.241   1.370  16.229  1.1803 -1.2717  0.1814
  636MPD2    H1 9420   2.255   1.033  15.972  0.1929 -0.0898  2.7811
  636MPD2    H2 9421   2.111   1.408  15.830  2.5936  0.6311  0.0096
  636MPD2    H3 9422   2.152   1.166  15.792 -0.1189  0.0957  0.0331
  636MPD2     N 9423   2.327   1.129  16.208 -0.5007 -0.0792  0.4796
  636MPD2    H5 9424   2.313   1.159  16.304  1.3996  1.3053  0.3256
  636MPD2    N1 9425   2.139   1.538  16.071  0.1762 -0.7107  0.7351
  636MPD2    H7 9426   2.131   1.553  16.171  0.1371  0.5670  0.5447
  637TMC3    C1 9427   2.427   0.940  16.323  0.4135 -0.4526 -0.3593
  637TMC3    C2 9428   2.421   1.011  16.439  0.6962 -0.1547 -0.0650
  637TMC3    C3 9429   2.482   0.965  16.551 -0.3967 -0.0250 -0.2750
  637TMC3    C4 9430   2.480   0.811  16.314  0.7949 -0.4516  0.1267
  637TMC3    C5 9431   2.558   0.787  16.422  0.0071 -0.0423 -0.1156
  637TMC3    C6 9432   2.554   0.853  16.544  0.3271  0.0934  0.5461
  637TMC3     C 9433   2.383   1.002  16.196 -0.0483  0.2374  0.0690
  637TMC3     O 9434   2.410   0.938  16.094  0.1165  0.1469 -0.1758
  637TMC3     H 9435   2.383   1.112  16.448 -0.1429 -0.4895  0.1784
  637TMC3    H1 9436   2.485   0.753  16.223  0.0202  0.3147 -0.4045
  637TMC3    H2 9437   2.599   0.810  16.632 -0.5943 -2.8254 -0.4278
  637TMC3    C7 9438   2.625   0.653  16.423  0.1364  0.8357 -0.7536
  637TMC3    C8 9439   2.551   1.063  16.634 -0.1118  0.1865 -0.4645
  637TMC3    O1 9440   2.578   0.559  16.365 -0.8152 -0.1891 -0.1970
  637TMC3    O2 9441   2.540   1.180  16.599 -0.7413 -0.0929 -0.2260
  638MPD2     C 9442   1.852   0.791  15.014 -0.3934 -0.4799  0.3430
  638MPD2    C1 9443   1.816   0.713  14.912 -0.0969  0.6306 -0.3778
  638MPD2    C2 9444   1.756   0.593  14.948 -0.3554  0.6122 -0.0952
  638MPD2    C3 9445   1.742   0.555  15.081 -0.3197  0.4311 -0.4937
  638MPD2    C4 9446   1.774   0.646  15.183  0.7517 -0.7111  0.7942
  638MPD2    C5 9447   1.835   0.760  15.147 -0.8334  0.4106  1.2626
  638MPD2     H 9448   1.708   0.536  14.869  1.0228  0.1606 -0.6013
  638MPD2    H1 9449   1.748   0.636  15.288  1.4802  1.4567  1.1964
  638MPD2    H2 9450   1.906   0.882  14.990 -0.0672 -1.2607 -1.9175
  638MPD2    H3 9451   1.859   0.838  15.219 -1.1886  0.4469  1.3393
  638MPD2     N 9452   1.698   0.422  15.098  0.0490  0.1944  0.1368
  638MPD2    H5 9453   1.647   0.371  15.027  1.0656  0.2094 -0.5900
  638MPD2    N1 9454   1.844   0.747  14.779  0.2149 -0.2355 -0.4426
  638MPD2    H7 9455   1.887   0.837  14.764  0.2129 -0.3567 -1.1909
  639TMC3    C1 9456   1.698   0.218  15.204 -0.1441 -0.0844  0.1229
  639TMC3    C2 9457   1.586   0.177  15.133 -0.0018 -0.3848 -0.0930
  639TMC3    C3 9458   1.544   0.055  15.164  0.5590  0.5103  0.7391
  639TMC3    C4 9459   1.763   0.138  15.297  0.0110 -0.1078 -0.3638
  639TMC3    C5 9460   1.721   0.009  15.319  1.1331  0.2490  0.6440
  639TMC3    C6 9461   1.608   4.695  15.252 -0.2189 -0.0647 -0.1653
  639TMC3     C 9462   1.732   0.357  15.212 -0.1185  0.3158  0.2026
  639TMC3     O 9463   1.801   0.384  15.309 -0.1138  0.3285  0.4528
  639TMC3     H 9464   1.529   0.231  15.059 -0.8202 -0.0690  0.7685
  639TMC3    H1 9465   1.852   0.171  15.350  0.6085 -0.3111 -1.2462
  639TMC3    H2 9466   1.583   4.590  15.268 -1.1959 -0.1124 -2.0766
  639TMC3    C7 9467   1.815   4.626  15.351  0.4223  0.0191  0.0847
  639TMC3    C8 9468   1.429   0.003  15.087 -0.3521  0.2533  0.6339
  639TMC3    O1 9469   1.755   4.521  15.384 -0.2502  0.4478 -0.4883
  639TMC3    O2 9470   1.401   0.056  14.980 -0.2832 -0.2614  0.5398
  640MPD2     C 9471   2.033   3.671  10.121 -1.0022  0.0427 -0.7102
  640MPD2    C1 9472   2.079   3.795  10.084  0.2203  0.1011 -1.3973
  640MPD2    C2 9473   1.994   3.903  10.107  0.1396 -0.0843  0.3564
  640MPD2    C3 9474   1.870   3.891  10.165  0.3635  0.3124  0.0559
  640MPD2    C4 9475   1.821   3.768  10.197 -0.3600 -0.5480 -0.4467
  640MPD2    C5 9476   1.905   3.663  10.177  0.1508 -0.5492 -0.7185
  640MPD2     H 9477   2.045   3.995  10.084 -1.6187  0.7112 -0.3985
  640MPD2    H1 9478   1.717   3.759  10.224  0.1690 -0.9073  1.4362
  640MPD2    H2 9479   2.092   3.580  10.117  1.0469  1.3542 -0.2203
  640MPD2    H3 9480   1.855   3.567  10.183  1.5873 -1.2693 -0.1950
  640MPD2     N 9481   1.785   4.000  10.199 -0.1236 -0.4801  0.5255
  640MPD2    H5 9482   1.691   3.969  10.222  0.1385 -0.6839  1.3536
  640MPD2    N1 9483   2.216   3.813  10.049 -0.2320  0.0009 -0.0025
  640MPD2    H7 9484   2.266   3.726  10.064 -0.3045 -0.2078 -0.9924
  641TMC3    C1 9485   2.410   3.924   9.972 -0.0250 -0.1922 -0.6799
  641TMC3    C2 9486   2.488   3.822  10.027  0.5620  0.0762 -0.1431
  641TMC3    C3 9487   2.615   3.849  10.013  0.2448  0.2571 -0.3056
  641TMC3    C4 9488   2.463   4.028   9.897 -0.1642  0.4401 -0.6562
  641TMC3    C5 9489   2.601   4.044   9.888 -0.5686 -0.6358 -0.4053
  641TMC3    C6 9490   2.679   3.956   9.948 -0.2837  1.0011 -0.0810
  641TMC3     C 9491   2.267   3.921   9.983  0.0827 -0.0872  0.5026
  641TMC3     O 9492   2.206   4.019   9.934 -0.3587 -0.2180  0.1640
  641TMC3     H 9493   2.458   3.752  10.105  0.3389 -1.0266 -1.2292
  641TMC3    H1 9494   2.399   4.094   9.839 -0.9098  1.1831  1.0328
  641TMC3    H2 9495   2.787   3.966   9.943 -0.2159  0.6188  0.6153
  641TMC3    C7 9496   2.647   4.104   9.762 -0.1510 -0.1308 -0.5371
  641TMC3    C8 9497   2.694   3.741  10.047 -0.0371  0.3121  0.3208
  641TMC3    O1 9498   2.753   4.053   9.725  0.1428 -0.2230  0.3533
  641TMC3    O2 9499   2.632   3.634  10.041 -0.2999  0.0653  0.1622
  642TMC3    C1 9500   3.074   0.200  12.554  0.5866  0.4952  0.2099
  642TMC3    C2 9501   3.014   0.184  12.674  0.2513  0.0562 -0.0092
  642TMC3    C3 9502   3.007   0.063  12.740  0.2722 -0.1011 -0.0091
  642TMC3    C4 9503   3.124   0.086  12.494  0.4048 -0.2099  0.0376
  642TMC3    C5 9504   3.100   4.693  12.549  0.4935  0.2819  0.2701
  642TMC3    C6 9505   3.039   4.676  12.669  0.2750  0.0640  0.7803
  642TMC3     C 9506   3.123   0.315  12.503  0.2366 -0.1568  0.2338
  642TMC3     O 9507   3.216   0.306  12.430  0.1335 -0.1888 -0.0912
  642TMC3     H 9508   2.982   0.271  12.731 -0.3790 -0.5485  0.5502
  642TMC3    H1 9509   3.156   0.090  12.391  0.7485  1.1731  0.2024
  642TMC3    H2 9510   3.013   4.577  12.705  1.8564 -0.9201 -0.7696
  642TMC3    C7 9511   3.144   4.577  12.472  0.1020 -0.0742 -0.3192
  642TMC3    C8 9512   2.970   0.051  12.881 -0.4344 -0.3173  0.1579
  642TMC3    O1 9513   3.149   4.590  12.352  0.6094  0.2561  0.3417
  642TMC3    O2 9514   2.889   0.128  12.926  0.3768  0.2188 -0.0553
  643TMC3    C1 9515   2.640   4.104   0.391 -0.1367 -0.2710 -0.9000
  643TMC3    C2 9516   2.540   4.061   0.302  0.1562  0.0607  0.1563
  643TMC3    C3 9517   2.582   3.981   0.199 -0.4115  0.0916  0.3095
  643TMC3    C4 9518   2.777   4.078   0.378 -0.0137 -0.5752  0.7231
  643TMC3    C5 9519   2.816   4.000   0.271 -0.3860  0.7559 -0.9435
  643TMC3    C6 9520   2.719   3.950   0.185 -0.3421 -0.2256  0.7163
  643TMC3     C 9521   2.594   4.198   0.496  0.3270 -0.1116  0.3453
  643TMC3     O 9522   2.501   4.269   0.462 -0.8604  0.5095  0.0858
  643TMC3     H 9523   2.436   4.087   0.319 -0.3314 -0.2750 -2.3516
  643TMC3    H1 9524   2.846   4.122   0.449 -2.8792  2.0825  1.8791
  643TMC3    H2 9525   2.754   3.906   0.093 -0.0979 -1.4990  1.4234
  643TMC3    C7 9526   2.934   4.045   0.205  0.0119  0.2780  0.2775
  643TMC3    C8 9527   2.527   4.002   0.068  0.2754 -0.3095  0.1150
  643TMC3    O1 9528   2.977   4.154   0.235  1.0125  0.0369 -0.4988
  643TMC3    O2 9529   2.521   3.906  17.697  0.1955  0.1566  0.5366
  644MPD2     C 9530   2.130   0.267   9.726  0.0492 -0.3533 -0.2662
  644MPD2    C1 9531   2.253   0.292   9.668 -0.0930  0.1072 -1.0730
  644MPD2    C2 9532   2.263   0.375   9.555 -0.5257 -0.1559 -0.2501
  644MPD2    C3 9533   2.155   0.452   9.514 -0.4779  0.0780 -0.0969
  644MPD2    C4 9534   2.031   0.429   9.575 -0.3048  0.7144  0.7159
  644MPD2    C5 9535   2.023   0.333   9.677  0.0248  0.8117  0.2305
  644MPD2     H 9536   2.352   0.373   9.494  0.0853  0.3996  0.6149
  644MPD2    H1 9537   1.940   0.481   9.548 -0.3017  0.9942  1.2403
  644MPD2    H2 9538   2.117   0.199   9.810  2.3376  0.8146  1.0371
  644MPD2    H3 9539   1.933   0.314   9.734  1.0327  1.8028  2.1386
  644MPD2     N 9540   2.181   0.553   9.417 -0.2041  0.5083 -0.0121
  644MPD2    H5 9541   2.274   0.558   9.378  0.3613  0.2596  1.2907
  644MPD2    N1 9542   2.360   0.217   9.717 -0.8833 -0.7285 -0.0153
  644MPD2    H7 9543   2.334   0.143   9.782 -0.3559 -1.2538 -0.3962
  645TMC3    C1 9544   2.166   0.771   9.360 -0.7495 -0.2541  0.4537
  645TMC3    C2 9545   2.305   0.770   9.366 -0.4612 -0.2357  0.1253
  645TMC3    C3 9546   2.374   0.875   9.305 -0.2409  0.2359  0.8924
  645TMC3    C4 9547   2.100   0.885   9.333  0.0449  0.6620 -0.0849
  645TMC3    C5 9548   2.172   0.988   9.279  0.5022 -0.4251 -0.5275
  645TMC3    C6 9549   2.310   0.987   9.265 -0.5515  0.0497  0.2213
  645TMC3     C 9550   2.093   0.658   9.387  0.7460  0.7525 -0.5775
  645TMC3     O 9551   1.972   0.662   9.401 -0.7299  0.1762  0.3740
  645TMC3     H 9552   2.366   0.688   9.404 -1.7647 -1.0568  0.4530
  645TMC3    H1 9553   1.992   0.890   9.326  0.1802  0.8137 -2.0180
  645TMC3    H2 9554   2.353   1.064   9.202  2.4149  0.6858  3.0234
  645TMC3    C7 9555   2.102   1.095   9.209 -0.3973  0.2246 -0.2277
  645TMC3    C8 9556   2.519   0.872   9.315 -0.5311 -0.1062  0.0729
  645TMC3    O1 9557   1.987   1.084   9.163  0.1279  0.0309  0.2435
  645TMC3    O2 9558   2.572   0.763   9.336  0.0252  0.0347 -0.1578
  646MPD2     C 9559   1.926   4.127  14.517 -0.1071  0.0589 -0.1208
  646MPD2    C1 9560   1.848   4.067  14.609  0.5481 -0.3942  0.3882
  646MPD2    C2 9561   1.708   4.088  14.600  0.1882 -0.7499 -0.0326
  646MPD2    C3 9562   1.657   4.173  14.503  0.2255  0.1159  0.1142
  646MPD2    C4 9563   1.738   4.237  14.421 -0.0051  0.1186 -0.4773
  646MPD2    C5 9564   1.869   4.217  14.427 -0.1494 -0.0702  0.5135
  646MPD2     H 9565   1.642   4.043  14.673 -3.1939  0.9490 -1.9914
  646MPD2    H1 9566   1.708   4.309  14.346 -0.5884 -0.6992 -1.0208
  646MPD2    H2 9567   2.033   4.111  14.513 -0.2201 -0.6215 -0.4138
  646MPD2    H3 9568   1.921   4.276  14.352 -1.9715 -0.5906 -1.1454
  646MPD2     N 9569   1.513   4.192  14.490  0.4343  0.0700 -0.4899
  646MPD2    H5 9570   1.457   4.152  14.564  1.4115 -1.6066 -0.6554
  646MPD2    N1 9571   1.908   3.972  14.694  0.1096 -0.2793 -0.5983
  646MPD2    H7 9572   2.008   3.956  14.687  0.5101  2.1395 -0.4665
  647TMC3    C1 9573   1.947   3.802  14.851  0.4013 -0.0499  0.2184
  647TMC3    C2 9574   1.923   3.661  14.874 -0.0294  0.0323  0.5484
  647TMC3    C3 9575   2.018   3.577  14.908 -0.3663  0.3451 -0.2537
  647TMC3    C4 9576   2.081   3.843  14.866 -0.8179  0.6083  1.0046
  647TMC3    C5 9577   2.170   3.747  14.907  0.1268 -0.5437  0.3482
  647TMC3    C6 9578   2.148   3.618  14.932 -0.0480 -0.1044  0.7024
  647TMC3     C 9579   1.851   3.891  14.786  0.0566  1.0068  1.2069
  647TMC3     O 9580   1.733   3.874  14.830  0.2377  0.7048  0.0584
  647TMC3     H 9581   1.820   3.628  14.868  0.7917 -2.3569 -0.0977
  647TMC3    H1 9582   2.115   3.946  14.862  0.8135  0.0482  0.5182
  647TMC3    H2 9583   2.223   3.550  14.971  0.1205 -1.3579 -1.8292
  647TMC3    C7 9584   2.309   3.795  14.900  0.5548 -0.0610  0.2600
  647TMC3    C8 9585   1.971   3.448  14.944 -0.0724  0.2293  0.4931
  647TMC3    O1 9586   2.330   3.914  14.872  0.2842 -0.4876  0.0935
  647TMC3    O2 9587   2.014   3.395  15.046 -0.4618 -0.4607 -0.5067
  648TMC3    C1 9588   1.500   1.449  16.225  0.0868 -0.3376  0.5413
  648TMC3    C2 9589   1.577   1.346  16.179  0.0558  0.3524 -0.7929
  648TMC3    C3 9590   1.569   1.309  16.052  0.6447  0.4103  0.1450
  648TMC3    C4 9591   1.426   1.511  16.130 -0.2501  0.2353  0.3256
  648TMC3    C5 9592   1.418   1.473  16.000 -0.6525 -0.1430 -0.0705
  648TMC3    C6 9593   1.492   1.373  15.953  0.6591  0.2748  0.1356
  648TMC3     C 9594   1.542   1.534  16.329  0.0034 -0.7368  0.1173
  648TMC3     O 9595   1.522   1.655  16.313 -0.1764  0.4708  0.2585
  648TMC3     H 9596   1.659   1.308  16.239  0.4887  1.8102 -0.4815
  648TMC3    H1 9597   1.389   1.612  16.145 -1.8328 -0.1461 -1.0472
  648TMC3    H2 9598   1.471   1.331  15.855  0.9601 -1.6940  0.9141
  648TMC3    C7 9599   1.340   1.550  15.906  0.3072 -0.1550  0.3824
  648TMC3    C8 9600   1.606   1.175  16.009 -0.2296 -0.1705 -0.7644
  648TMC3    O1 9601   1.357   1.523  15.790  0.4757  0.1042  0.3013
  648TMC3    O2 9602   1.623   1.146  15.889 -0.2313 -0.1124 -0.2160
  649TMC3    C1 9603   0.652   2.616  12.601 -0.0315 -0.6153  0.2016
  649TMC3    C2 9604   0.761   2.633  12.679 -0.7428 -0.4433 -0.3635
  649TMC3    C3 9605   0.741   2.624  12.812 -0.1084 -0.2954 -0.1165
  649TMC3    C4 9606   0.534   2.567  12.648 -0.4009  0.3637  1.0625
  649TMC3    C5 9607   0.525   2.556  12.780  0.1682 -0.0813 -0.6971
  649TMC3    C6 9608   0.630   2.576  12.866  0.4593 -0.1470  0.0325
  649TMC3     C 9609   0.662   2.631  12.452 -1.0118 -0.1018 -0.4144
  649TMC3     O 9610   0.553   2.621  12.389 -0.3097 -0.3267  0.0415
  649TMC3     H 9611   0.863   2.649  12.644 -0.3712 -1.4033  0.2717
  649TMC3    H1 9612   0.442   2.566  12.590  1.8848  1.5247 -2.5395
  649TMC3    H2 9613   0.615   2.570  12.973 -1.7265 -0.4378 -0.2948
  649TMC3    C7 9614   0.409   2.485  12.837  0.5021 -0.1151  0.8949
  649TMC3    C8 9615   0.847   2.665  12.898 -0.4465  0.0690 -0.0167
  649TMC3    O1 9616   0.303   2.501  12.784  0.8820  0.0799  0.2112
  649TMC3    O2 9617   0.831   2.635  13.018  0.0138  0.2754  0.6985
  650TMC3    C1 9618   2.675   4.617  12.734 -0.2817 -0.3352 -0.2974
  650TMC3    C2 9619   2.598   4.719  12.785  0.1376 -0.2079 -0.0192
  650TMC3    C3 9620   2.575   0.106  12.709 -0.0728  0.6221 -0.0708
  650TMC3    C4 9621   2.738   4.627  12.614  0.6791 -0.3162 -0.0320
  650TMC3    C5 9622   2.695   4.725  12.532  0.0026 -0.1234 -0.4611
  650TMC3    C6 9623   2.618   0.103  12.578 -0.5542  0.3708  0.2340
  650TMC3     C 9624   2.708   4.504  12.824  0.5650 -0.8499  0.4035
  650TMC3     O 9625   2.670   4.512  12.938  0.4238 -0.2991  0.0001
  650TMC3     H 9626   2.575   4.713  12.891  1.6263 -0.8176  0.2782
  650TMC3    H1 9627   2.819   4.565  12.578  0.2230 -0.5426 -0.6767
  650TMC3    H2 9628   2.593   0.179  12.505  2.3737 -0.8989 -2.1152
  650TMC3    C7 9629   2.773   0.021  12.410  0.1875  0.2581  0.0757
  650TMC3    C8 9630   2.546   0.231  12.768  0.2315  0.0545 -0.0984
  650TMC3    O1 9631   2.814   4.651  12.350  0.9589  0.1862 -0.1409
  650TMC3    O2 9632   2.527   0.320  12.691  0.7490  0.2879  0.5580
  651MPD2     C 9633   2.054   1.070  10.913 -0.2133 -0.7209  0.2951
  651MPD2    C1 9634   1.990   1.149  10.814  0.0737 -0.6186  0.4289
  651MPD2    C2 9635   2.059   1.261  10.763 -0.5484  0.3347 -0.5762
  651MPD2    C3 9636   2.194   1.287  10.797 -0.1614  0.4945 -0.4327
  651MPD2    C4 9637   2.248   1.200  10.891  0.2971 -0.3594  0.0335
  651MPD2    C5 9638   2.176   1.103  10.956 -0.5435  0.2604  0.6707
  651MPD2     H 9639   2.001   1.334  10.707  1.1273  1.5009 -0.7989
  651MPD2    H1 9640   2.350   1.213  10.925 -0.1810  1.2767  0.8245
  651MPD2    H2 9641   1.992   1.006  10.976  0.1785 -1.7986 -0.4137
  651MPD2    H3 9642   2.233   1.036  11.019 -2.8500 -2.0766  0.2462
  651MPD2     N 9643   2.263   1.398  10.747  0.4935 -0.0787 -0.0564
  651MPD2    H5 9644   2.222   1.445  10.667  0.6666 -0.8309 -0.5831
  651MPD2    N1 9645   1.851   1.148  10.791 -0.4704 -0.0168 -0.5205
  651MPD2    H7 9646   1.820   1.214  10.721  0.4015  0.4938 -0.4236
  652TMC3    C1 9647   2.578   1.748  10.691  0.4225 -0.2643  0.0486
  652TMC3    C2 9648   2.546   1.624  10.742 -0.5914  0.4199 -0.4346
  652TMC3    C3 9649   2.417   1.579  10.724  0.5003  0.0563 -0.0610
  652TMC3    C4 9650   2.483   1.835  10.652  0.5650  0.6459  0.2472
  652TMC3    C5 9651   2.353   1.797  10.664 -0.4121 -0.1039 -0.5628
  652TMC3    C6 9652   2.319   1.664  10.684  1.1665  0.6161 -0.1605
  652TMC3     C 9653   2.719   1.790  10.696  0.7112  0.5031  0.1980
  652TMC3     O 9654   2.801   1.704  10.722 -0.0306 -0.2417 -0.2045
  652TMC3     H 9655   2.618   1.557  10.788 -1.9498 -0.0447  1.0295
  652TMC3    H1 9656   2.503   1.936  10.620 -1.7552  1.0093 -0.0959
  652TMC3    H2 9657   2.216   1.641  10.706  1.3874  0.3659  0.6341
  652TMC3    C7 9658   2.259   1.892  10.714 -0.0286 -0.6377 -0.8016
  652TMC3    C8 9659   2.378   1.453  10.792  0.5134  0.3150 -0.9625
  652TMC3    O1 9660   2.175   1.850  10.790 -0.6747 -0.4952 -0.3508
  652TMC3    O2 9661   2.438   1.420  10.891  0.0328 -0.2468 -0.1783
  653MPD2     C 9662   0.658   1.478  17.442  0.6074 -0.2455  0.6079
  653MPD2    C1 9663   0.536   1.544  17.456 -0.4460  0.1999  0.2623
  653MPD2    C2 9664   0.428   1.505  17.384  0.2372 -0.2652 -0.1557
  653MPD2    C3 9665   0.425   1.384  17.314 -0.4721  0.2352 -0.7566
  653MPD2    C4 9666   0.540   1.304  17.321  0.2868 -0.9396  0.7552
  653MPD2    C5 9667   0.657   1.359  17.369 -0.0958 -0.2558 -0.4713
  653MPD2     H 9668   0.341   1.567  17.398  1.8284  1.3967  2.4150
  653MPD2    H1 9669   0.547   1.208  17.272  1.5990 -0.0941 -0.7390
  653MPD2    H2 9670   0.756   1.510  17.477 -0.6236  2.9433  1.1555
  653MPD2    H3 9671   0.752   1.308  17.361 -0.2303 -0.3603 -1.4649
  653MPD2     N 9672   0.313   1.342  17.244  0.7787  0.3363 -0.1905
  653MPD2    H5 9673   0.229   1.392  17.272 -0.0769 -0.7749 -0.7982
  653MPD2    N1 9674   0.522   1.659  17.534  0.0910  0.1036  0.4352
  653MPD2    H7 9675   0.445   1.722  17.513  0.2473 -0.2816 -1.3361
  654TMC3    C1 9676   0.166   1.199  17.132 -0.4648 -0.0419  0.0602
  654TMC3    C2 9677   0.060   1.284  17.148  0.5549 -0.4424  0.0897
  654TMC3    C3 9678   4.658   1.239  17.124  0.7737 -0.9082 -0.2503
  654TMC3    C4 9679   0.147   1.074  17.074  0.2159  0.0394 -0.1931
  654TMC3    C5 9680   0.019   1.030  17.060  0.2322  0.2681  0.2303
  654TMC3    C6 9681   4.635   1.113  17.087 -0.2169  0.8700  0.2243
  654TMC3     C 9682   0.306   1.244  17.147  0.1543 -0.4377 -0.5184
  654TMC3     O 9683   0.402   1.177  17.107 -0.4865  0.0387  0.4277
  654TMC3     H 9684   0.070   1.389  17.174  1.3554 -0.0509 -1.8725
  654TMC3    H1 9685   0.231   1.007  17.061  0.0345 -0.6012  2.0443
  654TMC3    H2 9686   4.535   1.072  17.085 -0.8122  2.3552 -1.6062
  654TMC3    C7 9687   4.723   0.883  17.042  0.2405  0.6429  0.2061
  654TMC3    C8 9688   4.541   1.328  17.125  0.8186  0.0798  0.0461
  654TMC3    O1 9689   4.628   0.848  16.971 -0.8432 -0.1548  0.9935
  654TMC3    O2 9690   4.444   1.292  17.057  0.4677 -0.7327 -0.4719
  655MPD2     C 9691   1.751   1.542  15.848  0.1146  0.0218  0.1513
  655MPD2    C1 9692   1.740   1.621  15.733  0.3821  1.4152 -0.3074
  655MPD2    C2 9693   1.772   1.572  15.607  0.2404 -0.3578  1.0741
  655MPD2    C3 9694   1.817   1.445  15.590 -0.4251 -0.1800 -0.8000
  655MPD2    C4 9695   1.826   1.366  15.703 -0.3230 -0.9030  0.4003
  655MPD2    C5 9696   1.793   1.415  15.830 -0.5302  0.6371 -0.7004
  655MPD2     H 9697   1.765   1.638  15.522 -0.0015 -0.6385  0.8768
  655MPD2    H1 9698   1.871   1.267  15.709 -0.7215 -1.1495 -0.5917
  655MPD2    H2 9699   1.746   1.570  15.953 -0.2836  0.8864 -0.0941
  655MPD2    H3 9700   1.822   1.356  15.916  1.5818  1.2534 -0.9938
  655MPD2     N 9701   1.853   1.391  15.460  0.1285 -1.0264 -0.4933
  655MPD2    H5 9702   1.874   1.293  15.447  0.0083 -0.6928 -3.1427
  655MPD2    N1 9703   1.691   1.750  15.732 -0.3342 -0.5370 -0.0153
  655MPD2    H7 9704   1.654   1.800  15.651  0.6539 -1.6558 -1.1538
  656TMC3    C1 9705   1.597   1.956  15.822  0.4528 -0.4338 -0.1619
  656TMC3    C2 9706   1.545   2.013  15.933  0.1085  0.4011 -0.0201
  656TMC3    C3 9707   1.446   2.099  15.919 -0.0212  0.8264 -0.5544
  656TMC3    C4 9708   1.549   1.968  15.696 -0.0677  0.5647 -0.1607
  656TMC3    C5 9709   1.445   2.055  15.686 -0.8195  0.4351 -0.1936
  656TMC3    C6 9710   1.389   2.119  15.792  0.0503  0.1814  0.1517
  656TMC3     C 9711   1.660   1.821  15.847  0.7674  0.1941  0.4479
  656TMC3     O 9712   1.642   1.791  15.962 -0.1017 -0.2230 -0.3051
  656TMC3     H 9713   1.597   1.993  16.026 -0.8801  0.3891  0.5305
  656TMC3    H1 9714   1.600   1.931  15.608 -1.4745  1.4187 -1.3260
  656TMC3    H2 9715   1.318   2.199  15.777  0.6521  0.8101  0.6191
  656TMC3    C7 9716   1.394   2.085  15.557  0.2153 -0.0811 -0.6624
  656TMC3    C8 9717   1.372   2.132  16.036 -0.1256 -0.5943 -0.1793
  656TMC3    O1 9718   1.464   2.065  15.461  1.1385 -0.2287  0.0172
  656TMC3    O2 9719   1.285   2.217  16.018 -0.1521  0.1544  0.3228
  657TMC3    C1 9720   0.454   0.605  15.217 -0.6690 -0.0852  0.0607
  657TMC3    C2 9721   0.566   0.594  15.298  0.3633 -0.3961  0.3040
  657TMC3    C3 9722   0.609   0.715  15.348 -0.7768 -0.6814  0.3565
  657TMC3    C4 9723   0.380   0.722  15.196 -0.2506 -0.3315  0.1591
  657TMC3    C5 9724   0.433   0.839  15.242  0.1017  0.4471  0.2618
  657TMC3    C6 9725   0.544   0.830  15.316 -0.3781  0.4955  0.0465
  657TMC3     C 9726   0.367   0.486  15.196  0.1572  0.1451 -0.0819
  657TMC3     O 9727   0.246   0.506  15.166  0.7431 -0.0567  0.6705
  657TMC3     H 9728   0.611   0.499  15.323  0.4163 -1.7137 -4.8405
  657TMC3    H1 9729   0.289   0.725  15.137  0.1820  0.2783 -0.4821
  657TMC3    H2 9730   0.599   0.922  15.337 -0.0108  0.4010 -0.4825
  657TMC3    C7 9731   0.343   0.957  15.257 -0.4881 -0.5094  0.0794
  657TMC3    C8 9732   0.713   0.724  15.444 -0.2595  0.3945 -0.0810
  657TMC3    O1 9733   0.399   1.050  15.312 -0.1340 -0.0052 -0.4475
  657TMC3    O2 9734   0.748   0.833  15.486  0.1848 -0.0219 -0.4643
  658MPD2     C 9735   2.285   1.601  14.782  0.4476 -0.5145 -0.9653
  658MPD2    C1 9736   2.155   1.568  14.787  0.6651 -0.2182  0.4349
  658MPD2    C2 9737   2.071   1.601  14.684 -1.1987 -0.1861 -0.1779
  658MPD2    C3 9738   2.122   1.648  14.562 -0.4533  0.4198 -0.7791
  658MPD2    C4 9739   2.267   1.664  14.552  0.0993 -0.0485 -0.4044
  658MPD2    C5 9740   2.337   1.652  14.665 -0.0870 -0.4955  0.0207
  658MPD2     H 9741   1.964   1.586  14.692 -1.3368 -1.4813 -4.4154
  658MPD2    H1 9742   2.315   1.696  14.459  0.2885  1.1929  0.1147
  658MPD2    H2 9743   2.344   1.593  14.872 -0.4355  0.8555 -0.2545
  658MPD2    H3 9744   2.439   1.689  14.657 -0.5930  0.6321 -1.2899
  658MPD2     N 9745   2.030   1.666  14.454 -0.1149 -0.1168 -0.2002
  658MPD2    H5 9746   1.932   1.649  14.477 -0.1685  0.2538 -0.1493
  658MPD2    N1 9747   2.104   1.505  14.905 -0.3569  0.0526  0.2203
  658MPD2    H7 9748   2.164   1.510  14.987 -1.9910  0.0820  1.4337
  659TMC3    C1 9749   1.979   1.349  15.026  0.3142  0.0848 -0.0048
  659TMC3    C2 9750   1.963   1.429  15.138 -0.4042 -0.1028 -0.4900
  659TMC3    C3 9751   1.871   1.384  15.230  0.3411 -0.3286 -0.4291
  659TMC3    C4 9752   1.918   1.231  15.010  0.0856  0.9529  0.3620
  659TMC3    C5 9753   1.832   1.191  15.111 -0.8000  0.3140 -0.2186
  659TMC3    C6 9754   1.812   1.263  15.230  0.3800 -0.6198  0.7820
  659TMC3     C 9755   2.005   1.418  14.897  0.0867 -0.0348  0.1189
  659TMC3     O 9756   1.946   1.376  14.797  0.5606 -0.4580  0.4083
  659TMC3     H 9757   2.008   1.527  15.149  1.8594 -1.2325  0.2982
  659TMC3    H1 9758   1.924   1.177  14.916  0.5010  2.6358 -0.5825
  659TMC3    H2 9759   1.721   1.247  15.287  0.9108  0.3908  1.8896
  659TMC3    C7 9760   1.729   1.090  15.084  0.3719 -0.4205 -0.8736
  659TMC3    C8 9761   1.867   1.466  15.349 -0.2628 -0.5439 -0.3581
  659TMC3    O1 9762   1.685   1.035  15.182  0.6118  0.4009 -0.2789
  659TMC3    O2 9763   1.869   1.588  15.324  0.2108 -0.3158  0.2557
  660MPD2     C 9764   4.546   0.336  12.848 -0.2221  0.0566  0.2927
  660MPD2    C1 9765   4.416   0.376  12.834  0.5650 -0.2809  0.0504
  660MPD2    C2 9766   4.318   0.285  12.873  0.2444  0.1050 -0.1486
  660MPD2    C3 9767   4.345   0.165  12.937  0.4012  0.5533  0.2226
  660MPD2    C4 9768   4.472   0.128  12.955  0.6301  0.1467 -0.2363
  660MPD2    C5 9769   4.568   0.210  12.904 -0.1545 -0.0091  0.2972
  660MPD2     H 9770   4.213   0.306  12.853  0.0511 -1.0026 -0.3255
  660MPD2    H1 9771   4.505   0.029  12.985  1.1217 -0.6568 -3.4240
  660MPD2    H2 9772   4.627   0.399  12.812 -2.4575  1.8296 -1.6914
  660MPD2    H3 9773   4.668   0.170  12.917  0.3319  1.0995 -0.0903
  660MPD2     N 9774   4.242   0.073  12.978  0.4125 -0.2011 -0.6552
  660MPD2    H5 9775   4.272   4.715  13.027 -1.0774 -1.0110 -1.1188
  660MPD2    N1 9776   4.392   0.496  12.765  0.1726 -0.0801 -0.3527
  660MPD2    H7 9777   4.471   0.540  12.719 -0.0631  0.8929  0.1695
  661TMC3    C1 9778   4.273   0.693  12.694 -0.2334 -0.3938 -0.1857
  661TMC3    C2 9779   4.372   0.719  12.598  0.0111  0.4379 -1.0175
  661TMC3    C3 9780   4.329   0.802  12.497  0.2037  0.7069  0.9642
  661TMC3    C4 9781   4.150   0.754  12.701  0.5574  0.2420  0.2804
  661TMC3    C5 9782   4.115   0.826  12.587  0.3105  0.5564  0.3458
  661TMC3    C6 9783   4.204   0.852  12.489 -0.4981 -0.5268 -0.6647
  661TMC3     C 9784   4.272   0.563  12.762  0.1476 -0.2575 -0.5768
  661TMC3     O 9785   4.160   0.525  12.807  0.0376 -0.2895  0.1408
  661TMC3     H 9786   4.465   0.666  12.585 -0.7292 -0.9623 -0.5872
  661TMC3    H1 9787   4.076   0.734  12.778 -0.6874  1.9297 -0.4706
  661TMC3    H2 9788   4.172   0.907  12.401 -0.7714  0.7873  0.2544
  661TMC3    C7 9789   3.977   0.808  12.550  0.9360 -0.7717 -0.3582
  661TMC3    C8 9790   4.414   0.817  12.382  0.8391  0.6799  0.2279
  661TMC3    O1 9791   3.892   0.863  12.620 -0.7868 -0.0911  0.0257
  661TMC3    O2 9792   4.507   0.738  12.369 -0.4024  0.0704  0.0347
  662MPD2     C 9793   3.977   0.225  17.301 -0.2801 -0.6721 -0.5112
  662MPD2    C1 9794   4.116   0.229  17.330  0.0610  0.2491 -0.8401
  662MPD2    C2 9795   4.173   0.339  17.384 -0.9188  0.4041 -0.2078
  662MPD2    C3 9796   4.088   0.433  17.445 -0.3454 -0.3577  0.5384
  662MPD2    C4 9797   3.947   0.418  17.441  0.4494 -0.2077  0.2563
  662MPD2    C5 9798   3.894   0.321  17.360 -0.8382  0.4113  0.7094
  662MPD2     H 9799   4.281   0.356  17.385 -1.1237  1.7087 -0.1389
  662MPD2    H1 9800   3.884   0.479  17.505 -0.4823 -0.5314 -0.3480
  662MPD2    H2 9801   3.915   0.161  17.239  0.2968 -0.8750 -0.8770
  662MPD2    H3 9802   3.787   0.311  17.349 -0.6124  1.5118 -2.5770
  662MPD2     N 9803   4.144   0.541  17.517 -0.6828 -0.2531  0.2692
  662MPD2    H5 9804   4.081   0.579  17.587  0.5932  1.3045  0.5637
  662MPD2    N1 9805   4.204   0.121  17.293 -0.0258 -0.1742 -0.1218
  662MPD2    H7 9806   4.303   0.134  17.309  0.0827  0.8396 -1.6381
  663TMC3    C1 9807   4.264   4.626  17.249  0.4418 -0.5048  0.2189
  663TMC3    C2 9808   4.303   4.596  17.382  0.3401 -0.5164  0.1791
  663TMC3    C3 9809   4.376   4.483  17.401 -0.0603 -0.2936  0.3857
  663TMC3    C4 9810   4.285   4.546  17.145 -0.4650 -0.8053  0.1392
  663TMC3    C5 9811   4.351   4.435  17.166 -0.9045 -0.5953  0.3923
  663TMC3    C6 9812   4.394   4.401  17.292  0.0975  0.4562  0.1148
  663TMC3     C 9813   4.163   0.001  17.235 -0.2581 -0.3194 -0.5106
  663TMC3     O 9814   4.056   4.687  17.187  0.5068  0.4850  0.3851
  663TMC3     H 9815   4.248   4.642  17.463  1.6967 -1.9050  1.8847
  663TMC3    H1 9816   4.263   4.585  17.046 -1.5108 -1.4526  0.1239
  663TMC3    H2 9817   4.463   4.317  17.299  1.7181  1.9276  1.8000
  663TMC3    C7 9818   4.356   4.345  17.050  0.7365  0.3093  0.6843
  663TMC3    C8 9819   4.483   4.491  17.492 -0.5401  0.4053  1.0001
  663TMC3    O1 9820   4.278   4.373  16.959 -0.2995 -0.1573 -0.6841
  663TMC3    O2 9821   4.580   4.416  17.485  0.2664 -0.1493 -0.0982
  664MPD2     C 9822   2.638   3.273   0.229  0.2527 -0.0694 -0.6152
  664MPD2    C1 9823   2.759   3.209   0.235 -0.3151  0.1102  0.0382
  664MPD2    C2 9824   2.791   3.139   0.349 -1.0729 -0.0355  0.2165
  664MPD2    C3 9825   2.698   3.120   0.449 -0.5571  0.0891  0.3116
  664MPD2    C4 9826   2.569   3.171   0.429  0.7347 -0.3487  0.1907
  664MPD2    C5 9827   2.541   3.247   0.322 -0.2940 -0.0733  1.0965
  664MPD2     H 9828   2.892   3.102   0.361 -1.4825 -0.8789  1.0254
  664MPD2    H1 9829   2.497   3.168   0.510  0.1293 -1.8004 -0.3866
  664MPD2    H2 9830   2.619   3.342   0.148  1.7929  0.5722 -0.4375
  664MPD2    H3 9831   2.446   3.297   0.326  0.4371  1.1933  2.2994
  664MPD2     N 9832   2.735   3.053   0.566  0.0591 -0.2695  0.4324
  664MPD2    H5 9833   2.832   3.024   0.573 -0.1625 -1.4816 -1.4765
  664MPD2    N1 9834   2.854   3.221   0.133  0.0287 -0.5541  0.5854
  664MPD2    H7 9835   2.948   3.185   0.147  0.1693 -0.9798 -1.6011
  665TMC3    C1 9836   2.738   2.980   0.795 -0.0879  0.0700 -0.6559
  665TMC3    C2 9837   2.669   2.973   0.907  0.3726 -1.0112 -0.0097
  665TMC3    C3 9838   2.725   3.000   1.031  0.1781 -0.4013  0.3182
  665TMC3    C4 9839   2.875   3.008   0.804 -0.4214  0.8901  0.6804
  665TMC3    C5 9840   2.936   3.034   0.926  0.4610 -0.5322  0.8338
  665TMC3    C6 9841   2.861   3.033   1.042  0.4891  0.5662 -0.2200
  665TMC3     C 9842   2.665   3.038   0.683 -0.6537 -0.8729  0.3568
  665TMC3     O 9843   2.550   3.067   0.705 -0.1119  0.1123 -0.5963
  665TMC3     H 9844   2.569   2.933   0.905 -0.0690  0.0587  0.9091
  665TMC3    H1 9845   2.929   3.015   0.710 -2.5109  0.9242 -0.5307
  665TMC3    H2 9846   2.908   3.037   1.140  2.0960  1.0775 -1.0115
  665TMC3    C7 9847   3.060   3.095   0.927  1.1360 -0.6134  0.2899
  665TMC3    C8 9848   2.641   2.998   1.151 -0.5198  0.9200  0.6372
  665TMC3    O1 9849   3.120   3.082   0.823 -0.6189  0.1772 -0.2668
  665TMC3    O2 9850   2.707   2.987   1.256  0.4393  0.6113 -0.6138
  666TMC3    C1 9851   1.165   3.149  10.120  0.1754  0.1065  0.0031
  666TMC3    C2 9852   1.289   3.112  10.082 -0.1508 -0.3680  0.0257
  666TMC3    C3 9853   1.379   3.216  10.070 -0.6417  0.5501 -0.1301
  666TMC3    C4 9854   1.121   3.274  10.138 -0.0383 -0.0066  0.6906
  666TMC3    C5 9855   1.215   3.369  10.132  0.2896 -0.1638  0.0199
  666TMC3    C6 9856   1.344   3.343  10.097  0.2040 -0.0434 -1.0884
  666TMC3     C 9857   1.088   3.049  10.193 -0.3758  0.2559 -0.7518
  666TMC3     O 9858   0.967   3.063  10.209  0.0362  0.6933  0.1551
  666TMC3     H 9859   1.313   3.010  10.055  1.5778 -0.5517  2.2811
  666TMC3    H1 9860   1.018   3.293  10.164 -0.0215 -0.6803  1.2394
  666TMC3    H2 9861   1.416   3.424  10.091 -1.1863  1.2931  0.2574
  666TMC3    C7 9862   1.190   3.493  10.214  0.3027 -0.0082  0.1948
  666TMC3    C8 9863   1.516   3.165  10.071  0.2633  0.4041 -0.3099
  666TMC3    O1 9864   1.260   3.591  10.186  0.0671  0.4025  0.1700
  666TMC3    O2 9865   1.531   3.046  10.104  0.1480 -0.0802  0.0424
  667MPD2     C 9866   3.419   2.984  14.753  0.3031  0.0473 -0.1229
  667MPD2    C1 9867   3.318   3.067  14.803  0.0048 -0.6973 -0.2936
  667MPD2    C2 9868   3.199   3.093  14.733 -0.1230 -0.3173 -1.1298
  667MPD2    C3 9869   3.177   3.023  14.617 -0.3302  0.2888  0.8350
  667MPD2    C4 9870   3.273   2.946  14.564  0.2347 -0.0510  0.1767
  667MPD2    C5 9871   3.388   2.923  14.636 -0.2033  0.2771  0.2197
  667MPD2     H 9872   3.119   3.144  14.785 -1.2095 -3.4998  0.2880
  667MPD2    H1 9873   3.255   2.898  14.468 -0.3369 -1.1165  0.8079
  667MPD2    H2 9874   3.514   2.953  14.796  0.2983  2.0796  1.3927
  667MPD2    H3 9875   3.460   2.848  14.605  0.7779  1.9324 -1.5965
  667MPD2     N 9876   3.067   3.042  14.533 -0.0642 -0.4687 -0.3685
  667MPD2    H5 9877   3.051   2.979  14.455  1.9173  1.1587 -2.0895
  667MPD2    N1 9878   3.360   3.142  14.921 -0.0986 -1.0698 -0.4932
  667MPD2    H7 9879   3.293   3.206  14.964  2.3864  0.5214  0.9835
  668TMC3    C1 9880   3.482   3.170  15.123 -0.0890  0.1321 -0.3102
  668TMC3    C2 9881   3.594   3.237  15.160  0.4171  0.0095 -0.2370
  668TMC3    C3 9882   3.633   3.225  15.289 -0.3106 -0.6178  0.2913
  668TMC3    C4 9883   3.405   3.096  15.215  0.3086 -0.4710  0.5117
  668TMC3    C5 9884   3.444   3.099  15.345 -0.1729 -0.1118  0.5033
  668TMC3    C6 9885   3.561   3.165  15.387  0.1659  0.1134 -0.2405
  668TMC3     C 9886   3.478   3.124  14.986  0.1238  0.3665  0.0745
  668TMC3     O 9887   3.592   3.120  14.945  0.4783  0.2916 -0.1898
  668TMC3     H 9888   3.640   3.309  15.094  2.1352  0.6874  1.7074
  668TMC3    H1 9889   3.322   3.037  15.180  1.3914  0.0801 -2.9769
  668TMC3    H2 9890   3.604   3.165  15.486  0.5037  0.6149 -0.3848
  668TMC3    C7 9891   3.383   3.018  15.441 -0.1178 -0.2169 -0.0448
  668TMC3    C8 9892   3.753   3.288  15.333  0.0170 -0.8856  0.5457
  668TMC3    O1 9893   3.368   2.899  15.421  0.3292 -0.6066 -0.0713
  668TMC3    O2 9894   3.755   3.330  15.448  0.3046 -0.8056  0.4708
  669TMC3    C1 9895   1.872   2.966  14.542  0.4676 -0.0328 -0.2761
  669TMC3    C2 9896   1.806   2.905  14.434 -0.2709 -0.0739 -0.9644
  669TMC3    C3 9897   1.769   2.982  14.323 -0.8315  0.3606 -0.1958
  669TMC3    C4 9898   1.927   3.094  14.533  0.4224 -0.1160  0.5551
  669TMC3    C5 9899   1.901   3.157  14.414  0.0321  0.2115 -0.3731
  669TMC3    C6 9900   1.812   3.115  14.320 -0.1908  0.0489  0.1899
  669TMC3     C 9901   1.918   2.877  14.644  0.7189  0.5183  0.1593
  669TMC3     O 9902   1.854   2.781  14.666  0.0383  0.8959  0.4669
  669TMC3     H 9903   1.770   2.803  14.438 -0.3701  0.2125  4.6979
  669TMC3    H1 9904   1.992   3.139  14.607  2.1275  0.4258 -1.2610
  669TMC3    H2 9905   1.772   3.191  14.254 -2.2751 -1.4384 -0.2341
  669TMC3    C7 9906   1.983   3.270  14.391  0.4025  0.7976 -0.4125
  669TMC3    C8 9907   1.634   2.943  14.279  0.8640 -0.6079  0.0644
  669TMC3    O1 9908   2.024   3.334  14.489  0.2213  0.1363  0.3970
  669TMC3    O2 9909   1.592   2.829  14.298  0.1158 -0.2382  0.2006
  670MPD2     C 9910   4.702   1.005  13.317 -0.4306  0.7812 -0.3461
  670MPD2    C1 9911   0.062   0.990  13.424  0.2272 -0.4203 -0.3370
  670MPD2    C2 9912   0.014   0.927  13.536 -0.5342 -0.5369  1.1422
  670MPD2    C3 9913   4.611   0.895  13.560  0.1230  0.4530  0.1111
  670MPD2    C4 9914   4.527   0.926  13.459 -0.3764  0.0722 -0.3679
  670MPD2    C5 9915   4.563   0.974  13.337 -0.0760 -0.0093 -0.1780
  670MPD2     H 9916   0.083   0.913  13.619  0.4196 -0.3445  0.3780
  670MPD2    H1 9917   4.424   0.891  13.466 -0.2077 -0.7228 -2.0204
  670MPD2    H2 9918   4.724   1.050  13.221  1.9713 -0.2160 -0.2505
  670MPD2    H3 9919   4.494   0.980  13.254  0.6343 -0.6533 -0.8139
  670MPD2     N 9920   4.565   0.838  13.684 -0.0644  0.5268  0.0327
  670MPD2    H5 9921   4.632   0.836  13.759 -0.6799 -0.2987  0.5522
  670MPD2    N1 9922   0.194   1.035  13.422  0.2534 -1.1038  0.3444
  670MPD2    H7 9923   0.246   1.027  13.509 -0.4161 -0.5640  0.7912
  671TMC3    C1 9924   4.408   0.782  13.855  0.1881 -0.1665  0.0359
  671TMC3    C2 9925   4.507   0.789  13.955  0.2181  0.2639  0.1715
  671TMC3    C3 9926   4.475   0.729  14.076 -0.2753  0.0294 -0.9963
  671TMC3    C4 9927   4.275   0.756  13.883 -0.5885  0.1420 -0.2232
  671TMC3    C5 9928   4.259   0.696  14.006  0.3436  0.2585  0.0140
  671TMC3    C6 9929   4.353   0.679  14.107  1.2158 -0.4267  0.2803
  671TMC3     C 9930   4.435   0.809  13.713 -0.4144  0.4620  0.1870
  671TMC3     O 9931   4.344   0.775  13.633  0.2930  0.6579  0.4219
  671TMC3     H 9932   4.611   0.803  13.929 -0.2446  1.1540 -1.1937
  671TMC3    H1 9933   4.203   0.748  13.802  0.5452 -2.2683 -0.9965
  671TMC3    H2 9934   4.342   0.600  14.181  1.0241 -0.0876  0.6116
  671TMC3    C7 9935   4.146   0.609  14.004  0.2643 -0.4065 -0.3630
  671TMC3    C8 9936   4.588   0.681  14.147  0.4532 -0.1462  0.6390
  671TMC3    O1 9937   4.161   0.491  14.024  0.1990  0.5912 -0.3133
  671TMC3    O2 9938   4.686   0.646  14.084  0.4838  0.1920 -0.3191
  672MPD2     C 9939   0.277   0.958   0.947  0.5855 -0.2017  0.2205
  672MPD2    C1 9940   0.406   0.989   0.976 -0.6697  0.0483 -0.0757
  672MPD2    C2 9941   0.438   1.023   1.106  0.7291  0.0544  0.4956
  672MPD2    C3 9942   0.338   1.041   1.205  0.4280 -0.1667 -0.1318
  672MPD2    C4 9943   0.208   1.008   1.175 -0.1444 -0.1864  0.6425
  672MPD2    C5 9944   0.178   0.974   1.046  0.7987  0.2267 -0.4117
  672MPD2     H 9945   0.542   1.046   1.126  1.3628 -0.8875 -1.7140
  672MPD2    H1 9946   0.123   1.012   1.242 -2.6412 -0.3949 -2.5054
  672MPD2    H2 9947   0.242   0.912   0.855  0.6322 -0.4590  0.3314
  672MPD2    H3 9948   0.076   0.943   1.025  0.6822 -0.1793  0.7247
  672MPD2     N 9949   0.362   1.066   1.345  1.1301  0.0717 -0.2615
  672MPD2    H5 9950   0.286   1.056   1.410  1.4874 -1.5938 -0.0961
  672MPD2    N1 9951   0.512   0.977   0.880 -0.1283 -0.1566  0.6486
  672MPD2    H7 9952   0.601   1.011   0.915 -0.9606  2.5976  0.1086
  673TMC3    C1 9953   0.628   0.938   0.676  0.5033 -0.2328  0.0196
  673TMC3    C2 9954   0.724   0.847   0.699  0.3001 -1.0959  0.0387
  673TMC3    C3 9955   0.806   0.824   0.592 -0.2488  0.7099 -0.3733
  673TMC3    C4 9956   0.614   1.011   0.555 -0.0447  0.5878 -0.6922
  673TMC3    C5 9957   0.692   0.972   0.449 -0.4720  0.1132  0.0669
  673TMC3    C6 9958   0.792   0.874   0.462 -1.1550 -0.1210  0.7043
  673TMC3     C 9959   0.505   0.930   0.753  0.4137  0.4359  0.7421
  673TMC3     O 9960   0.408   0.906   0.680 -0.1494  0.3553  0.5156
  673TMC3     H 9961   0.718   0.788   0.790 -0.7733 -1.1239 -0.0510
  673TMC3    H1 9962   0.528   1.075   0.539 -0.8329 -0.1367  0.6549
  673TMC3    H2 9963   0.858   0.838   0.384 -1.2832 -0.8352  0.9233
  673TMC3    C7 9964   0.682   1.042   0.331 -0.3022 -0.4832  0.3954
  673TMC3    C8 9965   0.900   0.711   0.616  0.0946  0.3076 -0.5069
  673TMC3    O1 9966   0.729   0.996   0.230 -0.1992 -0.2363  0.1242
  673TMC3    O2 9967   0.934   0.651   0.517 -0.2125  0.2485  0.0630
  674MPD2     C 9968   4.630   0.743  17.397  0.2190  0.4279  0.4386
  674MPD2    C1 9969   0.025   0.696  17.449  0.1825 -0.0922  0.1762
  674MPD2    C2 9970   0.112   0.789  17.512 -0.4062 -0.8734 -0.0034
  674MPD2    C3 9971   0.097   0.929  17.499 -0.1002 -0.1146  0.1172
  674MPD2    C4 9972   4.719   0.971  17.424  0.1261  0.2860  0.7480
  674MPD2    C5 9973   4.622   0.879  17.377 -1.0021  0.2572  0.3063
  674MPD2     H 9974   0.188   0.749  17.577 -0.3788 -1.5107 -0.4246
  674MPD2    H1 9975   4.691   1.076  17.415 -3.1850 -0.8533 -2.3916
  674MPD2    H2 9976   4.549   0.684  17.355  0.4813 -0.4366  1.1460
  674MPD2    H3 9977   4.528   0.923  17.346  0.0355  2.2604  0.0212
  674MPD2     N 9978   0.173   1.010  17.586  0.0826  0.0787  0.6477
  674MPD2    H5 9979   0.228   0.964  17.658  1.1850  3.7751  2.1635
  674MPD2    N1 9980   0.046   0.559  17.464  0.0201 -0.3576  0.5232
  674MPD2    H7 9981   4.689   0.500  17.471  1.8219 -2.8719  0.3702
  675TMC3    C1 9982   0.164   0.364  17.548 -0.1906 -0.2030  0.0113
  675TMC3    C2 9983   0.043   0.289  17.528  0.0249 -0.5481  0.0565
  675TMC3    C3 9984   0.008   0.204  17.627 -0.4266  0.0641 -0.2083
  675TMC3    C4 9985   0.233   0.354  17.664  0.1888 -0.9514 -0.1121
  675TMC3    C5 9986   0.193   0.274   0.060 -0.0767 -0.4499  0.5297
  675TMC3    C6 9987   0.083   0.195   0.040 -1.0582  0.6136  0.5232
  675TMC3     C 9988   0.170   0.504  17.494  1.0726  0.0885  1.0752
  675TMC3     O 9989   0.278   0.558  17.485 -0.0933 -0.1858 -0.0799
  675TMC3     H 9990   4.714   0.297  17.434  0.6455  2.0097 -0.0786
  675TMC3    H1 9991   0.312   0.426  17.679  0.4328 -1.4627  1.0703
  675TMC3    H2 9992   0.047   0.133   0.121  1.5410 -0.9774  0.4438
  675TMC3    C7 9993   0.211   0.329   0.194 -0.0679  0.2658  0.2329
  675TMC3    C8 9994   4.597   0.232  17.656  0.0668  0.4257 -0.3689
  675TMC3    O1 9995   0.111   0.322   0.269  0.1065 -0.4008  0.1364
  675TMC3    O2 9996   4.512   0.217  17.566  0.0111  0.2439 -0.2416
  676MPD2     C 9997   3.338   4.203  11.026  0.4402  0.3079 -0.1731
  676MPD2    C1 9998   3.211   4.191  11.059 -0.7052 -0.6475  0.3643
  676MPD2    C2 9999   3.123   4.124  10.969  0.6170  0.1568 -0.6254
  676MPD2    C310000   3.168   4.065  10.849 -0.4179  0.3243 -0.7235
  676MPD2    C410001   3.293   4.095  10.813 -0.8850 -0.2537  0.3343
  676MPD2    C510002   3.377   4.160  10.902 -0.5759  0.3902  0.6274
  676MPD2     H10003   3.025   4.115  11.014  1.3577 -1.3790  0.6795
  676MPD2    H110004   3.328   4.078  10.712 -0.0081  2.2002  0.2320
  676MPD2    H210005   3.412   4.254  11.087 -1.7150  0.3194  2.3885
  676MPD2    H310006   3.476   4.176  10.863 -0.6951 -3.5318 -1.3008
  676MPD2     N10007   3.084   4.006  10.756 -0.2082 -0.2336 -0.7328
  676MPD2    H510008   3.120   3.988  10.662 -0.4366 -2.4887 -0.3873
  676MPD2    N110009   3.159   4.224  11.185  0.0674 -0.5083  0.7526
  676MPD2    H710010   3.066   4.189  11.205  0.4872 -1.6211  0.7469
  677TMC3    C110011   3.112   4.331  11.392  0.0737 -0.0444 -0.0740
  677TMC3    C210012   2.978   4.304  11.374  0.4182  0.6698 -0.5357
  677TMC3    C310013   2.879   4.346  11.464  0.0707  0.8318 -0.2599
  677TMC3    C410014   3.160   4.381  11.508  0.6318  0.0754 -0.2046
  677TMC3    C510015   3.060   4.417  11.600  0.9269  0.8079 -0.1687
  677TMC3    C610016   2.923   4.406  11.579 -0.0051 -0.6316  0.3638
  677TMC3     C10017   3.211   4.308  11.282 -0.3286  0.2496  0.0758
  677TMC3     O10018   3.302   4.394  11.277  0.0836 -0.0894 -0.0344
  677TMC3     H10019   2.942   4.273  11.277 -1.7952  0.9746  0.1908
  677TMC3    H110020   3.265   4.403  11.523  0.1870  1.7496  0.3762
  677TMC3    H210021   2.854   4.461  11.642 -0.1512  0.0776 -0.4198
  677TMC3    C710022   3.103   4.475  11.725 -0.7107 -0.0323 -0.9419
  677TMC3    C810023   2.743   4.360  11.424 -0.2760  0.3988  0.7937
  677TMC3    O110024   3.037   4.438  11.821  0.6192  0.3518  0.5111
  677TMC3    O210025   2.734   4.387  11.305 -0.5385 -0.5727  0.3599
  678MPD2     C10026   4.275   4.471   1.769  0.6612  0.1588 -0.7361
  678MPD2    C110027   4.316   4.402   1.655 -0.0872  0.3695 -0.1885
  678MPD2    C210028   4.241   4.291   1.609 -0.0179  0.2829  0.2963
  678MPD2    C310029   4.122   4.260   1.659 -0.3079  0.2857  0.0234
  678MPD2    C410030   4.081   4.333   1.771  0.3155 -0.2172  0.4499
  678MPD2    C510031   4.148   4.434   1.821  0.4522 -0.5864 -0.3738
  678MPD2     H10032   4.269   4.240   1.518  2.0682  2.4428 -0.2822
  678MPD2    H110033   3.985   4.315   1.818 -0.4532  3.7228  0.3876
  678MPD2    H210034   4.334   4.544   1.823 -0.7646 -0.1942  1.3377
  678MPD2    H310035   4.107   4.489   1.905  0.8628 -0.9570  0.0738
  678MPD2     N10036   4.038   4.168   1.594  0.5940 -0.1742 -0.0552
  678MPD2    H510037   4.072   4.104   1.522 -1.1988 -1.2648  0.0601
  678MPD2    N110038   4.440   4.431   1.603 -0.0375  0.2854  0.1385
  678MPD2    H710039   4.473   4.373   1.527 -0.6096 -0.9017  0.8063
  679TMC3    C110040   0.083   4.470   1.426  0.1603 -0.3147  0.5066
  679TMC3    C210041   4.713   4.455   1.519 -0.2132 -0.2896  0.0143
  679TMC3    C310042   4.628   4.559   1.527 -0.6611 -1.3810 -0.3882
  679TMC3    C410043   0.107   4.585   1.346 -0.2946 -0.5746 -0.2459
  679TMC3    C510044   0.026   4.691   1.379  0.4370 -0.0431  0.6741
  679TMC3    C610045   4.648   4.680   1.468  0.1384 -0.5184  0.8750
  679TMC3     C10046   0.149   4.342   1.402  0.2374 -0.0478 -0.0171
  679TMC3     O10047   0.148   4.259   1.489  0.7612 -0.6773 -0.2896
  679TMC3     H10048   4.691   4.360   1.566  0.9089 -1.1389 -1.1761
  679TMC3    H110049   0.191   4.598   1.277  1.1948 -0.5115  1.5809
  679TMC3    H210050   4.575   0.034   1.480  0.3295 -0.0351 -1.1805
  679TMC3    C710051   0.012   0.077   1.289 -0.1020 -0.1522  0.7598
  679TMC3    C810052   4.511   4.554   1.618  0.3322 -0.1841  0.0872
  679TMC3    O110053   4.627   0.131   1.289  0.0498  0.1461 -0.2482
  679TMC3    O210054   4.469   4.656   1.663  0.0210 -0.0171 -0.1404
  680MPD2     C10055   4.626   2.946  13.106  0.0942  0.4503  0.6161
  680MPD2    C110056   4.643   2.858  13.209  0.0580  0.0502 -1.1774
  680MPD2    C210057   0.020   2.874  13.299  0.4560 -0.2402  0.1821
  680MPD2    C310058   0.108   2.981  13.289 -0.1822  0.0569 -0.2620
  680MPD2    C410059   0.088   3.071  13.187 -0.9293  0.0983 -0.1925
  680MPD2    C510060   4.709   3.051  13.099 -0.4515  0.9077 -0.4182
  680MPD2     H10061   0.037   2.797  13.373  3.6208 -0.3037 -0.6392
  680MPD2    H110062   0.152   3.158  13.183  1.8253 -1.8199  2.3549
  680MPD2    H210063   4.538   2.942  13.043  1.1198 -0.1741 -0.7758
  680MPD2    H310064   4.699   3.122  13.018 -1.7936  0.6292 -0.4979
  680MPD2     N10065   0.222   2.994  13.367 -0.0650 -0.0941  0.7209
  680MPD2    H510066   0.291   3.067  13.353  0.3844 -0.6055  0.2660
  680MPD2    N110067   4.560   2.742  13.221  0.7296 -0.4959 -0.2124
  680MPD2    H710068   4.576   2.684  13.303 -1.8410 -1.8253 -0.6363
  681TMC3    C110069   4.414   2.576  13.169 -0.8157  0.0092  0.0771
  681TMC3    C210070   4.315   2.543  13.256 -0.3926 -0.7955 -0.6203
  681TMC3    C310071   4.329   2.427  13.326  0.4435 -0.1555  0.0620
  681TMC3    C410072   4.525   2.497  13.158  0.8153  0.4288  0.5043
  681TMC3    C510073   4.524   2.371  13.217  0.1190  0.7813 -0.2593
  681TMC3    C610074   4.426   2.336  13.307 -0.1176  0.3356  0.5196
  681TMC3     C10075   4.438   2.717  13.157  0.1133  0.1070  0.2516
  681TMC3     O10076   4.388   2.774  13.060 -0.1961 -0.4945  1.0993
  681TMC3     H10077   4.239   2.616  13.279 -0.8266 -0.9667 -1.5215
  681TMC3    H110078   4.608   2.533  13.099  0.7371 -0.1809  0.0263
  681TMC3    H210079   4.428   2.237  13.351  0.5258 -0.2206 -0.7697
  681TMC3    C710080   4.642   2.282  13.214 -0.4019 -0.4774  0.7665
  681TMC3    C810081   4.245   2.420  13.440 -0.0960 -0.1548 -0.5867
  681TMC3    O110082   4.643   2.192  13.295 -0.3029  1.1211 -0.4862
  681TMC3    O210083   4.150   2.502  13.447  0.1406  0.2716 -0.1840
  682MPD2     C10084   1.166   4.318  11.131  0.0778 -1.1358 -0.3774
  682MPD2    C110085   1.271   4.291  11.048 -0.3151  1.0350  0.2264
  682MPD2    C210086   1.395   4.251  11.098  0.2509 -0.1774  0.4207
  682MPD2    C310087   1.420   4.249  11.237 -0.2217 -0.1794 -0.6559
  682MPD2    C410088   1.321   4.282  11.321  0.9657 -0.5409  0.0573
  682MPD2    C510089   1.187   4.297  11.268 -0.2873  0.0485 -0.1061
  682MPD2     H10090   1.465   4.229  11.018 -1.6046 -1.5460 -0.8010
  682MPD2    H110091   1.340   4.294  11.427  0.8255  1.3619 -0.1268
  682MPD2    H210092   1.065   4.340  11.100  0.1681 -1.9808 -1.2605
  682MPD2    H310093   1.103   4.314  11.334 -1.0012 -1.3141 -0.6540
  682MPD2     N10094   1.542   4.217  11.292 -0.0801  0.1117  0.2168
  682MPD2    H510095   1.544   4.210  11.393 -1.9408 -0.0615  0.2556
  682MPD2    N110096   1.247   4.282  10.906  1.2353 -0.1142  0.0274
  682MPD2    H710097   1.316   4.231  10.851  1.3469  0.8570 -0.7217
  683TMC3    C110098   1.840   4.163  11.531  0.3381 -0.1261  0.2721
  683TMC3    C210099   1.899   4.041  11.510 -0.1394  0.4208  0.7472
  683TMC3    C310100   1.890   3.983  11.385 -0.0097  0.0597  0.0349
  683TMC3    C410101   1.761   4.228  11.436  0.0575  0.0399  0.0567
  683TMC3    C510102   1.766   4.167  11.307  0.0781 -0.4941 -0.2512
  683TMC3    C610103   1.825   4.047  11.284  0.2827 -0.1232  0.4134
  683TMC3     C10104   1.910   4.259  11.619 -0.1735  0.0707 -0.0266
  683TMC3     O10105   1.850   4.358  11.658 -0.0696 -0.6453 -0.4668
  683TMC3     H10106   1.960   3.986  11.581  0.5894 -0.9233 -0.9142
  683TMC3    H110107   1.711   4.322  11.457  0.4571  0.0577  0.8964
  683TMC3    H210108   1.800   3.996  11.192  0.8509 -2.2252  1.4331
  683TMC3    C710109   1.661   4.200  11.220  0.0407  0.2125 -0.2405
  683TMC3    C810110   1.891   3.837  11.370 -0.3821  0.0982  0.0424
  683TMC3    O110111   1.681   4.197  11.101  0.4443  0.8030 -0.6830
  683TMC3    O210112   1.887   3.789  11.258  0.0931 -0.3934  0.8587
  684MPD2     C10113   0.238   3.457  16.225  0.7257 -0.4441  0.5009
  684MPD2    C110114   0.169   3.448  16.107 -0.0522  0.0954 -0.1119
  684MPD2    C210115   0.076   3.543  16.066 -0.1357  0.1599  0.3657
  684MPD2    C310116   0.060   3.657  16.145 -0.0097  0.4163 -0.2631
  684MPD2    C410117   0.136   3.667  16.262  0.1763 -0.1015  0.1792
  684MPD2    C510118   0.223   3.567  16.303  0.4627 -0.3060 -0.1423
  684MPD2     H10119   0.019   3.535  15.973  1.7124 -2.2675 -0.5656
  684MPD2    H110120   0.131   3.748  16.334 -2.6705  1.7976 -2.2067
  684MPD2    H210121   0.306   3.381  16.261 -0.4279 -2.2381 -1.0844
  684MPD2    H310122   0.275   3.598  16.393 -0.0118  0.9544 -0.2952
  684MPD2     N10123   4.694   3.768  16.116 -0.2316  0.2055  0.3619
  684MPD2    H510124   4.698   3.847  16.180 -2.7516 -0.4981  1.3927
  684MPD2    N110125   0.184   3.333  16.016 -0.5391 -0.3466 -0.3470
  684MPD2    H710126   0.140   3.336  15.925 -3.5492 -1.3727  1.0417
  685TMC3    C110127   0.216   3.102  15.965  0.2049  0.6364  0.3044
  685TMC3    C210128   0.084   3.085  15.922 -0.6923  0.2489  1.1152
  685TMC3    C310129   0.059   2.980  15.832 -0.4262  0.4773 -0.5422
  685TMC3    C410130   0.312   3.014  15.932  0.0623  0.0832  0.5104
  685TMC3    C510131   0.287   2.908  15.855 -0.6266 -0.5489  0.1079
  685TMC3    C610132   0.160   2.889  15.802  0.1735 -0.1646  0.4101
  685TMC3     C10133   0.242   3.210  16.050 -0.0137 -1.2132 -0.0807
  685TMC3     O10134   0.331   3.185  16.133  0.1004 -0.1262  0.3338
  685TMC3     H10135   0.009   3.156  15.953  0.3220  1.6984  0.2624
  685TMC3    H110136   0.406   3.032  15.982 -0.3227  1.1277  0.8586
  685TMC3    H210137   0.129   2.799  15.749  0.5953 -1.0838  1.7195
  685TMC3    C710138   0.347   2.787  15.900  0.0934  0.6951 -0.2352
  685TMC3    C810139   4.649   2.949  15.796  0.0336 -0.5721  0.3549
  685TMC3    O110140   0.299   2.690  15.846  0.4398 -0.0054 -0.3654
  685TMC3    O210141   4.647   2.850  15.725 -0.0385 -0.5080  0.2025
  686MPD2     C10142   1.294   3.011  15.161 -0.3016  0.3322 -0.2666
  686MPD2    C110143   1.219   2.944  15.251  0.2877  0.0749 -0.2838
  686MPD2    C210144   1.253   2.813  15.281  0.5062 -0.2509 -0.3308
  686MPD2    C310145   1.360   2.742  15.221 -0.0680 -0.3017  0.3767
  686MPD2    C410146   1.433   2.811  15.132 -0.0934  1.1432  0.0052
  686MPD2    C510147   1.396   2.940  15.098  0.4083  0.3497 -0.9936
  686MPD2     H10148   1.185   2.759  15.346  0.5120 -0.6248 -0.6367
  686MPD2    H110149   1.508   2.749  15.085  0.1822 -0.0732  2.0240
  686MPD2    H210150   1.284   3.117  15.142 -0.0177  0.6554  1.3951
  686MPD2    H310151   1.459   2.988  15.024  1.9423  0.1461  0.1635
  686MPD2     N10152   1.398   2.609  15.261  0.3387  0.1697 -0.2222
  686MPD2    H510153   1.452   2.552  15.197  1.3827 -0.5006  1.2634
  686MPD2    N110154   1.120   3.015  15.321 -0.5223 -0.0355 -0.0133
  686MPD2    H710155   1.107   3.113  15.301  0.3167  0.2929  1.0042
  687TMC3    C110156   1.314   2.611  15.493 -0.7121 -0.4365  0.3448
  687TMC3    C210157   1.223   2.532  15.564 -0.2586 -0.3797  0.6099
  687TMC3    C310158   1.175   2.577  15.684  0.9734 -0.6589 -0.9386
  687TMC3    C410159   1.375   2.718  15.552  0.2695 -0.2735  0.5359
  687TMC3    C510160   1.322   2.758  15.674  0.3103 -0.3540  0.3817
  687TMC3    C610161   1.221   2.691  15.742 -0.1552  0.3033 -0.7513
  687TMC3     C10162   1.373   2.542  15.378 -0.3220  0.6092  0.0703
  687TMC3     O10163   1.422   2.434  15.403  0.2253  0.8334 -0.0390
  687TMC3     H10164   1.175   2.452  15.510  0.9156  0.3691 -1.5194
  687TMC3    H110165   1.455   2.763  15.494  0.9124 -2.1190 -0.0178
  687TMC3    H210166   1.164   2.718  15.829  1.0286  0.3870 -0.0042
  687TMC3    C710167   1.394   2.857  15.755  0.2948  0.0003 -1.0553
  687TMC3    C810168   1.038   2.550  15.730 -0.7416 -0.1118  0.2489
  687TMC3    O110169   1.338   2.899  15.854 -0.1976 -0.2874  0.1597
  687TMC3    O210170   1.010   2.542  15.848  0.3944  0.4303 -0.0246
  688MPD2     C10171   0.775   2.374  17.429  0.4776  0.4827  0.4769
  688MPD2    C110172   0.804   2.238  17.423  0.5657 -0.1503 -0.5022
  688MPD2    C210173   0.889   2.189  17.330  0.9361 -0.7418  0.0590
  688MPD2    C310174   0.958   2.267  17.243 -0.3871  0.7717  0.4188
  688MPD2    C410175   0.925   2.401  17.243  0.3992  0.6364  0.2844
  688MPD2    C510176   0.840   2.454  17.340 -0.0317  0.0935  0.0578
  688MPD2     H10177   0.897   2.082  17.318 -1.3705 -0.9223  0.1469
  688MPD2    H110178   0.962   2.464  17.163  2.6266 -0.2480  0.6428
  688MPD2    H210179   0.700   2.410  17.499 -1.1756 -0.8820 -0.6006
  688MPD2    H310180   0.821   2.561  17.344  0.1111  0.1327 -0.3045
  688MPD2     N10181   1.068   2.221  17.162  0.6959 -0.4356 -0.1827
  688MPD2    H510182   1.117   2.296  17.115 -1.2529  1.1842  0.3432
  688MPD2    N110183   0.738   2.136  17.499  0.1515  0.0883 -0.4615
  688MPD2    H710184   0.762   2.039  17.478 -0.7167 -1.0116  3.4033
  689TMC3    C110185   0.618   2.052  17.686  0.6094  1.0147  0.1188
  689TMC3    C210186   0.627   2.056   0.115  0.5345  0.3589 -0.5731
  689TMC3    C310187   0.612   1.941   0.184  0.0605 -0.1953 -0.0008
  689TMC3    C410188   0.595   1.938  17.610  0.2238  0.4462  0.1742
  689TMC3    C510189   0.574   1.823  17.683 -0.1203  0.1124 -0.1434
  689TMC3    C610190   0.579   1.822   0.116 -0.2929  0.7935 -0.1156
  689TMC3     C10191   0.673   2.168  17.616  0.1188  1.0373 -0.1368
  689TMC3     O10192   0.637   2.275  17.662 -0.1530  0.4630 -0.6111
  689TMC3     H10193   0.649   2.150   0.166 -0.3511 -0.7213  1.8079
  689TMC3    H110194   0.594   1.928  17.502 -0.9322 -2.5774  0.4738
  689TMC3    H210195   0.568   1.729   0.170  2.1739  1.3523  1.3238
  689TMC3    C710196   0.607   1.693  17.629 -1.3382 -0.3806 -0.0084
  689TMC3    C810197   0.638   1.943   0.326 -0.4155  0.1277  0.7145
  689TMC3    O110198   0.712   1.638  17.673 -1.0544  0.4335 -0.2874
  689TMC3    O210199   0.627   2.054   0.374  0.0025 -0.5467  0.3982
  690MPD2     C10200   2.935   3.975  15.449 -0.3673  0.0763 -0.2581
  690MPD2    C110201   2.835   3.979  15.358 -0.1012 -0.0980  0.1073
  690MPD2    C210202   2.852   4.066  15.249  0.1584 -0.0466 -0.6087
  690MPD2    C310203   2.970   4.143  15.232 -0.3652 -0.0615  0.1378
  690MPD2    C410204   3.065   4.136  15.331  0.5111  0.0979 -0.2443
  690MPD2    C510205   3.040   4.052  15.436 -0.0816  0.3992 -0.2051
  690MPD2     H10206   2.774   4.083  15.177 -0.0125  2.7998  0.2684
  690MPD2    H110207   3.163   4.182  15.330  1.4254 -1.8069  0.5485
  690MPD2    H210208   2.939   3.906  15.532 -0.2162 -1.2083 -1.3331
  690MPD2    H310209   3.116   4.059  15.514  0.5674 -1.3647 -0.6761
  690MPD2     N10210   2.989   4.231  15.118 -0.1099  0.2012 -0.3010
  690MPD2    H510211   2.915   4.241  15.048  0.0246  1.2982 -0.2826
  690MPD2    N110212   2.724   3.885  15.368  0.5859 -0.3876  0.3574
  690MPD2    H710213   2.658   3.879  15.291  0.5959 -0.7090  0.3722
  691TMC3    C110214   2.616   3.690  15.471 -0.0682  0.0524  0.3423
  691TMC3    C210215   2.529   3.666  15.574  0.2781  0.3099  0.1014
  691TMC3    C310216   2.451   3.557  15.554  0.2485 -0.2098 -0.0102
  691TMC3    C410217   2.633   3.612  15.358 -0.0643  0.6369  0.3651
  691TMC3    C510218   2.554   3.501  15.350  0.5183 -0.0866  0.1371
  691TMC3    C610219   2.469   3.469  15.453  0.1489 -0.2768 -0.2252
  691TMC3     C10220   2.705   3.806  15.483  0.6976 -0.2680 -0.1445
  691TMC3     O10221   2.738   3.836  15.597  0.2264  0.0138  0.5623
  691TMC3     H10222   2.507   3.735  15.655 -2.9805 -2.5896  1.6552
  691TMC3    H110223   2.720   3.626  15.295  1.0868 -0.9041  1.5881
  691TMC3    H210224   2.405   3.382  15.448  1.3994 -1.1131 -1.6235
  691TMC3    C710225   2.597   3.383  15.268 -0.0525  0.1345 -0.3295
  691TMC3    C810226   2.338   3.525  15.639  0.2089 -0.1203 -0.1870
  691TMC3    O110227   2.718   3.383  15.245  0.4332 -0.0316 -0.8331
  691TMC3    O210228   2.301   3.409  15.654 -0.2152  0.3091 -0.7062
  692TMC3    C110229   4.407   0.444  15.923 -0.0209  0.4837 -0.1799
  692TMC3    C210230   4.523   0.520  15.945  0.2094  0.7579 -0.0412
  692TMC3    C310231   4.646   0.457  15.960  0.6907  0.2755 -0.3070
  692TMC3    C410232   4.408   0.307  15.901 -0.1052  0.6163 -0.3056
  692TMC3    C510233   4.533   0.254  15.901  0.0382  0.0454 -0.0255
  692TMC3    C610234   4.650   0.323  15.925  0.2838  0.0634 -0.6761
  692TMC3     C10235   4.280   0.499  15.942 -0.3876  0.3959 -0.3648
  692TMC3     O10236   4.203   0.435  16.011 -0.5572  0.2488  0.2263
  692TMC3     H10237   4.511   0.617  15.992  1.6923  1.5743 -1.3485
  692TMC3    H110238   4.319   0.244  15.896 -0.7689  1.3783  2.0377
  692TMC3    H210239   0.005   0.270  15.973  0.3822 -0.7355 -1.7147
  692TMC3    C710240   4.551   0.113  15.881 -0.1573  0.6577  0.1027
  692TMC3    C810241   4.656   0.457  16.111 -0.3789 -0.6771  0.0130
  692TMC3    O110242   4.476   0.035  15.939  0.0860  0.4097 -0.2276
  692TMC3    O210243   4.636   0.347  16.164 -0.2460  0.2784 -0.1652
  693MPD2     C10244   3.712   3.483  10.590  0.5267  0.0626 -0.8925
  693MPD2    C110245   3.733   3.377  10.676 -0.4489  0.0232  0.6197
  693MPD2    C210246   3.862   3.349  10.716 -0.5913  0.4390  0.4209
  693MPD2    C310247   3.963   3.395  10.644 -0.2913  0.1586 -0.5165
  693MPD2    C410248   3.945   3.484  10.538  0.1046 -0.4801 -0.4837
  693MPD2    C510249   3.820   3.521  10.511 -0.2427 -0.5288  0.2520
  693MPD2     H10250   3.887   3.295  10.807  1.5098  0.2421 -0.2715
  693MPD2    H110251   4.032   3.524  10.486 -0.0464 -0.2655 -0.5742
  693MPD2    H210252   3.616   3.520  10.554 -0.6804  0.2327  2.4541
  693MPD2    H310253   3.799   3.599  10.439  0.2389 -0.1058  0.5652
  693MPD2     N10254   4.095   3.357  10.686 -0.8331  0.3698 -0.7847
  693MPD2    H510255   4.095   3.297  10.768 -0.9626  0.2685 -0.8573
  693MPD2    N110256   3.632   3.316  10.748  0.5259  0.1757 -0.4873
  693MPD2    H710257   3.653   3.238  10.808 -2.1274  0.6162  1.0229
  694TMC3    C110258   3.415   3.282  10.830  0.3538  0.0732 -0.0160
  694TMC3    C210259   3.300   3.228  10.776 -0.9116 -0.3710 -0.5810
  694TMC3    C310260   3.243   3.127  10.852  0.1137 -0.0849  0.7710
  694TMC3    C410261   3.476   3.229  10.950 -0.2574 -0.1408 -0.3317
  694TMC3    C510262   3.411   3.137  11.018 -0.1278 -0.4029 -1.1240
  694TMC3    C610263   3.300   3.074  10.969 -0.9425  0.1955  0.5072
  694TMC3     C10264   3.497   3.352  10.737 -0.7301 -0.7958 -0.6017
  694TMC3     O10265   3.444   3.428  10.657 -0.2003  0.1063 -0.4680
  694TMC3     H10266   3.256   3.270  10.686  0.9861  2.0926 -0.3775
  694TMC3    H110267   3.562   3.280  10.992 -0.3607  1.4392 -1.9861
  694TMC3    H210268   3.234   3.009  11.025 -1.3712  1.6738  1.7213
  694TMC3    C710269   3.423   3.145  11.164  0.1890 -0.5929  0.5839
  694TMC3    C810270   3.133   3.053  10.790  0.2781 -0.6240 -0.8887
  694TMC3    O110271   3.442   3.257  11.203 -0.0700 -0.3113  0.2491
  694TMC3    O210272   3.112   2.945  10.845  0.4446  1.0311  0.4193
  695MPD2     C10273   4.650   4.476  13.643 -0.4584  0.1498  0.6384
  695MPD2    C110274   4.612   4.577  13.730 -0.3672 -0.1264  0.7996
  695MPD2    C210275   4.509   4.660  13.692  0.6385  0.9304 -0.6229
  695MPD2    C310276   4.448   4.642  13.569 -0.8744  0.4925 -0.3478
  695MPD2    C410277   4.486   4.537  13.480 -0.0611 -0.2882 -0.8353
  695MPD2    C510278   4.588   4.450  13.524 -0.1086  0.5469 -0.4450
  695MPD2     H10279   4.474   0.015  13.756 -1.8395  0.6254 -1.5936
  695MPD2    H110280   4.445   4.515  13.382 -0.0686 -2.7597 -0.2633
  695MPD2    H210281   0.006   4.407  13.663 -0.5532  0.2472  1.3834
  695MPD2    H310282   4.620   4.373  13.454  0.6628  0.5625 -0.1055
  695MPD2     N10283   4.346   0.010  13.528 -0.3103  0.0036 -0.7447
  695MPD2    H510284   4.318   0.081  13.595  0.2690  0.7715 -1.2975
  695MPD2    N110285   4.677   4.608  13.854  0.5907  0.1374  0.7111
  695MPD2    H710286   4.634   4.671  13.920  0.0816 -0.8066  1.2796
  696TMC3    C110287   4.186   0.115  13.405  0.2878 -0.6677 -0.4967
  696TMC3    C210288   4.111   0.120  13.520 -0.0473  0.1293 -0.5291
  696TMC3    C310289   4.023   0.222  13.524 -0.7431 -0.2172  0.2081
  696TMC3    C410290   4.200   0.223  13.322 -0.2119 -0.0056  0.0766
  696TMC3    C510291   4.110   0.324  13.329 -0.3365 -0.1243  0.5160
  696TMC3    C610292   4.013   0.325  13.430 -0.5109  0.5297  0.1754
  696TMC3     C10293   4.289   0.015  13.405  0.0503 -0.2391  0.5391
  696TMC3     O10294   4.312   4.694  13.295 -0.3634 -0.3997 -0.1307
  696TMC3     H10295   4.113   0.048  13.601  0.0752 -1.2455 -1.7509
  696TMC3    H110296   4.257   0.218  13.230 -0.2974  2.3991 -0.1126
  696TMC3    H210297   3.944   0.408  13.439  0.3306  1.0491  1.7840
  696TMC3    C710298   4.134   0.447  13.259 -0.7708 -0.2664  0.0795
  696TMC3    C810299   3.975   0.264  13.660 -0.7916 -0.4350  0.1710
  696TMC3    O110300   4.198   0.440  13.152 -0.1618  0.4238 -0.2511
  696TMC3    O210301   4.017   0.210  13.760 -0.2456  0.0501  0.5367
  697MPD2     C10302   4.078   1.920  15.670  0.0614  0.6172 -0.3311
  697MPD2    C110303   4.128   1.850  15.563 -0.0004 -0.7537  0.3419
  697MPD2    C210304   4.221   1.911  15.484 -0.1849  0.2974 -0.3326
  697MPD2    C310305   4.265   2.045  15.507  0.0775 -0.1159  0.0198
  697MPD2    C410306   4.220   2.108  15.621  0.4162  0.6025  0.1756
  697MPD2    C510307   4.125   2.047  15.693 -0.6484 -0.4590  0.2807
  697MPD2     H10308   4.255   1.862  15.394 -0.1565 -0.0444 -0.1346
  697MPD2    H110309   4.262   2.201  15.658  0.6791  0.8573 -0.7713
  697MPD2    H210310   3.997   1.890  15.736 -0.4580 -0.8531 -1.6461
  697MPD2    H310311   4.081   2.110  15.769 -2.5679  2.1732 -3.0338
  697MPD2     N10312   4.357   2.106  15.419  0.2337 -0.1737  0.4536
  697MPD2    H510313   4.381   2.055  15.334 -3.0700  0.6686 -0.9808
  697MPD2    N110314   4.088   1.715  15.530  0.2421  0.7348 -0.1355
  697MPD2    H710315   4.132   1.659  15.458 -0.5886 -0.4878  0.3054
  698TMC3    C110316   4.475   2.272  15.319  0.1692 -0.3557 -0.0708
  698TMC3    C210317   4.611   2.294  15.332 -0.0063 -0.2072 -0.0288
  698TMC3    C310318   4.674   2.300  15.214 -0.1254 -0.2445  0.6885
  698TMC3    C410319   4.409   2.251  15.199 -0.7679  0.5304 -0.1476
  698TMC3    C510320   4.486   2.253  15.083  0.0040 -1.0633  0.1135
  698TMC3    C610321   4.619   2.284  15.092  0.3638  0.1561 -0.0679
  698TMC3     C10322   4.418   2.227  15.443  0.0793 -0.3857  0.0993
  698TMC3     O10323   4.450   2.280  15.546  0.1422 -0.0641 -0.1194
  698TMC3     H10324   4.659   2.308  15.428 -1.1489 -1.9776  0.7983
  698TMC3    H110325   4.310   2.206  15.201 -0.5159  0.0020  0.2897
  698TMC3    H210326   4.677   2.295  15.001  0.1470  3.9265  0.2379
  698TMC3    C710327   4.434   2.210  14.953  0.0620 -0.0503  0.3146
  698TMC3    C810328   0.089   2.267  15.224  0.2151  0.1051 -0.3073
  698TMC3    O110329   4.314   2.219  14.930  0.0148  0.2523 -0.1615
  698TMC3    O210330   0.117   2.194  15.321  0.3847 -0.2106  0.5775
  699TMC3    C110331   4.037   4.707  13.038 -0.3046  0.0651 -0.4433
  699TMC3    C210332   4.100   4.599  13.093  0.3328 -0.4928  0.0277
  699TMC3    C310333   4.021   4.491  13.125 -0.3941 -0.1178  0.1749
  699TMC3    C410334   3.902   4.707  13.003  0.0587  0.7634 -0.0557
  699TMC3    C510335   3.832   4.594  13.037  0.6535  0.5304 -0.2039
  699TMC3    C610336   3.890   4.495  13.104  0.2741 -0.5713 -0.3281
  699TMC3     C10337   4.107   0.100  12.994  0.2202 -0.9422  0.0422
  699TMC3     O10338   4.038   0.193  12.959  0.3148 -0.1842  0.1024
  699TMC3     H10339   4.206   4.593  13.115  0.4564  2.7329  0.1934
  699TMC3    H110340   3.844   0.063  12.958 -2.4466 -1.4265 -0.7980
  699TMC3    H210341   3.823   4.412  13.123  1.0891 -0.8258  1.4253
  699TMC3    C710342   3.687   4.605  13.045 -0.8843 -0.1891  0.0392
  699TMC3    C810343   4.072   4.362  13.178 -0.1631 -0.2757 -0.2653
  699TMC3    O110344   3.633   4.553  13.141  0.3395  0.2505  0.2865
  699TMC3    O210345   3.983   4.294  13.226  0.3605 -0.1071  0.3050
  700TMC3    C110346   3.147   2.457  17.664 -0.5879  0.4148  0.4103
  700TMC3    C210347   3.156   2.321  17.676 -0.2909  0.1574  0.3012
  700TMC3    C310348   3.257   2.275   0.052 -0.2959 -0.1057  0.2834
  700TMC3    C410349   3.222   2.541   0.035 -0.4051  0.0080 -0.0972
  700TMC3    C510350   3.316   2.486   0.126 -0.0562 -0.3952  0.2860
  700TMC3    C610351   3.335   2.352   0.127 -0.1336  0.2002  0.7834
  700TMC3     C10352   3.086   2.503  17.543 -0.0908 -0.0825 -0.1877
  700TMC3     O10353   2.986   2.440  17.502 -0.2617  0.2963  0.1214
  700TMC3     H10354   3.099   2.265  17.604 -0.0186  0.6970 -0.3351
  700TMC3    H110355   3.206   2.648   0.032 -0.0435  0.0363 -1.0310
  700TMC3    H210356   3.418   2.298   0.169  0.4425 -1.4485 -2.4593
  700TMC3    C710357   3.418   2.571   0.193  0.5676 -0.0507  0.3710
  700TMC3    C810358   3.333   2.167  17.693 -0.2517  0.5185 -0.1724
  700TMC3    O110359   3.413   2.689   0.160  0.7101  0.3010 -0.4481
  700TMC3    O210360   3.445   2.197  17.649 -0.3608  0.7092  0.1937
  701TMC3    C110361   3.404   1.221  15.586  0.2655 -0.3908  0.1606
  701TMC3    C210362   3.468   1.173  15.470 -0.0887  0.6686  0.0331
  701TMC3    C310363   3.579   1.249  15.434 -0.0758  0.4151  0.1160
  701TMC3    C410364   3.465   1.324  15.659 -0.4744  0.1744  0.0870
  701TMC3    C510365   3.570   1.394  15.616  0.2954 -0.8666 -0.1144
  701TMC3    C610366   3.631   1.357  15.503 -0.9161  0.0317  0.7336
  701TMC3     C10367   3.305   1.140  15.653 -0.4149  0.1525  0.3198
  701TMC3     O10368   3.297   1.025  15.636 -0.2495 -0.1305 -0.4566
  701TMC3     H10369   3.430   1.084  15.420 -1.8616  0.0730  2.4220
  701TMC3    H110370   3.421   1.334  15.757 -0.5044 -0.4183  0.1354
  701TMC3    H210371   3.718   1.416  15.476  0.6575 -1.6351  2.1530
  701TMC3    C710372   3.613   1.518  15.680 -0.1024  0.2116 -0.2175
  701TMC3    C810373   3.634   1.239  15.293  0.9490  0.2847 -0.3715
  701TMC3    O110374   3.646   1.611  15.604  0.3841 -0.1125 -0.2079
  701TMC3    O210375   3.717   1.322  15.250  0.0845  0.5258  0.8088
  702MPD2     C10376   2.847   4.204  10.125 -0.0040  0.9446 -0.1650
  702MPD2    C110377   2.940   4.133  10.198  0.6028  0.0461 -0.9668
  702MPD2    C210378   3.077   4.152  10.176 -0.5482 -0.8443 -0.8866
  702MPD2    C310379   3.127   4.239  10.090 -0.7228 -0.0232  0.0686
  702MPD2    C410380   3.038   4.294  10.001  0.0674 -0.5703  0.3372
  702MPD2    C510381   2.900   4.283  10.019  0.2164  0.2683 -0.1014
  702MPD2     H10382   3.142   4.094  10.240 -1.6297 -0.8394  0.2132
  702MPD2    H110383   3.059   4.364   9.921 -1.2317 -1.5493 -0.8567
  702MPD2    H210384   2.740   4.196  10.139  0.6019 -0.7188  3.6857
  702MPD2    H310385   2.838   4.331   9.945 -1.1793 -1.4961 -0.0800
  702MPD2     N10386   3.269   4.255  10.082  0.2526 -0.4435  0.0017
  702MPD2    H510387   3.324   4.190  10.139 -1.2731 -2.5008 -0.8715
  702MPD2    N110388   2.910   4.048  10.310 -0.0191 -0.3765 -0.0861
  702MPD2    H710389   2.988   4.011  10.364  1.1225  0.4083 -1.1966
  703TMC3    C110390   3.481   4.335  10.020  0.2143  0.9875  0.1505
  703TMC3    C210391   3.539   4.295  10.140 -0.3673 -0.4814 -0.2781
  703TMC3    C310392   3.670   4.332  10.165 -0.4396 -0.3791 -0.3628
  703TMC3    C410393   3.560   4.402   9.927 -0.3124 -0.3937 -0.1311
  703TMC3    C510394   3.691   4.431   9.965 -0.0370 -0.2876  0.3262
  703TMC3    C610395   3.753   4.392  10.079 -0.0045 -0.2287 -0.3178
  703TMC3     C10396   3.335   4.345  10.006 -0.6586  0.2640 -0.5491
  703TMC3     O10397   3.292   4.440   9.942 -0.6066  0.7738 -0.1118
  703TMC3     H10398   3.480   4.241  10.213  1.4514 -1.7759  0.2648
  703TMC3    H110399   3.521   4.438   9.833  2.9145  1.7272 -0.6412
  703TMC3    H210400   3.852   4.431  10.098 -0.3465  1.8928 -2.8447
  703TMC3    C710401   3.714   4.571   9.929  0.6617  0.2193  0.4179
  703TMC3    C810402   3.701   4.379  10.301 -0.1901 -0.6954  0.1429
  703TMC3    O110403   3.835   4.596   9.911  0.0988  0.4810  0.1298
  703TMC3    O210404   3.819   4.403  10.323 -0.3075  0.3718 -0.3370
  704TMC3    C110405   0.666   2.054  12.064 -0.1600 -0.4827 -0.6355
  704TMC3    C210406   0.797   2.081  12.063 -0.0732  0.3223 -0.4357
  704TMC3    C310407   0.877   2.024  12.160  0.0320 -0.3384  0.0489
  704TMC3    C410408   0.610   1.980  12.161 -0.5943  0.5369 -0.6052
  704TMC3    C510409   0.690   1.915  12.251  0.2641 -0.0111 -0.1902
  704TMC3    C610410   0.825   1.936  12.258  0.4892 -0.0285 -0.3827
  704TMC3     C10411   0.581   2.097  11.960 -0.5189 -0.8114 -0.5178
  704TMC3     O10412   0.460   2.105  11.979 -0.8328  0.3354  0.1563
  704TMC3     H10413   0.837   2.136  11.979 -0.0590  0.2666 -0.4653
  704TMC3    H110414   0.504   1.968  12.145 -0.4089 -0.2364 -1.2846
  704TMC3    H210415   0.898   1.893  12.325 -0.6693  1.5672  1.9065
  704TMC3    C710416   0.650   1.788  12.304 -0.0015  0.0679 -0.0513
  704TMC3    C810417   1.013   2.006  12.113 -0.1855  0.0577 -0.0006
  704TMC3    O110418   0.741   1.710  12.328  0.3696 -0.1607 -0.1910
  704TMC3    O210419   1.031   2.048  11.995 -0.3536  0.4484 -0.5044
  705MPD2     C10420   0.164   0.034  16.666 -0.5988 -0.2936  0.5213
  705MPD2    C110421   0.057   0.047  16.577 -0.0169  0.6504 -0.1533
  705MPD2    C210422   4.671   0.099  16.618 -0.0200 -0.0142  0.0234
  705MPD2    C310423   4.653   0.137  16.758 -0.3618 -0.6682 -0.0176
  705MPD2    C410424   0.040   0.125  16.837  0.5044 -0.4505  0.5494
  705MPD2    C510425   0.149   0.065  16.793  0.4308 -0.3661 -0.2980
  705MPD2     H10426   4.593   0.118  16.546 -1.1576 -0.7302  1.0560
  705MPD2    H110427   0.034   0.165  16.938  0.1186 -0.5797  0.5803
  705MPD2    H210428   0.262   0.006  16.627 -0.1557 -1.0002  2.1492
  705MPD2    H310429   0.232   0.070  16.862 -0.6229 -0.6901  0.9888
  705MPD2     N10430   4.538   0.201  16.807  0.4220  0.1457  0.2931
  705MPD2    H510431   4.545   0.222  16.906  1.0580  0.3955  0.1960
  705MPD2    N110432   0.064   0.015  16.443 -0.0671 -0.5413 -0.0409
  705MPD2    H710433   4.719   0.056  16.383  0.1556  0.8591  0.6550
  706TMC3    C110434   0.237   4.518  16.056  0.1151 -0.0451  0.7656
  706TMC3    C210435   0.224   4.633  15.977 -0.2407  0.0006  0.3171
  706TMC3    C310436   0.203   0.021  16.045 -0.0166 -0.2009  0.1893
  706TMC3    C410437   0.206   4.517  16.191 -0.5950  0.7977  0.1668
  706TMC3    C510438   0.156   4.633  16.251 -1.1669 -0.3969 -0.4030
  706TMC3    C610439   0.174   0.022  16.177 -0.0996  0.0277  0.1733
  706TMC3     C10440   0.270   4.393  15.995 -0.1614  0.7787 -0.4012
  706TMC3     O10441   0.239   4.295  16.065  0.8116 -0.6622 -0.4153
  706TMC3     H10442   0.262   4.643  15.876  0.5751 -0.8239  0.5289
  706TMC3    H110443   0.214   4.421  16.241 -0.6832  0.8326  0.2472
  706TMC3    H210444   0.151   0.114  16.229 -1.3918  0.0253 -0.4092
  706TMC3    C710445   0.155   4.647  16.393  0.1938  0.5278  0.3169
  706TMC3    C810446   0.234   0.148  15.988 -0.1615  0.2361  0.4923
  706TMC3    O110447   0.218   4.562  16.454 -0.1664  0.1371 -0.6573
  706TMC3    O210448   0.206   0.162  15.870 -0.4257 -0.3194 -0.0867
  707TMC3    C110449   2.211   3.666   2.443 -0.4067 -0.3268  0.2935
  707TMC3    C210450   2.130   3.562   2.398  0.2486  0.4998 -0.7938
  707TMC3    C310451   2.015   3.533   2.463 -1.0203 -0.8888 -0.0652
  707TMC3    C410452   2.166   3.743   2.546 -0.1502 -0.2677  0.8436
  707TMC3    C510453   2.051   3.710   2.614  0.3956 -0.3354 -0.4782
  707TMC3    C610454   1.973   3.613   2.565 -0.1946 -0.5666  0.2145
  707TMC3     C10455   2.314   3.728   2.355  0.7915  0.1655  0.0479
  707TMC3     O10456   2.303   3.711   2.230 -0.1597  0.6479 -0.1633
  707TMC3     H10457   2.152   3.518   2.301  2.0047  1.2015 -0.7115
  707TMC3    H110458   2.216   3.838   2.562 -0.0020 -0.3154  0.6609
  707TMC3    H210459   1.873   3.616   2.605 -0.2800 -0.7438  0.0163
  707TMC3    C710460   2.009   3.773   2.738 -0.4312 -0.5483  0.2031
  707TMC3    C810461   1.920   3.441   2.405 -0.2856 -0.1597 -0.0773
  707TMC3    O110462   1.891   3.778   2.773  0.0474  0.2511  0.9663
  707TMC3    O210463   1.799   3.443   2.413 -0.9351 -0.3345 -0.6011
  708MPD2     C10464   3.699   2.855  13.814 -0.3398  0.8307 -0.1426
  708MPD2    C110465   3.660   2.987  13.808 -0.9539  0.0591 -0.4910
  708MPD2    C210466   3.611   3.045  13.929  0.6981  0.1908 -0.4619
  708MPD2    C310467   3.607   2.965  14.041  0.0852  1.1500 -0.1092
  708MPD2    C410468   3.658   2.838  14.050 -0.0210  0.1731  0.2291
  708MPD2    C510469   3.691   2.781  13.928  0.1881  0.1945 -0.0245
  708MPD2     H10470   3.569   3.145  13.930 -0.1884 -0.1987  0.8231
  708MPD2    H110471   3.641   2.774  14.136  1.1401 -0.5975 -0.1102
  708MPD2    H210472   3.723   2.799  13.725  0.7342  0.1489  0.5854
  708MPD2    H310473   3.707   2.674  13.921  0.2495  0.1548  0.6942
  708MPD2     N10474   3.531   3.007  14.147  0.1298 -0.4813 -0.8179
  708MPD2    H510475   3.525   2.937  14.220 -0.1415 -0.3914 -0.7522
  708MPD2    N110476   3.651   3.051  13.679 -0.2013  0.2107  0.0390
  708MPD2    H710477   3.704   3.005  13.605  1.8929 -1.3998  2.5427
  709TMC3    C110478   3.609   3.215  13.521  0.4003  0.6645  0.7991
  709TMC3    C210479   3.545   3.126  13.438  0.0722 -0.9868 -0.0742
  709TMC3    C310480   3.449   3.182  13.358  0.5822  0.2425  0.2049
  709TMC3    C410481   3.588   3.350  13.517 -0.3690  0.2656  0.0041
  709TMC3    C510482   3.472   3.396  13.447 -0.0804  0.0607 -0.4073
  709TMC3    C610483   3.404   3.315  13.363 -0.0256  0.3667  0.0475
  709TMC3     C10484   3.603   3.176  13.659  0.0079 -0.1208 -0.4058
  709TMC3     O10485   3.566   3.268  13.734  0.1960  0.5752  0.2509
  709TMC3     H10486   3.560   3.018  13.437  1.3096 -0.7931 -1.9468
  709TMC3    H110487   3.646   3.423  13.573 -0.4656  0.6544 -0.4054
  709TMC3    H210488   3.306   3.347  13.330 -0.2945 -1.0584 -0.5480
  709TMC3    C710489   3.369   3.472  13.515 -0.2746  0.4272  0.0394
  709TMC3    C810490   3.415   3.104  13.234 -0.1026 -0.0544  0.6784
  709TMC3    O110491   3.294   3.542  13.449 -0.0284 -0.3254  0.0924
  709TMC3    O210492   3.456   2.993  13.217  0.0027 -0.1063 -1.2841
  710TMC3    C110493   4.161   0.173   0.654  0.2018 -0.2864 -0.0552
  710TMC3    C210494   4.191   0.120   0.533 -0.0640  0.6137  0.3884
  710TMC3    C310495   4.322   0.113   0.494 -0.4817  0.5474  0.2475
  710TMC3    C410496   4.258   0.194   0.752 -0.0521 -0.2947  0.0506
  710TMC3    C510497   4.388   0.178   0.709  0.1962  0.0030 -0.2581
  710TMC3    C610498   4.422   0.139   0.580 -0.6639 -0.4677 -0.1919
  710TMC3     C10499   4.014   0.175   0.684 -0.1223 -0.1885 -0.0421
  710TMC3     O10500   3.948   0.117   0.601 -0.5269 -0.0043  0.3426
  710TMC3     H10501   4.120   0.101   0.454 -0.3179  1.3462  0.4365
  710TMC3    H110502   4.232   0.234   0.849  2.5811  1.2398  0.1359
  710TMC3    H210503   4.529   0.132   0.565 -1.4411 -2.7231 -4.8278
  710TMC3    C710504   4.486   0.193   0.818 -0.4017 -0.0636 -0.0161
  710TMC3    C810505   4.356   0.057   0.364 -0.0845  0.9047 -0.3290
  710TMC3    O110506   4.435   0.192   0.928  0.4063  0.0471  0.3025
  710TMC3    O210507   4.264   0.028   0.287  0.2582 -0.0779  0.0383
  711TMC3    C110508   3.772   0.884  14.889 -0.2413  0.0957  0.6224
  711TMC3    C210509   3.759   0.913  15.024  0.9335  0.3133  0.6376
  711TMC3    C310510   3.870   0.961  15.094 -0.0078 -0.3511 -0.6346
  711TMC3    C410511   3.890   0.902  14.824  0.1931  0.5130 -0.0337
  711TMC3    C510512   3.997   0.964  14.888 -0.6514 -0.0055  0.3419
  711TMC3    C610513   3.984   0.998  15.025  0.7422  0.5065  0.2583
  711TMC3     C10514   3.662   0.820  14.809  0.3306  0.2220  0.0161
  711TMC3     O10515   3.694   0.796  14.692  0.0225 -0.5844 -0.2342
  711TMC3     H10516   3.667   0.888  15.076 -1.4330  2.7166 -2.4344
  711TMC3    H110517   3.896   0.899  14.716 -0.6786 -3.5308  0.0239
  711TMC3    H210518   4.069   1.033  15.083  0.7638 -1.4014  1.3687
  711TMC3    C710519   4.110   0.875  14.889 -0.7754 -0.0460 -0.3775
  711TMC3    C810520   3.907   0.864  15.197  0.1421 -0.1731 -0.6178
  711TMC3    O110521   4.192   0.887  14.977 -0.2686  0.0858 -0.2943
  711TMC3    O210522   3.821   0.782  15.224  0.3790  0.5642  0.0502
  712MPD2     C10523   1.114   1.748  13.692 -0.5858 -0.0968 -0.1513
  712MPD2    C110524   1.014   1.764  13.598  0.2636 -0.0374 -0.2846
  712MPD2    C210525   1.020   1.883  13.526 -0.6158 -0.0022  0.3153
  712MPD2    C310526   1.115   1.983  13.549  0.0150 -0.4444  0.2519
  712MPD2    C410527   1.215   1.963  13.649  0.4756 -0.4671 -0.1172
  712MPD2    C510528   1.210   1.847  13.723  0.1210  0.3983  0.1770
  712MPD2     H10529   0.933   1.906  13.466 -0.1757 -1.5267 -0.9021
  712MPD2    H110530   1.289   2.040  13.672 -1.0266  0.7460  0.6519
  712MPD2    H210531   1.124   1.654  13.745 -0.5474 -0.2348 -0.4046
  712MPD2    H310532   1.296   1.833  13.789  0.7015 -1.5993 -1.0087
  712MPD2     N10533   1.121   2.100  13.474  0.2642 -0.0185  0.7158
  712MPD2    H510534   1.194   2.166  13.496 -0.3378  1.2285 -1.0203
  712MPD2    N110535   0.909   1.678  13.579  0.7178  0.1694  0.3983
  712MPD2    H710536   0.844   1.697  13.503 -1.1839  0.1852  2.0225
  713TMC3    C110537   1.053   2.295  13.344  0.0391  0.4916  0.0688
  713TMC3    C210538   1.171   2.359  13.372 -0.0975  0.2690  0.2739
  713TMC3    C310539   1.165   2.495  13.383  0.4784  0.7023 -0.7867
  713TMC3    C410540   0.941   2.366  13.310 -0.1622 -0.0490 -0.1348
  713TMC3    C510541   0.943   2.502  13.310 -0.3333  0.2600  0.5849
  713TMC3    C610542   1.050   2.566  13.364  0.3000 -0.1551 -0.0077
  713TMC3     C10543   1.027   2.154  13.386 -0.4428 -0.9683 -0.1292
  713TMC3     O10544   0.920   2.109  13.359 -0.2484 -0.2859 -0.2043
  713TMC3     H10545   1.261   2.298  13.375  0.3560  0.7230 -3.7911
  713TMC3    H110546   0.851   2.316  13.278 -0.3384  0.3528 -0.2645
  713TMC3    H210547   1.041   2.674  13.373 -1.0697 -0.3028  0.3732
  713TMC3    C710548   0.824   2.552  13.371  0.2519  1.2620  0.3110
  713TMC3    C810549   1.291   2.570  13.391 -0.0943  0.0344 -0.2636
  713TMC3    O110550   0.813   2.547  13.491  0.8496 -0.2277  0.4546
  713TMC3    O210551   1.274   2.689  13.382  0.7410 -0.2090 -0.3459
  714MPD2     C10552   3.439   0.970   1.295  0.3648  0.4055 -1.1160
  714MPD2    C110553   3.323   0.894   1.288  0.3580 -0.2489  0.2264
  714MPD2    C210554   3.265   0.854   1.170  0.5586  0.2956  0.4515
  714MPD2    C310555   3.327   0.867   1.050 -0.5802 -0.3512 -0.3281
  714MPD2    C410556   3.456   0.926   1.053  0.6623 -0.0687  0.5179
  714MPD2    C510557   3.509   0.975   1.176 -0.3994  0.3625 -0.0761
  714MPD2     H10558   3.173   0.798   1.164  0.5265  0.7450 -3.0007
  714MPD2    H110559   3.521   0.914   0.967  1.7899  0.6792  1.2759
  714MPD2    H210560   3.487   0.997   1.388 -2.0227 -2.0373  0.8459
  714MPD2    H310561   3.613   1.004   1.168 -0.8290  2.2793  1.2156
  714MPD2     N10562   3.267   0.817   0.935 -0.7115  0.3982  0.4219
  714MPD2    H510563   3.172   0.783   0.943 -1.6902  2.7850 -1.1019
  714MPD2    N110564   3.266   0.855   1.411  0.4491 -0.4193  0.5594
  714MPD2    H710565   3.287   0.913   1.493 -0.8990  1.8659 -0.7101
  715TMC3    C110566   3.133   0.720   1.558  0.0825 -1.1567 -0.4008
  715TMC3    C210567   3.091   0.590   1.577  0.0253  0.1937  0.2185
  715TMC3    C310568   3.079   0.543   1.703 -0.9553  0.4431  0.4369
  715TMC3    C410569   3.160   0.796   1.667  0.2058  0.6558 -0.9571
  715TMC3    C510570   3.149   0.742   1.791  0.2883 -0.1058 -0.9142
  715TMC3    C610571   3.111   0.616   1.815  0.5473 -0.2487  0.1815
  715TMC3     C10572   3.193   0.740   1.429 -0.0317 -0.5130  0.2535
  715TMC3     O10573   3.173   0.655   1.344 -0.2683  0.0199 -0.3393
  715TMC3     H10574   3.069   0.528   1.490  0.6834 -1.1472  1.0064
  715TMC3    H110575   3.194   0.898   1.654 -2.3917  1.6532  0.0541
  715TMC3    H210576   3.103   0.573   1.914  0.8287  1.1163  0.8039
  715TMC3    C710577   3.223   0.812   1.899 -0.2458 -1.2211 -0.1037
  715TMC3    C810578   3.004   0.424   1.723 -0.0953  0.3538 -0.1017
  715TMC3    O110579   3.277   0.752   1.988 -0.1030 -0.1398 -0.0632
  715TMC3    O210580   2.966   0.397   1.835  0.0222 -0.3176 -0.6560
  716MPD2     C10581   3.039   3.714  10.155  1.1540  0.2723  0.2911
  716MPD2    C110582   2.926   3.666  10.097  0.0408  0.2054  0.1147
  716MPD2    C210583   2.905   3.531  10.084 -0.0516  0.6190 -0.1728
  716MPD2    C310584   2.991   3.440  10.137  0.0542 -0.9617  0.5433
  716MPD2    C410585   3.109   3.492  10.194 -0.0169  0.8107  0.2625
  716MPD2    C510586   3.135   3.626  10.199 -0.4309  0.0653  1.3366
  716MPD2     H10587   2.816   3.485  10.041  0.2950 -0.8765  0.7157
  716MPD2    H110588   3.193   3.431  10.226  0.8792  1.2114 -1.3091
  716MPD2    H210589   3.060   3.821  10.161 -0.9863  0.8179 -2.1164
  716MPD2    H310590   3.233   3.659  10.232  0.6781  0.1860 -2.1103
  716MPD2     N10591   2.944   3.306  10.141  0.2411  0.3415 -0.3061
  716MPD2    H510592   2.852   3.282  10.104  1.4194 -1.7347 -1.8873
  716MPD2    N110593   2.828   3.764  10.062  0.1074  0.0844  0.5940
  716MPD2    H710594   2.855   3.861  10.065  1.3917 -0.3076  1.5366
  717TMC3    C110595   2.946   3.080  10.159 -0.0017 -0.0744  0.1851
  717TMC3    C210596   2.834   3.076  10.085 -0.1986 -0.0798 -0.0162
  717TMC3    C310597   2.784   2.953  10.058  0.3868 -0.2565 -0.2552
  717TMC3    C410598   3.008   2.971  10.216  0.2084  0.5824 -0.5592
  717TMC3    C510599   2.945   2.854  10.207  0.2986  0.3869 -0.1219
  717TMC3    C610600   2.845   2.843  10.108 -0.3939 -0.2846 -0.5902
  717TMC3     C10601   3.019   3.199  10.185  0.0068  0.4069  0.1506
  717TMC3     O10602   3.141   3.200  10.214 -0.0983 -0.0163  0.2503
  717TMC3     H10603   2.796   3.167  10.040 -0.9062 -0.5514 -0.3729
  717TMC3    H110604   3.097   2.991  10.276 -0.9830 -1.7971  2.0043
  717TMC3    H210605   2.811   2.746  10.073 -0.7940 -0.4652  0.3133
  717TMC3    C710606   2.991   2.731  10.267  0.6384 -0.2942  0.5891
  717TMC3    C810607   2.685   2.948   9.952  0.1671 -0.4395  1.1888
  717TMC3    O110608   2.949   2.619  10.230 -0.0027  0.2185  0.4917
  717TMC3    O210609   2.608   3.040   9.942  0.6184 -0.6388  0.7282
  718MPD2     C10610   2.075   2.278  13.181 -0.1583 -0.4494 -0.7252
  718MPD2    C110611   2.003   2.308  13.064  0.2306  0.4228  0.0137
  718MPD2    C210612   1.904   2.219  13.025 -0.1334  0.2482 -0.9289
  718MPD2    C310613   1.875   2.110  13.104  0.5451 -0.3112 -0.1445
  718MPD2    C410614   1.952   2.077  13.215 -0.0898  0.3709  0.7449
  718MPD2    C510615   2.056   2.160  13.245 -0.2221 -0.2632 -0.2283
  718MPD2     H10616   1.842   2.233  12.937  1.0298 -1.0546 -1.9644
  718MPD2    H110617   1.926   1.991  13.275 -1.8534  0.0038 -0.5513
  718MPD2    H210618   2.142   2.350  13.227 -2.6022  1.1089  0.4014
  718MPD2    H310619   2.106   2.142  13.340 -1.2563 -1.4555  0.0870
  718MPD2     N10620   1.768   2.031  13.060  0.2715 -0.3497  0.1425
  718MPD2    H510621   1.743   2.053  12.964  0.1808  1.9715  0.6856
  718MPD2    N110622   2.017   2.423  12.982  0.1818 -0.2243 -0.1869
  718MPD2    H710623   1.939   2.442  12.919 -0.3197 -2.1803 -0.1578
  719TMC3    C110624   2.092   2.625  12.896  0.5738  1.2117 -0.1859
  719TMC3    C210625   1.962   2.636  12.854 -0.2827 -0.3928 -1.0200
  719TMC3    C310626   1.929   2.637  12.723  0.0384 -0.3869  0.0435
  719TMC3    C410627   2.194   2.630  12.803 -0.1913  0.0449 -0.8372
  719TMC3    C510628   2.154   2.648  12.676 -0.5434 -0.5623 -0.1438
  719TMC3    C610629   2.026   2.646  12.633  0.7418 -0.3537 -0.0240
  719TMC3     C10630   2.114   2.513  12.990  0.4002  0.0605  0.1945
  719TMC3     O10631   2.227   2.502  13.040  0.3025 -0.0075  0.0939
  719TMC3     H10632   1.885   2.630  12.929  1.5749 -0.2950  0.8900
  719TMC3    H110633   2.300   2.623  12.826 -0.3864  0.8876  0.2848
  719TMC3    H210634   2.005   2.653  12.527 -2.3069 -1.9085  0.4972
  719TMC3    C710635   2.245   2.631  12.567 -0.7329 -0.0707 -0.4685
  719TMC3    C810636   1.835   2.526  12.700 -0.1779 -0.8526  0.2594
  719TMC3    O110637   2.322   2.720  12.528 -0.1020 -0.4358  0.1630
  719TMC3    O210638   1.789   2.469  12.796  0.1987  0.2180 -0.3319
  720MPD2     C10639   0.363   3.962  14.109 -0.6147  0.5856  0.0465
  720MPD2    C110640   0.452   3.925  14.005 -0.0795  0.9805 -0.6525
  720MPD2    C210641   0.569   3.860  14.041 -0.0317  0.0734 -0.3016
  720MPD2    C310642   0.596   3.821  14.172  1.0372 -0.2618 -0.3743
  720MPD2    C410643   0.508   3.864  14.268 -0.2535 -0.0801 -0.3637
  720MPD2    C510644   0.393   3.934  14.237  0.2172 -0.1818  0.2313
  720MPD2     H10645   0.631   3.835  13.956 -0.1639  0.3264 -0.4708
  720MPD2    H110646   0.516   3.818  14.365 -1.1975 -0.9210 -0.6858
  720MPD2    H210647   0.266   4.009  14.098  0.4757  2.7611 -0.3872
  720MPD2    H310648   0.320   3.947  14.316  0.1658  0.1757  0.1236
  720MPD2     N10649   0.715   3.752  14.202 -0.1162 -0.3536 -0.5823
  720MPD2    H510650   0.765   3.721  14.120  2.5661  0.6808  0.6724
  720MPD2    N110651   0.428   3.960  13.871 -0.1652  0.1294  0.2551
  720MPD2    H710652   0.486   3.921  13.797  0.2175  2.6600 -0.7589
  721TMC3    C110653   0.886   3.639  14.322 -0.3844  0.0707  0.1882
  721TMC3    C210654   0.909   3.528  14.402 -0.3826  0.2927 -0.0410
  721TMC3    C310655   1.032   3.467  14.393  0.0337  0.2079 -0.3190
  721TMC3    C410656   0.987   3.696  14.262 -0.2969  0.3351 -0.2020
  721TMC3    C510657   1.111   3.639  14.259 -0.4239  0.5180 -0.8625
  721TMC3    C610658   1.135   3.522  14.323  0.2935  0.1049  0.7350
  721TMC3     C10659   0.757   3.703  14.325  0.0237 -0.2855  0.4758
  721TMC3     O10660   0.689   3.689  14.427 -0.0768 -0.0581 -0.0118
  721TMC3     H10661   0.836   3.499  14.476  0.7418  1.1697  1.4288
  721TMC3    H110662   0.964   3.791  14.216 -1.5982  0.9222  1.6658
  721TMC3    H210663   1.237   3.488  14.319  0.4015  0.3240  1.7048
  721TMC3    C710664   1.223   3.736  14.270  0.4134  0.0323 -0.2046
  721TMC3    C810665   1.090   3.375  14.492 -0.1901 -0.0759 -0.5959
  721TMC3    O110666   1.254   3.808  14.176 -0.1872 -0.6263 -0.1362
  721TMC3    O210667   1.205   3.336  14.481  0.0109 -0.0874 -0.2413
  722MPD2     C10668   4.392   2.456  12.847 -0.6594  0.1216 -0.0612
  722MPD2    C110669   4.431   2.545  12.754 -0.0964  0.3231  0.0108
  722MPD2    C210670   4.344   2.583  12.656  0.0791 -0.0376  0.2587
  722MPD2    C310671   4.212   2.534  12.664  0.6380 -0.0714 -0.0457
  722MPD2    C410672   4.176   2.451  12.771  0.8934 -0.1147  0.0843
  722MPD2    C510673   4.270   2.407  12.853  0.3933 -0.4980  0.8472
  722MPD2     H10674   4.371   2.655  12.579  1.5770 -0.6235  0.2273
  722MPD2    H110675   4.074   2.417  12.789  0.4460 -0.4875 -3.2177
  722MPD2    H210676   4.460   2.417  12.921 -1.1293 -0.5527  0.0132
  722MPD2    H310677   4.240   2.343  12.935 -0.2768  0.2937  1.2210
  722MPD2     N10678   4.120   2.556  12.556 -0.2859 -0.0919  0.3568
  722MPD2    H510679   4.153   2.611  12.478  0.3515  0.0197  0.7068
  722MPD2    N110680   4.559   2.609  12.750  0.2213 -0.4356  0.1195
  722MPD2    H710681   4.575   2.673  12.673  0.9847 -0.3759  0.3336
  723TMC3    C110682   3.967   2.479  12.404 -0.1884 -0.5342  0.4740
  723TMC3    C210683   3.916   2.357  12.351  0.3632  0.3553  0.1678
  723TMC3    C310684   3.818   2.354  12.255  0.1252 -0.0257 -0.1640
  723TMC3    C410685   3.939   2.597  12.346 -0.3592  1.0103 -0.4309
  723TMC3    C510686   3.878   2.581  12.223  0.4322 -0.1018 -0.7888
  723TMC3    C610687   3.820   2.466  12.171  0.2077  0.6095  0.7138
  723TMC3     C10688   4.014   2.475  12.537 -0.1088  0.4979  0.2565
  723TMC3     O10689   3.947   2.395  12.608 -0.0881  0.0218 -0.3852
  723TMC3     H10690   3.929   2.266  12.408 -1.5450 -0.2918 -0.4603
  723TMC3    H110691   3.976   2.685  12.396  1.7346 -0.3505  0.4115
  723TMC3    H210692   3.758   2.480  12.083  2.0704 -2.2388 -1.0375
  723TMC3    C710693   3.817   2.707  12.183 -0.1650  0.0740  0.0159
  723TMC3    C810694   3.687   2.339  12.312  0.0516  0.2163 -0.1177
  723TMC3    O110695   3.791   2.713  12.065 -0.1381  0.0581  0.0450
  723TMC3    O210696   3.598   2.378  12.241 -0.2478  0.7690  0.5437
  724TMC3    C110697   3.978   1.056   9.952  0.0292 -0.2193 -0.0160
  724TMC3    C210698   4.050   1.009  10.062 -0.5718  0.2445  0.5984
  724TMC3    C310699   4.174   1.061  10.076 -0.3264 -0.2705  1.2042
  724TMC3    C410700   4.022   1.151   9.869 -0.2170  0.2349 -0.7124
  724TMC3    C510701   4.150   1.191   9.882  0.1943 -0.5840  0.6763
  724TMC3    C610702   4.227   1.144   9.980  0.4031 -0.0837 -0.1931
  724TMC3     C10703   3.844   1.006   9.939  0.3825 -0.5615  0.0465
  724TMC3     O10704   3.819   0.892   9.978 -0.7587 -0.2222 -0.0203
  724TMC3     H10705   4.008   0.949  10.142  1.7847 -0.5890  1.1930
  724TMC3    H110706   3.963   1.177   9.782  0.7416 -1.4279 -1.8633
  724TMC3    H210707   4.328   1.181   9.996  0.7708 -0.9514 -0.5204
  724TMC3    C710708   4.205   1.305   9.816 -0.0590  0.1022  0.3738
  724TMC3    C810709   4.254   1.002  10.182 -0.0887 -0.0135 -0.3297
  724TMC3    O110710   4.317   1.336   9.842 -0.0602 -0.8132  0.0900
  724TMC3    O210711   4.193   0.945  10.272 -0.4391  0.7751  0.1075
  725TMC3    C110712   0.768   4.337  12.793  0.2289  0.2553 -0.0574
  725TMC3    C210713   0.776   4.350  12.656  0.8228 -0.1089 -0.4241
  725TMC3    C310714   0.744   4.239  12.581  0.5303  0.2121  0.0523
  725TMC3    C410715   0.727   4.220  12.846 -0.1817 -0.1612 -0.4128
  725TMC3    C510716   0.707   4.114  12.766  0.7064 -0.4538 -1.0881
  725TMC3    C610717   0.709   4.117  12.629  0.3942 -1.1362 -0.4005
  725TMC3     C10718   0.890   4.385  12.842  0.1605  1.0659  0.4234
  725TMC3     O10719   0.964   4.446  12.765 -0.1587  0.5984  0.0822
  725TMC3     H10720   0.790   4.442  12.600 -2.6916 -0.0551 -1.2160
  725TMC3    H110721   0.701   4.212  12.951 -2.1886  1.0926 -0.8027
  725TMC3    H210722   0.726   4.030  12.566  1.9240 -0.8294 -0.4057
  725TMC3    C710723   0.783   3.999  12.815  0.3688  0.6252  0.7404
  725TMC3    C810724   0.728   4.256  12.440  0.2645  0.6399  0.0301
  725TMC3    O110725   0.867   3.966  12.731 -0.3562  0.4838 -0.0374
  725TMC3    O210726   0.633   4.195  12.387  0.4193 -0.3354 -0.0265
  726MPD2     C10727   4.025   1.591  10.643  0.1505  0.2467 -1.0618
  726MPD2    C110728   3.911   1.564  10.573 -0.0719 -0.2128 -0.2621
  726MPD2    C210729   3.862   1.432  10.578  0.6569 -0.2644  0.2021
  726MPD2    C310730   3.930   1.335  10.649  0.2070 -0.0538  0.0178
  726MPD2    C410731   4.044   1.373  10.721 -0.4409  0.3194 -0.1009
  726MPD2    C510732   4.090   1.498  10.711  0.4767  0.5060 -0.0553
  726MPD2     H10733   3.782   1.413  10.507  1.9501  0.0199 -1.3320
  726MPD2    H110734   4.111   1.308  10.776  0.6173 -1.0734 -3.0624
  726MPD2    H210735   4.075   1.687  10.634  0.1507  0.2637 -0.8670
  726MPD2    H310736   4.185   1.529  10.752  0.2069 -0.9895  1.7039
  726MPD2     N10737   3.887   1.200  10.660 -0.0492 -0.0081 -0.5338
  726MPD2    H510738   3.939   1.142  10.725  1.3454 -0.2607 -1.8735
  726MPD2    N110739   3.840   1.659  10.494  0.2988 -0.7227 -0.6041
  726MPD2    H710740   3.770   1.633  10.425  1.0821 -0.2658 -1.5846
  727TMC3    C110741   3.849   1.834  10.356 -0.3471 -0.6028  0.5454
  727TMC3    C210742   3.942   1.905  10.294  0.7823 -0.1560 -0.2047
  727TMC3    C310743   3.904   2.013  10.221 -0.5188 -0.9023  0.3103
  727TMC3    C410744   3.720   1.851  10.338  0.1145  0.5103  0.1955
  727TMC3    C510745   3.686   1.956  10.250 -0.4372 -0.2588 -0.0464
  727TMC3    C610746   3.775   2.036  10.184  0.4281  1.0329  0.2946
  727TMC3     C10747   3.878   1.783  10.486  0.0319  0.0202  0.5625
  727TMC3     O10748   3.951   1.857  10.555  0.1715  0.4252  0.0165
  727TMC3     H10749   4.043   1.915  10.331  0.1171  0.6825  1.3548
  727TMC3    H110750   3.643   1.794  10.389 -0.6825 -0.2013 -1.8347
  727TMC3    H210751   3.747   2.100  10.101  0.8258  1.4753  0.5018
  727TMC3    C710752   3.549   1.940  10.196  0.5239 -0.0049  0.3223
  727TMC3    C810753   3.999   2.121  10.251 -0.1187 -0.4592  0.5016
  727TMC3    O110754   3.505   1.828  10.216 -0.2570 -0.0654 -0.6295
  727TMC3    O210755   4.122   2.106  10.253 -0.6714 -0.3322  0.0028
  728TMC3    C110756   3.093   4.409  15.005 -0.3092 -0.1329 -0.2715
  728TMC3    C210757   3.193   4.505  15.014 -0.2781 -0.6865  0.1689
  728TMC3    C310758   3.169   4.631  14.963 -0.5890  0.5209  0.0102
  728TMC3    C410759   2.977   4.432  14.931  0.0366 -0.4390  0.8438
  728TMC3    C510760   2.966   4.558  14.878  0.3284 -0.8683 -0.5612
  728TMC3    C610761   3.054   4.657  14.899  0.4443  0.2994 -0.7504
  728TMC3     C10762   3.106   4.302  15.103  0.5181  0.3806 -0.1769
  728TMC3     O10763   3.219   4.292  15.150  0.2107  0.0145  0.1810
  728TMC3     H10764   3.289   4.474  15.056  0.3943 -0.4022 -1.1681
  728TMC3    H110765   2.887   4.372  14.930  1.0464 -1.9646  1.0567
  728TMC3    H210766   3.033   0.037  14.880  1.0926  0.9103  1.9152
  728TMC3    C710767   2.890   4.557  14.754 -0.2747 -0.3988 -0.7532
  728TMC3    C810768   3.279   0.005  14.945 -0.0592  0.5889 -0.3534
  728TMC3    O110769   2.818   4.465  14.720  0.0801 -0.0876 -0.3227
  728TMC3    O210770   3.249   0.119  14.905 -0.0251 -0.1046 -0.0460
  729MPD2     C10771   0.792   0.601  16.924  0.5352  0.1296  0.2503
  729MPD2    C110772   0.908   0.586  16.998 -1.2882 -0.1230  0.5132
  729MPD2    C210773   0.905   0.584  17.136 -0.2301  0.1082  0.5632
  729MPD2    C310774   0.788   0.614  17.200 -0.3672  0.8028  0.1480
  729MPD2    C410775   0.677   0.640  17.121  0.4851 -0.5042  0.3504
  729MPD2    C510776   0.677   0.632  16.987  0.0927 -0.5604 -0.2505
  729MPD2     H10777   0.998   0.566  17.190  0.0514  2.0205  0.7092
  729MPD2    H110778   0.593   0.690  17.168  1.1019 -1.7784  2.7925
  729MPD2    H210779   0.801   0.605  16.816  0.0008 -1.3956  0.1538
  729MPD2    H310780   0.595   0.661  16.922  1.7430  0.7216 -1.7515
  729MPD2     N10781   0.779   0.637  17.344  0.1675 -0.1662  0.4619
  729MPD2    H510782   0.691   0.680  17.370 -0.9222 -1.6974 -0.7111
  729MPD2    N110783   1.025   0.560  16.923 -0.3232 -0.2345  0.0056
  729MPD2    H710784   1.022   0.565  16.822  0.2651  0.7199  0.0333
  730TMC3    C110785   0.870   0.700  17.554  0.0792 -0.3794 -0.4596
  730TMC3    C210786   0.957   0.658  17.651  0.1071  0.0860  0.3273
  730TMC3    C310787   0.980   0.751   0.046  0.2164  0.2800  0.2191
  730TMC3    C410788   0.810   0.827  17.556  0.1433  0.1244 -0.2429
  730TMC3    C510789   0.845   0.913  17.656 -0.6047 -0.2051 -0.1639
  730TMC3    C610790   0.927   0.875   0.053  0.6448 -0.0906  0.1858
  730TMC3     C10791   0.889   0.629  17.426 -0.2997 -0.0795  1.1154
  730TMC3     O10792   0.994   0.568  17.415 -0.0268  0.0651  0.1514
  730TMC3     H10793   1.004   0.560  17.648 -1.5925 -0.7001 -0.3910
  730TMC3    H110794   0.742   0.853  17.476  1.2887  1.3596 -0.8192
  730TMC3    H210795   0.962   0.943   0.130 -0.7598  0.3595  0.4175
  730TMC3    C710796   0.846   1.045  17.603 -0.1097  0.0822  0.2007
  730TMC3    C810797   1.101   0.728   0.129  0.4572 -0.0213 -0.4846
  730TMC3    O110798   0.799   1.056  17.491  0.1928 -0.1669  0.4507
  730TMC3    O210799   1.125   0.812   0.216 -0.0188  0.1744  0.1280
  731MPD2     C10800   0.613   3.868  12.274 -0.0845 -0.2289 -0.2203
  731MPD2    C110801   0.742   3.874  12.323  0.0669  0.3505 -0.3745
  731MPD2    C210802   0.768   3.820  12.444 -0.0336  0.2877 -0.2456
  731MPD2    C310803   0.674   3.752  12.518  0.9217  0.4412  0.5346
  731MPD2    C410804   0.549   3.748  12.471 -0.7926  0.2336  0.2114
  731MPD2    C510805   0.518   3.815  12.355 -0.1876 -0.0045 -0.1738
  731MPD2     H10806   0.863   3.832  12.494  1.0393 -0.4673 -2.0728
  731MPD2    H110807   0.469   3.703  12.528 -2.1525  3.9650  1.2510
  731MPD2    H210808   0.582   3.930  12.191 -2.8851 -0.6791  0.4927
  731MPD2    H310809   0.417   3.813  12.316  0.1143  0.8586 -1.0000
  731MPD2     N10810   0.713   3.686  12.641 -0.7256  0.6193 -0.0161
  731MPD2    H510811   0.811   3.689  12.668 -0.6257  0.2057 -0.3488
  731MPD2    N110812   0.835   3.952  12.247  0.1161 -0.3705 -0.2959
  731MPD2    H710813   0.798   3.989  12.160 -0.1409 -4.3314 -1.8474
  732TMC3    C110814   1.033   4.064  12.178  0.0099  0.2606  0.6988
  732TMC3    C210815   1.007   4.021  12.051  0.0974  0.3423  0.0973
  732TMC3    C310816   1.084   4.072  11.947 -0.8735 -0.1674  0.2078
  732TMC3    C410817   1.130   4.152  12.205 -0.2361  0.0424 -0.1459
  732TMC3    C510818   1.211   4.191  12.102  0.2541  0.4682 -0.3084
  732TMC3    C610819   1.190   4.156  11.973  0.7769  0.1952  0.1997
  732TMC3     C10820   0.957   3.995  12.291  0.0910 -0.0180  0.4640
  732TMC3     O10821   1.019   3.984  12.400  0.5134  0.5293  0.4492
  732TMC3     H10822   0.943   3.936  12.031 -0.8387  0.9369  0.5875
  732TMC3    H110823   1.138   4.185  12.308 -1.1760  2.8870 -0.9770
  732TMC3    H210824   1.257   4.191  11.896  1.0217  0.3293  0.4719
  732TMC3    C710825   1.346   4.241  12.126 -0.0271  0.0895 -0.0537
  732TMC3    C810826   1.032   4.089  11.808  0.5769  0.2418  0.6201
  732TMC3    O110827   1.409   4.288  12.029  0.1423  0.0788 -0.5245
  732TMC3    O210828   1.109   4.134  11.724 -0.2020  0.1639  0.2635
  733TMC3    C110829   1.437   1.775  12.909  0.4744 -0.6241 -0.1820
  733TMC3    C210830   1.521   1.789  13.008  0.5011 -0.0171 -0.1398
  733TMC3    C310831   1.648   1.843  12.988 -0.1472  0.3303  0.1315
  733TMC3    C410832   1.482   1.799  12.778 -0.3576 -0.6576 -0.6338
  733TMC3    C510833   1.605   1.848  12.758  0.3524 -0.0603  0.3632
  733TMC3    C610834   1.693   1.878  12.859  0.2177  0.1188 -0.7827
  733TMC3     C10835   1.324   1.687  12.931  0.0097  0.6590 -0.1043
  733TMC3     O10836   1.333   1.589  13.005 -0.1505  0.0337  0.5851
  733TMC3     H10837   1.493   1.741  13.101  2.4221 -1.8346 -0.4988
  733TMC3    H110838   1.418   1.782  12.692 -2.4087  0.0936  0.7134
  733TMC3    H210839   1.791   1.923  12.843 -0.0694  0.6157 -1.1363
  733TMC3    C710840   1.638   1.915  12.628  0.5315  0.3010 -0.3875
  733TMC3    C810841   1.719   1.910  13.106  0.0011 -0.9958 -0.3125
  733TMC3    O110842   1.630   1.855  12.519  0.0313  0.2337  0.1321
  733TMC3    O210843   1.699   1.873  13.219  0.0514  0.4906 -0.3715
  734MPD2     C10844   3.505   4.077  12.469  0.2554  0.5570 -0.2185
  734MPD2    C110845   3.534   3.981  12.374  0.3474  0.1732 -0.5774
  734MPD2    C210846   3.553   4.025  12.242  0.2004 -0.1745 -0.1806
  734MPD2    C310847   3.544   4.158  12.209 -1.1280 -0.2759 -0.0731
  734MPD2    C410848   3.522   4.253  12.312 -0.6621 -0.3732 -0.1205
  734MPD2    C510849   3.502   4.211  12.442 -0.4604 -0.2040  0.3594
  734MPD2     H10850   3.581   3.958  12.161  0.5436  1.9307 -1.8215
  734MPD2    H110851   3.514   4.358  12.287 -0.5135 -0.6125 -1.1955
  734MPD2    H210852   3.491   4.055  12.574  1.6386 -4.6085 -1.1327
  734MPD2    H310853   3.489   4.276  12.528  2.9704  2.4409 -1.1468
  734MPD2     N10854   3.584   4.191  12.082  0.4092 -0.2408  0.5536
  734MPD2    H510855   3.590   4.116  12.013  3.0386 -0.0741  0.6158
  734MPD2    N110856   3.540   3.850  12.411 -0.0083  0.1333  0.3777
  734MPD2    H710857   3.537   3.822  12.509  1.9964 -1.6161 -0.0652
  735TMC3    C110858   3.590   3.615  12.401 -0.7686  0.0366  0.0613
  735TMC3    C210859   3.602   3.508  12.312 -0.2349 -0.2471 -0.0678
  735TMC3    C310860   3.693   3.409  12.330 -0.3159 -0.1706  0.0449
  735TMC3    C410861   3.681   3.625  12.499 -0.4903  0.0782 -0.6142
  735TMC3    C510862   3.779   3.529  12.518 -0.3418 -0.1861 -0.6082
  735TMC3    C610863   3.784   3.414  12.437  0.3565 -0.2902 -0.3306
  735TMC3     C10864   3.549   3.740  12.330  0.5145 -0.0125 -0.3303
  735TMC3     O10865   3.531   3.733  12.206 -0.1104 -0.3028  0.3326
  735TMC3     H10866   3.520   3.502  12.241  0.8593 -4.9300 -0.9589
  735TMC3    H110867   3.696   3.719  12.550  1.2836 -0.7443  0.3754
  735TMC3    H210868   3.854   3.331  12.444  0.3601 -0.2708 -0.1135
  735TMC3    C710869   3.910   3.594  12.505 -0.6636  0.3581  0.3569
  735TMC3    C810870   3.765   3.388  12.208  0.4500  0.2589 -0.4478
  735TMC3    O110871   3.913   3.700  12.443  0.1376 -0.1987 -0.2988
  735TMC3    O210872   3.855   3.305  12.208  0.3642 -0.0334  0.2187
  736MPD2     C10873   4.227   3.398  12.518  0.1992 -0.4256 -0.6011
  736MPD2    C110874   4.135   3.494  12.472 -0.6015  0.0361 -0.2498
  736MPD2    C210875   4.163   3.566  12.361 -0.2425 -0.3396  1.2451
  736MPD2    C310876   4.279   3.537  12.279 -0.7182 -0.0870 -0.5013
  736MPD2    C410877   4.370   3.444  12.331  0.4145 -0.0774 -0.4057
  736MPD2    C510878   4.345   3.375  12.450  0.0003 -0.5718  0.3575
  736MPD2     H10879   4.085   3.636  12.333  1.7371  0.7366 -1.5639
  736MPD2    H110880   4.456   3.416  12.272  0.0367 -0.7345 -0.6457
  736MPD2    H210881   4.195   3.336  12.602 -1.5731  1.4114  0.0910
  736MPD2    H310882   4.409   3.290  12.468 -0.4293 -0.6530  1.5418
  736MPD2     N10883   4.309   3.599  12.160 -0.3306  0.0752  0.0293
  736MPD2    H510884   4.380   3.551  12.105 -1.0962 -1.3142  0.2481
  736MPD2    N110885   4.009   3.505  12.537 -0.6951 -0.0783  0.4545
  736MPD2    H710886   3.993   3.434  12.608 -0.5574  1.1542  1.7200
  737TMC3    C110887   4.268   3.755  11.982  0.2496 -0.8562  0.1399
  737TMC3    C210888   4.246   3.884  11.949  0.5225 -0.4563 -0.0462
  737TMC3    C310889   4.306   3.929  11.832  0.0217 -0.2016  0.0398
  737TMC3    C410890   4.318   3.668  11.894  0.4985  0.5003  0.1004
  737TMC3    C510891   4.377   3.719  11.779 -0.1196 -0.4435 -0.8998
  737TMC3    C610892   4.368   3.848  11.739 -0.3250  0.4770 -0.1430
  737TMC3     C10893   4.236   3.707  12.115 -0.4669  0.4651 -0.1320
  737TMC3     O10894   4.145   3.770  12.164 -0.0671  0.0466 -0.4918
  737TMC3     H10895   4.203   3.954  12.020  0.3834 -0.1311 -0.4509
  737TMC3    H110896   4.313   3.561  11.906 -2.2750  0.6184  0.0330
  737TMC3    H210897   4.442   3.893  11.673 -1.1632  0.8449 -0.8444
  737TMC3    C710898   4.462   3.624  11.718  0.2105  0.4507  0.1491
  737TMC3    C810899   4.315   4.075  11.820  0.6541  0.5394  0.3193
  737TMC3    O110900   4.497   3.521  11.779 -0.1836 -0.2006 -0.2109
  737TMC3    O210901   4.280   4.142  11.914 -0.7311  0.0276  0.0589
  738MPD2     C10902   0.364   2.177  15.149 -0.1867 -0.5528 -0.8203
  738MPD2    C110903   0.291   2.268  15.079 -0.0442  0.2116 -0.0062
  738MPD2    C210904   0.344   2.308  14.957  0.0893  0.6710 -0.4546
  738MPD2    C310905   0.464   2.264  14.909  0.5597 -0.1349  0.5052
  738MPD2    C410906   0.537   2.179  14.989 -0.3367 -0.8229  0.3209
  738MPD2    C510907   0.480   2.132  15.105  0.3477 -0.7349  0.4619
  738MPD2     H10908   0.277   2.362  14.891  2.0469  1.8572 -1.4675
  738MPD2    H110909   0.642   2.152  14.978  0.4008  0.9924  2.7901
  738MPD2    H210910   0.334   2.137  15.245 -1.2170  2.0080 -0.0860
  738MPD2    H310911   0.546   2.073  15.168  2.2192  0.7975 -0.0581
  738MPD2     N10912   0.509   2.302  14.782  0.7938  0.0776  0.1665
  738MPD2    H510913   0.600   2.269  14.751 -0.5063 -2.7133 -0.6640
  738MPD2    N110914   0.162   2.318  15.114 -0.3959 -0.1863 -0.0257
  738MPD2    H710915   0.131   2.401  15.066 -2.0524 -0.1367  1.1328
  739TMC3    C110916   0.535   2.453  14.607  0.8597 -0.8113 -0.2855
  739TMC3    C210917   0.508   2.481  14.481 -0.0884 -0.1567  0.3562
  739TMC3    C310918   0.608   2.495  14.393  0.6498 -0.1532  0.1054
  739TMC3    C410919   0.667   2.451  14.646 -0.4618  0.1440 -0.1228
  739TMC3    C510920   0.770   2.486  14.558  0.0096  0.0418 -0.2615
  739TMC3    C610921   0.740   2.513  14.430 -0.4815  0.7415 -0.4284
  739TMC3     C10922   0.443   2.384  14.695 -0.4554 -0.0021  0.3928
  739TMC3     O10923   0.320   2.390  14.674 -0.1543  0.0357 -0.3399
  739TMC3     H10924   0.406   2.470  14.448 -0.5404 -1.5582  2.2002
  739TMC3    H110925   0.691   2.447  14.752  2.5491  0.3639 -0.8092
  739TMC3    H210926   0.819   2.524  14.357 -1.1058 -0.6510 -1.3064
  739TMC3    C710927   0.907   2.521  14.598 -0.2737  0.1311 -0.3282
  739TMC3    C810928   0.579   2.480  14.256  0.3002 -0.4697  0.5453
  739TMC3    O110929   0.984   2.569  14.512  0.4714 -0.2509 -0.2502
  739TMC3    O210930   0.474   2.530  14.215 -0.4093  0.0307 -0.4860
  740TMC3    C110931   0.575   4.208  14.232 -0.0255  0.0553 -0.0951
  740TMC3    C210932   0.667   4.146  14.312 -0.3468  0.0032 -0.6519
  740TMC3    C310933   0.788   4.104  14.260  0.2618  0.1376 -0.5199
  740TMC3    C410934   0.599   4.231  14.101 -0.3245  0.5658 -0.5665
  740TMC3    C510935   0.718   4.185  14.050 -1.0146 -0.2556 -0.0982
  740TMC3    C610936   0.813   4.121  14.126  0.8343 -0.1897  0.4195
  740TMC3     C10937   0.459   4.282  14.285 -0.0333 -0.0753 -0.6215
  740TMC3     O10938   0.402   4.350  14.200  0.2148  0.1773  0.0927
  740TMC3     H10939   0.657   4.148  14.420  2.3215  0.2290 -0.4178
  740TMC3    H110940   0.525   4.274  14.035 -1.5318 -2.0017 -0.8692
  740TMC3    H210941   0.913   4.095  14.094  0.9710  1.5468 -0.5804
  740TMC3    C710942   0.729   4.137  13.918 -0.6107 -0.3431 -0.0814
  740TMC3    C810943   0.895   4.069  14.349  0.3181 -0.8598 -0.0830
  740TMC3    O110944   0.790   4.033  13.912 -0.4353 -0.0535 -0.0953
  740TMC3    O210945   0.991   4.030  14.286  0.4025  0.1733  0.2993
  741TMC3    C110946   0.532   3.053  13.978 -0.5383 -0.0496  0.2703
  741TMC3    C210947   0.410   2.984  13.961 -0.6526 -0.2352 -0.0922
  741TMC3    C310948   0.382   2.891  14.055  0.0764  0.2995 -0.1669
  741TMC3    C410949   0.612   3.044  14.084  0.0205  0.0463 -0.0520
  741TMC3    C510950   0.585   2.929  14.153  0.0728 -0.7133 -0.6608
  741TMC3    C610951   0.478   2.850  14.147  0.2738  0.5266  0.6360
  741TMC3     C10952   0.588   3.122  13.870 -0.4430 -0.0402 -0.5922
  741TMC3     O10953   0.704   3.099  13.852  0.0488 -0.2531  0.6185
  741TMC3     H10954   0.352   2.988  13.869 -0.3680 -0.9144 -0.3036
  741TMC3    H110955   0.698   3.108  14.094  1.0437 -1.1971 -0.8651
  741TMC3    H210956   0.479   2.761  14.210  0.1694  0.2923  0.3056
  741TMC3    C710957   0.687   2.908  14.249  0.4843  0.0004 -0.4169
  741TMC3    C810958   0.252   2.841  14.065 -0.1698 -0.5090 -0.2941
  741TMC3    O110959   0.804   2.944  14.229  0.4902 -0.5728 -0.1386
  741TMC3    O210960   0.164   2.896  13.994  0.1175 -0.5542  0.3435
  742TMC3    C110961   0.848   1.559  15.884  0.6325  0.3881 -0.1483
  742TMC3    C210962   0.816   1.630  15.773  0.0064  0.4091 -0.1623
  742TMC3    C310963   0.835   1.568  15.649  0.3226 -0.0957  0.6084
  742TMC3    C410964   0.935   1.451  15.884 -0.2135  0.8231 -0.2036
  742TMC3    C510965   0.983   1.427  15.759  0.3019  0.0528  0.2803
  742TMC3    C610966   0.940   1.477  15.640  0.1646 -0.5273 -0.3405
  742TMC3     C10967   0.799   1.603  16.009  0.0265 -0.8036  0.0875
  742TMC3     O10968   0.786   1.724  16.026 -0.2899  0.0183  0.6140
  742TMC3     H10969   0.743   1.708  15.790 -0.9391 -0.9868  2.0928
  742TMC3    H110970   0.987   1.428  15.976  1.2153  2.0277 -0.7088
  742TMC3    H210971   0.973   1.446  15.542  1.0428 -1.8077  0.3575
  742TMC3    C710972   1.080   1.325  15.734  0.5482 -0.9635 -0.0404
  742TMC3    C810973   0.723   1.545  15.563 -0.5453 -0.7566  0.2558
  742TMC3    O110974   1.154   1.325  15.634 -0.0754  0.2434 -0.0688
  742TMC3    O210975   0.724   1.437  15.499 -0.1031  0.2539  0.0717
  743MPD2     C10976   2.607   2.474   2.354 -0.0726  0.1534 -0.9669
  743MPD2    C110977   2.654   2.534   2.240  0.3596  0.1244 -1.5119
  743MPD2    C210978   2.786   2.509   2.205  0.4931  0.4397  0.6732
  743MPD2    C310979   2.868   2.422   2.281 -0.4438  0.1919  0.0574
  743MPD2    C410980   2.810   2.361   2.393 -0.4223  0.3242 -0.7649
  743MPD2    C510981   2.682   2.391   2.432 -0.2356 -0.1958  0.9475
  743MPD2     H10982   2.833   2.573   2.132  0.0031  0.8128  0.6839
  743MPD2    H110983   2.857   2.299   2.468  0.2514  1.5722 -0.1513
  743MPD2    H210984   2.503   2.489   2.381  0.9794  2.7064  1.6790
  743MPD2    H310985   2.643   2.352   2.525 -0.1352 -3.8732 -0.5417
  743MPD2     N10986   3.002   2.401   2.233 -0.3380  0.0144 -0.1299
  743MPD2    H510987   3.032   2.445   2.146 -0.7016  0.4467 -0.0342
  743MPD2    N110988   2.564   2.610   2.164  0.1233  0.4972 -0.4822
  743MPD2    H710989   2.473   2.638   2.200  0.7346 -1.1494  2.3475
  744TMC3    C110990   2.521   2.755   1.983 -0.2649 -0.4349 -0.4748
  744TMC3    C210991   2.430   2.819   2.062 -1.0077 -0.0728  0.3083
  744TMC3    C310992   2.339   2.904   2.009 -1.0487  0.1171 -0.1773
  744TMC3    C410993   2.527   2.785   1.848 -0.0940  0.9376  0.2232
  744TMC3    C510994   2.442   2.882   1.801 -0.3675  0.3168 -0.4170
  744TMC3    C610995   2.354   2.944   1.877 -0.1971  0.3026  0.2291
  744TMC3     C10996   2.600   2.643   2.036 -0.0574 -0.1981 -0.2325
  744TMC3     O10997   2.670   2.581   1.957  0.5206  0.1035  0.2535
  744TMC3     H10998   2.426   2.797   2.168 -0.8311 -2.2223 -0.1251
  744TMC3    H110999   2.604   2.742   1.783 -0.5483 -1.5406  1.3306
  744TMC3    H211000   2.310   3.039   1.850  1.7069  1.0340 -0.3271
  744TMC3    C711001   2.448   2.912   1.659  0.3186  1.0170 -0.2908
  744TMC3    C811002   2.263   2.988   2.101  0.4619  0.5447 -0.0534
  744TMC3    O111003   2.562   2.900   1.614 -0.1010  0.4230 -0.3142
  744TMC3    O211004   2.294   2.991   2.222 -0.1536 -0.1760  0.8083
  745TMC3    C111005   0.747   1.538  13.658 -0.2412 -0.7407  0.5395
  745TMC3    C211006   0.699   1.486  13.774  0.6527  0.3273 -0.7083
  745TMC3    C311007   0.567   1.457  13.791 -0.0111 -0.2001 -0.0336
  745TMC3    C411008   0.668   1.551  13.552  0.5240 -0.7724 -0.0365
  745TMC3    C511009   0.537   1.516  13.566  0.1044 -0.2692  0.2858
  745TMC3    C611010   0.481   1.463  13.684  0.1714  0.1916  0.5825
  745TMC3     C11011   0.888   1.579  13.659 -0.7421  0.2830 -0.7043
  745TMC3     O11012   0.950   1.526  13.752 -0.7818  0.1935 -0.5588
  745TMC3     H11013   0.769   1.477  13.857 -0.3477  0.1860  0.1270
  745TMC3    H111014   0.718   1.565  13.457 -1.7823  1.2559 -0.9531
  745TMC3    H211015   0.374   1.450  13.693 -0.2108  1.7539 -1.4998
  745TMC3    C711016   0.462   1.478  13.448 -0.2547 -0.1012  0.7462
  745TMC3    C811017   0.511   1.431  13.921 -0.4992 -0.6665  0.0776
  745TMC3    O111018   0.376   1.390  13.466  0.0928 -0.2093 -0.1221
  745TMC3    O211019   0.424   1.346  13.928 -0.1680  0.1710 -0.5639
  746TMC3    C111020   2.874   3.910  10.688  0.1536  0.9125 -0.4279
  746TMC3    C211021   2.878   3.974  10.565 -0.2408 -0.5310  0.4800
  746TMC3    C311022   2.770   3.962  10.480 -0.1020  0.0764  0.2076
  746TMC3    C411023   2.760   3.848  10.730 -0.6664  0.1511 -0.2408
  746TMC3    C511024   2.658   3.840  10.636 -0.7157 -0.5169  0.4025
  746TMC3    C611025   2.655   3.898  10.513  0.9261  0.0202 -0.6911
  746TMC3     C11026   2.962   3.958  10.793 -0.3483  0.6670 -0.8097
  746TMC3     O11027   2.927   3.939  10.907 -0.2466  0.2647  0.1457
  746TMC3     H11028   2.955   4.050  10.556 -0.7894  0.3750  3.6187
  746TMC3    H111029   2.747   3.816  10.833  0.9857  0.6510  0.1253
  746TMC3    H211030   2.583   3.889  10.433  1.3377 -0.6907 -0.9865
  746TMC3    C711031   2.536   3.772  10.683  0.3022 -0.0841  0.1249
  746TMC3    C811032   2.778   4.021  10.347  0.0378  0.4170  0.1528
  746TMC3    O111033   2.436   3.790  10.613 -0.4082 -0.0286 -0.8974
  746TMC3    O211034   2.672   4.039  10.285 -0.3993 -0.2934 -0.1220
  747TMC3    C111035   0.245   3.877  10.817  0.1506  0.2503  0.2457
  747TMC3    C211036   0.218   3.776  10.906  0.0121  0.1711 -0.6708
  747TMC3    C311037   0.139   3.802  11.017 -0.4991  1.0355 -0.4916
  747TMC3    C411038   0.202   4.009  10.844  0.4565 -0.1360  0.3294
  747TMC3    C511039   0.122   4.024  10.951  0.7072  0.1962  0.0277
  747TMC3    C611040   0.092   3.922  11.041 -0.2270 -0.5696 -0.1770
  747TMC3     C11041   0.371   3.867  10.732  0.7708 -0.0453 -0.3554
  747TMC3     O11042   0.451   3.957  10.749 -0.2463 -0.6943 -0.2809
  747TMC3     H11043   0.259   3.677  10.888 -1.0200 -0.2437 -0.7443
  747TMC3    H111044   0.235   4.089  10.778  2.2142 -1.5509 -0.5244
  747TMC3    H211045   0.031   3.955  11.125 -1.6886 -2.5195 -0.4799
  747TMC3    C711046   0.081   4.159  10.978 -0.4462 -0.1882  0.2180
  747TMC3    C811047   0.146   3.706  11.128  0.0433  0.2667  0.6704
  747TMC3    O111048   0.070   4.186  11.100  0.3634  0.0059 -0.6337
  747TMC3    O211049   0.242   3.636  11.127  0.4260 -0.1304  0.5483
  748MPD2     C11050   1.789   4.127   2.625  0.2124 -1.0220  0.2702
  748MPD2    C111051   1.754   4.145   2.487  0.0089  0.5921  0.4841
  748MPD2    C211052   1.853   4.149   2.385 -0.7689 -0.5907 -0.0177
  748MPD2    C311053   1.985   4.126   2.420 -0.1390 -0.3623 -0.2056
  748MPD2    C411054   2.019   4.090   2.554 -0.4662  0.3985  0.3799
  748MPD2    C511055   1.922   4.094   2.655  0.5355  0.1426 -0.0805
  748MPD2     H11056   1.815   4.178   2.288  0.8639  0.4962 -0.3331
  748MPD2    H111057   2.120   4.065   2.585  1.0751  3.7833 -1.9322
  748MPD2    H211058   1.719   4.131   2.709 -0.9366  0.2620 -0.7544
  748MPD2    H311059   1.952   4.087   2.759 -1.0387 -1.9438  0.2315
  748MPD2     N11060   2.077   4.135   2.315  0.0642 -0.1726  0.0129
  748MPD2    H511061   2.039   4.190   2.239 -1.7958 -1.0568  0.3093
  748MPD2    N111062   1.617   4.159   2.455  0.5114 -0.2669  0.3758
  748MPD2    H711063   1.558   4.166   2.537  0.5838 -1.3030  0.5153
  749TMC3    C111064   2.283   4.116   2.198 -0.1881 -0.1534  0.0995
  749TMC3    C211065   2.411   4.075   2.194 -0.0765 -0.2601 -0.1620
  749TMC3    C311066   2.483   4.099   2.080 -0.3211 -0.1315  0.5950
  749TMC3    C411067   2.226   4.201   2.100  0.0670 -0.8071 -0.7172
  749TMC3    C511068   2.305   4.239   1.997  0.7171 -0.7187 -0.4423
  749TMC3    C611069   2.434   4.185   1.982 -0.3306 -0.0634 -0.2043
  749TMC3     C11070   2.204   4.087   2.319 -0.7620 -0.0467 -0.6195
  749TMC3     O11071   2.265   4.029   2.405 -0.4413 -0.4877 -0.1008
  749TMC3     H11072   2.449   4.018   2.277  0.3546  2.5370  1.5643
  749TMC3    H111073   2.122   4.229   2.100  1.1250  3.1956 -0.3207
  749TMC3    H211074   2.486   4.203   1.889  0.5059 -1.0104  0.0899
  749TMC3    C711075   2.245   4.295   1.878 -0.0166  0.5370  0.5057
  749TMC3    C811076   2.625   4.113   2.106 -0.2986 -0.2663  0.8273
  749TMC3    O111077   2.131   4.260   1.857 -0.0079  0.4559 -0.1921
  749TMC3    O211078   2.644   4.177   2.207  0.0737 -0.4127 -0.1743
  750MPD2     C11079   3.474   1.244  11.522 -0.0718 -0.4142 -0.0323
  750MPD2    C111080   3.356   1.209  11.463 -0.5017 -0.1607 -0.8559
  750MPD2    C211081   3.339   1.080  11.417 -0.7378  0.2441 -0.2438
  750MPD2    C311082   3.428   0.981  11.447  0.0322  0.6117 -0.6069
  750MPD2    C411083   3.545   1.014  11.528  0.0451 -0.1200  0.1000
  750MPD2    C511084   3.560   1.147  11.559  0.2327 -0.3003  0.3183
  750MPD2     H11085   3.246   1.049  11.371  0.5400 -1.6859 -1.5455
  750MPD2    H111086   3.615   0.945  11.575 -1.0318 -1.7201 -0.6407
  750MPD2    H211087   3.487   1.348  11.551  3.0267 -0.0750 -2.5214
  750MPD2    H311088   3.648   1.169  11.617  0.0323  0.3902  0.3601
  750MPD2     N11089   3.411   0.845  11.415 -0.6459  0.2413  0.1508
  750MPD2    H511090   3.456   0.777  11.475  1.4221  2.8259  1.5100
  750MPD2    N111091   3.264   1.316  11.433  0.3554 -0.0647 -0.0960
  750MPD2    H711092   3.302   1.410  11.437  0.9494 -0.4462  2.9277
  751TMC3    C111093   3.303   0.671  11.299  0.0832 -0.1695  0.3991
  751TMC3    C211094   3.248   0.619  11.421  0.2821 -0.0179  0.4756
  751TMC3    C311095   3.182   0.498  11.410 -0.0697  0.1461  0.2812
  751TMC3    C411096   3.275   0.617  11.174  0.1079 -0.1158  0.0421
  751TMC3    C511097   3.208   0.496  11.171 -0.8112 -0.1230 -0.3073
  751TMC3    C611098   3.155   0.441  11.286  0.0373  0.3330  0.2225
  751TMC3     C11099   3.335   0.810  11.298 -0.0645  0.5987 -0.0817
  751TMC3     O11100   3.308   0.875  11.200 -0.4815 -0.1137  0.2223
  751TMC3     H11101   3.252   0.667  11.519 -1.4821 -3.0242  2.0313
  751TMC3    H111102   3.318   0.654  11.082 -1.3383 -1.0239 -0.9954
  751TMC3    H211103   3.088   0.356  11.277  0.8460 -0.4464  1.5805
  751TMC3    C711104   3.199   0.426  11.046 -0.0024  0.1845  0.2207
  751TMC3    C811105   3.135   0.426  11.529  0.4936  0.3161  0.1496
  751TMC3    O111106   3.265   0.483  10.962  0.7227 -0.7205 -0.1000
  751TMC3    O211107   3.077   0.473  11.625  0.0905  0.5325  0.1312
  752TMC3    C111108   1.797   0.089  17.664  0.2905  0.3740  0.5391
  752TMC3    C211109   1.719   0.182   0.027 -0.1511 -0.4714 -0.1314
  752TMC3    C311110   1.716   0.183   0.167  0.1556  0.5117  0.2527
  752TMC3    C411111   1.870   4.724   0.035  0.7377 -0.4872  0.3002
  752TMC3    C511112   1.864   0.007   0.174  0.7009 -0.0956 -0.0460
  752TMC3    C611113   1.793   0.104   0.242 -0.7300  0.0999 -0.4638
  752TMC3     C11114   1.853   0.119  17.530 -0.2136 -0.2149  0.6014
  752TMC3     O11115   1.961   0.059  17.508 -0.4894 -0.0693 -0.1015
  752TMC3     H11116   1.671   0.265  17.679 -1.1242 -0.5999  0.5923
  752TMC3    H111117   1.939   4.654  17.692  1.5522 -0.7556  2.0143
  752TMC3    H211118   1.780   0.118   0.349  0.4240  0.6920 -0.4013
  752TMC3    C711119   1.972   4.660   0.246 -0.1649  0.0000  0.1363
  752TMC3    C811120   1.590   0.240   0.228  0.2725  0.9646 -0.2436
  752TMC3    O111121   2.045   4.587   0.183  0.7353 -0.6573  0.0892
  752TMC3    O211122   1.583   0.261   0.349 -0.1610 -0.3182  0.2946
  753TMC3    C111123   3.425   1.594  13.533  0.2312 -0.5875  0.5313
  753TMC3    C211124   3.470   1.532  13.646 -0.1948 -0.0226 -0.0485
  753TMC3    C311125   3.420   1.414  13.683 -0.8147 -0.3160  0.6643
  753TMC3    C411126   3.307   1.557  13.481  0.9820 -0.4400 -0.8753
  753TMC3    C511127   3.258   1.436  13.522 -0.0594 -0.7294 -0.2041
  753TMC3    C611128   3.325   1.355  13.604  0.3332  0.3139  0.4092
  753TMC3     C11129   3.441   1.740  13.522 -0.4604 -0.1381  0.3168
  753TMC3     O11130   3.339   1.800  13.490  0.4904 -0.6122  0.0336
  753TMC3     H11131   3.554   1.570  13.702  1.7174 -2.2820 -1.3700
  753TMC3    H111132   3.265   1.603  13.392  2.0294 -0.2982 -1.2925
  753TMC3    H211133   3.295   1.252  13.612 -0.4873  0.6447  1.6097
  753TMC3    C711134   3.125   1.391  13.476 -0.6538  0.1042  0.3698
  753TMC3    C811135   3.488   1.327  13.780  0.0585 -0.0573  0.5805
  753TMC3    O111136   3.101   1.272  13.500  0.0027 -0.1192  0.2312
  753TMC3    O211137   3.478   1.207  13.784 -0.0489  0.5267  0.2136
  754MPD2     C11138   2.254   0.060  12.676 -0.0935 -0.0052 -0.4610
  754MPD2    C111139   2.188   4.683  12.737 -0.1022  0.3744  0.4387
  754MPD2    C211140   2.058   4.696  12.796  0.7605 -0.1535  0.2622
  754MPD2    C311141   1.998   0.093  12.806  0.3265  0.5414 -0.7808
  754MPD2    C411142   2.069   0.194  12.754  0.3591 -0.5148  0.9638
  754MPD2    C511143   2.189   0.173  12.687 -0.4214  0.6211  0.1076
  754MPD2     H11144   2.006   4.608  12.833  2.7039 -0.6564  1.7993
  754MPD2    H111145   2.024   0.292  12.753 -0.1745 -0.8162 -3.3573
  754MPD2    H211146   2.344   0.045  12.617 -0.6636 -0.0227 -1.3348
  754MPD2    H311147   2.228   0.263  12.640 -0.5485  0.1204 -0.9473
  754MPD2     N11148   1.880   0.120  12.868 -0.7657 -0.3262  0.1210
  754MPD2    H511149   1.856   0.217  12.886  1.9186  0.3334  0.1022
  754MPD2    N111150   2.266   4.559  12.740  0.6699 -0.4712 -0.1506
  754MPD2    H711151   2.344   4.552  12.675  1.2599 -1.1009  0.6187
  755MPD2     C11152   1.487   0.866  13.124  0.1631  0.7608 -0.2092
  755MPD2    C111153   1.539   0.775  13.211  0.0231 -0.0042  0.6864
  755MPD2    C211154   1.567   0.646  13.168  0.3485  0.2905  0.4231
  755MPD2    C311155   1.530   0.603  13.041 -0.0055 -0.0103  1.0034
  755MPD2    C411156   1.453   0.687  12.965 -0.2142  0.7087  0.5142
  755MPD2    C511157   1.448   0.819  13.002 -0.6087 -0.2128 -0.1828
  755MPD2     H11158   1.612   0.580  13.240 -1.0347  0.4365  1.4220
  755MPD2    H111159   1.419   0.662  12.865 -1.2582 -2.2070  1.6151
  755MPD2    H211160   1.488   0.973  13.143 -0.6661  0.5891  0.8238
  755MPD2    H311161   1.400   0.890  12.936  0.5020 -1.0998 -1.9382
  755MPD2     N11162   1.544   0.463  13.013  0.5076  1.0811  0.2798
  755MPD2    H511163   1.594   0.401  13.077 -1.5025  0.0558  0.8291
  755MPD2    N111164   1.558   0.811  13.347 -0.0697  0.0133 -0.4218
  755MPD2    H711165   1.611   0.747  13.406 -1.2911  0.0374  0.7110
  756MPD2     C11166   2.571   1.822   9.748 -0.5107 -0.0550  0.5206
  756MPD2    C111167   2.513   1.704   9.794 -0.3566  0.4691  0.2839
  756MPD2    C211168   2.385   1.662   9.752  0.7746 -0.1359  0.6748
  756MPD2    C311169   2.321   1.739   9.654 -0.1212 -0.1402 -0.1805
  756MPD2    C411170   2.385   1.849   9.596 -0.1961  0.0484 -0.9736
  756MPD2    C511171   2.509   1.891   9.648 -0.0307 -0.1713  0.2170
  756MPD2     H11172   2.340   1.572   9.793 -1.3718  0.6926  0.1299
  756MPD2    H111173   2.333   1.909   9.522 -0.7289  1.1741  0.3128
  756MPD2    H211174   2.669   1.854   9.778 -1.3355  2.4798  0.5229
  756MPD2    H311175   2.554   1.985   9.618  2.3990 -0.9052  1.5698
  756MPD2     N11176   2.198   1.687   9.608 -0.0492 -0.4983 -0.3867
  756MPD2    H511177   2.175   1.592   9.636 -0.9816 -0.8011 -2.1528
  756MPD2    N111178   2.575   1.610   9.880  0.0251 -0.3838  0.1334
  756MPD2    H711179   2.524   1.523   9.894 -1.0807  0.3606  0.7081
  757MPD2     C11180   1.996   0.899   9.667  0.1351  0.9343 -0.1194
  757MPD2    C111181   2.103   0.985   9.676  0.0399 -0.8218  0.1204
  757MPD2    C211182   2.085   1.120   9.641  0.2209  0.5666  0.1709
  757MPD2    C311183   1.967   1.163   9.588 -0.5533 -0.0404 -0.0156
  757MPD2    C411184   1.864   1.071   9.562 -0.0901 -0.4825 -0.1337
  757MPD2    C511185   1.878   0.943   9.609 -0.5630 -0.3081 -0.0066
  757MPD2     H11186   2.164   1.191   9.662  0.6742 -0.0497  0.5693
  757MPD2    H111187   1.767   1.099   9.523 -0.5788 -1.0645  0.6651
  757MPD2    H211188   2.012   0.799   9.705 -3.5255  0.0873 -0.7983
  757MPD2    H311189   1.784   0.888   9.618 -0.7392 -0.1380 -0.7881
  757MPD2     N11190   1.958   1.299   9.540  0.3107  0.9381 -1.0397
  757MPD2    H511191   2.039   1.354   9.568  1.0085 -0.8184  0.4199
  757MPD2    N111192   2.220   0.919   9.717  0.1731  0.2969  0.0451
  757MPD2    H711193   2.205   0.822   9.743  0.6299 -0.6382 -3.1071
  758MPD2     C11194   2.342   4.103  16.279 -0.6010 -0.3267  0.0982
  758MPD2    C111195   2.479   4.079  16.282 -0.6357  0.2002 -0.0219
  758MPD2    C211196   2.560   4.187  16.322  0.1797 -1.1950 -0.4278
  758MPD2    C311197   2.497   4.303  16.369  0.1524 -0.3615  0.3344
  758MPD2    C411198   2.365   4.322  16.374  0.0320  0.2405  0.6568
  758MPD2    C511199   2.286   4.216  16.333 -0.0570 -0.5191  0.2703
  758MPD2     H11200   2.668   4.180  16.324  0.1206 -2.2847 -1.2286
  758MPD2    H111201   2.313   4.413  16.403  1.3903  1.3300 -0.3494
  758MPD2    H211202   2.275   4.023  16.249 -1.0673  0.2332 -0.3581
  758MPD2    H311203   2.178   4.230  16.328 -0.1478 -1.3532 -0.0896
  758MPD2     N11204   2.570   4.414  16.392 -0.0004  0.3291 -0.4507
  758MPD2    H511205   2.512   4.488  16.431 -2.0782 -0.2754 -2.4225
  758MPD2    N111206   2.525   3.948  16.242  0.0365  0.7209  0.4706
  758MPD2    H711207   2.452   3.887  16.207 -0.9650  2.4947 -0.5702
  759MPD2     C11208   1.121   3.643   9.740  0.0383  0.7641  0.5569
  759MPD2    C111209   1.240   3.584   9.761  0.0380 -0.7899  0.7642
  759MPD2    C211210   1.349   3.666   9.784 -0.2466  0.1505 -0.3008
  759MPD2    C311211   1.342   3.802   9.786  0.4814  0.6532 -0.1636
  759MPD2    C411212   1.223   3.862   9.752  0.2125 -0.2990 -0.4293
  759MPD2    C511213   1.117   3.779   9.726  0.2322  0.5352  0.3961
  759MPD2     H11214   1.448   3.628   9.809 -0.1880  0.4412 -0.0805
  759MPD2    H111215   1.209   3.969   9.755 -0.7318 -0.4608  1.1504
  759MPD2    H211216   1.033   3.584   9.713 -0.4329  2.0175 -0.6946
  759MPD2    H311217   1.015   3.813   9.711  0.5658  0.8554 -1.1226
  759MPD2     N11218   1.465   3.873   9.812  0.2424 -0.1777  0.0459
  759MPD2    H511219   1.545   3.815   9.836  0.4678  1.2842  2.7143
  759MPD2    N111220   1.247   3.444   9.737 -0.1679  0.4716 -0.0860
  759MPD2    H711221   1.156   3.400   9.722 -0.0325  0.0480  0.3461
  760MPD2     C11222   0.894   0.670  11.918 -0.4952 -0.5356 -0.2718
  760MPD2    C111223   1.033   0.683  11.932 -0.0755  0.1487 -0.1336
  760MPD2    C211224   1.107   0.575  11.973 -0.2454  0.0144 -0.2973
  760MPD2    C311225   1.045   0.460  11.998 -0.4768  0.4668  0.4527
  760MPD2    C411226   0.911   0.449  11.999 -0.0802 -0.2203 -0.4767
  760MPD2    C511227   0.834   0.553  11.964  0.1557  0.2265  0.8456
  760MPD2     H11228   1.215   0.575  11.973 -0.2393  1.7800 -1.6059
  760MPD2    H111229   0.858   0.359  12.031 -0.3522  0.1583  0.1422
  760MPD2    H211230   0.822   0.747  11.892  2.0203  1.4654 -1.2760
  760MPD2    H311231   0.726   0.553  11.960  0.2139  2.0000 -0.8551
  760MPD2     N11232   1.106   0.335  12.027  0.2995  0.2561 -0.3629
  760MPD2    H511233   1.049   0.253  12.045 -1.4165  0.8113 -3.0697
  760MPD2    N111234   1.097   0.795  11.873  1.0753 -0.1975 -0.3959
  760MPD2    H711235   1.198   0.794  11.873  1.0722 -0.2890 -1.7868
  761MPD2     C11236   2.886   4.718  11.498 -0.8340  0.3272  0.3736
  761MPD2    C111237   2.988   4.722  11.410 -0.2347  0.0608  0.0890
  761MPD2    C211238   3.096   0.081  11.440  0.0185 -0.1416 -0.9565
  761MPD2    C311239   3.081   0.186  11.529 -0.4071  0.5395 -0.1411
  761MPD2    C411240   2.977   0.186  11.617  0.7210  0.0052  0.3456
  761MPD2    C511241   2.886   0.078  11.610 -0.0256  0.6772 -0.1303
  761MPD2     H11242   3.179   0.084  11.369 -1.6482 -3.2051 -3.0055
  761MPD2    H111243   2.961   0.265  11.690  1.7000  0.0655  0.4966
  761MPD2    H211244   2.804   4.649  11.483 -1.6711  1.5298 -0.6182
  761MPD2    H311245   2.801   0.084  11.677 -0.8258 -0.3851 -1.0719
  761MPD2     N11246   3.164   0.296  11.500 -0.0891  0.1863 -0.0358
  761MPD2    H511247   3.239   0.289  11.432  0.8658 -0.7137  1.1032
  761MPD2    N111248   2.978   4.637  11.296 -0.3956  0.1683  0.0463
  761MPD2    H711249   2.885   4.598  11.293 -1.2300  1.8839  2.9472
  762MPD2     C11250   3.600   4.479  10.782 -0.6282 -0.7164 -0.2679
  762MPD2    C111251   3.480   4.469  10.717 -0.6219 -0.4290  0.8953
  762MPD2    C211252   3.475   4.456  10.583  0.3052 -1.0183  0.0567
  762MPD2    C311253   3.595   4.428  10.518 -0.5194 -0.1796  0.5792
  762MPD2    C411254   3.715   4.439  10.586 -0.0354  0.8546 -0.2924
  762MPD2    C511255   3.720   4.463  10.715 -0.4011 -0.5357 -0.1827
  762MPD2     H11256   3.387   4.456  10.521  0.5673  4.2997 -0.3105
  762MPD2    H111257   3.813   4.431  10.541 -0.0914 -2.8779  0.1853
  762MPD2    H211258   3.604   4.495  10.889 -2.5967 -2.6031  0.0998
  762MPD2    H311259   3.812   4.463  10.772  1.2458 -0.6456 -2.8211
  762MPD2     N11260   3.587   4.406  10.375 -0.0334  0.1161  0.3792
  762MPD2    H511261   3.495   4.405  10.332  0.3806  0.4252 -0.5146
  762MPD2    N111262   3.364   4.482  10.800 -0.0741 -0.3616  0.7919
  762MPD2    H711263   3.382   4.498  10.899  0.3178 -0.3176  0.7141
  763MPD2     C11264   3.787   4.673  16.192 -0.1869  1.3712 -0.5104
  763MPD2    C111265   3.893   0.017  16.137 -0.0556  0.1468 -0.2160
  763MPD2    C211266   3.939   0.129  16.207 -1.1633  0.1933 -0.2454
  763MPD2    C311267   3.893   0.168  16.334 -0.8100 -0.8536 -0.8537
  763MPD2    C411268   3.797   0.089  16.393 -0.7906  0.2357  0.5122
  763MPD2    C511269   3.738   4.715  16.317  0.5387 -0.0072  0.5120
  763MPD2     H11270   4.020   0.184  16.161 -1.3245  0.1660 -0.5616
  763MPD2    H111271   3.763   0.107  16.494 -0.9150  0.1987  0.4769
  763MPD2    H211272   3.724   4.602  16.138  3.0195 -1.3500 -0.6738
  763MPD2    H311273   3.654   4.652  16.347 -0.3547  0.3398 -1.3059
  763MPD2     N11274   3.955   0.270  16.408  0.1085 -0.3718  0.1148
  763MPD2    H511275   4.026   0.329  16.365 -0.7364  0.3177 -0.3437
  763MPD2    N111276   3.939   4.707  16.007 -0.5096 -0.0594  0.1389
  763MPD2    H711277   3.997   0.049  15.959 -1.3105  2.1890  2.3092
  764MPD2     C11278   2.527   1.609  17.014  0.3064 -0.6486  0.4572
  764MPD2    C111279   2.469   1.483  17.016  0.9974  0.3384  0.3573
  764MPD2    C211280   2.517   1.378  17.093  0.2664  0.3789  0.2309
  764MPD2    C311281   2.634   1.401  17.171 -0.6637 -0.5963  0.0633
  764MPD2    C411282   2.697   1.519  17.157 -0.2857 -0.8199  0.1218
  764MPD2    C511283   2.648   1.620  17.083 -0.3195  0.5208  0.2364
  764MPD2     H11284   2.467   1.282  17.088  1.1578 -0.0344 -0.6106
  764MPD2    H111285   2.785   1.541  17.216 -0.6005 -1.5298  0.8462
  764MPD2    H211286   2.498   1.694  16.953  0.3210 -1.4416 -0.6501
  764MPD2    H311287   2.697   1.716  17.093 -1.7259  1.3989 -1.3777
  764MPD2     N11288   2.694   1.296  17.238  0.0053 -0.5963 -0.0708
  764MPD2    H511289   2.637   1.216  17.265 -1.3942  0.4556  0.1195
  764MPD2    N111290   2.348   1.460  16.947 -0.1308 -0.3548  0.4101
  764MPD2    H711291   2.309   1.367  16.955 -0.7067 -0.1187  0.3299
  765MPD2     C11292   1.888   3.691  15.824  0.0697  0.1957 -0.2973
  765MPD2    C111293   1.952   3.803  15.773  0.3403 -0.2665  0.1786
  765MPD2    C211294   2.081   3.778  15.717  0.4771  0.0045 -0.1061
  765MPD2    C311295   2.143   3.648  15.722 -0.4393  0.9406 -0.3178
  765MPD2    C411296   2.076   3.547  15.782  0.1739  0.3266 -1.1232
  765MPD2    C511297   1.953   3.565  15.831 -0.3919 -0.0036  0.3838
  765MPD2     H11298   2.135   3.860  15.671  1.1996 -0.8049 -0.7053
  765MPD2    H111299   2.118   3.447  15.789  0.3073  0.4724  0.2059
  765MPD2    H211300   1.789   3.692  15.868 -0.2492 -1.6809 -0.9491
  765MPD2    H311301   1.894   3.484  15.873  0.0712 -1.9876 -2.7700
  765MPD2     N11302   2.269   3.637  15.666  0.1132  0.4556  0.7643
  765MPD2    H511303   2.313   3.719  15.626  2.0110 -1.1436 -0.3932
  765MPD2    N111304   1.885   3.926  15.777  0.3243 -0.6988  0.4448
  765MPD2    H711305   1.790   3.929  15.813  0.5665 -0.2686  1.0292
  766MPD2     C11306   1.419   4.186  15.289 -0.1059  0.5708  0.2004
  766MPD2    C111307   1.538   4.260  15.299  0.2939  0.9280 -0.4655
  766MPD2    C211308   1.592   4.325  15.182 -0.2678  0.7440  1.1349
  766MPD2    C311309   1.537   4.303  15.054  0.0561  0.6726  0.4450
  766MPD2    C411310   1.429   4.225  15.045 -0.1837  0.1368  0.0482
  766MPD2    C511311   1.370   4.174  15.159  0.4202  0.2115  0.1887
  766MPD2     H11312   1.688   4.375  15.186 -1.6701  3.1528  4.3022
  766MPD2    H111313   1.388   4.205  14.946  2.0269 -0.8052 -0.6828
  766MPD2    H211314   1.365   4.142  15.372  0.9060 -1.4241 -0.1901
  766MPD2    H311315   1.284   4.108  15.157  0.7466 -0.2204  0.5816
  766MPD2     N11316   1.604   4.366  14.946 -0.8552 -0.1952  0.4952
  766MPD2    H511317   1.674   4.436  14.968 -0.2123 -0.3261 -1.1969
  766MPD2    N111318   1.601   4.281  15.423 -0.5751 -0.2230  0.2063
  766MPD2    H711319   1.683   4.340  15.419 -1.8066  1.4971  0.0126
  767MPD2     C11320   1.190   4.455  15.167  0.1106  0.5669  0.5188
  767MPD2    C111321   1.278   4.530  15.086 -0.1845 -0.0294 -0.4489
  767MPD2    C211322   1.268   4.518  14.949  0.1010  0.4327 -0.1556
  767MPD2    C311323   1.170   4.447  14.885  0.2467  0.5403 -0.0633
  767MPD2    C411324   1.088   4.374  14.969 -0.0320  0.4529 -0.3484
  767MPD2    C511325   1.091   4.385  15.108  0.0291  0.4309  0.0649
  767MPD2     H11326   1.329   4.574  14.879  1.8291 -2.5750 -1.0586
  767MPD2    H111327   1.002   4.321  14.930 -0.6361 -0.3220  2.0656
  767MPD2    H211328   1.201   4.463  15.274 -1.2693 -0.3010  0.7286
  767MPD2    H311329   1.018   4.327  15.164  0.9632 -0.4341  0.3781
  767MPD2     N11330   1.180   4.415  14.745 -0.1706 -1.0335  0.1209
  767MPD2    H511331   1.269   4.431  14.701  0.9144 -0.4745  2.4961
  767MPD2    N111332   1.365   4.621  15.147 -0.6338 -0.2614 -0.1164
  767MPD2    H711333   1.383   4.611  15.247  0.8170 -1.0044 -0.4510
  768MPD2     C11334   2.217   3.250  10.341 -0.2438 -0.0033 -0.5706
  768MPD2    C111335   2.157   3.201  10.457 -0.8193 -0.1195  0.4338
  768MPD2    C211336   2.233   3.147  10.561 -0.1070  0.6714  0.6946
  768MPD2    C311337   2.370   3.144  10.551  0.0353 -0.1730 -0.2489
  768MPD2    C411338   2.430   3.198  10.436  0.0186  0.2314 -0.7296
  768MPD2    C511339   2.353   3.256  10.338  0.0902 -0.3171  0.1148
  768MPD2     H11340   2.175   3.115  10.647 -0.0718  1.0359  0.8499
  768MPD2    H111341   2.536   3.186  10.417  0.2445 -1.3762  1.6234
  768MPD2    H211342   2.170   3.276  10.247 -2.1965 -1.5321 -0.0135
  768MPD2    H311343   2.404   3.287  10.248 -0.9160 -1.6859 -0.9307
  768MPD2     N11344   2.454   3.072  10.639  0.3536  0.0891 -0.4467
  768MPD2    H511345   2.553   3.083  10.620  1.1067 -1.7815  2.3754
  768MPD2    N111346   2.019   3.216  10.492  0.4311 -0.8142 -0.0693
  768MPD2    H711347   1.990   3.166  10.575  0.0613 -1.1310 -0.3878
  769MPD2     C11348   3.503   1.131  14.808  0.0227 -0.2284  0.3108
  769MPD2    C111349   3.417   1.064  14.893  0.6269  0.3621  0.4657
  769MPD2    C211350   3.443   1.069  15.032  0.5873 -0.0501  0.0741
  769MPD2    C311351   3.553   1.141  15.075  0.2580  0.2541 -0.2584
  769MPD2    C411352   3.637   1.209  14.992 -0.2804 -0.7184  0.3025
  769MPD2    C511353   3.616   1.200  14.855 -0.6038 -0.1356  0.3335
  769MPD2     H11354   3.382   1.011  15.101  2.5072 -0.8481  1.1138
  769MPD2    H111355   3.732   1.256  15.015 -0.5176 -0.1332  0.0906
  769MPD2    H211356   3.477   1.124  14.702  0.7103  2.4195 -0.0341
  769MPD2    H311357   3.679   1.253  14.784  0.5618  0.2345  1.6258
  769MPD2     N11358   3.557   1.156  15.214 -0.0623  0.0866  0.0611
  769MPD2    H511359   3.488   1.104  15.267 -0.2548  2.8610  2.5571
  769MPD2    N111360   3.302   0.993  14.830  0.2978 -0.0831 -0.1265
  769MPD2    H711361   3.295   0.992  14.729 -0.3299 -0.4858 -0.0842
  770MPD2     C11362   2.654   0.111  14.777 -0.3243  0.1351 -0.5978
  770MPD2    C111363   2.749   0.139  14.877 -0.6052 -0.3634 -0.1225
  770MPD2    C211364   2.836   0.243  14.865  0.4496 -0.1407 -0.2002
  770MPD2    C311365   2.830   0.329  14.750 -0.1836 -0.2156  0.2050
  770MPD2    C411366   2.733   0.297  14.657  0.1377  0.3596 -0.5279
  770MPD2    C511367   2.651   0.193  14.668 -0.2825 -0.2521  0.4752
  770MPD2     H11368   2.900   0.259  14.950  0.3510 -0.5661 -0.0486
  770MPD2    H111369   2.720   0.358  14.569 -0.3759 -0.0376 -0.7267
  770MPD2    H211370   2.591   0.023  14.791 -2.2040  1.1099 -2.9134
  770MPD2    H311371   2.580   0.171  14.590  2.0814  0.7791 -1.9850
  770MPD2     N11372   2.896   0.456  14.746  0.1007  0.2921 -0.7682
  770MPD2    H511373   2.890   0.497  14.654 -0.6418  2.3841  0.2100
  770MPD2    N111374   2.739   0.060  14.990 -0.0289  0.2034  0.5204
  770MPD2    H711375   2.676   4.706  14.984  0.2273  0.0813 -0.5903
  771MPD2     C11376   3.944   3.320  13.453 -0.5834 -0.2372  0.0251
  771MPD2    C111377   3.910   3.450  13.414 -0.7201 -0.3398 -0.5871
  771MPD2    C211378   3.854   3.463  13.280 -0.1041 -0.9489 -0.2013
  771MPD2    C311379   3.803   3.352  13.210 -0.5103  0.8056  0.1142
  771MPD2    C411380   3.823   3.222  13.259 -0.3959 -0.5387 -0.4635
  771MPD2    C511381   3.894   3.214  13.374  0.0626  0.1926  0.1587
  771MPD2     H11382   3.832   3.563  13.244 -0.1307 -0.9155 -0.0916
  771MPD2    H111383   3.778   3.137  13.208  1.2215 -1.1862 -0.7870
  771MPD2    H211384   4.008   3.304  13.539  0.1879 -1.7834 -0.8265
  771MPD2    H311385   3.909   3.110  13.401 -0.4498 -1.0704 -4.4077
  771MPD2     N11386   3.730   3.379  13.095  0.4233 -0.0816 -0.3833
  771MPD2    H511387   3.724   3.478  13.073 -0.3511 -0.5371 -2.2306
  771MPD2    N111388   3.943   3.568  13.492 -0.0959  0.0745  0.4524
  771MPD2    H711389   3.926   3.657  13.447  1.8998 -0.5398 -1.5448
  772MPD2     C11390   3.795   4.018  14.158  0.1947  0.0392 -0.6108
  772MPD2    C111391   3.758   3.918  14.062  0.4026  0.3718 -0.1601
  772MPD2    C211392   3.627   3.907  14.028  0.2274  1.1020  0.1250
  772MPD2    C311393   3.531   3.999  14.075  0.1671 -0.4406 -0.2979
  772MPD2    C411394   3.566   4.084  14.170  0.6321  0.3894  0.7021
  772MPD2    C511395   3.693   4.090  14.214  0.3392 -0.8641 -0.4723
  772MPD2     H11396   3.600   3.831  13.956 -1.0895  0.7805  0.9431
  772MPD2    H111397   3.497   4.149  14.223  0.7880  1.5150 -0.4838
  772MPD2    H211398   3.895   4.034  14.198 -0.3052 -1.1773  1.1304
  772MPD2    H311399   3.711   4.155  14.298 -2.6354 -2.3153  1.2863
  772MPD2     N11400   3.393   3.995  14.026  0.5994  0.2568 -0.1664
  772MPD2    H511401   3.330   4.061  14.072  2.5239  0.8950  1.5254
  772MPD2    N111402   3.850   3.837  13.989 -0.8977  0.4701 -1.1607
  772MPD2    H711403   3.809   3.767  13.928 -2.6146  0.7405 -0.3065
  773MPD2     C11404   2.697   0.135   0.408  0.0856  0.0110 -0.6365
  773MPD2    C111405   2.761   0.055   0.315 -0.2428  0.0840  0.1766
  773MPD2    C211406   2.837   4.669   0.361 -0.3372  0.9205  0.1466
  773MPD2    C311407   2.851   4.643   0.500  0.7803 -0.2474  0.2192
  773MPD2    C411408   2.783   0.005   0.590  0.3621 -0.4552  0.3454
  773MPD2    C511409   2.708   0.111   0.543  0.4831  0.3541  0.3638
  773MPD2     H11410   2.868   4.597   0.287  0.7079  2.1997 -0.6451
  773MPD2    H111411   2.781   4.703   0.695  0.6142 -1.1330  0.1735
  773MPD2    H211412   2.643   0.225   0.382  1.7312  1.6978  1.6578
  773MPD2    H311413   2.656   0.170   0.618 -0.8636  0.2985 -0.5336
  773MPD2     N11414   2.922   4.528   0.538  0.0418 -0.5159 -0.0125
  773MPD2    H511415   2.960   4.475   0.460  0.7212 -0.2423  0.1384
  773MPD2    N111416   2.742   0.082   0.180 -0.5401 -0.8660  0.1350
  773MPD2    H711417   2.775   0.012   0.115  0.5604  1.6143 -1.9236
  774MPD2     C11418   1.806   3.876  13.482 -0.1029  0.1991  0.2998
  774MPD2    C111419   1.866   3.979  13.547 -0.4641  0.0333  0.0625
  774MPD2    C211420   1.920   4.083  13.473  0.5000 -0.7307  0.5172
  774MPD2    C311421   1.907   4.085  13.334 -0.2217 -0.5780  0.2203
  774MPD2    C411422   1.840   3.985  13.269  0.1207  0.0463 -0.1553
  774MPD2    C511423   1.787   3.880  13.342 -1.1544  0.5333  0.0945
  774MPD2     H11424   1.974   4.164  13.521  1.0384 -1.3689  0.9781
  774MPD2    H111425   1.830   3.972  13.162 -1.5820 -1.7952  0.2125
  774MPD2    H211426   1.778   3.784  13.533 -0.3443 -0.5101 -1.1103
  774MPD2    H311427   1.745   3.795  13.289 -0.8874  0.5947 -0.2147
  774MPD2     N11428   1.986   4.177  13.263  0.1498  0.3186 -0.0665
  774MPD2    H511429   2.057   4.221  13.321 -1.3892  0.5752  1.6246
  774MPD2    N111430   1.903   3.983  13.683  0.2553 -0.4926  0.1050
  774MPD2    H711431   1.961   4.063  13.706  0.8700 -1.1033  0.6734
  775MPD2     C11432   3.678   0.740  15.768  0.8281 -0.0454  0.3016
  775MPD2    C111433   3.628   0.862  15.810  0.6448  0.2894  0.2374
  775MPD2    C211434   3.702   0.974  15.773  0.2722 -0.3323  0.0280
  775MPD2    C311435   3.820   0.958  15.708 -0.3920  0.3215 -0.4604
  775MPD2    C411436   3.866   0.832  15.675  0.2331 -0.0077  0.3040
  775MPD2    C511437   3.798   0.723  15.704 -0.2449  0.2446  0.3527
  775MPD2     H11438   3.667   1.073  15.799  0.6450  0.1029 -1.1360
  775MPD2    H111439   3.958   0.821  15.618  0.7894  1.6816  0.8676
  775MPD2    H211440   3.633   0.646  15.798  0.2123  0.3835  0.7382
  775MPD2    H311441   3.838   0.623  15.689 -1.8267 -0.3015 -0.2065
  775MPD2     N11442   3.885   1.068  15.640 -0.3511  0.2284  0.1228
  775MPD2    H511443   3.957   1.054  15.570 -0.4583  2.3075 -0.4087
  775MPD2    N111444   3.511   0.859  15.895 -0.0058  0.2949  0.8428
  775MPD2    H711445   3.467   0.768  15.905  1.2410 -0.6517 -2.3447
  776MPD2     C11446   2.992   2.064  11.141  0.5713 -0.2599  0.4768
  776MPD2    C111447   3.057   1.990  11.236  0.2800 -0.1299  0.7447
  776MPD2    C211448   3.154   2.056  11.301 -0.4664 -0.2194 -0.2949
  776MPD2    C311449   3.196   2.185  11.268  0.7974 -0.8247  0.1363
  776MPD2    C411450   3.134   2.250  11.164  0.2847  0.4701 -0.4584
  776MPD2    C511451   3.027   2.187  11.104 -0.5660 -0.1689  0.5235
  776MPD2     H11452   3.205   2.012  11.386 -0.2935  0.4617 -0.0427
  776MPD2    H111453   3.175   2.346  11.135  0.9920 -0.1720 -1.5765
  776MPD2    H211454   2.902   2.018  11.102  0.3460  0.2552  0.3842
  776MPD2    H311455   2.974   2.234  11.022  1.2536  0.2460 -0.4311
  776MPD2     N11456   3.289   2.264  11.340 -0.3325  0.2200  0.3094
  776MPD2    H511457   3.313   2.353  11.297 -0.2715  0.3578  0.6336
  776MPD2    N111458   3.011   1.858  11.245  0.0795  0.4420 -0.5312
  776MPD2    H711459   2.938   1.825  11.183 -0.5794 -0.3737  0.6578
  777MPD2     C11460   3.430   3.409   1.100  0.6830 -0.4536  0.0815
  777MPD2    C111461   3.324   3.422   1.186 -0.3822  1.1388 -0.6844
  777MPD2    C211462   3.211   3.340   1.166 -0.0270 -0.5844  0.3379
  777MPD2    C311463   3.205   3.257   1.056 -0.0549 -0.1667  0.2261
  777MPD2    C411464   3.313   3.247   0.974  0.2507 -0.0707 -0.8139
  777MPD2    C511465   3.426   3.328   0.994  0.3668  1.3149  0.5993
  777MPD2     H11466   3.126   3.333   1.232 -0.5485  1.2997 -0.1344
  777MPD2    H111467   3.316   3.177   0.892 -0.9008  1.3492 -2.0943
  777MPD2    H211468   3.521   3.469   1.106  0.6211 -0.3811  0.2919
  777MPD2    H311469   3.517   3.312   0.937 -1.5159  0.6378 -2.2120
  777MPD2     N11470   3.085   3.176   1.039 -0.0484  0.4913  0.4533
  777MPD2    H511471   3.018   3.177   1.116 -0.6389  0.6718 -0.0680
  777MPD2    N111472   3.336   3.513   1.292 -0.1126 -0.3959 -0.0339
  777MPD2    H711473   3.428   3.554   1.295 -0.0200 -0.6293  0.2999
  778MPD2     C11474   3.970   3.494  15.333 -0.8998 -0.2583  0.0751
  778MPD2    C111475   3.955   3.396  15.234 -0.8118 -0.5935  0.2743
  778MPD2    C211476   4.046   3.403  15.131  0.6848 -0.2891 -0.4747
  778MPD2    C311477   4.140   3.503  15.119 -0.3131 -0.1685  0.0859
  778MPD2    C411478   4.150   3.596  15.223  0.5485  0.2742  0.8469
  778MPD2    C511479   4.075   3.578  15.335  0.0571  0.3146 -0.0702
  778MPD2     H11480   4.027   3.330  15.054 -0.0049 -0.4814 -0.1250
  778MPD2    H111481   4.231   3.668  15.225 -0.3597  1.4050 -2.0381
  778MPD2    H211482   3.897   3.503  15.413  0.4731 -1.0790  1.4289
  778MPD2    H311483   4.091   3.642  15.421 -2.2118 -0.2320  0.7835
  778MPD2     N11484   4.220   3.509  14.996 -0.3692  0.2699 -0.1067
  778MPD2    H511485   4.207   3.441  14.923  1.7374  0.3344 -0.5544
  778MPD2    N111486   3.844   3.315  15.228 -0.3616  0.2694 -0.3206
  778MPD2    H711487   3.843   3.255  15.146  1.9099  2.5794 -2.0478
  779MPD2     C11488   3.819   2.403  14.489  0.1697 -0.1321  0.5881
  779MPD2    C111489   3.909   2.381  14.387 -0.0220 -0.1262 -0.1596
  779MPD2    C211490   3.973   2.494  14.338  0.3092 -0.5757  0.3594
  779MPD2    C311491   3.959   2.613  14.398 -0.3151  0.1040  0.0363
  779MPD2    C411492   3.879   2.628  14.506  0.7860 -0.4042 -0.4489
  779MPD2    C511493   3.796   2.527  14.542 -0.4959  0.6374  0.2445
  779MPD2     H11494   4.039   2.487  14.252 -0.4798  0.0060 -0.2876
  779MPD2    H111495   3.874   2.720  14.562 -1.6701  0.0750 -1.4401
  779MPD2    H211496   3.764   2.320  14.531 -2.0176  0.2253 -1.6093
  779MPD2    H311497   3.742   2.532  14.636 -1.5533 -0.8879 -0.2746
  779MPD2     N11498   4.040   2.727  14.353 -0.2343 -0.2092  0.6072
  779MPD2    H511499   4.114   2.714  14.285  0.1016  1.2695  0.6826
  779MPD2    N111500   3.937   2.250  14.343 -0.1644 -0.2610  0.1097
  779MPD2    H711501   4.008   2.233  14.272  1.4495  0.1464  1.6492
  780MPD2     C11502   4.223   2.930   1.481 -0.1022 -0.4283 -0.3268
  780MPD2    C111503   4.130   2.830   1.476 -1.2533 -0.4550  0.3309
  780MPD2    C211504   4.063   2.805   1.354  0.5216  0.3803 -0.8246
  780MPD2    C311505   4.099   2.877   1.239  0.6397 -0.1921 -0.2913
  780MPD2    C411506   4.198   2.970   1.246  0.2491 -0.1331 -0.0962
  780MPD2    C511507   4.267   2.997   1.366  0.3907  0.0590 -0.3441
  780MPD2     H11508   3.993   2.722   1.344 -2.9030  3.0698  1.0749
  780MPD2    H111509   4.222   3.035   1.163 -3.3506  0.8897 -0.3348
  780MPD2    H211510   4.268   2.959   1.576  0.0996 -0.7967 -0.3120
  780MPD2    H311511   4.337   3.080   1.363 -0.0527  0.4668  0.8181
  780MPD2     N11512   4.033   2.845   1.113 -0.2303 -0.0683  0.0137
  780MPD2    H511513   3.976   2.762   1.102  0.4625 -0.5359 -0.0976
  780MPD2    N111514   4.096   2.764   1.595  0.2448 -0.4143 -0.0588
  780MPD2    H711515   4.156   2.783   1.675 -0.1011  1.3884 -0.2179
  781MPD2     C11516   4.582   0.176  11.992 -0.1893  0.7036 -1.1313
  781MPD2    C111517   4.617   0.055  11.943 -0.0867 -0.1858  0.1870
  781MPD2    C211518   4.622   0.048  11.807  0.6885  0.2925  0.5805
  781MPD2    C311519   4.587   0.159  11.732 -0.7789  0.2151  0.0039
  781MPD2    C411520   4.552   0.279  11.789 -0.4154  0.6927 -0.2287
  781MPD2    C511521   4.541   0.284  11.924  1.3264  0.0261 -0.0097
  781MPD2     H11522   4.639   4.680  11.755  2.2301  0.6807  0.4042
  781MPD2    H111523   4.539   0.365  11.724  0.7907  0.5379 -0.6739
  781MPD2    H211524   4.575   0.193  12.099  1.3588  0.0155 -0.9196
  781MPD2    H311525   4.514   0.376  11.975  1.0848  0.7056 -1.3542
  781MPD2     N11526   4.594   0.156  11.590  0.3596  0.0556 -0.5040
  781MPD2    H511527   4.577   0.244  11.542 -0.4437 -0.2318 -0.7585
  781MPD2    N111528   4.658   4.669  12.012  0.0198 -0.5181 -0.0540
  781MPD2    H711529   4.666   4.583  11.960 -0.5859 -0.6627  0.0861
  782MPD2     C11530   3.267   0.599  10.117 -0.9320  0.5714  0.2187
  782MPD2    C111531   3.358   0.530  10.192  0.5803 -0.0100  0.3673
  782MPD2    C211532   3.412   0.595  10.304 -0.0200  0.6968 -0.8035
  782MPD2    C311533   3.408   0.732  10.324  0.9586 -0.3908 -0.4594
  782MPD2    C411534   3.331   0.800  10.238 -0.2723 -0.0230  0.4063
  782MPD2    C511535   3.251   0.736  10.142 -0.9689 -0.1458  0.1951
  782MPD2     H11536   3.472   0.542  10.377 -2.2521  0.4198  0.8466
  782MPD2    H111537   3.333   0.909  10.246  1.3890 -0.0093 -0.2824
  782MPD2    H211538   3.217   0.543  10.039 -2.4670  1.9789  0.2024
  782MPD2    H311539   3.178   0.790  10.084  0.7943  1.4894 -0.4704
  782MPD2     N11540   3.474   0.798  10.429 -0.7096 -0.1308  0.6976
  782MPD2    H511541   3.478   0.898  10.410 -1.3759 -0.1000  0.7239
  782MPD2    N111542   3.366   0.395  10.164 -0.0592 -0.3929  0.3026
  782MPD2    H711543   3.288   0.348  10.120 -0.9531 -1.8880  3.4746
  783MPD2     C11544   2.972   0.151  10.916 -0.2340 -0.3716 -0.8363
  783MPD2    C111545   3.079   0.245  10.917 -0.1764  0.4036  0.3981
  783MPD2    C211546   3.167   0.237  10.812 -0.1611  0.1500 -0.2643
  783MPD2    C311547   3.149   0.160  10.701 -0.3759  0.4717 -0.5415
  783MPD2    C411548   3.031   0.084  10.702  0.3643  0.5512 -0.1062
  783MPD2    C511549   2.950   0.073  10.808  0.2386 -0.4540 -0.0821
  783MPD2     H11550   3.253   0.301  10.830  0.3952 -1.6863  3.6419
  783MPD2    H111551   2.999   0.017  10.623 -0.4953  0.0959  0.6346
  783MPD2    H211552   2.894   0.156  10.991 -2.3872 -4.1014 -2.8637
  783MPD2    H311553   2.868   0.002  10.807 -0.4634  0.3652 -0.3864
  783MPD2     N11554   3.248   0.163  10.595  0.3762 -0.0472 -0.0231
  783MPD2    H511555   3.333   0.215  10.611 -0.3743  1.0723  0.3149
  783MPD2    N111556   3.103   0.328  11.033  0.0245  0.7989 -0.4336
  783MPD2    H711557   3.037   0.309  11.107 -0.3454  2.9874 -0.2061
  784MPD2     C11558   1.196   0.415   0.910  0.2802 -0.3186 -0.5476
  784MPD2    C111559   1.145   0.524   0.984  0.0325 -0.2147 -0.0050
  784MPD2    C211560   1.059   0.609   0.915  0.2439 -0.4485  0.7251
  784MPD2    C311561   1.028   0.600   0.785 -0.7166  0.1326  0.2485
  784MPD2    C411562   1.072   0.489   0.717  0.3010 -0.9958  0.2798
  784MPD2    C511563   1.153   0.399   0.783  0.2341  0.4771  0.1609
  784MPD2     H11564   1.021   0.695   0.969 -0.7184  0.5768 -1.5681
  784MPD2    H111565   1.041   0.468   0.615 -1.0886  1.1881  0.2515
  784MPD2    H211566   1.267   0.340   0.944  1.5826  0.2180 -2.1038
  784MPD2    H311567   1.196   0.322   0.720  1.8655  1.2393  0.3316
  784MPD2     N11568   0.932   0.697   0.743  0.3688 -0.2521  0.1083
  784MPD2    H511569   0.885   0.754   0.813  0.1799  0.4221 -0.5683
  784MPD2    N111570   1.181   0.555   1.114 -0.0874  0.3624 -1.0148
  784MPD2    H711571   1.157   0.645   1.155 -0.0657 -0.3815  0.6476
  785MPD2     C11572   0.655   4.634   9.744  0.0633 -0.3002  0.7328
  785MPD2    C111573   0.609   0.013   9.811 -0.3768 -0.3577 -0.5914
  785MPD2    C211574   0.613   0.139   9.752  0.3231  0.3149 -0.3712
  785MPD2    C311575   0.650   0.148   9.620  0.5826  0.0882  0.0736
  785MPD2    C411576   0.684   0.036   9.550 -1.0121  0.2240  0.3043
  785MPD2    C511577   0.695   4.643   9.615 -0.1250  0.6217 -0.3364
  785MPD2     H11578   0.575   0.228   9.802 -1.8949  0.2388 -1.9315
  785MPD2    H111579   0.715   0.037   9.446  0.8323 -0.1571  0.8350
  785MPD2    H211580   0.646   4.535   9.787  0.5520 -0.9818 -0.7315
  785MPD2    H311581   0.728   4.556   9.558 -1.1732  1.1551 -1.7715
  785MPD2     N11582   0.640   0.276   9.563  0.2679 -0.5562 -0.2853
  785MPD2    H511583   0.608   0.349   9.627  2.1924 -2.3742  2.7515
  785MPD2    N111584   0.567   0.006   9.947 -0.2522 -0.1450  0.5566
  785MPD2    H711585   0.527   0.090   9.988 -1.4918 -0.6190  0.3185
  786MPD2     C11586   0.367   1.711  15.251 -0.4051  0.0499  0.7654
  786MPD2    C111587   0.423   1.586  15.256 -1.1080  0.5647 -0.1434
  786MPD2    C211588   0.511   1.565  15.360 -0.2926  0.7285 -0.2509
  786MPD2    C311589   0.552   1.672  15.446 -0.1431  1.1984  0.0278
  786MPD2    C411590   0.487   1.794  15.436 -0.2348  0.2751 -0.0566
  786MPD2    C511591   0.388   1.808  15.346  0.1917  0.1604  0.1334
  786MPD2     H11592   0.553   1.466  15.369  0.9337  1.1848 -0.9200
  786MPD2    H111593   0.505   1.885  15.492 -2.1788  0.5994  0.0397
  786MPD2    H211594   0.301   1.736  15.169  0.3603  0.5319  0.3014
  786MPD2    H311595   0.338   1.903  15.338  0.1541  0.2164  0.9795
  786MPD2     N11596   0.652   1.656  15.544 -0.1922  0.0445 -0.2699
  786MPD2    H511597   0.678   1.736  15.600 -1.2950  1.9007 -2.4387
  786MPD2    N111598   0.389   1.486  15.154 -0.3731 -0.6646  0.5201
  786MPD2    H711599   0.436   1.396  15.161  0.3007 -0.4344 -1.0110
  787MPD2     C11600   0.556   0.755  14.933 -0.0951 -0.6899  0.4833
  787MPD2    C111601   0.466   0.801  14.841 -0.3333 -0.1791 -0.4392
  787MPD2    C211602   0.425   0.710  14.747  0.2098 -0.2941  0.0298
  787MPD2    C311603   0.478   0.579  14.732  0.0290  0.2792  0.0700
  787MPD2    C411604   0.565   0.536  14.828  0.1937 -0.9275  0.0330
  787MPD2    C511605   0.607   0.626  14.921  0.7589 -0.3133  0.0062
  787MPD2     H11606   0.349   0.738  14.674 -0.5727  2.8635  2.0944
  787MPD2    H111607   0.606   0.436  14.836  1.6792 -0.2594  0.7878
  787MPD2    H211608   0.601   0.819  15.008 -0.3691  0.6015 -0.4649
  787MPD2    H311609   0.687   0.593  14.987  1.4520  2.8131  0.7105
  787MPD2     N11610   0.440   0.505  14.619 -0.5785  0.7694 -0.0435
  787MPD2    H511611   0.377   0.548  14.552 -0.8742 -1.0747 -0.9567
  787MPD2    N111612   0.409   0.936  14.832 -0.6399  0.4510  0.3647
  787MPD2    H711613   0.330   0.948  14.769 -0.6979  2.8180  0.8881
  788MPD2     C11614   1.632   0.491   0.838 -0.2529  0.1894 -0.0904
  788MPD2    C111615   1.589   0.373   0.894 -0.4200  0.7706  0.4725
  788MPD2    C211616   1.493   0.298   0.820  0.5623  0.1197  1.0108
  788MPD2    C311617   1.502   0.310   0.677  0.7792 -0.2685  0.2647
  788MPD2    C411618   1.574   0.414   0.631 -0.0516 -0.0837 -0.3043
  788MPD2    C511619   1.631   0.508   0.707  0.8465  0.1283  0.9055
  788MPD2     H11620   1.454   0.213   0.874 -0.0578  0.0059  0.3841
  788MPD2    H111621   1.585   0.418   0.523 -1.4877 -0.5622 -0.4706
  788MPD2    H211622   1.680   0.564   0.901  0.5915 -0.6168  0.1854
  788MPD2    H311623   1.683   0.590   0.659  0.3245 -1.3002 -2.0949
  788MPD2     N11624   1.443   0.215   0.584 -0.2722 -0.3159 -0.2921
  788MPD2    H511625   1.453   0.231   0.484 -0.7281 -0.2952 -0.3365
  788MPD2    N111626   1.623   0.328   1.025 -0.2783  0.0229 -0.7570
  788MPD2    H711627   1.588   0.235   1.047 -0.4561  0.6003  1.3684
  789MPD2     C11628   2.001   4.478  16.056 -0.1205  0.5536  1.0162
  789MPD2    C111629   1.921   4.393  16.130 -0.5431 -0.6224 -0.9630
  789MPD2    C211630   1.820   4.444  16.210 -0.3968 -0.9417 -0.4255
  789MPD2    C311631   1.812   4.580  16.221 -0.0851 -0.8678 -0.0904
  789MPD2    C411632   1.890   4.669  16.147  0.0620  0.4239  0.2079
  789MPD2    C511633   1.979   4.614  16.061  0.3841 -0.0462  0.7816
  789MPD2     H11634   1.768   4.370  16.270 -1.4028  1.3483  1.5228
  789MPD2    H111635   1.884   0.052  16.157  0.1084  0.4547 -0.1158
  789MPD2    H211636   2.086   4.443  15.998 -0.6890  1.0449 -0.1238
  789MPD2    H311637   2.046   4.678  16.006 -0.1735 -0.6363 -0.5944
  789MPD2     N11638   1.719   4.649  16.304 -0.3040  0.4458  0.7274
  789MPD2    H511639   1.716   0.026  16.300  2.1338  0.4223 -1.3427
  789MPD2    N111640   1.928   4.255  16.135 -0.3831 -0.1104 -0.5521
  789MPD2    H711641   1.853   4.210  16.186  0.5724 -0.3651  0.6344
  790MPD2     C11642   2.459   2.186  13.546  0.1134  0.1648  0.2221
  790MPD2    C111643   2.527   2.070  13.541 -0.2995  0.3662 -0.1660
  790MPD2    C211644   2.552   2.015  13.416 -0.3111 -0.1619 -0.3996
  790MPD2    C311645   2.494   2.074  13.299  0.4139 -0.6516 -0.0791
  790MPD2    C411646   2.417   2.189  13.311 -0.1135  0.4764 -0.3103
  790MPD2    C511647   2.409   2.246  13.431 -0.3729 -0.1739  0.1473
  790MPD2     H11648   2.621   1.938  13.383 -3.1502 -1.5263 -3.1091
  790MPD2    H111649   2.381   2.237  13.221 -0.6935 -1.5458 -1.1580
  790MPD2    H211650   2.455   2.246  13.637  2.3636 -0.8038  0.9605
  790MPD2    H311651   2.355   2.341  13.438  0.5230  0.3937 -0.6425
  790MPD2     N11652   2.518   2.006  13.181 -0.0693  0.1493 -0.1819
  790MPD2    H511653   2.576   1.922  13.183  1.1184  1.0326  2.2893
  790MPD2    N111654   2.583   2.009  13.659  0.2424  0.0659  0.2753
  790MPD2    H711655   2.565   2.060  13.745 -4.7462 -2.0612  0.4738
  791MPD2     C11656   2.151   1.890  12.464  0.3930  0.1713 -0.2643
  791MPD2    C111657   2.190   1.786  12.552 -0.1390 -0.2647 -0.6425
  791MPD2    C211658   2.113   1.675  12.548  0.3064 -0.3195 -0.1351
  791MPD2    C311659   2.009   1.656  12.459 -0.5883  0.1919 -0.0980
  791MPD2    C411660   1.974   1.753  12.375 -0.3490 -0.1836  0.8498
  791MPD2    C511661   2.047   1.867  12.379 -0.1419 -0.0980  0.3973
  791MPD2     H11662   2.135   1.588  12.609 -0.0377 -0.8424 -0.7499
  791MPD2    H111663   1.899   1.742  12.297 -0.9521  0.8372  1.2855
  791MPD2    H211664   2.210   1.981  12.464  1.3555 -0.4536 -1.8081
  791MPD2    H311665   2.018   1.948  12.312  1.1182  0.6711  0.7844
  791MPD2     N11666   1.956   1.524  12.447 -0.0190 -0.0476  0.1446
  791MPD2    H511667   2.007   1.453  12.499 -0.8791  0.5480  1.8028
  791MPD2    N111668   2.299   1.802  12.640  0.1625  0.3423  0.3282
  791MPD2    H711669   2.336   1.897  12.648  2.2821 -0.7873  4.1541
  792MPD2     C11670   3.545   1.346  11.167 -0.1964  0.2684  0.0842
  792MPD2    C111671   3.433   1.413  11.117 -0.0383  0.0829 -0.7379
  792MPD2    C211672   3.322   1.339  11.081  0.3439  0.1675  0.5141
  792MPD2    C311673   3.322   1.204  11.074 -1.0876 -0.5751 -0.2900
  792MPD2    C411674   3.440   1.142  11.095 -0.1680  0.0679 -0.0303
  792MPD2    C511675   3.548   1.213  11.149 -0.6186 -0.4658 -0.3948
  792MPD2     H11676   3.233   1.399  11.066  0.5731  0.5341  0.6190
  792MPD2    H111677   3.447   1.034  11.105  0.7613  0.1325  0.0460
  792MPD2    H211678   3.637   1.387  11.206 -0.2512 -0.3762  0.9012
  792MPD2    H311679   3.644   1.168  11.172 -0.1644  2.2784  3.0800
  792MPD2     N11680   3.208   1.123  11.049 -0.1616  0.8910 -0.3124
  792MPD2    H511681   3.229   1.024  11.058  0.9221  1.3128  1.5656
  792MPD2    N111682   3.448   1.554  11.102  0.5107  0.2455  0.4968
  792MPD2    H711683   3.538   1.593  11.125  0.7535 -0.9606  1.5715
  793MPD2     C11684   2.413   1.114  10.446 -0.3403 -0.1117 -0.2587
  793MPD2    C111685   2.538   1.170  10.446 -0.9397  0.2367 -0.0824
  793MPD2    C211686   2.623   1.143  10.553 -0.3180  0.4070  0.0298
  793MPD2    C311687   2.581   1.078  10.666  0.1256  0.0770  0.3280
  793MPD2    C411688   2.454   1.031  10.667  0.4866  0.6001 -0.2693
  793MPD2    C511689   2.371   1.044  10.557 -0.4634  0.1405  0.2961
  793MPD2     H11690   2.723   1.184  10.542  0.6095 -2.2445 -1.3831
  793MPD2    H111691   2.397   0.998  10.753 -0.2914  0.3548 -0.8811
  793MPD2    H211692   2.341   1.134  10.368  1.2994  2.0445 -1.2349
  793MPD2    H311693   2.268   1.012  10.567 -0.8024  0.6892 -1.3676
  793MPD2     N11694   2.671   1.071  10.780  0.1947 -0.2377 -0.6476
  793MPD2    H511695   2.756   1.125  10.769  0.0851 -0.2854 -1.7931
  793MPD2    N111696   2.604   1.241  10.341 -0.4933  0.4710 -0.3966
  793MPD2    H711697   2.697   1.279  10.355 -0.6692  1.7576 -2.5993
  794MPD2     C11698   2.757   0.544  17.152 -0.5567 -0.0701 -0.4315
  794MPD2    C111699   2.674   0.432  17.139 -0.2137 -0.1182 -0.4312
  794MPD2    C211700   2.605   0.420  17.019 -0.0848 -0.2194 -0.0725
  794MPD2    C311701   2.620   0.509  16.913 -0.8994 -0.1340 -0.3674
  794MPD2    C411702   2.710   0.612  16.927 -0.2491 -0.0470  0.6389
  794MPD2    C511703   2.772   0.629  17.046  0.0869 -0.1343  0.5569
  794MPD2     H11704   2.530   0.342  17.011 -0.0753 -0.2597  0.2250
  794MPD2    H111705   2.723   0.679  16.843 -0.4370  0.0262  0.6684
  794MPD2    H211706   2.813   0.564  17.243 -1.2018  2.6801 -0.6138
  794MPD2    H311707   2.840   0.712  17.058 -0.2010  0.4169 -1.5673
  794MPD2     N11708   2.542   0.501  16.794 -0.4316  0.2606  0.3448
  794MPD2    H511709   2.531   0.583  16.736 -2.2403 -0.7068 -0.6678
  794MPD2    N111710   2.651   0.347  17.250 -0.5154 -0.3257  0.3344
  794MPD2    H711711   2.576   0.279  17.239  1.1059 -1.7597 -1.8018
  795MPD2     C11712   0.314   2.571  13.358 -0.4201  0.1563 -0.6688
  795MPD2    C111713   0.364   2.638  13.252  0.6283  0.7698 -0.2560
  795MPD2    C211714   0.500   2.639  13.232 -0.1069  0.1549  0.1530
  795MPD2    C311715   0.586   2.569  13.316  0.8278  0.1419 -0.3879
  795MPD2    C411716   0.534   2.490  13.416  0.0512  0.6868 -0.2728
  795MPD2    C511717   0.399   2.499  13.442 -0.2912  0.2889  0.4891
  795MPD2     H11718   0.544   2.685  13.144  0.7330  2.1915  1.6242
  795MPD2    H111719   0.600   2.436  13.483  0.3278  1.3816  0.0113
  795MPD2    H211720   0.207   2.555  13.363 -0.3632  0.3365  1.1314
  795MPD2    H311721   0.361   2.442  13.525  1.2688 -1.7663 -0.2235
  795MPD2     N11722   0.719   2.568  13.282 -0.3910  0.3956 -0.3960
  795MPD2    H511723   0.745   2.600  13.189  1.0008  0.5802  0.0516
  795MPD2    N111724   0.273   2.698  13.168  0.0281 -0.7165 -0.3197
  795MPD2    H711725   0.174   2.679  13.179 -0.2364  1.6467  1.3914
  796MPD2     C11726   0.019   4.447  15.624  0.2419  0.3033  0.4080
  796MPD2    C111727   4.654   4.456  15.730  0.3421  0.3925  0.0627
  796MPD2    C211728   4.634   4.584  15.774 -0.3913 -0.9403  0.3027
  796MPD2    C311729   4.675   4.705  15.728  0.6306  0.8751  0.2970
  796MPD2    C411730   0.039   4.695  15.622  0.4389 -0.1017 -0.3195
  796MPD2    C511731   0.068   4.569  15.577  0.0441  0.2166 -0.5755
  796MPD2     H11732   4.563   4.586  15.856 -0.6824 -4.0484  0.1358
  796MPD2    H111733   0.088   0.056  15.577 -0.1688  0.2080 -0.3951
  796MPD2    H211734   0.051   4.353  15.580 -0.5410 -1.3949  3.4775
  796MPD2    H311735   0.140   4.575  15.496  0.1131  1.6348 -0.4084
  796MPD2     N11736   4.637   0.105  15.778 -0.3410 -0.0709  0.3634
  796MPD2    H511737   4.685   0.184  15.737 -0.6620 -0.8566 -1.5824
  796MPD2    N111738   4.612   4.354  15.814  0.1038 -0.4010  0.0780
  796MPD2    H711739   4.549   4.379  15.890 -1.3056 -0.0178 -1.2190
  797MPD2     C11740   0.643   4.140  16.845 -0.4738  0.2683  0.1840
  797MPD2    C111741   0.611   4.211  16.961  0.3095  0.4586 -0.1855
  797MPD2    C211742   0.481   4.224  16.999  0.5884 -0.0683  0.6584
  797MPD2    C311743   0.372   4.164  16.928  0.4839  0.8520  0.3028
  797MPD2    C411744   0.400   4.099  16.816 -0.3283 -0.0386  0.1988
  797MPD2    C511745   0.535   4.082  16.777  0.6455 -0.2648 -0.1558
  797MPD2     H11746   0.462   4.302  17.072 -0.3143  1.4482 -1.1807
  797MPD2    H111747   0.318   4.066  16.753  0.3790 -0.4396 -0.5218
  797MPD2    H211748   0.741   4.141  16.798 -2.2203 -1.8046 -3.5197
  797MPD2    H311749   0.562   4.027  16.688  0.1168  0.5095 -0.7984
  797MPD2     N11750   0.238   4.188  16.968 -1.1741 -0.1971 -0.0153
  797MPD2    H511751   0.167   4.164  16.900  0.5051  0.9626 -2.2006
  797MPD2    N111752   0.712   4.276  17.032  0.3047 -0.0889 -0.3228
  797MPD2    H711753   0.682   4.320  17.118 -1.4099 -1.3456 -0.2720
  798MPD2     C11754   0.278   0.020  17.384  0.1804  0.3656 -0.1686
  798MPD2    C111755   0.288   4.621  17.335 -0.1828  0.0251 -0.0003
  798MPD2    C211756   0.412   4.558  17.333  0.7129  0.5713  0.2572
  798MPD2    C311757   0.521   4.625  17.367  0.4104 -0.1633  0.0806
  798MPD2    C411758   0.507   0.034  17.404 -0.0431  0.0257  0.2359
  798MPD2    C511759   0.385   0.093  17.425 -0.4758 -0.0142  0.2162
  798MPD2     H11760   0.415   4.454  17.301 -0.7390  0.4419  0.5495
  798MPD2    H111761   0.597   0.091  17.424  1.9930 -2.0253 -3.0830
  798MPD2    H211762   0.177   0.059  17.393 -0.7326 -1.8611 -0.7236
  798MPD2    H311763   0.374   0.199  17.442  0.1070 -0.2258  1.9186
  798MPD2     N11764   0.643   4.563  17.328  0.0323  0.3626  0.2569
  798MPD2    H511765   0.628   4.475  17.281  0.5850  0.1993  0.3845
  798MPD2    N111766   0.179   4.550  17.283  0.1463  0.3409 -0.1296
  798MPD2    H711767   0.208   4.458  17.250  0.4205  0.2707  0.2998
  799MPD2     C11768   4.257   0.977  14.565 -0.7345 -0.9615 -0.1700
  799MPD2    C111769   4.227   0.881  14.463  0.1080 -0.3718 -0.3672
  799MPD2    C211770   4.191   0.931  14.338 -0.4691 -0.3532  0.3392
  799MPD2    C311771   4.192   1.069  14.309 -0.2772 -0.8976  0.6244
  799MPD2    C411772   4.235   1.158  14.402  0.2043 -0.2450  0.0133
  799MPD2    C511773   4.269   1.111  14.531  0.3215  0.4402 -0.6050
  799MPD2     H11774   4.162   0.860  14.262  0.9687 -0.4136 -0.1679
  799MPD2    H111775   4.241   1.263  14.373 -1.5399  0.2208  1.3106
  799MPD2    H211776   4.281   0.950  14.667 -0.9691 -2.9216 -0.6427
  799MPD2    H311777   4.303   1.175  14.612  0.7862 -0.7703  0.1547
  799MPD2     N11778   4.155   1.120  14.185 -0.2000 -0.7962 -0.7444
  799MPD2    H511779   4.181   1.215  14.162  1.6121 -0.6779  1.7750
  799MPD2    N111780   4.239   0.739  14.487 -0.0395  0.4230  0.8661
  799MPD2    H711781   4.184   0.669  14.438  1.5804  0.9680 -1.7086
  800MPD2     C11782   0.448   1.516  14.422 -0.0485 -0.3471  0.6168
  800MPD2    C111783   0.573   1.564  14.392 -0.5829  0.0416 -0.9643
  800MPD2    C211784   0.613   1.557  14.260 -0.8173  0.2135  0.3829
  800MPD2    C311785   0.532   1.508  14.156  0.4443  0.3849 -0.6858
  800MPD2    C411786   0.408   1.458  14.193 -0.2891 -0.4757 -0.4061
  800MPD2    C511787   0.362   1.469  14.321 -0.6126  0.5249  0.4390
  800MPD2     H11788   0.717   1.562  14.230 -0.8807  0.1034  0.1445
  800MPD2    H111789   0.337   1.431  14.115  0.2326  1.1551 -1.4453
  800MPD2    H211790   0.398   1.521  14.518  0.8487 -0.9155  1.1114
  800MPD2    H311791   0.259   1.441  14.340 -0.1370 -0.5085  1.4967
  800MPD2     N11792   0.576   1.506  14.021 -0.1032  0.2754 -0.0488
  800MPD2    H511793   0.657   1.552  13.981  0.0608 -0.4345 -0.5304
  800MPD2    N111794   0.650   1.612  14.504 -0.1344  0.4483 -0.1911
  800MPD2    H711795   0.604   1.595  14.592  0.1030  0.2260 -0.1101
  801MPD2     C11796   0.452   2.203  14.056  0.2363 -0.1612 -0.2715
  801MPD2    C111797   0.432   2.129  14.169  0.3722  0.2290  0.2242
  801MPD2    C211798   0.297   2.127  14.211  0.1808  0.6075 -0.3966
  801MPD2    C311799   0.197   2.211  14.151 -0.0581 -0.0517 -0.0154
  801MPD2    C411800   0.236   2.292  14.045 -0.0245  0.3094 -1.0222
  801MPD2    C511801   0.358   2.281  13.990  0.5004 -0.2727 -0.2593
  801MPD2     H11802   0.261   2.052  14.280  0.5439  0.3376 -0.4998
  801MPD2    H111803   0.170   2.362  13.994 -2.5497 -1.6278 -0.4292
  801MPD2    H211804   0.552   2.215  14.015  0.6695  1.8867  1.3651
  801MPD2    H311805   0.395   2.357  13.923  2.0290 -2.5059 -1.9662
  801MPD2     N11806   0.057   2.208  14.190  0.0257 -0.0875  0.3051
  801MPD2    H511807   4.723   2.273  14.139  0.1742 -1.1683 -1.2475
  801MPD2    N111808   0.531   2.041  14.228 -0.1782  0.3476 -0.1061
  801MPD2    H711809   0.495   1.989  14.307 -2.5914 -1.2176 -2.2381
  802MPD2     C11810   4.194   3.769  17.649  0.2748 -0.1215 -0.4188
  802MPD2    C111811   4.183   3.707   0.069  0.1598  1.0996 -0.6585
  802MPD2    C211812   4.247   3.588   0.093 -0.7779  0.2402 -0.0902
  802MPD2    C311813   4.344   3.534   0.005 -0.2506  0.4651 -0.4506
  802MPD2    C411814   4.370   3.613  17.594 -0.7948 -0.6994  0.4176
  802MPD2    C511815   4.295   3.726  17.571 -0.3445 -0.3072  0.2840
  802MPD2     H11816   4.226   3.532   0.183  1.8790  0.4058  0.6504
  802MPD2    H111817   4.452   3.589  17.527 -0.1148  0.9352  0.6516
  802MPD2    H211818   4.152   3.867  17.630 -0.3510 -0.4469 -0.6825
  802MPD2    H311819   4.312   3.794  17.488  1.8249  0.4900  1.3955
  802MPD2     N11820   4.413   3.419   0.048 -0.9873 -0.5006 -0.6153
  802MPD2    H511821   4.382   3.373   0.133  1.2993  0.0988  0.5305
  802MPD2    N111822   4.088   3.754   0.165  0.5928  0.4390 -0.9591
  802MPD2    H711823   4.069   3.696   0.246 -0.9152  1.1392 -0.8033
  803MPD2     C11824   1.003   1.346  11.521  0.5453 -0.2240 -0.1131
  803MPD2    C111825   1.073   1.347  11.638 -0.0839  0.3006 -0.2877
  803MPD2    C211826   1.017   1.287  11.753  0.5487 -0.3844  0.1799
  803MPD2    C311827   0.886   1.239  11.751  0.3014 -0.0933 -0.5591
  803MPD2    C411828   0.822   1.235  11.635 -0.7179 -0.3006  0.4827
  803MPD2    C511829   0.880   1.286  11.521 -0.7947  0.4981  0.7122
  803MPD2     H11830   1.082   1.267  11.837  0.7409 -0.7561 -0.0529
  803MPD2    H111831   0.724   1.190  11.634 -0.8313 -0.0047 -1.0219
  803MPD2    H211832   1.044   1.381  11.427  1.3083  0.7124  0.5777
  803MPD2    H311833   0.841   1.283  11.420  0.0393 -1.9419  0.4692
  803MPD2     N11834   0.817   1.193  11.865 -0.4738  0.2482  0.5518
  803MPD2    H511835   0.720   1.167  11.846 -0.3872  0.1560  0.2307
  803MPD2    N111836   1.206   1.394  11.649 -0.5617  1.1296 -0.1149
  803MPD2    H711837   1.250   1.389  11.740  1.4268  2.7786 -0.9955
  804MPD2     C11838   0.399   2.593  16.787 -0.2253  0.4405  0.3205
  804MPD2    C111839   0.397   2.603  16.922 -0.5424  0.7598 -0.0023
  804MPD2    C211840   0.363   2.721  16.979 -0.2581 -0.2224 -0.3540
  804MPD2    C311841   0.330   2.831  16.898 -0.4792  0.8064 -0.9414
  804MPD2    C411842   0.335   2.825  16.761  0.0566  0.3831 -0.2340
  804MPD2    C511843   0.373   2.699  16.709  0.2819  0.3417  0.3425
  804MPD2     H11844   0.352   2.735  17.086 -2.5525 -1.2216 -0.4656
  804MPD2    H111845   0.331   2.896  16.679  1.9457  0.6229 -0.1319
  804MPD2    H211846   0.417   2.499  16.736 -1.9406  1.0656 -1.4347
  804MPD2    H311847   0.371   2.687  16.601 -1.7551  0.9735  0.3088
  804MPD2     N11848   0.282   2.950  16.957 -0.6168 -0.8582 -0.0861
  804MPD2    H511849   0.303   2.959  17.056 -0.5096 -0.8401 -0.1105
  804MPD2    N111850   0.418   2.493  17.008 -0.2796  0.2896  0.1134
  804MPD2    H711851   0.400   2.532  17.100 -0.6572  3.8879 -1.4612
  805MPD2     C11852   4.036   0.698  15.416 -0.1804  0.0881 -0.3230
  805MPD2    C111853   4.089   0.814  15.360 -0.2412  0.2581 -0.2026
  805MPD2    C211854   4.212   0.861  15.403  0.1456 -0.5318 -0.4829
  805MPD2    C311855   4.289   0.786  15.488 -0.2330  1.0084 -0.3457
  805MPD2    C411856   4.238   0.671  15.544  0.5840 -0.5976  0.2380
  805MPD2    C511857   4.116   0.626  15.502 -0.1663  0.1188  0.8229
  805MPD2     H11858   4.252   0.955  15.365 -1.5370  0.0121 -0.9408
  805MPD2    H111859   4.280   0.598  15.613 -0.2921 -1.4887 -0.1764
  805MPD2    H211860   3.952   0.650  15.367  0.2104 -1.1527  0.2247
  805MPD2    H311861   4.081   0.537  15.553 -1.8150 -0.0415 -0.5801
  805MPD2     N11862   4.424   0.821  15.517  0.4032 -0.2059 -0.3424
  805MPD2    H511863   4.464   0.890  15.454  0.1100  0.3655  0.1057
  805MPD2    N111864   4.026   0.889  15.263 -0.5850  0.5420 -0.2709
  805MPD2    H711865   4.069   0.973  15.226 -2.2684  0.5104 -2.2660
  806MPD2     C11866   4.256   0.416   0.282  0.2145 -0.2967 -0.3605
  806MPD2    C111867   4.379   0.423   0.343  0.3803  0.3019 -0.2965
  806MPD2    C211868   4.486   0.382   0.261 -0.3744 -0.1203  0.4120
  806MPD2    C311869   4.473   0.336   0.134 -0.2871  0.6859  0.8402
  806MPD2    C411870   4.349   0.346   0.069  0.2213  0.0513  1.0132
  806MPD2    C511871   4.245   0.380   0.147 -1.1222  0.0664  0.3677
  806MPD2     H11872   4.589   0.380   0.293  0.7330  2.2900 -3.0253
  806MPD2    H111873   4.339   0.321  17.666  1.3079  0.7534  0.7417
  806MPD2    H211874   4.160   0.423   0.332  0.3665 -0.6962 -0.0080
  806MPD2    H311875   4.143   0.380   0.109 -2.3332  0.3578  3.6056
  806MPD2     N11876   4.593   0.287   0.082 -0.2189 -0.5999  0.2993
  806MPD2    H511877   4.680   0.304   0.132  0.1090  1.6990 -1.0588
  806MPD2    N111878   4.392   0.466   0.478 -0.2282  0.0227 -0.0807
  806MPD2    H711879   4.308   0.495   0.527  0.5137  0.1745  1.1078
  807MPD2     C11880   4.229   0.387   1.239  0.5362 -0.1688  0.3883
  807MPD2    C111881   4.358   0.447   1.217 -0.7347 -0.4049  0.6601
  807MPD2    C211882   4.451   0.444   1.319  0.5310 -0.2987  0.9290
  807MPD2    C311883   4.422   0.384   1.444  0.2222 -0.3267 -0.6593
  807MPD2    C411884   4.296   0.324   1.463  0.1318 -0.5701 -0.9837
  807MPD2    C511885   4.203   0.329   1.363  0.3657 -0.4022  0.2944
  807MPD2     H11886   4.535   0.512   1.309 -0.7049  1.1101  0.2568
  807MPD2    H111887   4.271   0.271   1.554 -0.0516 -0.0750 -0.7429
  807MPD2    H211888   4.148   0.376   1.169  1.2767 -0.0752 -0.4793
  807MPD2    H311889   4.115   0.273   1.394 -0.3417 -0.0830 -1.1753
  807MPD2     N11890   4.516   0.391   1.545  0.1952  0.0487  0.4966
  807MPD2    H511891   4.601   0.442   1.523  0.5422 -0.9335 -0.3797
  807MPD2    N111892   4.389   0.513   1.093 -0.0090 -0.6923  0.2185
  807MPD2    H711893   4.484   0.549   1.092  0.1615 -1.0934  1.6222
  808MPD2     C11894   0.298   2.017  10.251 -0.2902 -0.3925  0.0755
  808MPD2    C111895   0.396   1.934  10.304  0.4054 -0.5659  0.3914
  808MPD2    C211896   0.530   1.973  10.295 -1.0441  0.3250 -0.3846
  808MPD2    C311897   0.565   2.101  10.243  0.0590 -0.2072 -0.2523
  808MPD2    C411898   0.462   2.186  10.207 -0.2490 -0.7682 -0.2191
  808MPD2    C511899   0.329   2.147  10.213  0.7546  0.5011 -0.0277
  808MPD2     H11900   0.597   1.892  10.322 -0.8590  0.7975  0.5883
  808MPD2    H111901   0.491   2.286  10.175 -1.1989 -0.4813 -0.1868
  808MPD2    H211902   0.192   1.998  10.263  0.0619 -0.6637  2.8566
  808MPD2    H311903   0.253   2.223  10.198 -0.9779 -1.2054  0.1292
  808MPD2     N11904   0.699   2.146  10.217 -0.3777 -0.0802 -0.5492
  808MPD2    H511905   0.707   2.239  10.177 -0.1541  0.5828  1.0235
  808MPD2    N111906   0.370   1.803  10.362  0.6017  0.1820  0.5054
  808MPD2    H711907   0.455   1.754  10.391  1.4062 -0.5542 -3.0678
  809MPD2     C11908   1.266   1.527   9.858  0.4807 -0.2323 -0.9500
  809MPD2    C111909   1.338   1.586   9.958  0.5774 -1.4041  0.6854
  809MPD2    C211910   1.310   1.713   9.993  0.2159 -0.8340  0.1259
  809MPD2    C311911   1.221   1.786   9.919  0.1939  0.2934 -0.2264
  809MPD2    C411912   1.156   1.731   9.811  0.3990  0.2117  0.7955
  809MPD2    C511913   1.176   1.600   9.783  0.0829  0.1487  0.0856
  809MPD2     H11914   1.367   1.754  10.075  1.1183 -0.6305 -0.5974
  809MPD2    H111915   1.084   1.787   9.752  0.5484 -0.5200 -0.0850
  809MPD2    H211916   1.284   1.423   9.835 -2.8690 -1.4425  1.8944
  809MPD2    H311917   1.124   1.550   9.702 -0.5227  0.7050  0.1338
  809MPD2     N11918   1.172   1.911   9.968 -0.3847 -0.7516  0.2782
  809MPD2    H511919   1.085   1.945   9.927 -0.3720 -1.6323 -0.4753
  809MPD2    N111920   1.430   1.516  10.045  0.4909  0.1160 -0.1133
  809MPD2    H711921   1.444   1.559  10.136  2.0786 -0.4319 -0.1134
  810MPD2     C11922   4.632   1.595  11.170  0.1857  0.1954 -0.6302
  810MPD2    C111923   4.580   1.617  11.047  0.3563  0.5273  0.5072
  810MPD2    C211924   4.573   1.745  10.998  0.8593  0.3569  0.2202
  810MPD2    C311925   4.607   1.856  11.075 -0.3537 -0.6903 -0.0254
  810MPD2    C411926   4.671   1.829  11.190 -0.5843 -0.0215  0.0091
  810MPD2    C511927   4.680   1.705  11.232 -0.0582 -0.1012 -0.2796
  810MPD2     H11928   4.524   1.752  10.901 -0.8994  1.6168  1.1987
  810MPD2    H111929   4.709   1.912  11.248 -2.5130  0.7653  0.1113
  810MPD2    H211930   4.644   1.499  11.219  1.4004  0.0370 -1.2372
  810MPD2    H311931   0.015   1.676  11.317 -0.7355  1.1442  0.6139
  810MPD2     N11932   4.604   1.991  11.027 -0.0508 -0.7882  0.5547
  810MPD2    H511933   4.643   2.058  11.093  1.2080  1.3567 -2.4160
  810MPD2    N111934   4.539   1.500  10.977  0.4496 -0.2290  0.7091
  810MPD2    H711935   4.581   1.417  11.016 -1.8548 -1.6789  0.1511
  811MPD2     C11936   3.985   1.236  10.305 -0.6481  0.7270  0.2824
  811MPD2    C111937   4.106   1.300  10.318 -0.0589  0.5053  0.3554
  811MPD2    C211938   4.125   1.409  10.237 -0.1924 -0.2818  0.5022
  811MPD2    C311939   4.028   1.464  10.154  0.3009  0.2263 -0.7705
  811MPD2    C411940   3.909   1.398  10.134  0.0491 -0.2448 -0.5626
  811MPD2    C511941   3.890   1.282  10.213 -0.5234 -0.5820 -0.2081
  811MPD2     H11942   4.226   1.448  10.232 -0.1670 -0.4617 -0.4061
  811MPD2    H111943   3.826   1.423  10.068 -0.9567 -1.3315  0.2949
  811MPD2    H211944   3.958   1.151  10.367 -0.0375  0.6976  0.5042
  811MPD2    H311945   3.792   1.235  10.206 -0.4665 -0.6501 -0.5643
  811MPD2     N11946   4.069   1.577  10.089 -0.4726  0.0654 -0.1059
  811MPD2    H511947   4.148   1.624  10.133 -0.8007 -1.7297  2.3869
  811MPD2    N111948   4.178   1.263  10.431  0.4921 -0.0361  0.0109
  811MPD2    H711949   4.144   1.190  10.492 -1.0832 -0.4565 -1.3671
  812MPD2     C11950   3.887   1.791  12.731 -0.2702 -0.0714 -0.2597
  812MPD2    C111951   3.757   1.809  12.769  0.4564  0.2164 -0.3626
  812MPD2    C211952   3.716   1.735  12.878  0.1188 -0.2173 -0.0595
  812MPD2    C311953   3.809   1.648  12.946  0.3863 -0.2002  0.1253
  812MPD2    C411954   3.943   1.661  12.914  0.1835  0.3387  0.6283
  812MPD2    C511955   3.976   1.730  12.803 -0.4872  0.3784  0.7413
  812MPD2     H11956   3.618   1.747  12.923 -0.1103 -0.6526 -0.4427
  812MPD2    H111957   4.023   1.610  12.967  0.3812 -2.1832 -2.0609
  812MPD2    H211958   3.917   1.845  12.642 -0.4034  1.4624  0.6282
  812MPD2    H311959   4.082   1.731  12.779 -0.0593  0.7940  2.6494
  812MPD2     N11960   3.765   1.561  13.050  0.4031 -0.1537 -0.1992
  812MPD2    H511961   3.671   1.573  13.087  1.0323  0.7375  1.1171
  812MPD2    N111962   3.673   1.883  12.687  0.0307  0.0759  0.3381
  812MPD2    H711963   3.721   1.925  12.608 -2.1653 -0.6333 -1.3567
  813MPD2     C11964   2.776   3.122  12.562  0.6296  0.1300  0.2389
  813MPD2    C111965   2.761   3.254  12.570 -0.5896 -0.6316  0.2744
  813MPD2    C211966   2.730   3.307  12.696 -0.3163  0.2050  0.1806
  813MPD2    C311967   2.738   3.234  12.812  0.0046 -0.1714  0.4592
  813MPD2    C411968   2.754   3.099  12.799  0.3288 -0.0203 -0.5573
  813MPD2    C511969   2.771   3.047  12.669  0.4000  0.5670 -0.2082
  813MPD2     H11970   2.734   3.414  12.713 -1.4825  0.6747 -2.4172
  813MPD2    H111971   2.743   3.034  12.885  2.0900  0.1545 -0.2012
  813MPD2    H211972   2.792   3.064  12.472 -1.1284 -0.8950  0.5845
  813MPD2    H311973   2.794   2.941  12.670 -0.6527  0.3360 -2.0755
  813MPD2     N11974   2.721   3.307  12.934 -0.5081 -0.7206 -0.1586
  813MPD2    H511975   2.688   3.403  12.938 -0.1104 -0.5219 -1.8753
  813MPD2    N111976   2.750   3.331  12.455 -0.1895 -0.5552  0.3455
  813MPD2    H711977   2.720   3.281  12.372 -0.0569 -2.1556  1.2796
  814MPD2     C11978   3.163   4.068  12.443  0.2196  0.2112  0.8913
  814MPD2    C111979   3.178   4.158  12.342 -0.2626 -0.2246 -0.0838
  814MPD2    C211980   3.167   4.289  12.376  0.1603  0.2945 -0.3522
  814MPD2    C311981   3.155   4.331  12.512 -0.2233  0.6360  0.4034
  814MPD2    C411982   3.137   4.242  12.612  0.4038  0.6055  0.0276
  814MPD2    C511983   3.139   4.110  12.572  0.6527 -0.5377 -0.2074
  814MPD2     H11984   3.189   4.360  12.297 -1.7117  1.9910  0.6184
  814MPD2    H111985   3.130   4.278  12.714 -0.3963  2.1318 -0.5685
  814MPD2    H211986   3.169   3.962  12.421  0.2958  0.5657 -0.7913
  814MPD2    H311987   3.142   4.033  12.648  2.6179  0.4370  0.6930
  814MPD2     N11988   3.156   4.467  12.547 -0.4806 -0.2829  1.1438
  814MPD2    H511989   3.157   4.489  12.646 -0.7000  2.0104  0.6518
  814MPD2    N111990   3.182   4.123  12.204 -0.3638 -0.3908 -0.2440
  814MPD2    H711991   3.205   4.204  12.148 -0.1889 -0.1707  0.1436
  815MPD2     C11992   3.455   2.664  12.143 -0.0794  0.2462 -0.1418
  815MPD2    C111993   3.427   2.740  12.038  0.2467 -0.5308  0.1693
  815MPD2    C211994   3.291   2.757  11.997 -0.0034  0.0356 -0.0536
  815MPD2    C311995   3.189   2.702  12.072 -0.6359  0.1461  1.0149
  815MPD2    C411996   3.225   2.643  12.195  0.5377 -0.4163 -0.6715
  815MPD2    C511997   3.354   2.631  12.229 -0.0777  0.1170  0.0237
  815MPD2     H11998   3.271   2.783  11.894  1.1078 -1.5064 -0.6472
  815MPD2    H111999   3.144   2.591  12.246 -0.0296 -0.1946 -1.3557
  815MPD2    H212000   3.557   2.642  12.169  0.2387  0.5013 -1.1932
  815MPD2    H312001   3.385   2.576  12.317  1.8858 -2.4952 -2.3238
  815MPD2     N12002   3.051   2.726  12.043  0.1283 -0.6374 -0.0122
  815MPD2    H512003   2.982   2.690  12.108 -0.4645  1.0502  0.2903
  815MPD2    N112004   3.529   2.780  11.952  0.3176  0.4947  0.3091
  815MPD2    H712005   3.618   2.739  11.979 -0.0651 -0.2492  0.4463
  816MPD2     C12006   3.270   1.802  17.699  0.1737  0.0787  0.2774
  816MPD2    C112007   3.326   1.921  17.656 -0.0655  0.2555 -0.4668
  816MPD2    C212008   3.425   1.915  17.553 -0.4343 -0.0627  0.3598
  816MPD2    C312009   3.457   1.798  17.495 -0.6263 -0.6960 -0.2003
  816MPD2    C412010   3.386   1.687  17.530 -0.3643 -0.5515 -0.2836
  816MPD2    C512011   3.300   1.688  17.635  0.4731  0.0920 -0.2322
  816MPD2     H12012   3.482   2.002  17.523 -1.3601 -0.4391 -2.5603
  816MPD2    H112013   3.403   1.599  17.469  0.2667 -0.1859 -0.6370
  816MPD2    H212014   3.196   1.801   0.076  1.4347  1.6594  1.4512
  816MPD2    H312015   3.239   1.604  17.665  1.1963 -0.5348 -0.5299
  816MPD2     N12016   3.552   1.799  17.388 -0.0761 -0.3140  0.2124
  816MPD2    H512017   3.608   1.883  17.379 -1.4336  0.6472  0.7640
  816MPD2    N112018   3.280   2.043   0.009 -0.2584 -0.3991  0.3939
  816MPD2    H712019   3.196   2.047   0.065 -0.0569 -0.0353  0.6712
  817MPD2     C12020   3.136   4.238   9.513  0.3993 -0.4787  0.0124
  817MPD2    C112021   3.049   4.196   9.603 -0.3861  0.3710 -0.1051
  817MPD2    C212022   2.964   4.286   9.665 -0.4217  0.2663 -0.1734
  817MPD2    C312023   2.968   4.421   9.625 -0.3515 -0.2590  0.1439
  817MPD2    C412024   3.068   4.458   9.533  0.1724  0.9131  0.0428
  817MPD2    C512025   3.152   4.368   9.483 -0.1064  0.2005  0.1633
  817MPD2     H12026   2.886   4.255   9.733 -1.5743  3.5025 -0.0025
  817MPD2    H112027   3.087   4.562   9.508 -0.9547  0.9583 -0.6118
  817MPD2    H212028   3.194   4.172   9.449  2.3626 -0.6612  1.9663
  817MPD2    H312029   3.228   4.398   9.411  1.5090 -0.9439  1.3717
  817MPD2     N12030   2.868   4.504   9.677  0.5470  0.1887 -0.3529
  817MPD2    H512031   2.792   4.467   9.734  0.1405  2.0121  0.3041
  817MPD2    N112032   3.028   4.059   9.636  0.0085 -0.5910 -0.0618
  817MPD2    H712033   2.955   4.031   9.700  0.3543 -0.9015  0.2031
  818MPD2     C12034   0.923   3.728  10.585 -0.4123  0.3956 -0.1225
  818MPD2    C112035   0.995   3.789  10.486 -1.0074  0.2777  0.0024
  818MPD2    C212036   1.053   3.704  10.389  0.7964  0.0405  0.4235
  818MPD2    C312037   1.037   3.567  10.398 -0.9408  0.4330  0.4265
  818MPD2    C412038   0.950   3.514  10.492  0.3426 -0.2586  0.4377
  818MPD2    C512039   0.896   3.596  10.584  0.3809 -0.0541  0.4883
  818MPD2     H12040   1.123   3.742  10.316  0.2096 -0.6914 -0.5139
  818MPD2    H112041   0.936   3.406  10.487  0.2235 -0.2843  1.2848
  818MPD2    H212042   0.887   3.788  10.668  0.0639 -1.5632  1.5269
  818MPD2    H312043   0.831   3.551  10.658  0.9870  1.2517  1.8157
  818MPD2     N12044   1.085   3.472  10.304 -0.2456 -0.0480 -0.3238
  818MPD2    H512045   1.040   3.382  10.302  0.5306 -0.4372 -0.1592
  818MPD2    N112046   1.028   3.929  10.475  0.1268 -0.1081  0.5522
  818MPD2    H712047   1.068   3.961  10.388  0.2426 -1.8599 -0.0425
  819MPD2     C12048   0.213   0.706  15.491 -0.7761 -0.0964  0.2559
  819MPD2    C112049   0.170   0.577  15.526 -0.1746 -0.2774  0.1839
  819MPD2    C212050   0.259   0.502  15.597  0.2287  0.4936  0.3186
  819MPD2    C312051   0.379   0.549  15.640 -0.3347 -0.1052 -0.1579
  819MPD2    C412052   0.413   0.680  15.619 -0.4383  0.0197 -0.4663
  819MPD2    C512053   0.329   0.750  15.538 -0.5496  0.6391  0.3994
  819MPD2     H12054   0.227   0.402  15.623 -1.1597  1.0812  0.8591
  819MPD2    H112055   0.501   0.735  15.652 -0.4582 -0.1111 -0.1956
  819MPD2    H212056   0.145   0.769  15.435 -0.0773 -0.4165 -0.9550
  819MPD2    H312057   0.362   0.850  15.510  3.0716 -1.1816 -1.9024
  819MPD2     N12058   0.467   0.473  15.726  0.2534  0.1329  0.0730
  819MPD2    H512059   0.445   0.376  15.750  1.2431 -0.0231  0.3296
  819MPD2    N112060   0.043   0.534  15.481  0.0760  0.4109 -0.6135
  819MPD2    H712061   0.003   0.601  15.416 -0.3514  0.4350 -0.3252
  820MPD2     C12062   4.070   0.528  14.772 -0.0103  0.2295  0.4986
  820MPD2    C112063   4.119   0.632  14.852 -0.0160  1.0029 -0.1954
  820MPD2    C212064   4.198   0.598  14.967  0.2409  0.5424 -0.4955
  820MPD2    C312065   4.219   0.466  14.999 -0.0921  0.0255 -0.1439
  820MPD2    C412066   4.159   0.370  14.926 -0.1914 -0.7307  0.8890
  820MPD2    C512067   4.095   0.399  14.807  0.2055  0.1152  0.2053
  820MPD2     H12068   4.243   0.670  15.034  1.4369 -0.0067 -0.7175
  820MPD2    H112069   4.184   0.267  14.950  0.5483 -0.7179  0.2100
  820MPD2    H212070   4.016   0.557  14.682  0.4315  0.7464  0.4015
  820MPD2    H312071   4.065   0.323  14.737 -0.2344 -0.5949  1.1614
  820MPD2     N12072   4.299   0.425  15.105 -0.4749 -0.2422 -0.0187
  820MPD2    H512073   4.299   0.330  15.140  0.7582 -0.3012 -0.1858
  820MPD2    N112074   4.084   0.762  14.815  0.2102 -0.0002  0.2606
  820MPD2    H712075   4.010   0.766  14.746 -0.6700 -2.1389  1.0851
  821MPD2     C12076   0.380   1.445  13.162  0.0500  0.2801  0.3960
  821MPD2    C112077   0.451   1.555  13.216  0.0630  0.2798 -1.0337
  821MPD2    C212078   0.486   1.657  13.126  0.1471 -0.0024  0.8579
  821MPD2    C312079   0.423   1.665  12.997 -0.7008  0.4753  0.1292
  821MPD2    C412080   0.354   1.547  12.951  0.0732  0.2518 -0.2446
  821MPD2    C512081   0.353   1.437  13.032  0.0789  0.1855 -0.1680
  821MPD2     H12082   0.545   1.742  13.159  1.2270 -2.0803  4.3581
  821MPD2    H112083   0.316   1.536  12.850 -1.8802  0.0329  0.5077
  821MPD2    H212084   0.339   1.376  13.235 -1.3395  0.1364 -0.5416
  821MPD2    H312085   0.288   1.358  12.996 -0.9340  0.5153  0.9452
  821MPD2     N12086   0.431   1.778  12.912 -0.0177  0.0385  0.4294
  821MPD2    H512087   0.365   1.779  12.834 -1.7805 -0.2321  1.9270
  821MPD2    N112088   0.504   1.553  13.342 -0.0294 -0.2126  0.2278
  821MPD2    H712089   0.561   1.636  13.359 -0.2521 -0.1220  0.5254
  822MPD2     C12090   1.185   1.759  15.750  0.8071 -0.0083 -0.7106
  822MPD2    C112091   1.188   1.742  15.891 -0.5327 -0.1478 -0.0932
  822MPD2    C212092   1.107   1.828  15.972 -0.7230 -0.2307 -0.9195
  822MPD2    C312093   1.056   1.943  15.916 -0.2802  0.5771 -0.1020
  822MPD2    C412094   1.055   1.963  15.777  0.3281 -0.0960  0.6464
  822MPD2    C512095   1.115   1.866  15.698 -0.5170 -0.2672  0.3640
  822MPD2     H12096   1.101   1.803  16.077 -0.8536  1.0740 -0.6126
  822MPD2    H112097   1.003   2.047  15.731  1.4358 -0.3542 -1.0853
  822MPD2    H212098   1.240   1.694  15.683  1.7423 -0.0097  0.0547
  822MPD2    H312099   1.114   1.881  15.591 -0.2979  0.4429  0.4590
  822MPD2     N12100   0.983   2.026  16.006 -0.6037 -0.5159  0.3083
  822MPD2    H512101   0.979   1.988  16.100  0.4590 -0.3204  0.4256
  822MPD2    N112102   1.252   1.639  15.956 -0.2557 -0.8457 -0.1749
  822MPD2    H712103   1.235   1.630  16.056 -0.3074  1.7377  0.0391
  823MPD2     C12104   0.834   2.269  16.771 -0.1247 -0.4298  0.0246
  823MPD2    C112105   0.837   2.168  16.678  0.0171  0.1066  0.3459
  823MPD2    C212106   0.870   2.037  16.719 -1.1681 -0.0278  0.2197
  823MPD2    C312107   0.894   2.013  16.858 -0.0325 -0.7238  0.0923
  823MPD2    C412108   0.867   2.112  16.948 -0.2442  0.1340  0.3737
  823MPD2    C512109   0.848   2.242  16.908 -0.4303 -0.2693  0.4929
  823MPD2     H12110   0.878   1.953  16.652 -2.6759  0.5044 -0.6258
  823MPD2    H112111   0.869   2.089  17.054 -1.0974 -0.1511  0.3247
  823MPD2    H212112   0.802   2.370  16.747  2.7223  0.6115  0.5865
  823MPD2    H312113   0.821   2.319  16.980  0.2675  1.8359 -1.5016
  823MPD2     N12114   0.937   1.890  16.910  0.4358  0.9964  0.2682
  823MPD2    H512115   0.936   1.877  17.010  0.0782  0.6135  0.2122
  823MPD2    N112116   0.809   2.206  16.549  0.0302 -0.6486  0.2240
  823MPD2    H712117   0.809   2.307  16.536 -0.2748 -0.8871 -1.7659
  824MPD2     C12118   1.629   0.884  16.228  0.0207  0.0699  0.7048
  824MPD2    C112119   1.647   0.960  16.114 -0.1963  0.0002  0.2612
  824MPD2    C212120   1.704   0.899  16.005 -0.1579 -0.5792 -0.5492
  824MPD2    C312121   1.739   0.766  16.006 -0.1053  0.0857  0.0441
  824MPD2    C412122   1.719   0.691  16.118  0.7517  0.1707  0.8607
  824MPD2    C512123   1.673   0.755  16.231 -0.8183  0.2913 -0.2390
  824MPD2     H12124   1.740   0.952  15.919  1.7600 -1.3569 -0.2151
  824MPD2    H112125   1.758   0.590  16.126  0.9483  0.2121  0.3778
  824MPD2    H212126   1.579   0.922  16.317  1.1478 -0.3469  1.5104
  824MPD2    H312127   1.660   0.697  16.321  1.7230 -0.5332 -0.3890
  824MPD2     N12128   1.794   0.720  15.883 -0.4941  0.2935 -0.0511
  824MPD2    H512129   1.807   0.782  15.803  0.2542 -0.6782 -0.6854
  824MPD2    N112130   1.607   1.093  16.113 -0.0404 -0.3146 -0.5526
  824MPD2    H712131   1.578   1.124  16.205  1.9372  0.2840 -0.1177
  825MPD2     C12132   2.178   0.855  15.178  0.0146  0.5844  0.3407
  825MPD2    C112133   2.158   0.888  15.311 -0.2248  0.0979  0.2879
  825MPD2    C212134   2.159   1.022  15.347  0.0519  0.5527  0.4340
  825MPD2    C312135   2.198   1.128  15.262 -1.4112  0.3716 -0.8073
  825MPD2    C412136   2.217   1.091  15.132  0.3123  0.1984  0.4899
  825MPD2    C512137   2.206   0.960  15.091  0.3914 -0.5224  0.8880
  825MPD2     H12138   2.141   1.048  15.450  0.2500 -0.7361  0.7922
  825MPD2    H112139   2.238   1.162  15.053 -0.8853  0.6391  0.5661
  825MPD2    H212140   2.172   0.758  15.129  2.5989  0.4368  0.3288
  825MPD2    H312141   2.214   0.938  14.985  0.8874  0.5294  0.7033
  825MPD2     N12142   2.215   1.263  15.295 -0.2235 -0.3766 -0.3711
  825MPD2    H512143   2.249   1.317  15.216  1.0617 -0.9995 -0.2402
  825MPD2    N112144   2.123   0.787  15.399 -0.0327  0.3578  0.1786
  825MPD2    H712145   2.123   0.695  15.357 -1.4864  0.9290 -1.1046
  826MPD2     C12146   1.995   1.043  13.335  0.1923  0.4424 -0.1981
  826MPD2    C112147   1.895   1.044  13.245 -0.9124  1.2451 -0.7676
  826MPD2    C212148   1.784   1.114  13.273  0.7798  0.6492  0.2896
  826MPD2    C312149   1.775   1.181  13.393  0.4922  0.3024 -1.2642
  826MPD2    C412150   1.883   1.182  13.487  0.0242 -0.2215  0.0310
  826MPD2    C512151   1.997   1.115  13.451  0.2412 -0.6687  0.3018
  826MPD2     H12152   1.705   1.119  13.199  1.0793  1.2379  0.0056
  826MPD2    H112153   1.874   1.240  13.578 -0.6887 -0.8297  0.3582
  826MPD2    H212154   2.080   0.976  13.326  0.4061  1.1253 -3.1213
  826MPD2    H312155   2.087   1.113  13.511  0.8758  0.5025 -0.6057
  826MPD2     N12156   1.657   1.259  13.429 -0.3409 -0.5901  0.3184
  826MPD2    H512157   1.648   1.271  13.529 -0.8444  1.7842 -0.0000
  826MPD2    N112158   1.909   0.963  13.137  0.7728  0.1674 -0.4020
  826MPD2    H712159   1.992   0.905  13.134 -0.5069 -1.6370 -0.5877
  827MPD2     C12160   2.485   2.507   9.999 -0.2992  0.0215 -0.2461
  827MPD2    C112161   2.426   2.458  10.115 -0.5622 -0.5542  0.1174
  827MPD2    C212162   2.294   2.416  10.119 -0.0518  0.2100  0.1259
  827MPD2    C312163   2.217   2.424  10.005  0.5950  0.5955 -0.6656
  827MPD2    C412164   2.267   2.475   9.892  0.3885  0.4470 -0.4259
  827MPD2    C512165   2.400   2.512   9.888 -0.5679  0.3151  0.7160
  827MPD2     H12166   2.240   2.387  10.209  2.6117 -1.4657  1.1725
  827MPD2    H112167   2.203   2.482   9.805 -0.1925 -0.9258 -0.1032
  827MPD2    H212168   2.588   2.541   9.988  0.5700 -3.5057 -3.1629
  827MPD2    H312169   2.438   2.550   9.795  0.4249  0.6786  1.2727
  827MPD2     N12170   2.084   2.379  10.016  0.4413  0.5184 -0.1011
  827MPD2    H512171   2.049   2.372  10.111 -1.5168  0.7083 -0.8027
  827MPD2    N112172   2.506   2.467  10.230  0.7323  0.7838  0.3301
  827MPD2    H712173   2.607   2.476  10.226  0.7028  0.5169 -1.0187
  828MPD2     C12174   1.192   2.280  12.395  1.1833 -0.3162  0.1144
  828MPD2    C112175   1.159   2.298  12.265  0.0421 -0.8779  0.5084
  828MPD2    C212176   1.256   2.289  12.171 -0.2180  0.8549  0.5175
  828MPD2    C312177   1.390   2.265  12.206 -0.6378  0.2618  0.0520
  828MPD2    C412178   1.417   2.259  12.343 -0.3120 -0.7781  0.6585
  828MPD2    C512179   1.320   2.265  12.437 -0.3266 -0.3977 -0.1925
  828MPD2     H12180   1.227   2.307  12.068  1.8658  2.0134  0.1399
  828MPD2    H112181   1.523   2.254  12.368  0.4126  0.7530 -2.1418
  828MPD2    H212182   1.116   2.285  12.471 -0.2035  2.3333 -1.4754
  828MPD2    H312183   1.341   2.269  12.543 -2.0366  0.1184  0.1200
  828MPD2     N12184   1.498   2.253  12.118 -0.0741  0.1530 -0.1681
  828MPD2    H512185   1.587   2.238  12.164 -0.5058 -0.2961  0.5301
  828MPD2    N112186   1.029   2.340  12.228 -0.3333 -0.5045  0.1015
  828MPD2    H712187   1.013   2.376  12.135 -0.4324  0.0824  0.3452
  829MPD2     C12188   0.485   2.738  11.528 -0.0554  0.6971  0.4147
  829MPD2    C112189   0.409   2.728  11.647 -0.3895  0.3395 -0.1150
  829MPD2    C212190   0.469   2.671  11.759  0.1097 -0.7949 -0.0960
  829MPD2    C312191   0.598   2.621  11.766 -0.1711  0.8047  0.2445
  829MPD2    C412192   0.668   2.635  11.641 -0.5006 -0.3923  0.7939
  829MPD2    C512193   0.619   2.696  11.527 -0.2302 -0.2547 -0.4271
  829MPD2     H12194   0.400   2.649  11.840 -0.2296  2.0073  0.3679
  829MPD2    H112195   0.771   2.602  11.641 -0.8858 -1.5989  0.5530
  829MPD2    H212196   0.449   2.785  11.437 -1.7172 -1.3201  0.0382
  829MPD2    H312197   0.687   2.697  11.442 -0.4454 -0.0746 -0.5995
  829MPD2     N12198   0.649   2.539  11.871 -0.4338 -1.3775  0.1091
  829MPD2    H512199   0.735   2.487  11.863 -0.2312 -0.5662 -2.8530
  829MPD2    N112200   0.276   2.779  11.646  0.4335 -0.2471  0.3238
  829MPD2    H712201   0.234   2.805  11.557 -1.6445 -2.0617  0.7695
  830MPD2     C12202   0.641   4.479  16.135  0.3595 -0.1598 -1.2246
  830MPD2    C112203   0.637   4.566  16.027  0.5271 -0.1004  0.0434
  830MPD2    C212204   0.647   4.513  15.901  0.1281 -0.1301  0.3656
  830MPD2    C312205   0.672   4.380  15.868 -0.0170 -0.4925  0.1838
  830MPD2    C412206   0.688   4.299  15.976  0.0480  0.2888 -0.3942
  830MPD2    C512207   0.675   4.348  16.107  0.6346 -0.5833 -0.0119
  830MPD2     H12208   0.643   4.577  15.813 -0.7975 -0.8851 -0.1481
  830MPD2    H112209   0.719   4.196  15.968 -0.1186  0.4324 -2.8054
  830MPD2    H212210   0.635   4.514  16.237 -2.0893  1.7894 -2.0501
  830MPD2    H312211   0.697   4.287  16.194 -1.9332 -1.3930  0.0645
  830MPD2     N12212   0.686   4.328  15.736 -0.1207 -0.4311 -0.1629
  830MPD2    H512213   0.726   4.236  15.723  0.4257 -0.1039 -0.7939
  830MPD2    N112214   0.642   4.707  16.046 -0.3713  0.0062  0.7002
  830MPD2    H712215   0.648   0.026  16.137  0.7578  0.9526  0.1565
  831MPD2     C12216   1.249   2.113  16.297  0.1212  0.4268 -0.5539
  831MPD2    C112217   1.287   1.998  16.223  0.3996 -0.7549 -0.0430
  831MPD2    C212218   1.262   1.872  16.270  0.7579 -0.1579  0.6742
  831MPD2    C312219   1.178   1.854  16.382 -0.2570 -0.0012  0.1493
  831MPD2    C412220   1.157   1.958  16.467 -0.6152 -0.4527  0.3453
  831MPD2    C512221   1.193   2.082  16.422  0.4145  0.4304 -0.0963
  831MPD2     H12222   1.302   1.787  16.215 -2.5226 -0.4847 -1.1927
  831MPD2    H112223   1.108   1.942  16.563 -1.3714  0.4721  0.1210
  831MPD2    H212224   1.270   2.215  16.266  0.4334  0.6327  0.3359
  831MPD2    H312225   1.151   2.163  16.481 -0.9232  0.3365 -0.9167
  831MPD2     N12226   1.126   1.732  16.417 -0.0395 -0.2195  0.0530
  831MPD2    H512227   1.074   1.726  16.504 -0.3302 -2.5430 -0.2932
  831MPD2    N112228   1.365   2.016  16.107  0.1660 -0.6092 -0.4811
  831MPD2    H712229   1.410   1.934  16.066 -1.3553  0.2786 -3.8666
  832MPD2     C12230   4.167   3.136  17.465  0.0809 -0.2843  0.3390
  832MPD2    C112231   4.165   3.211  17.352 -0.2981  0.7963 -0.7226
  832MPD2    C212232   4.040   3.241  17.294  0.7150  0.0694  0.0926
  832MPD2    C312233   3.925   3.181  17.340  0.2997 -0.2464  0.9784
  832MPD2    C412234   3.935   3.111  17.460  0.3429 -0.0432 -0.2850
  832MPD2    C512235   4.050   3.094  17.523 -0.3944 -0.4708  0.4697
  832MPD2     H12236   4.034   3.292  17.199 -1.2336  0.0948  0.2275
  832MPD2    H112237   3.856   3.055  17.508 -0.6565  1.9459  0.4194
  832MPD2    H212238   4.263   3.115  17.510  0.2766  0.5681  0.3198
  832MPD2    H312239   4.054   3.033  17.613  1.0071  0.2610  0.9022
  832MPD2     N12240   3.802   3.179  17.269  0.1070  0.0578  0.1948
  832MPD2    H512241   3.731   3.116  17.305  1.1490 -0.8043  0.7201
  832MPD2    N112242   4.280   3.280  17.312  0.5902  1.3846  0.0649
  832MPD2    H712243   4.359   3.277  17.375  2.1283  0.6612 -1.8848
  833MPD2     C12244   1.418   4.634  12.645  0.2193 -0.1766  0.1827
  833MPD2    C112245   1.468   0.031  12.605  0.1244 -0.1067  0.1062
  833MPD2    C212246   1.606   0.032  12.580  0.0132  0.0685 -0.8387
  833MPD2    C312247   1.693   4.642  12.592  0.3034  0.0541 -0.1694
  833MPD2    C412248   1.629   4.524  12.631 -0.5294 -0.2611  0.2009
  833MPD2    C512249   1.501   4.523  12.651  0.1977  0.5042  0.2239
  833MPD2     H12250   1.644   0.119  12.528  0.7897  0.1488 -0.1363
  833MPD2    H112251   1.688   4.434  12.636 -1.6652 -1.0900 -1.3301
  833MPD2    H212252   1.312   4.632  12.667  0.8458 -0.7931  3.1416
  833MPD2    H312253   1.451   4.428  12.671 -1.7931  1.7012  0.9755
  833MPD2     N12254   1.832   4.643  12.549  0.5651 -0.1577 -0.7823
  833MPD2    H512255   1.877   4.553  12.562  0.3362 -0.6262 -3.2759
  833MPD2    N112256   1.376   0.141  12.586 -0.0771 -0.8002  0.5573
  833MPD2    H712257   1.277   0.136  12.606 -0.0596  0.9193  1.0928
  834MPD2     C12258   2.223   4.194  11.793 -0.3571  0.2494 -0.8174
  834MPD2    C112259   2.108   4.266  11.766  0.7046 -0.0464 -0.3568
  834MPD2    C212260   2.065   4.364  11.851  0.0928  0.0982  0.0170
  834MPD2    C312261   2.125   4.380  11.970 -0.1136 -0.9345 -0.3534
  834MPD2    C412262   2.248   4.314  12.003  0.1047  0.3031 -0.6385
  834MPD2    C512263   2.284   4.216  11.917  0.5413 -0.4253 -0.8984
  834MPD2     H12264   1.975   4.423  11.836  1.2674  1.5947 -1.2093
  834MPD2    H112265   2.306   4.320  12.094  2.1841 -2.0725 -1.8145
  834MPD2    H212266   2.257   4.116  11.726  0.7049 -0.6766  0.7967
  834MPD2    H312267   2.371   4.153  11.935  0.2073 -0.9378 -1.0926
  834MPD2     N12268   2.076   4.478  12.056 -0.3980  0.1929 -0.6466
  834MPD2    H512269   1.998   4.534  12.022 -1.2321 -0.5443  0.0685
  834MPD2    N112270   2.039   4.223  11.652  0.2697  0.3619 -0.5690
  834MPD2    H712271   2.083   4.154  11.591  0.1481 -0.5730  0.3840
  835MPD2     C12272   1.928   1.971  11.168  0.2004  1.3412  0.4436
  835MPD2    C112273   1.841   2.074  11.202 -0.3260  0.2292 -0.0137
  835MPD2    C212274   1.859   2.141  11.316 -0.1607  1.1302 -0.0068
  835MPD2    C312275   1.961   2.109  11.403 -0.5664  0.4830  0.6184
  835MPD2    C412276   2.043   1.997  11.372 -0.0816  0.1884  0.2284
  835MPD2    C512277   2.027   1.933  11.257 -0.5908 -0.0763 -0.0350
  835MPD2     H12278   1.787   2.215  11.348  0.3540  2.3035 -1.5466
  835MPD2    H112279   2.125   1.969  11.437  1.3989  1.3481 -1.1645
  835MPD2    H212280   1.920   1.910  11.079  0.8127  1.9899 -0.0517
  835MPD2    H312281   2.089   1.847  11.238  0.2360  0.9607 -2.0902
  835MPD2     N12282   1.995   2.185  11.518  0.6058 -0.1344  0.2221
  835MPD2    H512283   2.070   2.148  11.575  0.6957  0.5699  0.5576
  835MPD2    N112284   1.734   2.113  11.118  1.2157 -0.6069  0.3042
  835MPD2    H712285   1.680   2.198  11.131  0.3414 -1.1655  0.3710
  836MPD2     C12286   2.102   2.761  12.236 -0.2634 -0.3676 -0.0786
  836MPD2    C112287   2.006   2.677  12.186  1.1998  0.0774 -0.5115
  836MPD2    C212288   1.883   2.673  12.250  0.7703 -0.6504 -0.0247
  836MPD2    C312289   1.853   2.767  12.342  0.2684 -0.6410  0.1014
  836MPD2    C412290   1.939   2.868  12.369 -0.2345  0.0361  0.3861
  836MPD2    C512291   2.070   2.860  12.326 -0.4943  0.4832  0.4312
  836MPD2     H12292   1.808   2.599  12.227  2.6089 -1.5827 -3.0018
  836MPD2    H112293   1.915   2.944  12.443  0.9837  1.0306 -0.2428
  836MPD2    H212294   2.202   2.758  12.193 -0.1736 -0.9003  0.1644
  836MPD2    H312295   2.139   2.942  12.348  1.3325 -0.7504 -0.7312
  836MPD2     N12296   1.733   2.779  12.420 -0.4833  0.2718  0.0941
  836MPD2    H512297   1.721   2.853  12.489 -0.4085 -0.3775  0.8097
  836MPD2    N112298   2.048   2.593  12.079 -0.8280  0.2803 -0.0585
  836MPD2    H712299   2.146   2.601  12.052  0.3357 -0.4460  3.9088
  837MPD2     C12300   4.566   2.013  10.265  0.4574  0.7667 -0.3356
  837MPD2    C112301   4.455   2.074  10.213  0.0479  0.5399 -0.0784
  837MPD2    C212302   4.406   2.197  10.262  0.4607  0.7901 -0.2600
  837MPD2    C312303   4.488   2.265  10.348 -0.1056 -0.1376  0.5917
  837MPD2    C412304   4.608   2.212  10.389  0.2707 -0.3206  0.3816
  837MPD2    C512305   4.646   2.086  10.349  0.3147  0.5939 -0.0875
  837MPD2     H12306   4.319   2.243  10.216 -0.6021 -0.4261  0.5361
  837MPD2    H112307   4.676   2.255  10.460  1.9646  2.5380 -2.9678
  837MPD2    H212308   4.590   1.912  10.232 -1.4645  0.6117 -1.2215
  837MPD2    H312309   0.008   2.045  10.400  0.0982 -0.0316 -0.2173
  837MPD2     N12310   4.454   2.401  10.359 -0.6244 -0.0823 -0.5148
  837MPD2    H512311   4.359   2.428  10.336 -0.6487  0.1450 -0.1474
  837MPD2    N112312   4.369   2.016  10.121 -0.2842 -0.5564 -0.0363
  837MPD2    H712313   4.276   2.057  10.115 -0.3818 -0.9602 -1.3616
  838MPD2     C12314   3.605   0.897  12.154 -0.1309 -0.6703 -0.3948
  838MPD2    C112315   3.518   0.808  12.099 -0.1438  0.4727 -0.0236
  838MPD2    C212316   3.391   0.829  12.116 -0.2578  0.5826 -0.5368
  838MPD2    C312317   3.335   0.943  12.168 -1.3911  0.4621  0.4855
  838MPD2    C412318   3.417   1.035  12.228  0.0600  0.0349 -0.2348
  838MPD2    C512319   3.551   1.005  12.232  0.0453 -0.6141 -0.0834
  838MPD2     H12320   3.330   0.763  12.056  0.4735  0.3000 -0.9559
  838MPD2    H112321   3.378   1.121  12.281  0.3196 -1.7503  2.8535
  838MPD2    H212322   3.713   0.895  12.141  0.0695 -0.7282  1.3745
  838MPD2    H312323   3.616   1.075  12.283 -0.5359 -0.9297  1.0860
  838MPD2     N12324   3.198   0.964  12.163 -0.1387 -0.2917 -0.1023
  838MPD2    H512325   3.166   1.059  12.178 -2.1806 -0.7737 -1.3631
  838MPD2    N112326   3.545   0.717  11.992 -0.2231 -0.5206  0.5018
  838MPD2    H712327   3.466   0.661  11.962  0.1962 -1.0814  0.4513
  839MPD2     C12328   3.151   4.685  11.931  0.6330  0.2647  0.2825
  839MPD2    C112329   3.211   4.682  11.805 -0.1206 -0.3878 -0.2860
  839MPD2    C212330   3.283   0.072  11.778  0.2633 -0.9349  0.4795
  839MPD2    C312331   3.291   0.180  11.867  0.2837  0.2716 -0.3330
  839MPD2    C412332   3.223   0.181  11.987  0.0937  0.6773 -0.6796
  839MPD2    C512333   3.164   0.062  12.023  0.3455  0.1118 -0.4700
  839MPD2     H12334   3.329   0.091  11.682 -1.6657  1.6895  0.0715
  839MPD2    H112335   3.211   0.256  12.064  0.4219  2.0503 -1.9600
  839MPD2    H212336   3.099   4.598  11.969  1.5739  0.6199  2.4011
  839MPD2    H312337   3.130   0.049  12.124 -2.0949 -1.0505 -1.4526
  839MPD2     N12338   3.360   0.300  11.842 -0.8102 -0.5954 -0.5276
  839MPD2    H512339   3.343   0.373  11.910  1.9796  2.2402 -2.9038
  839MPD2    N112340   3.199   4.576  11.713 -0.7646 -0.3547  0.1390
  839MPD2    H712341   3.242   4.594  11.623  1.5018  1.1993  1.5343
  840MPD2     C12342   2.742   2.993  10.457 -0.1386 -0.0996 -0.8201
  840MPD2    C112343   2.789   2.904  10.550  0.1283 -0.5108  0.1522
  840MPD2    C212344   2.895   2.946  10.632  0.6420  0.6149 -0.2088
  840MPD2    C312345   2.955   3.071  10.616 -0.8524  0.2446 -0.5933
  840MPD2    C412346   2.908   3.161  10.524  0.7517  0.6441  0.1683
  840MPD2    C512347   2.794   3.122  10.453 -1.0607 -0.1641  0.6258
  840MPD2     H12348   2.921   2.879  10.713 -0.9859 -1.0746 -1.0899
  840MPD2    H112349   2.940   3.261  10.496 -3.9084  2.1649  0.3451
  840MPD2    H212350   2.665   2.969  10.385 -1.6695  1.2237  0.3811
  840MPD2    H312351   2.747   3.189  10.382 -0.9122 -1.0801 -0.3551
  840MPD2     N12352   3.076   3.112  10.683 -0.2239  0.5352 -0.0440
  840MPD2    H512353   3.123   3.194  10.648  0.9138 -0.1856 -0.1979
  840MPD2    N112354   2.728   2.784  10.557 -0.9315 -0.4696 -0.2211
  840MPD2    H712355   2.638   2.769  10.511 -1.0377 -1.7171  0.3820
  841MPD2     C12356   2.525   2.440  14.703  0.2927 -0.3883 -0.2887
  841MPD2    C112357   2.634   2.444  14.623  1.3764 -0.6992  0.3549
  841MPD2    C212358   2.668   2.567  14.563  0.6200  0.3651  0.7555
  841MPD2    C312359   2.584   2.676  14.583  0.2984 -0.3009 -0.7243
  841MPD2    C412360   2.476   2.672  14.669 -0.3393 -0.7744 -0.4864
  841MPD2    C512361   2.456   2.553  14.734  0.7157 -0.2892 -0.2351
  841MPD2     H12362   2.754   2.578  14.498 -0.3073 -1.2415 -0.7390
  841MPD2    H112363   2.408   2.757  14.678  1.9723  1.0602 -0.2996
  841MPD2    H212364   2.500   2.350  14.757  1.7808 -0.8222 -0.3048
  841MPD2    H312365   2.385   2.543  14.816  2.1071 -0.3248  0.9686
  841MPD2     N12366   2.626   2.798  14.516 -0.4676 -0.3037  0.6294
  841MPD2    H512367   2.705   2.775  14.456 -1.4944 -3.4649  0.4768
  841MPD2    N112368   2.715   2.332  14.596  0.0496 -0.0481 -0.0707
  841MPD2    H712369   2.792   2.336  14.530  0.0299  1.1035 -0.0136
  842MPD2     C12370   2.685   3.051  16.880 -0.1063  0.6597  0.3414
  842MPD2    C112371   2.753   3.164  16.902 -0.2767 -0.3114 -0.4308
  842MPD2    C212372   2.820   3.183  17.019 -0.9839 -0.9067 -0.0780
  842MPD2    C312373   2.807   3.084  17.111 -0.0282  0.1611  0.4171
  842MPD2    C412374   2.716   2.980  17.101 -0.6630  0.4028 -0.2942
  842MPD2    C512375   2.660   2.961  16.978 -0.2445  0.5102  0.3410
  842MPD2     H12376   2.857   3.281  17.047 -0.9325 -1.1164  0.5919
  842MPD2    H112377   2.705   2.909  17.182 -1.0055  1.4911  0.6177
  842MPD2    H212378   2.636   3.036  16.784 -1.2488  0.7882  0.9008
  842MPD2    H312379   2.601   2.874  16.952  1.1516 -1.3684  3.4204
  842MPD2     N12380   2.863   3.095  17.239 -0.2951  0.2265 -0.2366
  842MPD2    H512381   2.831   3.030  17.309 -1.6687 -0.5272 -1.5648
  842MPD2    N112382   2.755   3.260  16.801  0.3501  0.1656 -0.4069
  842MPD2    H712383   2.705   3.238  16.715  1.9470 -0.4754 -1.1885
  843MPD2     C12384   0.600   2.959   0.133  0.8771  0.0391 -0.3068
  843MPD2    C112385   0.565   3.053   0.229  0.3382 -0.4903  1.0429
  843MPD2    C212386   0.632   3.175   0.230 -0.5893 -0.0694 -0.9693
  843MPD2    C312387   0.715   3.211   0.121  0.5787  0.1609 -0.3984
  843MPD2    C412388   0.743   3.115   0.026  0.4938  0.3672  0.3392
  843MPD2    C512389   0.693   2.987   0.035 -0.0441  0.4476 -0.4414
  843MPD2     H12390   0.623   3.241   0.315 -0.3452 -0.0646 -0.9475
  843MPD2    H112391   0.811   3.139  17.646 -0.4991  1.0822 -0.2835
  843MPD2    H212392   0.562   2.860   0.156 -1.3204  1.5604  2.6091
  843MPD2    H312393   0.721   2.922  17.654  0.5575  1.7022 -1.2204
  843MPD2     N12394   0.758   3.338   0.101 -0.1736  0.1164 -0.2249
  843MPD2    H512395   0.818   3.354   0.021  2.9645 -0.7033  1.9436
  843MPD2    N112396   0.487   3.009   0.339 -0.3892 -0.0613  0.4117
  843MPD2    H712397   0.444   2.918   0.322 -0.4213  0.1181 -0.4442
  844MPD2     C12398   3.352   2.539  16.982 -0.4214  0.2160 -0.0663
  844MPD2    C112399   3.423   2.559  16.860 -0.0283  0.3089  0.7751
  844MPD2    C212400   3.531   2.649  16.863  0.1941 -0.0385  0.4699
  844MPD2    C312401   3.569   2.717  16.974  0.1135 -0.4927  0.9673
  844MPD2    C412402   3.514   2.681  17.092 -0.0541  0.2384  0.9117
  844MPD2    C512403   3.400   2.598  17.098  0.0726  0.4359 -1.0130
  844MPD2     H12404   3.585   2.651  16.769  0.6170  1.7312  0.7500
  844MPD2    H112405   3.546   2.726  17.186 -1.7951  1.8987  0.6972
  844MPD2    H212406   3.271   2.467  16.986  0.1278 -0.3716  0.4701
  844MPD2    H312407   3.345   2.577  17.189  0.4271  2.5045 -0.3246
  844MPD2     N12408   3.676   2.803  16.978  0.3271  0.2563 -0.3942
  844MPD2    H512409   3.716   2.828  17.068  0.4231  0.2655 -0.4393
  844MPD2    N112410   3.398   2.477  16.743  0.1412  1.1270 -0.0217
  844MPD2    H712411   3.466   2.480  16.668 -0.8118  0.1326 -0.9296
  845MPD2     C12412   4.096   3.764  16.734  0.3010  0.0776  0.8746
  845MPD2    C112413   4.118   3.723  16.866  0.3996  0.1196 -0.1032
  845MPD2    C212414   4.115   3.588  16.895  0.9506 -0.2372 -0.6747
  845MPD2    C312415   4.077   3.497  16.797 -0.4399 -0.4760  0.0697
  845MPD2    C412416   4.063   3.542  16.664 -0.0671  0.1601 -0.1957
  845MPD2    C512417   4.076   3.672  16.632 -0.1302  0.0031  0.1039
  845MPD2     H12418   4.134   3.553  16.996  0.3560 -0.1676 -0.5417
  845MPD2    H112419   4.049   3.468  16.586  2.2402  0.8470 -1.2440
  845MPD2    H212420   4.090   3.869  16.710 -2.1350 -0.3460 -0.3724
  845MPD2    H312421   4.073   3.693  16.525  0.4716  0.5703  0.2008
  845MPD2     N12422   4.056   3.368  16.843 -0.1411  0.0266  0.2078
  845MPD2    H512423   4.069   3.351  16.942 -2.6744 -3.5669 -0.0849
  845MPD2    N112424   4.144   3.828  16.962 -0.3085  0.0571  0.0222
  845MPD2    H712425   4.122   3.924  16.938 -1.4154  0.3235  2.0532
  846MPD2     C12426   0.695   4.157  13.405  0.8182 -0.9684  0.1502
  846MPD2    C112427   0.701   4.285  13.460 -0.0291  0.2539 -0.2206
  846MPD2    C212428   0.705   4.305  13.597 -0.0060  0.2720  0.1037
  846MPD2    C312429   0.710   4.199  13.682 -0.3794 -0.2827 -0.5572
  846MPD2    C412430   0.709   4.067  13.632 -0.2990  0.5979 -0.5176
  846MPD2    C512431   0.707   4.052  13.493  0.2316 -0.0569  0.4025
  846MPD2     H12432   0.722   4.404  13.639 -1.8745  0.6707 -0.0630
  846MPD2    H112433   0.713   3.974  13.686 -2.7065 -0.1575 -1.6509
  846MPD2    H212434   0.681   4.139  13.299  0.2366  0.4741 -0.0207
  846MPD2    H312435   0.708   3.954  13.447  3.7749  0.1817 -0.0113
  846MPD2     N12436   0.694   4.223  13.821  0.1676  0.3717 -0.1318
  846MPD2    H512437   0.665   4.317  13.850  0.7785  0.8913 -1.2159
  846MPD2    N112438   0.706   4.398  13.379  0.0669  0.3275 -0.0108
  846MPD2    H712439   0.718   4.486  13.428 -2.5188  0.4068  0.4429
  847MPD2     C12440   1.315   0.594  14.460 -0.2948  0.5758 -1.1843
  847MPD2    C112441   1.181   0.571  14.498  0.0566  0.6703 -0.3555
  847MPD2    C212442   1.149   0.440  14.542 -0.1784 -0.5068 -0.7224
  847MPD2    C312443   1.238   0.338  14.553  1.6155 -0.1257  0.7626
  847MPD2    C412444   1.371   0.367  14.527  0.1588 -0.3281  0.6005
  847MPD2    C512445   1.409   0.489  14.480  0.4932 -0.8499 -0.1452
  847MPD2     H12446   1.047   0.429  14.577  0.4056 -1.9890  0.5240
  847MPD2    H112447   1.440   0.284  14.526 -0.4937 -0.8751  1.4575
  847MPD2    H212448   1.365   0.681  14.420 -1.4976  2.3156  1.0547
  847MPD2    H312449   1.513   0.508  14.457  0.5828 -0.7543  0.3290
  847MPD2     N12450   1.207   0.217  14.620 -0.5338 -0.1903 -0.2882
  847MPD2    H512451   1.292   0.166  14.639 -0.5613 -0.6751 -1.4943
  847MPD2    N112452   1.084   0.671  14.508 -0.4030  0.3017 -0.6824
  847MPD2    H712453   0.991   0.645  14.541 -0.2529  1.5717  0.7583
  848MPD2     C12454   3.489   3.123  16.462 -0.0712  0.3845  1.4241
  848MPD2    C112455   3.549   3.221  16.548 -0.5498  0.7899 -0.3797
  848MPD2    C212456   3.615   3.331  16.491 -0.1135 -0.0022 -0.0883
  848MPD2    C312457   3.615   3.352  16.356  0.3245  0.9768  0.0462
  848MPD2    C412458   3.545   3.267  16.276  0.4103 -0.1686 -0.3679
  848MPD2    C512459   3.486   3.150  16.328 -0.1001 -0.1724  0.2573
  848MPD2     H12460   3.666   3.398  16.559  0.4174  0.6996 -1.1936
  848MPD2    H112461   3.543   3.284  16.169  1.6404  1.3810 -0.1385
  848MPD2    H212462   3.427   3.042  16.500  0.5946 -1.5751 -1.6637
  848MPD2    H312463   3.438   3.080  16.261 -2.8157  0.0212  2.0171
  848MPD2     N12464   3.660   3.469  16.297  0.7475  0.2665  0.2796
  848MPD2    H512465   3.640   3.484  16.198  2.8122 -1.0583 -0.3220
  848MPD2    N112466   3.548   3.207  16.689  0.0594  0.4278  0.1805
  848MPD2    H712467   3.604   3.273  16.741  1.4078 -0.5130 -0.0631
  849MPD2     C12468   3.155   3.562  13.713  0.0419 -1.3348  1.0871
  849MPD2    C112469   3.264   3.476  13.739  0.2772  0.0854  0.5002
  849MPD2    C212470   3.282   3.430  13.868  0.1624 -0.2020 -0.3677
  849MPD2    C312471   3.190   3.444  13.963 -0.5459  0.1421  0.2608
  849MPD2    C412472   3.073   3.506  13.925  0.3627 -0.1734  0.2142
  849MPD2    C512473   3.058   3.568  13.809 -0.3043  1.0563  0.5214
  849MPD2     H12474   3.375   3.377  13.887 -0.4413 -1.1374 -0.0396
  849MPD2    H112475   2.987   3.489  13.989  0.2962  0.6889  0.3512
  849MPD2    H212476   3.129   3.591  13.612  0.0545  0.4305  1.5889
  849MPD2    H312477   2.963   3.615  13.785 -0.1214  1.0984 -0.1106
  849MPD2     N12478   3.211   3.365  14.078  0.3941 -0.3648 -0.4774
  849MPD2    H512479   3.305   3.331  14.098 -0.7715 -0.7476  4.4542
  849MPD2    N112480   3.362   3.428  13.644 -0.3721 -0.3747 -0.0014
  849MPD2    H712481   3.441   3.376  13.679 -0.7828 -1.1116 -0.1669
  850MPD2     C12482   1.466   0.793  14.792 -0.1559 -0.1484 -0.4103
  850MPD2    C112483   1.438   0.827  14.921 -0.3125  0.2603  0.6045
  850MPD2    C212484   1.506   0.940  14.968  0.2759  0.3421 -0.4327
  850MPD2    C312485   1.595   1.013  14.893 -0.1009 -0.2900 -0.3337
  850MPD2    C412486   1.594   0.992  14.754  0.5531  0.6582 -0.5389
  850MPD2    C512487   1.527   0.879  14.709  0.1006 -0.6611  0.4228
  850MPD2     H12488   1.503   0.970  15.072  0.2735 -2.9855  0.5360
  850MPD2    H112489   1.663   1.043  14.687  1.5116 -0.6784 -0.5821
  850MPD2    H212490   1.418   0.708  14.746 -3.4465  0.6598  1.5501
  850MPD2    H312491   1.534   0.844  14.607  1.5085  1.2632 -0.1301
  850MPD2     N12492   1.702   1.084  14.953 -0.6718  0.3035 -0.1452
  850MPD2    H512493   1.752   1.138  14.884  3.5383 -2.6548  0.6143
  850MPD2    N112494   1.375   0.740  15.006  0.5349  0.4785 -0.2323
  850MPD2    H712495   1.354   0.644  14.979 -0.1235  0.0468  1.7932
  851MPD2     C12496   1.476   0.083  15.549 -0.1324 -0.5136 -0.0102
  851MPD2    C112497   1.381   0.144  15.471 -0.1403  0.8915  0.9010
  851MPD2    C212498   1.273   0.074  15.415 -0.3213 -0.4956 -0.2796
  851MPD2    C312499   1.252   4.669  15.469 -0.6209 -0.6091  0.3045
  851MPD2    C412500   1.351   4.608  15.543 -0.2549 -0.0933  0.2309
  851MPD2    C512501   1.463   4.675  15.584  0.9853  0.4565  0.4012
  851MPD2     H12502   1.194   0.114  15.354  1.1890 -0.4847 -2.2325
  851MPD2    H112503   1.348   4.512  15.593  0.0686  0.5887  1.5737
  851MPD2    H212504   1.568   0.132  15.578  0.2388 -1.3768  0.2584
  851MPD2    H312505   1.548   4.626  15.628  1.5110 -0.5245 -1.7028
  851MPD2     N12506   1.118   4.616  15.467 -0.0172  0.6005  0.0400
  851MPD2    H512507   1.048   4.679  15.429 -2.6331 -0.0324  3.8389
  851MPD2    N112508   1.394   0.283  15.435  0.4605  0.0624  0.3026
  851MPD2    H712509   1.449   0.345  15.493 -1.1294 -0.1349  2.0431
  852MPD2     C12510   1.223   0.755   9.527 -0.4247 -0.0228  0.0765
  852MPD2    C112511   1.160   0.654   9.597 -0.0294 -0.7502 -0.3355
  852MPD2    C212512   1.228   0.587   9.698  0.6338  0.4898  0.9473
  852MPD2    C312513   1.362   0.606   9.714 -0.5599  0.1241  0.1866
  852MPD2    C412514   1.426   0.711   9.643 -0.0700 -0.8705  0.1331
  852MPD2    C512515   1.351   0.782   9.549  0.6307  0.0602 -0.2349
  852MPD2     H12516   1.175   0.509   9.751  0.3474  0.0515  0.0076
  852MPD2    H112517   1.531   0.735   9.659  0.3248 -1.8674 -0.9161
  852MPD2    H212518   1.168   0.811   9.453 -1.5385 -0.4868  0.5603
  852MPD2    H312519   1.409   0.845   9.482  1.9863 -0.3365  0.5638
  852MPD2     N12520   1.426   0.526   9.814 -0.0361  0.1704  0.5604
  852MPD2    H512521   1.366   0.458   9.859  1.9959 -0.8221  1.7870
  852MPD2    N112522   1.031   0.625   9.580 -0.1855  0.3375  0.1125
  852MPD2    H712523   0.991   0.559   9.646  0.8900  0.9336  1.3914
  853MPD2     C12524   2.803   3.711  12.167 -0.1404  0.6134  0.5334
  853MPD2    C112525   2.695   3.797  12.131 -0.0224  0.0367  0.2621
  853MPD2    C212526   2.639   3.787  11.999 -0.2733  0.8855 -0.7586
  853MPD2    C312527   2.699   3.707  11.906 -0.1656 -0.1434  0.1972
  853MPD2    C412528   2.800   3.623  11.951  0.4862 -0.3346  0.4700
  853MPD2    C512529   2.847   3.626  12.074  0.1322  0.1716 -0.2128
  853MPD2     H12530   2.571   3.862  11.962 -0.5046  1.9570  1.8142
  853MPD2    H112531   2.839   3.546  11.885 -1.7407 -0.9893 -0.0927
  853MPD2    H212532   2.851   3.707  12.265  1.8183 -4.1427 -0.6271
  853MPD2    H312533   2.922   3.557  12.110 -1.3523 -0.6179  1.4010
  853MPD2     N12534   2.659   3.702  11.770  0.5291  0.7685  0.0865
  853MPD2    H512535   2.703   3.629  11.715 -0.3588  1.1260 -1.0940
  853MPD2    N112536   2.645   3.892  12.232 -0.0713 -0.3946 -0.5457
  853MPD2    H712537   2.695   3.899  12.320 -0.4115 -0.4013 -0.3471
  854MPD2     C12538   4.421   3.559  12.897 -0.8265 -0.2682 -0.4709
  854MPD2    C112539   4.474   3.623  12.783  0.7635  0.4327 -1.3278
  854MPD2    C212540   4.594   3.579  12.718 -0.7646 -0.3609 -0.2347
  854MPD2    C312541   4.669   3.477  12.783 -0.2112  0.3628 -0.2395
  854MPD2    C412542   4.615   3.426  12.904 -0.2109 -0.9101  0.5355
  854MPD2    C512543   4.493   3.459  12.952 -0.0119 -0.0916 -0.2428
  854MPD2     H12544   4.629   3.616  12.622  0.5461  0.1452  0.4316
  854MPD2    H112545   4.670   3.358  12.968  0.3476 -1.0221 -0.0581
  854MPD2    H212546   4.322   3.574  12.939  0.7596  0.3043  3.0159
  854MPD2    H312547   4.447   3.405  13.034 -1.4340  1.6997  0.1519
  854MPD2     N12548   0.072   3.436  12.737  0.7021  0.2961  0.4236
  854MPD2    H512549   0.111   3.348  12.767 -0.2902 -0.4493 -0.4821
  854MPD2    N112550   4.385   3.723  12.731  0.1241 -0.0658  0.1263
  854MPD2    H712551   4.307   3.754  12.787  0.4210 -0.3005  0.6643
  855MPD2     C12552   0.872   3.039  13.125 -0.0269 -0.0460 -0.2497
  855MPD2    C112553   0.738   3.024  13.121 -0.0316  0.7779  0.3683
  855MPD2    C212554   0.670   3.090  13.019 -0.1648  0.7020 -0.3313
  855MPD2    C312555   0.726   3.176  12.927  0.0438  0.1185 -0.3825
  855MPD2    C412556   0.864   3.190  12.934  0.4702  0.4028  0.0058
  855MPD2    C512557   0.931   3.123  13.035  0.6517 -0.3142  0.1642
  855MPD2     H12558   0.565   3.065  13.006 -0.5364  0.6841  2.6423
  855MPD2    H112559   0.911   3.259  12.865 -1.1631 -0.1978 -1.7013
  855MPD2    H212560   0.923   2.976  13.197 -1.1930  1.0550  1.5423
  855MPD2    H312561   1.039   3.130  13.043  0.6417 -2.2483  1.9438
  855MPD2     N12562   0.654   3.251  12.831 -0.1742  0.7840  0.4190
  855MPD2    H512563   0.708   3.298  12.759  0.9541  1.3349  1.6135
  855MPD2    N112564   0.665   2.946  13.211  0.8414 -0.0974  0.4050
  855MPD2    H712565   0.567   2.939  13.187  1.0245  0.8044 -0.6048
  856MPD2     C12566   1.754   4.380  13.774  0.3928  0.8447  0.4430
  856MPD2    C112567   1.849   4.476  13.800  0.2611 -0.0542  0.1213
  856MPD2    C212568   1.808   4.603  13.811  0.0851 -0.1189 -0.5148
  856MPD2    C312569   1.674   4.642  13.803  0.4204  0.7896  0.7843
  856MPD2    C412570   1.577   4.538  13.772 -0.3983 -0.0688  0.3005
  856MPD2    C512571   1.622   4.410  13.756  0.0519  0.0160  0.0190
  856MPD2     H12572   1.881   4.681  13.825  0.6181 -0.6667 -0.2484
  856MPD2    H112573   1.473   4.564  13.757 -0.3671 -0.1487 -0.0788
  856MPD2    H212574   1.778   4.274  13.772  0.2674  0.8421 -1.3567
  856MPD2    H312575   1.555   4.327  13.736 -1.7133  1.8119 -1.5430
  856MPD2     N12576   1.629   0.054  13.822  0.1807 -0.5407 -0.1622
  856MPD2    H512577   1.528   0.064  13.812  0.1091 -1.1201 -0.0107
  856MPD2    N112578   1.983   4.453  13.812  0.0305  0.1132  0.5208
  856MPD2    H712579   2.038   4.537  13.829 -0.7729  1.0874 -1.7497
  857MPD2     C12580   3.370   2.345  12.715  0.2546  0.8549 -0.3519
  857MPD2    C112581   3.486   2.285  12.753 -0.5989 -0.1517  0.2459
  857MPD2    C212582   3.587   2.274  12.660  0.1384 -0.0820 -0.6738
  857MPD2    C312583   3.570   2.311  12.534  0.0130 -0.6120  0.6976
  857MPD2    C412584   3.456   2.360  12.489  0.1762 -0.6907 -0.6547
  857MPD2    C512585   3.353   2.377  12.582  0.2864 -0.1056  0.1279
  857MPD2     H12586   3.671   2.208  12.679  0.6952  0.0377 -2.6406
  857MPD2    H112587   3.433   2.382  12.385  1.8914 -1.9651 -1.2944
  857MPD2    H212588   3.293   2.364  12.789 -1.5491 -1.9773 -1.4964
  857MPD2    H312589   3.262   2.424  12.546  0.4440  0.7580  0.8596
  857MPD2     N12590   3.687   2.295  12.445  0.4182  0.1626 -0.9280
  857MPD2    H512591   3.778   2.270  12.484  0.1093  0.9533  0.3076
  857MPD2    N112592   3.486   2.227  12.881  0.5720 -0.5631  0.3353
  857MPD2    H712593   3.405   2.211  12.941  0.1001  2.0861  0.3793
  858MPD2     C12594   3.678   0.778  16.947 -0.2643  0.1344 -0.0457
  858MPD2    C112595   3.812   0.797  16.923  0.5107 -0.9015  0.0996
  858MPD2    C212596   3.883   0.898  16.984  0.3396  0.0679  0.4047
  858MPD2    C312597   3.817   0.989  17.075  0.7596  0.5911  0.3547
  858MPD2    C412598   3.684   0.967  17.093  0.4124 -0.3906 -0.5353
  858MPD2    C512599   3.615   0.862  17.030 -0.2004  0.0842 -0.2936
  858MPD2     H12600   3.984   0.924  16.956 -0.3314 -0.6010 -2.6036
  858MPD2    H112601   3.631   1.027  17.165 -0.6896  3.1364 -4.2908
  858MPD2    H212602   3.638   0.688  16.902 -3.0521  1.1381  0.4770
  858MPD2    H312603   3.509   0.852  17.051 -0.0975  0.1337  0.2481
  858MPD2     N12604   3.879   1.088  17.143  0.1363  0.2091  0.5502
  858MPD2    H512605   3.828   1.131  17.220 -0.0138  0.5022  0.2837
  858MPD2    N112606   3.873   0.698  16.848  0.1912 -0.5993  0.3993
  858MPD2    H712607   3.809   0.630  16.808  1.2578 -0.0979 -2.1845
  859MPD2     C12608   3.081   2.729  15.379 -0.7177 -0.2158 -0.5012
  859MPD2    C112609   3.073   2.809  15.264 -0.2359  0.8885  0.2914
  859MPD2    C212610   3.133   2.759  15.149  0.0648 -0.8985 -0.2202
  859MPD2    C312611   3.169   2.626  15.140  0.0042  0.5414  0.1768
  859MPD2    C412612   3.156   2.543  15.253  0.2272  0.4361  0.1792
  859MPD2    C512613   3.114   2.598  15.368 -0.0310 -0.1881 -0.1438
  859MPD2     H12614   3.157   2.822  15.064  1.0438 -0.5258  0.3368
  859MPD2    H112615   3.183   2.438  15.252  0.4043  0.4934 -1.2001
  859MPD2    H212616   3.048   2.777  15.470 -0.3148  1.1149 -1.0540
  859MPD2    H312617   3.125   2.542  15.460 -1.2986 -0.4552 -0.1463
  859MPD2     N12618   3.223   2.571  15.025 -0.6174 -0.5395 -0.7197
  859MPD2    H512619   3.266   2.480  15.040  2.7431  1.1363 -0.1543
  859MPD2    N112620   3.032   2.946  15.276  0.2550 -0.4973 -0.0250
  859MPD2    H712621   2.988   2.976  15.362  0.5372  0.8310 -0.3460
  860MPD2     C12622   0.869   4.170  11.568  0.1574 -0.1205 -0.1364
  860MPD2    C112623   0.824   4.090  11.677  0.2489  0.1852  0.0897
  860MPD2    C212624   0.700   4.031  11.659 -0.2825 -0.1886 -0.3604
  860MPD2    C312625   0.616   4.036  11.543  0.4704 -0.0936 -0.2600
  860MPD2    C412626   0.667   4.112  11.439 -0.2151  0.8720 -0.2042
  860MPD2    C512627   0.785   4.186  11.457  0.1601  0.2600  0.0233
  860MPD2     H12628   0.657   3.972  11.738  1.7572 -2.2722 -0.7849
  860MPD2    H112629   0.617   4.124  11.344  1.1851 -1.2624 -1.2112
  860MPD2    H212630   0.967   4.217  11.571 -0.0907  0.2344  2.3703
  860MPD2    H312631   0.823   4.251  11.378 -0.3115  2.1160  1.3064
  860MPD2     N12632   0.507   3.950  11.529 -0.1924 -0.3811  0.4132
  860MPD2    H512633   0.500   3.874  11.597  0.3026 -0.2647  0.5899
  860MPD2    N112634   0.902   4.059  11.794 -0.1141 -0.0561 -0.3033
  860MPD2    H712635   0.854   4.021  11.876  1.3879 -2.1507 -0.4213
  861MPD2     C12636   4.233   1.891  11.064 -0.2366  0.6782 -0.5059
  861MPD2    C112637   4.220   2.015  11.130 -0.2705 -0.5622  0.2906
  861MPD2    C212638   4.146   2.119  11.061  0.3747  0.2822  0.5229
  861MPD2    C312639   4.081   2.098  10.942 -0.1001  0.5640  0.0441
  861MPD2    C412640   4.093   1.976  10.883 -0.8497  0.1225 -0.5363
  861MPD2    C512641   4.160   1.871  10.948 -0.7804 -0.1059 -0.0761
  861MPD2     H12642   4.130   2.215  11.108  2.2851  1.6269 -1.5667
  861MPD2    H112643   4.040   1.962  10.789 -0.6045 -0.3615 -0.6028
  861MPD2    H212644   4.298   1.815  11.104 -0.7296 -0.1200 -1.2328
  861MPD2    H312645   4.171   1.773  10.903 -1.2978  0.3162 -1.1294
  861MPD2     N12646   3.983   2.181  10.888  0.0625 -0.0647  0.2693
  861MPD2    H512647   3.934   2.129  10.816  0.8210 -0.3783 -0.0193
  861MPD2    N112648   4.289   2.044  11.250  0.3011  0.9235  0.5428
  861MPD2    H712649   4.291   2.139  11.286 -0.1863  0.5439  1.5860
  862MPD2     C12650   3.401   2.131  10.507 -0.7863 -0.0969 -0.9187
  862MPD2    C112651   3.503   2.105  10.595  0.3554 -0.7716  0.3020
  862MPD2    C212652   3.507   1.983  10.655 -0.2214  0.2178  0.3128
  862MPD2    C312653   3.424   1.879  10.624 -0.7591  0.0352  0.9895
  862MPD2    C412654   3.312   1.907  10.543 -0.4936 -0.3337  0.4196
  862MPD2    C512655   3.302   2.036  10.489 -0.9048 -0.0846  0.0826
  862MPD2     H12656   3.585   1.989  10.729 -1.2950  3.6753  1.1678
  862MPD2    H112657   3.235   1.833  10.524  0.4465 -1.3358  0.5365
  862MPD2    H212658   3.388   2.226  10.456 -0.4517  0.7492  0.5692
  862MPD2    H312659   3.219   2.045  10.421  0.0874 -1.9685 -1.3813
  862MPD2     N12660   3.450   1.752  10.671 -0.8980  0.6473 -0.0115
  862MPD2    H512661   3.395   1.682  10.621 -0.7672  0.1822  0.4915
  862MPD2    N112662   3.592   2.210  10.638  0.1193  0.4910 -0.3458
  862MPD2    H712663   3.666   2.175  10.698  1.7422  1.9674 -1.5160
  863MPD2     C12664   3.239   0.060  16.709  0.3090 -0.2137  0.3523
  863MPD2    C112665   3.145   4.709  16.777  0.4291  0.4633 -0.7876
  863MPD2    C212666   3.159   4.674  16.909  0.1633  0.7585 -0.5490
  863MPD2    C312667   3.262   4.725  16.977  0.2709 -0.3038  0.8838
  863MPD2    C412668   3.348   0.086  16.916  0.1531 -0.2521 -0.0358
  863MPD2    C512669   3.339   0.115  16.785  0.1195  0.2106 -0.0368
  863MPD2     H12670   3.093   4.611  16.968  0.1257 -0.7306 -2.1989
  863MPD2    H112671   3.428   0.129  16.976  0.7092 -2.5390  0.8511
  863MPD2    H212672   3.229   0.088  16.605  0.4597  1.3996  0.7662
  863MPD2    H312673   3.413   0.179  16.739  1.9747 -1.5315  0.4944
  863MPD2     N12674   3.297   4.697  17.110  0.1126  0.4440 -0.0681
  863MPD2    H512675   3.369   0.031  17.150  1.0187 -0.8081  0.1668
  863MPD2    N112676   3.029   4.662  16.704  0.6269  0.4272  0.0814
  863MPD2    H712677   3.027   4.692  16.608 -0.1604 -1.9377 -0.6347
  864MPD2     C12678   3.364   0.795  17.455 -0.8308 -0.7790  0.3922
  864MPD2    C112679   3.298   0.806  17.334 -0.1573 -0.2049 -0.5971
  864MPD2    C212680   3.299   0.924  17.264 -0.6530 -0.2881  0.7252
  864MPD2    C312681   3.378   1.024  17.314  0.0597  0.5655  0.2642
  864MPD2    C412682   3.437   1.019  17.440 -0.0429  0.1932  0.6012
  864MPD2    C512683   3.426   0.903  17.508  1.3408  0.3802  0.3104
  864MPD2     H12684   3.234   0.936  17.178  0.9286 -2.2606 -0.7671
  864MPD2    H112685   3.481   1.104  17.491  0.6780  1.7989 -2.7086
  864MPD2    H212686   3.379   0.699  17.504  1.3598 -0.5852  0.1033
  864MPD2    H312687   3.483   0.892  17.600  0.9206  0.3267  0.5645
  864MPD2     N12688   3.386   1.147  17.248  0.3052 -0.4312 -0.0396
  864MPD2    H512689   3.445   1.218  17.289  0.3668  0.3094 -1.4096
  864MPD2    N112690   3.233   0.684  17.280  0.8266 -0.0196 -0.1826
  864MPD2    H712691   3.245   0.602  17.339  2.3214 -2.1212 -3.3704
  865MPD2     C12692   3.088   1.474  16.291 -0.0711 -0.3732  0.0428
  865MPD2    C112693   3.139   1.366  16.353 -0.3323  0.2343 -0.0244
  865MPD2    C212694   3.179   1.366  16.486 -0.5813  0.1506  0.8282
  865MPD2    C312695   3.170   1.485  16.553  0.0856  0.8869  0.0150
  865MPD2    C412696   3.137   1.601  16.483  0.2340  0.3650 -0.5237
  865MPD2    C512697   3.078   1.588  16.363 -0.0663  0.1726  0.0586
  865MPD2     H12698   3.233   1.289  16.538  0.1442  0.8262  1.0799
  865MPD2    H112699   3.140   1.697  16.534 -0.2131 -0.9929  2.0464
  865MPD2    H212700   3.060   1.468  16.187 -0.6914  2.7947  0.0309
  865MPD2    H312701   3.044   1.675  16.308 -1.7187 -0.0378  0.7534
  865MPD2     N12702   3.215   1.502  16.687  0.4098 -0.5784 -0.1779
  865MPD2    H512703   3.230   1.596  16.721 -3.1293  0.7077 -2.2308
  865MPD2    N112704   3.151   1.249  16.272  0.9343  0.1753 -0.5825
  865MPD2    H712705   3.125   1.256  16.174 -0.8014 -2.6401 -0.3330
  866MPD2     C12706   0.347   2.622  11.099  1.3972 -0.3218 -0.5368
  866MPD2    C112707   0.283   2.513  11.140  0.3439  0.4695 -0.7870
  866MPD2    C212708   0.144   2.517  11.140  0.1399 -0.3719 -0.7056
  866MPD2    C312709   0.076   2.628  11.087 -0.4986 -0.0199 -0.4830
  866MPD2    C412710   0.154   2.726  11.023  0.3006  0.2620  0.6559
  866MPD2    C512711   0.286   2.723  11.023  0.3837  0.0880 -0.4622
  866MPD2     H12712   0.095   2.423  11.160  0.9039 -0.4936  0.6302
  866MPD2    H112713   0.115   2.807  10.961 -2.3713 -0.2597  1.6249
  866MPD2    H212714   0.456   2.621  11.098  1.3949 -0.3705 -0.8234
  866MPD2    H312715   0.344   2.800  10.973  0.9091 -0.2480 -0.3760
  866MPD2     N12716   4.655   2.623  11.083  0.3508 -0.3183  0.0149
  866MPD2    H512717   4.605   2.697  11.036 -1.5156 -0.4187  1.8175
  866MPD2    N112718   0.359   2.401  11.169 -0.6837 -0.4538 -0.4431
  866MPD2    H712719   0.457   2.417  11.151 -0.8564  0.4665 -0.6059
  867MPD2     C12720   2.026   0.846  16.257  0.0465  0.5266  0.1262
  867MPD2    C112721   2.074   0.834  16.387  0.0089 -0.4936  0.0219
  867MPD2    C212722   2.065   0.942  16.476  0.4462 -0.4840  0.1515
  867MPD2    C312723   2.019   1.064  16.423  0.3925  0.2807  0.0340
  867MPD2    C412724   1.984   1.072  16.292  0.4276 -0.4009 -0.5014
  867MPD2    C512725   1.962   0.962  16.223  0.5263  0.5720  0.1995
  867MPD2     H12726   2.109   0.938  16.574 -1.4584  2.6946  1.1381
  867MPD2    H112727   1.948   1.166  16.250  0.6786  0.3353  0.9297
  867MPD2    H212728   2.039   0.761  16.192 -2.0736 -1.2885  2.0667
  867MPD2    H312729   1.920   0.985  16.125  1.6265  1.3430 -0.0888
  867MPD2     N12730   2.022   1.187  16.492 -0.2759 -0.4439 -0.2449
  867MPD2    H512731   1.984   1.273  16.455  1.5686  0.8834  0.9353
  867MPD2    N112732   2.134   0.716  16.410  0.0498 -0.4921  0.5025
  867MPD2    H712733   2.137   0.646  16.336 -0.3326  0.8436 -0.7758
  868MPD2     C12734   3.486   0.075  12.804  0.0816  0.1083 -0.6995
  868MPD2    C112735   3.517   0.006  12.918 -0.2056 -0.2495 -0.4366
  868MPD2    C212736   3.434   0.023  13.025  1.2299 -0.8414 -0.6102
  868MPD2    C312737   3.331   0.110  13.030  1.5857 -0.0250 -0.0026
  868MPD2    C412738   3.296   0.170  12.910 -0.5307  0.0405  0.7026
  868MPD2    C512739   3.375   0.152  12.797  0.1052  0.6328  0.6651
  868MPD2     H12740   3.460   4.697  13.116  1.6851  0.2526 -0.1296
  868MPD2    H112741   3.211   0.237  12.904 -0.3712  0.0537 -1.2479
  868MPD2    H212742   3.549   0.066  12.716  0.3285  1.1237 -0.6227
  868MPD2    H312743   3.339   0.201  12.707  0.8782 -1.2033 -0.6390
  868MPD2     N12744   3.265   0.120  13.155  0.1920 -0.1234  0.3707
  868MPD2    H512745   3.294   0.060  13.232  0.6621 -1.0910 -0.5533
  868MPD2    N112746   3.641   4.668  12.930 -0.5823  0.1149 -0.3435
  868MPD2    H712747   3.711   4.686  12.859  1.5823  1.2391  2.0749
  869MPD2     C12748   0.732   3.578   2.180  0.4617 -0.2025 -0.2813
  869MPD2    C112749   0.660   3.471   2.137  0.4225 -0.4130 -0.1280
  869MPD2    C212750   0.581   3.479   2.018  0.3186  0.6325 -0.1592
  869MPD2    C312751   0.588   3.592   1.938  1.1521  0.5170  0.3422
  869MPD2    C412752   0.657   3.700   1.995 -0.3202 -0.4611  0.0316
  869MPD2    C512753   0.732   3.692   2.109 -0.2913  0.1939 -0.0151
  869MPD2     H12754   0.528   3.391   1.982 -0.9935  1.0221  0.7832
  869MPD2    H112755   0.666   3.790   1.936  0.9989 -1.6998 -1.6440
  869MPD2    H212756   0.787   3.572   2.273 -0.6736  2.1264  0.5371
  869MPD2    H312757   0.793   3.768   2.157 -0.0273 -0.8322  1.2946
  869MPD2     N12758   0.522   3.614   1.812 -0.1492  0.0515  0.0348
  869MPD2    H512759   0.537   3.706   1.771 -0.9375  0.1370 -0.0718
  869MPD2    N112760   0.660   3.353   2.215  0.5322 -0.4754  0.4392
  869MPD2    H712761   0.708   3.358   2.304 -1.8960  2.2282  1.6063
  870MPD2     C12762   4.542   2.356   1.895 -0.6620  0.1630 -0.6699
  870MPD2    C112763   4.607   2.270   1.817 -0.4252 -0.0336 -0.4003
  870MPD2    C212764   4.627   2.292   1.681 -0.1352 -0.4032  0.4380
  870MPD2    C312765   4.564   2.399   1.619  0.5182 -0.0273 -0.1472
  870MPD2    C412766   4.505   2.494   1.701 -0.6634 -0.3757  0.3716
  870MPD2    C512767   4.491   2.468   1.836  0.1085 -0.3142 -0.4936
  870MPD2     H12768   4.684   2.225   1.617 -2.4028 -0.5690 -1.4345
  870MPD2    H112769   4.453   2.582   1.665  0.4881 -0.4755 -1.5682
  870MPD2    H212770   4.534   2.341   2.002  1.7989  1.8228 -0.2453
  870MPD2    H312771   4.424   2.534   1.889 -0.8040 -2.0345  0.5151
  870MPD2     N12772   4.561   2.419   1.476  0.3056 -0.1459  0.0951
  870MPD2    H512773   4.599   2.345   1.418  3.2807 -0.3121  2.2179
  870MPD2    N112774   4.647   2.156   1.880  0.2062  0.0224 -0.8152
  870MPD2    H712775   4.651   2.169   1.981  0.6422 -1.3338 -0.6558
  871MPD2     C12776   1.296   1.266  16.527  0.2927 -0.3864  0.6313
  871MPD2    C112777   1.239   1.236  16.649 -0.1105  0.1458 -0.3163
  871MPD2    C212778   1.238   1.105  16.689 -0.1373 -0.0561  0.2253
  871MPD2    C312779   1.297   1.002  16.621 -0.6523 -0.1712 -0.2972
  871MPD2    C412780   1.341   1.032  16.495 -0.2943  0.4239 -1.2731
  871MPD2    C512781   1.338   1.162  16.445 -0.8485  0.6108  0.3922
  871MPD2     H12782   1.188   1.075  16.781  0.7832 -1.5649  0.2346
  871MPD2    H112783   1.384   0.954  16.433 -0.1763 -0.7334  0.2614
  871MPD2    H212784   1.294   1.368  16.491 -1.5630 -1.5534 -2.6307
  871MPD2    H312785   1.352   1.177  16.339 -0.3034 -0.2733  0.3409
  871MPD2     N12786   1.307   0.874  16.683  0.5343  0.1873  0.4612
  871MPD2    H512787   1.261   0.851  16.771 -1.7074 -0.5597 -0.9221
  871MPD2    N112788   1.188   1.346  16.731  1.1937  0.5677  0.2617
  871MPD2    H712789   1.193   1.442  16.699  2.3314  0.9673  1.6215
  872MPD2     C12790   1.686   3.728  14.459 -0.6922  0.0226  0.4370
  872MPD2    C112791   1.638   3.812  14.359 -0.0437  0.5825 -0.5147
  872MPD2    C212792   1.499   3.815  14.341 -0.3128  0.2145 -0.2365
  872MPD2    C312793   1.419   3.738  14.420  1.0938 -0.1958  0.2793
  872MPD2    C412794   1.468   3.658  14.518 -0.7174 -0.2178  0.1312
  872MPD2    C512795   1.601   3.659  14.540 -0.2757 -0.0432 -0.4583
  872MPD2     H12796   1.462   3.880  14.262 -2.2405 -0.7145 -0.0984
  872MPD2    H112797   1.402   3.600  14.581 -0.4988 -1.0802 -0.4352
  872MPD2    H212798   1.788   3.719  14.494 -0.5875 -1.9133 -0.3547
  872MPD2    H312799   1.647   3.593  14.612  0.5211  1.0115 -0.0026
  872MPD2     N12800   1.285   3.716  14.391  0.0487 -0.5192 -0.2135
  872MPD2    H512801   1.228   3.670  14.462  0.9578 -1.6589 -0.2166
  872MPD2    N112802   1.721   3.883  14.273  0.1938 -0.6455 -0.3980
  872MPD2    H712803   1.682   3.931  14.192 -0.0939 -0.1099  0.0528
  873MPD2     C12804   4.244   3.662   1.446 -0.0934  0.3518  0.8108
  873MPD2    C112805   4.124   3.647   1.382  0.2269  0.4867  0.0600
  873MPD2    C212806   4.064   3.525   1.360 -0.1443  0.5242 -0.0925
  873MPD2    C312807   4.127   3.414   1.416  0.5799 -0.5229  0.2930
  873MPD2    C412808   4.244   3.430   1.484 -0.2850 -0.3651 -0.5383
  873MPD2    C512809   4.310   3.552   1.498 -0.6156 -0.1088  0.5888
  873MPD2     H12810   3.971   3.515   1.306  1.3451 -1.4159 -2.3123
  873MPD2    H112811   4.298   3.342   1.517 -0.6939 -0.2353  0.4584
  873MPD2    H212812   4.286   3.762   1.449  0.3507  0.2111 -0.7085
  873MPD2    H312813   4.408   3.553   1.544  0.2993 -1.0252 -1.3209
  873MPD2     N12814   4.076   3.284   1.414 -0.6249  0.1487 -0.3450
  873MPD2    H512815   4.118   3.214   1.474  2.8908  0.9638 -1.8293
  873MPD2    N112816   4.050   3.761   1.358 -0.5788  0.2913  0.0927
  873MPD2    H712817   4.082   3.848   1.400  1.2233 -1.4826  2.3679
  874MPD2     C12818   2.989   3.769  16.077 -0.0797  0.1269 -0.3925
  874MPD2    C112819   3.040   3.725  16.192 -0.6853  0.0687  0.3039
  874MPD2    C212820   3.176   3.735  16.206  0.0271  0.0615  0.5601
  874MPD2    C312821   3.256   3.792  16.110 -0.7712  0.0533  0.1459
  874MPD2    C412822   3.201   3.844  16.000 -0.6710  0.5540  0.3566
  874MPD2    C512823   3.070   3.838  15.983  0.2629 -0.6000  0.0875
  874MPD2     H12824   3.219   3.686  16.293 -0.7214 -0.5579  0.5820
  874MPD2    H112825   3.260   3.878  15.916 -1.4617  1.2845  0.1031
  874MPD2    H212826   2.886   3.761  16.044 -0.3269  1.7512 -0.0171
  874MPD2    H312827   3.041   3.868  15.883 -1.4826 -0.0658  0.7411
  874MPD2     N12828   3.394   3.790  16.130 -0.3307 -0.7197  0.0048
  874MPD2    H512829   3.431   3.753  16.217 -0.9369 -0.1576  0.4998
  874MPD2    N112830   2.951   3.663  16.283  0.2371 -0.5932 -0.5482
  874MPD2    H712831   2.853   3.661  16.254  0.0944 -2.0984  0.0402
  875MPD2     C12832   4.499   1.886  14.549 -0.0407  0.1103  0.0907
  875MPD2    C112833   4.387   1.957  14.590  0.5971 -0.3286  0.0166
  875MPD2    C212834   4.397   2.039  14.697  0.1007  0.3866 -0.1975
  875MPD2    C312835   4.510   2.044  14.776  0.1229  0.4183  0.4203
  875MPD2    C412836   4.614   1.969  14.738 -0.0258  0.4897 -0.5076
  875MPD2    C512837   4.614   1.895  14.618 -0.0950 -0.1825 -0.1901
  875MPD2     H12838   4.319   2.112  14.712  0.0567 -0.1253  2.0826
  875MPD2    H112839   4.705   1.982  14.795  0.2745  0.7484 -1.0471
  875MPD2    H212840   4.495   1.831  14.455 -3.0169 -0.3164  0.4640
  875MPD2    H312841   4.697   1.832  14.589  0.6431  0.2493  0.9943
  875MPD2     N12842   4.527   2.122  14.896 -0.5454 -0.1574  0.5895
  875MPD2    H512843   4.611   2.116  14.952 -1.4398 -0.8388  1.8572
  875MPD2    N112844   4.266   1.952  14.518 -0.1368 -0.1537  0.5955
  875MPD2    H712845   4.192   2.013  14.551 -0.4538  1.1945 -2.5875
  876MPD2     C12846   2.900   3.307  16.022  0.3640  0.8367 -0.5137
  876MPD2    C112847   3.024   3.362  16.052 -0.5912 -0.1720 -0.8722
  876MPD2    C212848   3.076   3.328  16.179 -0.5216  0.5202  0.1606
  876MPD2    C312849   2.992   3.271  16.277  0.2671  0.0277  0.3351
  876MPD2    C412850   2.863   3.245  16.245 -0.6712 -0.6904  0.0597
  876MPD2    C512851   2.823   3.243  16.115  0.0161 -0.6526 -0.1453
  876MPD2     H12852   3.173   3.365  16.210 -1.3546  2.0253  0.9728
  876MPD2    H112853   2.788   3.193  16.303 -0.4343 -1.0573  0.0362
  876MPD2    H212854   2.862   3.314  15.921 -0.9921 -0.1782 -0.0621
  876MPD2    H312855   2.726   3.206  16.084  0.4315 -1.3943 -0.5606
  876MPD2     N12856   3.047   3.225  16.398 -0.2638  0.0430 -0.1273
  876MPD2    H512857   3.148   3.231  16.400 -0.2779  1.1909 -2.2918
  876MPD2    N112858   3.099   3.433  15.958 -0.0772  0.4156  0.3262
  876MPD2    H712859   3.054   3.446  15.868  2.0816 -2.5795 -1.1764
  877MPD2     C12860   3.051   3.740  15.280 -1.2517  0.3120  0.1488
  877MPD2    C112861   3.180   3.781  15.320 -0.8125  0.2560  0.2065
  877MPD2    C212862   3.248   3.860  15.227  0.2024 -0.3243 -0.8260
  877MPD2    C312863   3.202   3.874  15.096  0.9895  0.2467 -0.0682
  877MPD2    C412864   3.083   3.822  15.063  0.2428 -0.0601  0.1994
  877MPD2    C512865   3.002   3.765  15.151  0.8276  1.1819 -0.0083
  877MPD2     H12866   3.337   3.910  15.263 -1.1022  0.9696  0.6135
  877MPD2    H112867   3.050   3.834  14.961 -0.1259  0.1950  0.3497
  877MPD2    H212868   2.980   3.687  15.343 -1.2451 -1.2998 -1.1785
  877MPD2    H312869   2.904   3.738  15.114  2.0839  0.3937 -2.7308
  877MPD2     N12870   3.267   3.959  14.998  0.3289 -0.2809 -0.0400
  877MPD2    H512871   3.222   3.961  14.907  0.2460  0.9462  0.0282
  877MPD2    N112872   3.229   3.772  15.451 -0.4067 -0.3516 -0.2612
  877MPD2    H712873   3.314   3.823  15.473 -0.8325  1.2399 -2.2890
  878MPD2     C12874   3.227   3.124  12.740  0.0791 -0.0338  0.2874
  878MPD2    C112875   3.210   3.245  12.810 -0.3122  0.1023 -0.3122
  878MPD2    C212876   3.266   3.267  12.932  0.1135  0.2140  0.1659
  878MPD2    C312877   3.323   3.161  13.002  0.4001 -0.0700  0.3391
  878MPD2    C412878   3.351   3.040  12.937 -0.4084  0.5318  0.6042
  878MPD2    C512879   3.303   3.026  12.806 -0.3512  0.4483  0.2502
  878MPD2     H12880   3.252   3.360  12.986  1.1903 -0.4493  1.5927
  878MPD2    H112881   3.392   2.956  12.993 -1.1639 -0.3502 -0.1738
  878MPD2    H212882   3.186   3.105  12.642  0.8631 -0.5042  0.0458
  878MPD2    H312883   3.303   2.930  12.757 -1.7201  1.1890 -1.2102
  878MPD2     N12884   3.350   3.184  13.138 -0.1344 -1.1355  0.0221
  878MPD2    H512885   3.320   3.269  13.185  0.1256  0.1286 -2.0930
  878MPD2    N112886   3.136   3.343  12.741  0.4956  0.3911 -0.2722
  878MPD2    H712887   3.107   3.322  12.646 -0.2919  1.5383 -0.2986
  879MPD2     C12888   3.690   0.016  17.302  0.1195  0.7760  0.0485
  879MPD2    C112889   3.709   4.632  17.389 -0.9217  0.4370  0.8002
  879MPD2    C212890   3.663   4.508  17.345 -0.2739  0.0353 -0.1287
  879MPD2    C312891   3.620   4.486  17.220 -0.3387 -0.0765 -0.8399
  879MPD2    C412892   3.613   4.595  17.131 -0.0435 -0.5059 -0.2323
  879MPD2    C512893   3.652   4.717  17.170 -0.4487 -0.3054 -0.0163
  879MPD2     H12894   3.684   4.426  17.413 -1.4868 -0.7175 -0.6635
  879MPD2    H112895   3.593   4.575  17.027  1.8798 -1.2339 -0.4618
  879MPD2    H212896   3.705   0.119  17.334  1.7428  0.8294 -0.9041
  879MPD2    H312897   3.657   0.084  17.113  2.2014  0.0806  0.8536
  879MPD2     N12898   3.586   4.357  17.182 -0.2872  0.6787 -0.2353
  879MPD2    H512899   3.579   4.338  17.083 -1.1124 -1.3536  0.2067
  879MPD2    N112900   3.772   4.658  17.515  0.0524  0.0277  0.3140
  879MPD2    H712901   3.792   0.028  17.543 -0.5618  0.9717 -2.5036
  880MPD2     C12902   0.470   1.435   0.107 -0.3578  0.4001  0.1081
  880MPD2    C112903   0.464   1.457   0.236 -0.6554  0.3197 -0.3411
  880MPD2    C212904   0.534   1.371   0.321 -0.5141 -0.3878  0.4718
  880MPD2    C312905   0.591   1.258   0.268 -0.5033  0.4870 -0.0592
  880MPD2    C412906   0.591   1.232   0.133  0.0175  0.7815 -0.0028
  880MPD2    C512907   0.529   1.321   0.050 -0.2381 -0.1595  0.1493
  880MPD2     H12908   0.521   1.376   0.428 -2.0276  0.0214  0.2738
  880MPD2    H112909   0.639   1.150   0.082  0.2230 -0.0068  1.4405
  880MPD2    H212910   0.433   1.505   0.033  0.7610 -1.1380 -1.9099
  880MPD2    H312911   0.515   1.302  17.647  3.7667  0.1992 -0.4673
  880MPD2     N12912   0.633   1.166   0.360  0.0316  0.1419 -0.1567
  880MPD2    H512913   0.637   1.190   0.459  1.5605  1.8433 -0.6476
  880MPD2    N112914   0.381   1.563   0.281  0.1786  0.0866  0.0516
  880MPD2    H712915   0.342   1.614   0.202  0.4228 -0.3747 -0.3625
  881MPD2     C12916   0.204   2.471  17.629  0.2770  0.1908  0.5957
  881MPD2    C112917   0.223   2.341  17.587  0.2206 -0.0594  0.2457
  881MPD2    C212918   0.220   2.242  17.682  0.4162 -0.2621 -0.1783
  881MPD2    C312919   0.201   2.261   0.113 -0.6844 -0.0913 -0.3271
  881MPD2    C412920   0.173   2.387   0.153  1.2845 -0.0537 -0.2274
  881MPD2    C512921   0.175   2.494   0.063  0.0024  0.4628  0.4700
  881MPD2     H12922   0.245   2.140  17.655  0.5263 -0.0635 -0.8134
  881MPD2    H112923   0.169   2.413   0.258 -0.1771 -0.9396 -0.0623
  881MPD2    H212924   0.246   2.552  17.571  0.2705  0.9854  1.6914
  881MPD2    H312925   0.162   2.591   0.109 -3.5168 -0.1717  0.8174
  881MPD2     N12926   0.219   2.162   0.213 -0.6547 -0.0587 -0.1087
  881MPD2    H512927   0.214   2.199   0.308 -3.4208 -2.9967  0.9180
  881MPD2    N112928   0.287   2.322  17.463  0.9924 -0.0946  0.4477
  881MPD2    H712929   0.317   2.407  17.415 -0.7748 -0.2859 -1.0234
  882MPD2     C12930   3.328   3.824  14.301  0.6025  0.5953  0.5514
  882MPD2    C112931   3.278   3.919  14.387  0.3218 -0.5754 -0.7925
  882MPD2    C212932   3.143   3.936  14.395  0.7861 -0.9762  0.3685
  882MPD2    C312933   3.051   3.853  14.335 -0.9157  0.3512  0.2935
  882MPD2    C412934   3.109   3.757  14.252  0.1518  0.0170  0.1981
  882MPD2    C512935   3.244   3.744  14.233  0.0644  0.5566 -0.0906
  882MPD2     H12936   3.095   4.016  14.451 -0.5223 -0.9261 -0.8361
  882MPD2    H112937   3.047   3.697  14.187  0.6673  1.8156 -1.9421
  882MPD2    H212938   3.435   3.836  14.290  0.4579  1.5968  0.2489
  882MPD2    H312939   3.283   3.670  14.164  0.4570 -0.9902  1.7624
  882MPD2     N12940   2.909   3.862  14.345 -0.0518 -0.6002  0.0863
  882MPD2    H512941   2.857   3.796  14.288  0.2559  0.2571 -1.1998
  882MPD2    N112942   3.373   3.990  14.465  0.3218 -0.1561 -0.0787
  882MPD2    H712943   3.463   3.945  14.477  0.8337  0.9331  0.0977
  883MPD2     C12944   0.476   4.131  16.314  0.3947  0.1555 -0.2003
  883MPD2    C112945   0.566   4.023  16.297 -0.3585  0.1393 -0.4237
  883MPD2    C212946   0.683   4.029  16.371 -0.1689 -0.4685 -0.1815
  883MPD2    C312947   0.717   4.130  16.456 -1.0388 -0.3367  0.3152
  883MPD2    C412948   0.623   4.233  16.470  0.5714 -0.1766  1.3702
  883MPD2    C512949   0.501   4.223  16.410  0.0662  0.0071 -0.2611
  883MPD2     H12950   0.753   3.947  16.357  0.9743  0.1722  1.7861
  883MPD2    H112951   0.642   4.310  16.543  1.2565 -0.6003  1.6411
  883MPD2    H212952   0.391   4.151  16.251  0.8359 -3.2586 -1.8432
  883MPD2    H312953   0.441   4.312  16.426 -1.3175 -1.1495  1.0685
  883MPD2     N12954   0.834   4.119  16.531  0.6343  0.3371  0.4382
  883MPD2    H512955   0.891   4.038  16.510  1.9419  0.9176  1.7917
  883MPD2    N112956   0.546   3.917  16.205 -0.3365 -0.0196 -0.0282
  883MPD2    H712957   0.631   3.868  16.177 -1.3461 -0.9615 -1.4791
  884MPD2     C12958   2.239   4.347  15.294  0.5324  0.4008 -1.0109
  884MPD2    C112959   2.280   4.476  15.306 -0.3338  0.1627  0.5027
  884MPD2    C212960   2.181   4.575  15.310  0.0386  0.4450 -0.4727
  884MPD2    C312961   2.046   4.546  15.319 -0.0717 -0.3090  0.7171
  884MPD2    C412962   2.015   4.414  15.332  0.0194 -0.5359 -1.0094
  884MPD2    C512963   2.107   4.318  15.308  0.2819 -0.2311  0.2890
  884MPD2     H12964   2.221   4.676  15.313  0.6736  0.1457  1.1227
  884MPD2    H112965   1.913   4.380  15.346  0.0636 -0.6339 -0.9282
  884MPD2    H212966   2.307   4.264  15.281 -0.6180 -0.6614 -0.3177
  884MPD2    H312967   2.083   4.212  15.302 -0.5223  0.0942 -2.5371
  884MPD2     N12968   1.946   4.644  15.330  0.5066 -0.2884 -0.5666
  884MPD2    H512969   1.981   0.014  15.319  0.9347 -0.6028 -1.9313
  884MPD2    N112970   2.416   4.521  15.294  0.5096 -0.3149  0.2901
  884MPD2    H712971   2.432   4.620  15.283 -0.9777  0.1079  1.9397
  885MPD2     C12972   0.679   4.664   0.254 -0.7460  0.7314  0.4185
  885MPD2    C112973   0.699   0.072   0.276 -0.0605 -0.6054  0.4897
  885MPD2    C212974   0.719   0.152   0.163 -0.4608  0.0471  0.4523
  885MPD2    C312975   0.716   0.095   0.039  0.1711 -0.2523 -0.1555
  885MPD2    C412976   0.703   4.684   0.024 -0.2186  0.0431  0.0823
  885MPD2    C512977   0.679   4.609   0.132 -0.2422 -0.1655  0.3269
  885MPD2     H12978   0.734   0.260   0.169  0.3962 -0.0451 -0.0563
  885MPD2    H112979   0.695   4.631  17.631 -3.4057 -0.0122  0.3844
  885MPD2    H212980   0.663   4.594   0.335 -3.6586  0.9891  0.0647
  885MPD2    H312981   0.656   4.505   0.111  0.4508  0.0475 -1.4535
  885MPD2     N12982   0.739   0.164  17.620 -0.4729 -0.3357 -0.1191
  885MPD2    H512983   0.762   0.101  17.544 -0.5465 -1.8646  1.1457
  885MPD2    N112984   0.720   0.111   0.416 -0.0507  0.1632  0.2019
  885MPD2    H712985   0.700   0.038   0.483 -4.2351  0.0542 -1.2050
  886MPD2     C12986   1.710   3.018  14.886 -0.1715 -0.6455 -0.5113
  886MPD2    C112987   1.806   3.046  14.975  0.4960  0.0627  0.6284
  886MPD2    C212988   1.867   3.168  14.957 -0.3240 -0.0567  0.0154
  886MPD2    C312989   1.826   3.263  14.863  0.5547 -0.7541 -0.5872
  886MPD2    C412990   1.739   3.221  14.769  0.4099  0.1591 -0.0068
  886MPD2    C512991   1.677   3.104  14.782 -0.4219  0.1873  0.0445
  886MPD2     H12992   1.958   3.189  15.011 -0.5766  1.9996 -0.3631
  886MPD2    H112993   1.728   3.271  14.674  2.1610  0.4521 -0.0650
  886MPD2    H212994   1.679   2.916  14.864  0.8301 -0.6797 -1.7635
  886MPD2    H312995   1.602   3.072  14.710  0.5876 -2.5941  0.2457
  886MPD2     N12996   1.891   3.392  14.844  0.6883 -0.1431 -0.1505
  886MPD2    H512997   1.883   3.443  14.756 -2.1149  1.0195  0.7891
  886MPD2    N112998   1.840   2.970  15.088 -0.3093 -0.0140 -0.3642
  886MPD2    H712999   1.907   3.004  15.156  0.3961 -0.0727 -1.0281
  887MPD2     C13000   2.477   2.888  15.306 -0.1643 -0.8694  0.5839
  887MPD2    C113001   2.360   2.960  15.304 -0.6730  0.4882  0.4270
  887MPD2    C213002   2.372   3.091  15.260  0.3154  0.0997  0.0785
  887MPD2    C313003   2.497   3.152  15.246 -0.3607  0.2287 -0.6728
  887MPD2    C413004   2.614   3.079  15.248 -0.9681 -0.7549 -0.0625
  887MPD2    C513005   2.597   2.945  15.276 -0.4767 -0.1973 -0.3258
  887MPD2     H13006   2.277   3.142  15.270 -0.8757 -2.5400  2.1511
  887MPD2    H113007   2.713   3.116  15.226 -1.0511 -0.9195 -0.7047
  887MPD2    H213008   2.487   2.784  15.335 -2.9133 -0.3661  3.3218
  887MPD2    H313009   2.682   2.878  15.274 -0.9802 -0.8533  0.5325
  887MPD2     N13010   2.495   3.295  15.251 -0.0679  0.5923  0.2090
  887MPD2    H513011   2.400   3.331  15.259  0.1771  1.1531  0.6683
  887MPD2    N113012   2.234   2.904  15.323 -0.3482 -0.2864 -0.0941
  887MPD2    H713013   2.148   2.955  15.306  1.1719  2.2040 -0.1930
  888MPD2     C13014   4.520   3.224  15.053 -0.2859 -1.0873  0.2313
  888MPD2    C113015   4.463   3.302  15.150 -0.6012  1.0422  0.4502
  888MPD2    C213016   4.496   3.435  15.158 -0.3202  0.3255  0.1957
  888MPD2    C313017   4.580   3.492  15.067 -0.7085 -0.3949  0.1970
  888MPD2    C413018   4.649   3.413  14.985  0.3114 -0.9454  0.1814
  888MPD2    C513019   4.619   3.282  14.980  0.5851  0.4372 -0.3699
  888MPD2     H13020   4.439   3.498  15.225 -0.6190 -0.8416  1.0590
  888MPD2    H113021   0.002   3.448  14.918  2.3048 -3.6934  1.1212
  888MPD2    H213022   4.499   3.118  15.055 -1.3740 -0.8712  0.1785
  888MPD2    H313023   4.665   3.231  14.896  1.4810  1.4812 -0.5157
  888MPD2     N13024   4.603   3.632  15.085  0.1115  0.0053 -0.6733
  888MPD2    H513025   4.558   3.673  15.166  2.0436 -0.3934  0.6071
  888MPD2    N113026   4.366   3.253  15.242 -0.1611  0.3159  0.2759
  888MPD2    H713027   4.335   3.324  15.308 -0.4935  2.0689 -1.7542
  889MPD2     C13028   3.667   2.965  12.173  0.0466 -0.7844  0.5498
  889MPD2    C113029   3.692   2.899  12.295 -0.2956 -0.0228 -0.8002
  889MPD2    C213030   3.670   2.961  12.415  0.0854  0.4948 -0.0247
  889MPD2    C313031   3.583   3.070  12.426 -0.3048 -0.4933  1.3516
  889MPD2    C413032   3.536   3.113  12.305  0.2486  0.4505  0.3496
  889MPD2    C513033   3.574   3.067  12.180  0.2887 -0.1342  0.5601
  889MPD2     H13034   3.691   2.915  12.511 -0.8843 -0.1164 -0.0968
  889MPD2    H113035   3.457   3.186  12.295 -0.1620 -0.1310 -0.6558
  889MPD2    H213036   3.686   2.917  12.078 -2.1328  1.4590 -1.0250
  889MPD2    H313037   3.520   3.099  12.091 -2.4621 -2.1600  1.5066
  889MPD2     N13038   3.549   3.128  12.553  0.0481 -0.1413  0.0266
  889MPD2    H513039   3.606   3.093  12.630 -0.4767  1.2453  1.0570
  889MPD2    N113040   3.778   2.786  12.291  0.1730  0.2704 -0.6224
  889MPD2    H713041   3.800   2.752  12.385 -0.4204  1.1466 -0.1682
  890MPD2     C13042   2.860   0.042  14.279 -0.2448 -0.2135 -0.4853
  890MPD2    C113043   2.966   0.101  14.344  0.1166 -0.0712 -0.3248
  890MPD2    C213044   2.981   0.062  14.479  0.5996  0.8140 -0.0258
  890MPD2    C313045   2.911   4.692  14.541  0.1980  0.1222 -0.1210
  890MPD2    C413046   2.814   4.626  14.466 -0.4849  0.1192 -0.2830
  890MPD2    C513047   2.791   4.664  14.335  0.0634  0.1077  0.2913
  890MPD2     H13048   3.056   0.102  14.546  0.6243 -0.1990  0.5424
  890MPD2    H113049   2.754   4.545  14.506 -0.8242  0.3213 -0.3882
  890MPD2    H213050   2.839   0.073  14.177  0.0337  1.0124 -0.1718
  890MPD2    H313051   2.721   4.625  14.263  1.2630 -0.8492 -0.3618
  890MPD2     N13052   2.948   4.657  14.673  0.1150 -0.1932 -0.0025
  890MPD2    H513053   3.015   4.717  14.721  1.2710 -2.2165  0.9192
  890MPD2    N113054   3.039   0.202  14.277 -0.1591 -0.5620  0.0298
  890MPD2    H713055   3.013   0.219  14.181  3.5753  0.2492 -0.8481
  891MPD2     C13056   1.135   2.601  16.959  0.3713 -0.1989  0.3691
  891MPD2    C113057   1.040   2.698  16.981 -0.6470  0.5152  0.1372
  891MPD2    C213058   1.073   2.822  17.031 -0.6252 -0.6132  0.4770
  891MPD2    C313059   1.202   2.849  17.069 -0.2270 -0.4086  0.2678
  891MPD2    C413060   1.297   2.749  17.047 -0.1614  0.7794 -0.4608
  891MPD2    C513061   1.261   2.633  16.987  0.0311 -0.3575 -0.5215
  891MPD2     H13062   1.001   2.902  17.040 -1.0670 -1.1512  1.7917
  891MPD2    H113063   1.403   2.754  17.071  0.2942  0.8830 -2.5195
  891MPD2    H213064   1.114   2.501  16.924 -0.9243 -0.3003  1.4588
  891MPD2    H313065   1.343   2.564  16.970  0.0435  0.2307 -2.7541
  891MPD2     N13066   1.229   2.979  17.114  0.3911  0.3014 -0.5503
  891MPD2    H513067   1.149   3.039  17.096 -0.7691 -1.3150 -0.8227
  891MPD2    N113068   0.911   2.665  16.934 -0.5350  0.0914  0.1590
  891MPD2    H713069   0.914   2.592  16.864 -1.5163  0.0229  0.1967
  892MPD2     C13070   2.288   4.542  14.643  0.1534  0.7679  0.2545
  892MPD2    C113071   2.210   4.431  14.662  0.1160  0.6330 -0.2034
  892MPD2    C213072   2.264   4.303  14.649 -0.3097 -0.2118 -0.6435
  892MPD2    C313073   2.401   4.290  14.616 -0.7181 -0.0726  0.0724
  892MPD2    C413074   2.476   4.406  14.606  0.6129 -0.2456  0.4653
  892MPD2    C513075   2.421   4.529  14.623  0.0920 -0.5654 -0.2682
  892MPD2     H13076   2.201   4.216  14.660  1.0348 -0.8165  2.2422
  892MPD2    H113077   2.583   4.393  14.597  0.1849 -1.6267 -2.3448
  892MPD2    H213078   2.253   4.645  14.642 -1.6929  0.0836 -3.0260
  892MPD2    H313079   2.476   4.618  14.595  0.0238 -0.9546 -1.6762
  892MPD2     N13080   2.468   4.168  14.584  0.3704  0.2361 -0.0441
  892MPD2    H513081   2.564   4.181  14.554  0.5541  1.2721  0.9730
  892MPD2    N113082   2.068   4.434  14.677 -0.3702 -0.1939  0.0023
  892MPD2    H713083   2.013   4.350  14.694 -1.4225  0.1796 -1.6457
  893MPD2     C13084   4.674   3.577   1.322 -0.4491 -0.4509  0.1791
  893MPD2    C113085   4.681   3.511   1.442  0.1889 -0.0774  0.7501
  893MPD2    C213086   0.009   3.575   1.553  0.7776  0.2676  0.9539
  893MPD2    C313087   0.037   3.708   1.543  0.3734 -0.4240 -0.2552
  893MPD2    C413088   0.023   3.775   1.425 -0.1205 -0.1271 -0.0237
  893MPD2    C513089   4.714   3.709   1.310 -0.0564  0.2142  0.2437
  893MPD2     H13090   0.025   3.514   1.641 -1.2802 -1.2422  0.2673
  893MPD2    H113091   0.044   3.881   1.416  2.1265 -0.5248  0.6929
  893MPD2    H213092   4.643   3.521   1.235 -0.1527  1.7109 -1.2924
  893MPD2    H313093   4.716   3.759   1.214 -0.2412  0.1381  0.1995
  893MPD2     N13094   0.076   3.786   1.657  0.2225 -0.7291 -0.5857
  893MPD2    H513095   0.089   3.886   1.643  0.4878 -1.1724 -3.4571
  893MPD2    N113096   4.641   3.369   1.443 -0.0378 -0.3854  0.3420
  893MPD2    H713097   4.609   3.332   1.355 -0.3387 -0.3715  0.4455
  894MPD2     C13098   2.523   0.449   0.951  0.7884  0.3519  0.4335
  894MPD2    C113099   2.588   0.554   1.005  0.3099  0.1022 -0.7696
  894MPD2    C213100   2.703   0.606   0.942 -0.1670 -0.0102 -0.5633
  894MPD2    C313101   2.737   0.561   0.815  0.7723 -0.1011  0.8079
  894MPD2    C413102   2.678   0.453   0.758  0.3199 -0.1749  0.6991
  894MPD2    C513103   2.566   0.403   0.825  0.0635 -0.1946  0.6477
  894MPD2     H13104   2.750   0.697   0.977  0.5799 -1.8452  3.2601
  894MPD2    H113105   2.713   0.406   0.667 -1.0064 -2.0974  1.1961
  894MPD2    H213106   2.434   0.406   0.995 -0.0118 -0.3598 -1.8845
  894MPD2    H313107   2.504   0.320   0.792 -1.1445  0.8900  0.1693
  894MPD2     N13108   2.856   0.623   0.762  0.4174  0.3080 -0.0422
  894MPD2    H513109   2.910   0.690   0.816 -1.4420 -0.1025  2.3184
  894MPD2    N113110   2.559   0.603   1.135  0.5058 -0.1342 -0.7545
  894MPD2    H713111   2.617   0.675   1.176 -1.8448  1.1751  0.2933
  895MPD2     C13112   1.641   3.633  14.037 -0.3601  0.1926 -1.0205
  895MPD2    C113113   1.533   3.590  13.960  0.2522 -0.2242  0.0078
  895MPD2    C213114   1.555   3.495  13.859 -0.2959  0.0586  0.0822
  895MPD2    C313115   1.686   3.465  13.820 -0.5015 -0.3570  0.0001
  895MPD2    C413116   1.791   3.498  13.909 -0.2707  0.7096 -0.2158
  895MPD2    C513117   1.767   3.586  14.010  0.0546 -0.5018 -0.0577
  895MPD2     H13118   1.476   3.486  13.785  0.0139  1.4656 -0.4304
  895MPD2    H113119   1.895   3.483  13.882 -1.4726 -1.2636 -3.7315
  895MPD2    H213120   1.639   3.713  14.110 -1.8553  0.1632 -1.0358
  895MPD2    H313121   1.855   3.619  14.064  0.7020 -0.7583 -0.9471
  895MPD2     N13122   1.717   3.398  13.702  0.3060 -0.3608  0.8548
  895MPD2    H513123   1.815   3.377  13.683  0.4341  0.6268  0.4280
  895MPD2    N113124   1.408   3.651  13.972  0.6456 -0.1435  0.5055
  895MPD2    H713125   1.392   3.738  14.022 -1.6963  1.3438 -2.8336
  896MPD2     C13126   4.178   0.968   0.848  0.5628 -0.5545  0.1352
  896MPD2    C113127   4.203   0.943   0.980  0.8083  0.3348 -0.4761
  896MPD2    C213128   4.108   0.865   1.043 -0.7399 -0.2048 -0.3895
  896MPD2    C313129   3.987   0.832   0.974 -0.1817 -0.7488 -0.4311
  896MPD2    C413130   3.962   0.877   0.846 -0.0527 -0.0499 -0.3891
  896MPD2    C513131   4.059   0.943   0.779 -0.0311  0.0487  0.4016
  896MPD2     H13132   4.104   0.839   1.148  0.2651  1.6421  0.0933
  896MPD2    H113133   3.867   0.859   0.796 -0.6660 -1.5262  1.2761
  896MPD2    H213134   4.246   1.028   0.789 -0.0373  0.1206  0.1249
  896MPD2    H313135   4.042   0.977   0.677 -3.4844 -0.1422  0.9056
  896MPD2     N13136   3.900   0.756   1.042 -0.1650 -0.3195 -0.5744
  896MPD2    H513137   3.920   0.740   1.140  1.4600  1.4137 -0.6127
  896MPD2    N113138   4.322   1.005   1.034 -0.0030 -0.1110  0.4539
  896MPD2    H713139   4.381   1.054   0.967 -0.8027 -0.0744 -0.2290
  897MPD2     C13140   0.210   2.945  10.316 -0.2488 -0.1374 -0.1710
  897MPD2    C113141   0.150   3.057  10.263  1.2183 -0.6805  0.2987
  897MPD2    C213142   0.033   3.103  10.323  0.2034  0.2945 -0.3755
  897MPD2    C313143   4.719   3.050  10.443 -0.6637  1.0358 -0.2863
  897MPD2    C413144   0.059   2.936  10.489 -0.0141 -0.2912 -0.2969
  897MPD2    C513145   0.167   2.880  10.430 -0.4793 -0.0496 -0.1522
  897MPD2     H13146   4.704   3.190  10.288 -2.5640 -0.8218  1.0519
  897MPD2    H113147   0.024   2.888  10.580  2.0256  2.4067  1.9446
  897MPD2    H213148   0.303   2.901  10.281  0.3979  0.7728  0.4011
  897MPD2    H313149   0.229   2.800  10.467  1.0562  1.2814  0.1656
  897MPD2     N13150   4.614   3.117  10.513 -0.0539 -0.7506  0.7745
  897MPD2    H513151   4.564   3.191  10.466 -0.7609 -1.7060  0.0010
  897MPD2    N113152   0.213   3.122  10.159 -0.3601  0.0569  0.4754
  897MPD2    H713153   0.296   3.078  10.121 -1.3510  1.0802 -2.8202
  898MPD2     C13154   2.083   3.291   0.459  0.2974 -0.0466  0.4508
  898MPD2    C113155   2.172   3.396   0.441  0.4578 -0.0317 -0.2393
  898MPD2    C213156   2.163   3.466   0.323 -0.1089  0.7237  0.7996
  898MPD2    C313157   2.070   3.423   0.221  0.0440  0.1466 -0.0312
  898MPD2    C413158   1.994   3.308   0.238 -0.0336 -0.0689 -0.1126
  898MPD2    C513159   1.995   3.245   0.362 -0.1248  0.1661 -0.0520
  898MPD2     H13160   2.225   3.554   0.309  0.1241  0.2417 -1.2827
  898MPD2    H113161   1.937   3.276   0.152  0.2412  1.2980 -0.8041
  898MPD2    H213162   2.079   3.241   0.554  1.6608  2.6804  1.9515
  898MPD2    H313163   1.938   3.156   0.383 -1.1162  0.9819  0.7510
  898MPD2     N13164   2.067   3.507   0.103  0.1499 -0.2776 -0.6443
  898MPD2    H513165   2.118   3.594   0.117 -1.3265  1.2828 -5.1563
  898MPD2    N113166   2.285   3.420   0.525 -0.4613  0.1661 -0.1419
  898MPD2    H713167   2.347   3.493   0.492 -0.4448  1.2487  2.2977
  899MPD2     C13168   3.333   4.035  17.582 -0.9897 -0.4245 -0.2126
  899MPD2    C113169   3.256   4.140  17.626 -0.2094 -0.3999 -0.3732
  899MPD2    C213170   3.145   4.112   0.011 -0.4731  0.1144  0.7201
  899MPD2    C313171   3.113   3.983   0.058  0.1359 -0.2699 -0.6407
  899MPD2    C413172   3.194   3.875   0.006  0.1264  0.5754  0.1034
  899MPD2    C513173   3.297   3.906  17.620  0.0914 -0.1769 -0.5622
  899MPD2     H13174   3.072   4.192   0.026  0.1838  0.6105  1.2458
  899MPD2    H113175   3.165   3.772   0.027  1.8294 -0.0711 -0.6771
  899MPD2    H213176   3.418   4.044  17.514 -1.4004 -0.9392 -0.7989
  899MPD2    H313177   3.338   3.823  17.564 -0.9984 -0.6219 -0.6918
  899MPD2     N13178   2.998   3.957   0.131  0.1719  0.1078 -0.3703
  899MPD2    H513179   2.968   3.860   0.135  2.2183 -0.6044 -2.1287
  899MPD2    N113180   3.274   4.268  17.568  0.2955 -0.6135 -0.3867
  899MPD2    H713181   3.354   4.272  17.505  0.9718  0.9540  0.5420
  900MPD2     C13182   2.671   1.619  12.610  0.4691  0.2286 -0.3411
  900MPD2    C113183   2.610   1.495  12.596  0.6253 -0.2404  0.5583
  900MPD2    C213184   2.513   1.487  12.499 -0.2928  0.6339  0.3058
  900MPD2    C313185   2.485   1.593  12.417 -0.1327 -0.1162  1.1568
  900MPD2    C413186   2.546   1.714  12.434  0.7202  0.6199  0.5658
  900MPD2    C513187   2.648   1.727  12.525 -0.2308  0.3398 -0.7366
  900MPD2     H13188   2.469   1.390  12.479  1.1323 -0.2373  1.4482
  900MPD2    H113189   2.504   1.800  12.383 -2.6728 -0.2293  1.9280
  900MPD2    H213190   2.755   1.633  12.677 -0.3785  0.2910  0.7155
  900MPD2    H313191   2.696   1.823  12.541  1.6555 -0.8668  0.9023
  900MPD2     N13192   2.378   1.567  12.323  0.0804  0.2012  0.2004
  900MPD2    H513193   2.353   1.468  12.327  2.6180 -0.4506  0.0202
  900MPD2    N113194   2.659   1.379  12.661 -0.1707 -0.2318  0.2814
  900MPD2    H713195   2.755   1.375  12.692 -0.1264 -0.7260  0.0705
  901MPD2     C13196   2.427   0.368  13.082 -0.2432 -0.0303 -0.3031
  901MPD2    C113197   2.503   0.372  12.967  0.0467  0.7862  0.6747
  901MPD2    C213198   2.548   0.496  12.916 -0.5010 -0.1477 -0.7390
  901MPD2    C313199   2.519   0.612  12.978 -0.4754  0.1528  0.2236
  901MPD2    C413200   2.447   0.609  13.099 -0.0092 -0.0273 -0.5343
  901MPD2    C513201   2.399   0.491  13.147 -0.1445  0.0277 -0.3445
  901MPD2     H13202   2.599   0.505  12.821 -0.7910 -0.6264 -0.9372
  901MPD2    H113203   2.427   0.705  13.146 -1.2989 -1.0011  0.8896
  901MPD2    H213204   2.384   0.278  13.124 -2.0225  1.8163  1.8842
  901MPD2    H313205   2.336   0.493  13.235 -0.2371 -2.5418 -0.3340
  901MPD2     N13206   2.576   0.727  12.927 -0.2875 -0.1697  0.7195
  901MPD2    H513207   2.631   0.707  12.844 -0.8015 -2.0042  0.8264
  901MPD2    N113208   2.517   0.242  12.903 -0.1517  0.4128  0.2477
  901MPD2    H713209   2.520   0.162  12.965 -1.9305 -0.0013 -0.1960
  902MPD2     C13210   0.865   3.972  13.172 -0.3033  0.4687 -0.6183
  902MPD2    C113211   0.888   3.975  13.038 -0.5167 -0.1362  0.9389
  902MPD2    C213212   1.019   3.982  12.984  0.7095 -0.0379 -0.2088
  902MPD2    C313213   1.123   3.975  13.080  0.1050 -0.5374  0.1545
  902MPD2    C413214   1.098   3.975  13.213 -0.4440  1.3053 -0.4510
  902MPD2    C513215   0.971   3.964  13.257  0.4599  0.3137 -0.4788
  902MPD2     H13216   1.037   3.992  12.878  2.2488  2.8529  0.3146
  902MPD2    H113217   1.180   3.983  13.283 -1.0991  0.6141  0.3891
  902MPD2    H213218   0.769   3.949  13.216  0.1841 -3.0010 -1.3922
  902MPD2    H313219   0.952   3.958  13.364  1.4832 -1.8555 -0.4144
  902MPD2     N13220   1.264   3.975  13.044  0.1945  0.6466  0.0023
  902MPD2    H513221   1.322   3.947  13.121  0.3895 -1.0906 -0.7896
  902MPD2    N113222   0.776   3.985  12.951 -0.2237  0.4776 -0.3653
  902MPD2    H713223   0.685   4.002  12.992 -0.2815  0.1179 -0.3476
  903MPD2     C13224   1.761   4.230  12.443 -0.3401 -0.0562 -0.0200
  903MPD2    C113225   1.642   4.209  12.507 -0.2433  0.7477  0.2568
  903MPD2    C213226   1.522   4.207  12.437  0.0990 -0.0559 -0.5418
  903MPD2    C313227   1.512   4.219  12.301  0.6621 -0.8053  0.0715
  903MPD2    C413228   1.627   4.252  12.234  0.0784 -0.5443  0.4101
  903MPD2    C513229   1.747   4.259  12.307 -0.0237  0.1620 -0.1165
  903MPD2     H13230   1.431   4.191  12.494  1.4790 -0.6212  1.4885
  903MPD2    H113231   1.626   4.259  12.126  0.9422 -0.4831  0.4028
  903MPD2    H213232   1.859   4.240  12.487 -0.2858  0.0825 -0.1777
  903MPD2    H313233   1.834   4.284  12.248  0.9126  2.1505  2.0837
  903MPD2     N13234   1.388   4.203  12.245 -0.0348  0.2131 -0.4633
  903MPD2    H513235   1.324   4.152  12.305  0.9923  0.5704  0.9504
  903MPD2    N113236   1.628   4.183  12.646 -0.0531 -0.3814  0.1625
  903MPD2    H713237   1.543   4.141  12.682 -0.2289  0.6197  0.9095
  904MPD2     C13238   1.418   3.057  13.830 -0.0226  0.1012  0.1593
  904MPD2    C113239   1.453   2.927  13.840  0.2836 -0.5394 -0.9353
  904MPD2    C213240   1.569   2.883  13.894 -0.7221  0.7686  0.3122
  904MPD2    C313241   1.668   2.971  13.929  0.0341  0.6711  0.7019
  904MPD2    C413242   1.641   3.103  13.908  0.4891 -0.3863  0.4446
  904MPD2    C513243   1.515   3.147  13.863  0.4265  0.1458  0.1869
  904MPD2     H13244   1.584   2.776  13.893  0.4755  0.9509 -1.8098
  904MPD2    H113245   1.712   3.183  13.929  1.5198 -1.0805 -0.4059
  904MPD2    H213246   1.318   3.094  13.811  0.3006  0.4759 -0.8239
  904MPD2    H313247   1.492   3.253  13.868  0.5333  0.2172 -0.8319
  904MPD2     N13248   1.798   2.926  13.970  0.5512  0.5508 -0.7634
  904MPD2    H513249   1.814   2.828  13.950  1.2513  0.0931  2.0658
  904MPD2    N113250   1.351   2.838  13.803 -0.0842  0.0605 -0.2044
  904MPD2    H713251   1.269   2.887  13.768  1.1803  0.9619 -1.8979
  905MPD2     C13252   1.038   3.111  13.391  0.0429  0.4993  0.2832
  905MPD2    C113253   1.139   3.025  13.432 -0.2004 -0.5892  0.5518
  905MPD2    C213254   1.264   3.045  13.377 -0.0002 -0.0235 -0.4163
  905MPD2    C313255   1.294   3.165  13.308  0.7285 -0.5927 -0.4212
  905MPD2    C413256   1.192   3.252  13.285 -0.2392 -0.6827 -0.2944
  905MPD2    C513257   1.061   3.222  13.317  0.3432  0.6763  0.1778
  905MPD2     H13258   1.342   2.971  13.392  0.5919  0.2722 -2.0309
  905MPD2    H113259   1.208   3.347  13.234 -0.4726 -0.5544 -0.1288
  905MPD2    H213260   0.934   3.101  13.417  0.4583  0.5214  1.9666
  905MPD2    H313261   0.981   3.294  13.302 -0.1337 -0.0752 -0.8833
  905MPD2     N13262   1.420   3.195  13.260  0.3331  0.3348  0.6965
  905MPD2    H513263   1.440   3.284  13.216 -0.8620  0.5449  0.5571
  905MPD2    N113264   1.110   2.907  13.510  0.0203 -0.3359 -0.4903
  905MPD2    H713265   1.169   2.826  13.498  1.6069  0.8585 -0.6762
  906MPD2     C13266   3.374   3.111  11.455  0.5887 -0.2603 -0.2856
  906MPD2    C113267   3.365   3.016  11.365 -0.2470 -0.0420 -0.2626
  906MPD2    C213268   3.312   2.901  11.398 -0.4647 -0.2589  0.6762
  906MPD2    C313269   3.262   2.881  11.528  0.0227  0.0189  0.1060
  906MPD2    C413270   3.281   2.977  11.624  0.2641 -0.2110 -0.2742
  906MPD2    C513271   3.339   3.093  11.590 -0.0173 -0.5980  0.1245
  906MPD2     H13272   3.299   2.831  11.316  1.2549 -0.0713  0.2417
  906MPD2    H113273   3.247   2.967  11.727  0.0183 -2.7292 -0.5912
  906MPD2    H213274   3.424   3.202  11.425  0.5403  0.0030  0.4381
  906MPD2    H313275   3.351   3.177  11.657 -1.5326 -1.2945  1.2381
  906MPD2     N13276   3.190   2.762  11.567  0.6025  0.3427  0.1345
  906MPD2    H513277   3.138   2.762  11.654 -0.1172  0.9433 -0.2930
  906MPD2    N113278   3.398   3.030  11.230 -1.1976 -0.3691  0.2480
  906MPD2    H713279   3.390   2.949  11.169 -1.5455  0.5765 -0.9609
  907MPD2     C13280   2.426   1.797  15.956  0.2889 -0.7003 -0.2085
  907MPD2    C113281   2.460   1.672  15.907 -0.0963 -0.2678 -0.6336
  907MPD2    C213282   2.512   1.585  16.002  0.5393 -0.8853 -0.2684
  907MPD2    C313283   2.538   1.619  16.133 -0.0624 -0.4535  0.3176
  907MPD2    C413284   2.503   1.744  16.176 -0.2631 -0.0137 -0.1862
  907MPD2    C513285   2.443   1.832  16.086 -0.5219  0.3499  0.4820
  907MPD2     H13286   2.522   1.480  15.974 -0.7417 -1.3280  0.9727
  907MPD2    H113287   2.516   1.777  16.278 -1.0380 -1.9444  0.5260
  907MPD2    H213288   2.382   1.873  15.892 -0.1724 -1.0843 -0.3480
  907MPD2    H313289   2.420   1.932  16.121 -1.4334  1.0240 -1.9978
  907MPD2     N13290   2.600   1.525  16.220 -0.4354  0.1329  0.3513
  907MPD2    H513291   2.622   1.430  16.193 -0.0198  0.5644 -0.8266
  907MPD2    N113292   2.441   1.631  15.773 -0.1421 -0.0769  0.4628
  907MPD2    H713293   2.473   1.537  15.751 -1.6315 -0.8976  1.8305
  908MPD2     C13294   0.728   2.718   9.644 -0.2892 -0.3891 -1.1110
  908MPD2    C113295   0.643   2.701   9.748  0.2254  0.4193  0.9268
  908MPD2    C213296   0.580   2.811   9.806  0.4633 -0.5268 -0.0500
  908MPD2    C313297   0.614   2.937   9.758 -0.0433 -0.5380 -0.0425
  908MPD2    C413298   0.699   2.952   9.651  0.2977  0.2170  0.0191
  908MPD2    C513299   0.754   2.847   9.598 -0.4761 -0.0310 -0.1049
  908MPD2     H13300   0.514   2.808   9.892  0.6061  3.3051  0.1715
  908MPD2    H113301   0.726   3.047   9.606  2.2733 -2.0478 -3.6019
  908MPD2    H213302   0.773   2.638   9.587 -1.4195 -0.8373 -1.3715
  908MPD2    H313303   0.826   2.864   9.519  1.3318  1.3456  1.8095
  908MPD2     N13304   0.548   3.043   9.823  0.3790 -0.2726 -0.4471
  908MPD2    H513305   0.489   3.006   9.897  1.3455 -0.7568  0.0799
  908MPD2    N113306   0.629   2.577   9.809 -0.4858 -0.4813 -0.3454
  908MPD2    H713307   0.553   2.570   9.876  1.5872 -1.5805  1.8472
  909MPD2     C13308   0.480   0.531  11.897 -0.5857 -1.0355  0.4160
  909MPD2    C113309   0.497   0.646  11.822  0.1090 -0.2725  0.0064
  909MPD2    C213310   0.442   0.767  11.861 -0.0802 -0.5111  0.0203
  909MPD2    C313311   0.359   0.770  11.974 -0.4158  0.1525 -0.8473
  909MPD2    C413312   0.334   0.655  12.046 -0.3520 -0.2399  0.8695
  909MPD2    C513313   0.405   0.546  12.009  0.3710 -0.2191  0.4227
  909MPD2     H13314   0.464   0.857  11.805  0.0169  1.4559  3.2003
  909MPD2    H113315   0.270   0.644  12.133  0.5240  1.4881  1.7243
  909MPD2    H213316   0.512   0.431  11.867  2.1270  0.1663 -0.6767
  909MPD2    H313317   0.395   0.455  12.067 -1.7946  0.8908  1.8038
  909MPD2     N13318   0.297   0.897  12.005 -0.6538 -0.4419  0.4951
  909MPD2    H513319   0.314   0.973  11.939 -0.7733  1.9563  3.2578
  909MPD2    N113320   0.581   0.657  11.704  0.6375  0.5081  0.0347
  909MPD2    H713321   0.586   0.746  11.655 -1.5384  0.4209 -0.3687
  910MPD2     C13322   1.742   2.236  15.833  0.2338  0.2928  0.3502
  910MPD2    C113323   1.860   2.175  15.797  0.3985 -0.7748  0.0645
  910MPD2    C213324   1.901   2.175  15.668  0.3496  0.2641 -0.7050
  910MPD2    C313325   1.818   2.230  15.568 -0.1436  0.1605  0.2707
  910MPD2    C413326   1.699   2.283  15.600  0.1848  0.6351 -0.3394
  910MPD2    C513327   1.661   2.284  15.733 -0.3037  0.9429 -0.4131
  910MPD2     H13328   1.990   2.119  15.643  0.7367  1.6516 -2.4487
  910MPD2    H113329   1.638   2.325  15.520 -1.8186 -1.6440 -0.0282
  910MPD2    H213330   1.715   2.232  15.938  2.4629 -1.9472  0.8177
  910MPD2    H313331   1.565   2.331  15.753 -1.3831 -2.1228  1.6254
  910MPD2     N13332   1.843   2.232  15.427  0.0035  0.1746  0.1280
  910MPD2    H513333   1.770   2.252  15.359  0.9228  3.4398  0.1043
  910MPD2    N113334   1.941   2.101  15.886 -0.2569  0.3488  0.2544
  910MPD2    H713335   2.031   2.070  15.851 -0.5662  0.0880 -0.3164
  911MPD2     C13336   4.281   2.651  16.438 -0.3374 -0.2504 -0.8166
  911MPD2    C113337   4.316   2.775  16.394  0.4111 -0.3076 -0.3799
  911MPD2    C213338   4.233   2.882  16.439  0.3137  0.2570  0.9501
  911MPD2    C313339   4.115   2.862  16.507  0.3590 -0.2166  0.3371
  911MPD2    C413340   4.073   2.731  16.530  0.3074  0.0124  0.2791
  911MPD2    C513341   4.158   2.635  16.500 -1.2293  0.6042 -0.5115
  911MPD2     H13342   4.251   2.985  16.409  0.6570 -0.1322 -0.1817
  911MPD2    H113343   3.983   2.703  16.583  1.0077 -0.4337  1.2287
  911MPD2    H213344   4.345   2.565  16.420  0.4330  0.1489  0.0215
  911MPD2    H313345   4.145   2.533  16.534  0.8663  0.7368  0.6852
  911MPD2     N13346   4.025   2.965  16.520 -0.2344  0.2012  0.7341
  911MPD2    H513347   3.929   2.937  16.506 -0.1010 -1.3387  2.8170
  911MPD2    N113348   4.415   2.781  16.298  0.6006  0.0340 -0.0369
  911MPD2    H713349   4.457   2.691  16.279 -1.4650 -1.3647  2.1001
  912MPD2     C13350   3.574   2.791  15.995 -0.1969  0.1309 -0.1349
  912MPD2    C113351   3.606   2.811  16.124 -0.1906  0.0214  0.4097
  912MPD2    C213352   3.560   2.721  16.213 -0.3039  0.1671  0.0339
  912MPD2    C313353   3.485   2.613  16.176  0.1945 -0.6395  0.5185
  912MPD2    C413354   3.477   2.585  16.042  0.2555  0.4860  0.2744
  912MPD2    C513355   3.523   2.669  15.950 -0.1407  0.5374  0.3972
  912MPD2     H13356   3.573   2.727  16.320 -0.8173  1.0525  0.0455
  912MPD2    H113357   3.437   2.498  15.992  1.4078 -0.5403  1.1141
  912MPD2    H213358   3.590   2.868  15.920 -0.5879 -1.3316 -1.7112
  912MPD2    H313359   3.513   2.652  15.844 -0.9952  0.0779  0.5502
  912MPD2     N13360   3.451   2.532  16.280  0.3809 -0.2013 -0.1340
  912MPD2    H513361   3.463   2.568  16.374  0.3435 -0.7692  0.0917
  912MPD2    N113362   3.693   2.915  16.156 -0.3317 -0.8057  0.6603
  912MPD2    H713363   3.703   2.988  16.086  0.6182 -0.7499  0.8523
  913MPD2     C13364   4.701   4.228  10.240 -0.2589  0.0601  0.0886
  913MPD2    C113365   0.054   4.336  10.281  0.2850 -0.6379 -0.6437
  913MPD2    C213366   0.002   4.454  10.325  0.0704 -1.2047  0.6701
  913MPD2    C313367   4.593   4.466  10.328  0.6021  0.7479 -0.9190
  913MPD2    C413368   4.511   4.362  10.303 -0.0178  0.0473  0.4320
  913MPD2    C513369   4.562   4.244  10.254  0.4709 -1.0296  0.2599
  913MPD2     H13370   0.061   4.542  10.349  1.2884 -1.8516  0.0283
  913MPD2    H113371   4.404   4.370  10.317 -0.2435 -0.1138 -1.1418
  913MPD2    H213372   0.020   4.136  10.204 -0.9065 -0.3028  0.2265
  913MPD2    H313373   4.503   4.155  10.232  0.4657 -0.9074 -0.2020
  913MPD2     N13374   4.520   4.590  10.333  0.6281  0.2274 -0.2047
  913MPD2    H513375   4.420   4.577  10.319  0.2920  1.2001  1.3934
  913MPD2    N113376   0.193   4.327  10.269 -0.5899 -0.6860 -0.5990
  913MPD2    H713377   0.223   4.231  10.260  0.3438 -0.2917 -1.7073
  914MPD2     C13378   2.881   0.349  12.013  0.0756  0.1378  0.7503
  914MPD2    C113379   2.828   0.422  12.117  0.6093 -0.3989 -0.3979
  914MPD2    C213380   2.802   0.347  12.234  0.1443  0.7590 -0.0621
  914MPD2    C313381   2.819   0.213  12.249 -0.3954  0.2522  0.1235
  914MPD2    C413382   2.874   0.149  12.145 -0.2454 -0.1116  0.1627
  914MPD2    C513383   2.896   0.212  12.026  1.5585 -0.2585  0.6674
  914MPD2     H13384   2.759   0.404  12.316  0.5143  0.7820  0.1191
  914MPD2    H113385   2.894   0.042  12.147 -0.8145 -0.2047  0.9917
  914MPD2    H213386   2.907   0.405  11.923 -1.7521 -0.2708 -0.0333
  914MPD2    H313387   2.933   0.155  11.942 -0.4961  0.1179 -0.4940
  914MPD2     N13388   2.779   0.155  12.372  0.1591 -0.0418 -0.1448
  914MPD2    H513389   2.741   0.219  12.441  2.0070 -0.5768  1.3639
  914MPD2    N113390   2.793   0.555  12.122 -0.0613 -0.0067  0.0212
  914MPD2    H713391   2.756   0.586  12.211 -1.7694 -1.7099 -0.1017
  915MPD2     C13392   0.418   4.088  15.621  0.1523  0.6514 -0.5615
  915MPD2    C113393   0.366   4.199  15.566 -0.0527 -0.0153 -0.3875
  915MPD2    C213394   0.333   4.304  15.649 -0.0830  0.0473 -0.2860
  915MPD2    C313395   0.333   4.291  15.782  0.0650  0.6156 -0.3786
  915MPD2    C413396   0.378   4.176  15.839 -0.0510  0.0209 -0.3967
  915MPD2    C513397   0.431   4.078  15.758 -0.1897 -0.4808 -0.3475
  915MPD2     H13398   0.292   4.396  15.610  0.0261  0.8135  1.4320
  915MPD2    H113399   0.391   4.160  15.945 -2.3794 -2.0148 -0.4185
  915MPD2    H213400   0.443   4.002  15.561  1.3239 -1.7225  3.3135
  915MPD2    H313401   0.476   3.991  15.806 -1.1419 -0.7858 -0.0025
  915MPD2     N13402   0.288   4.398  15.859 -0.1908  0.0352  0.6355
  915MPD2    H513403   0.264   4.491  15.824 -0.7354 -0.6946 -0.9046
  915MPD2    N113404   0.317   4.194  15.437 -0.0009 -0.6506 -0.4506
  915MPD2    H713405   0.319   4.106  15.387  1.0613 -0.0397 -1.4654
  916MPD2     C13406   2.984   2.850  16.106  0.3181  0.0530  0.2761
  916MPD2    C113407   3.076   2.787  16.184  0.1326  0.6138 -0.5383
  916MPD2    C213408   3.140   2.674  16.128 -0.1117 -0.0630  0.1268
  916MPD2    C313409   3.107   2.612  16.005  0.0325  0.6506 -0.0801
  916MPD2    C413410   3.005   2.670  15.941  0.3075  0.2051  0.3282
  916MPD2    C513411   2.949   2.788  15.985  0.4247  0.6354 -0.4693
  916MPD2     H13412   3.221   2.624  16.180  0.5531 -0.5007 -1.3295
  916MPD2    H113413   2.977   2.648  15.839  1.1297  2.4663 -0.3835
  916MPD2    H213414   2.930   2.939  16.136  1.4738  0.3912  1.3736
  916MPD2    H313415   2.881   2.832  15.913 -0.4308 -0.4112 -0.3077
  916MPD2     N13416   3.192   2.504  15.953 -0.1792  0.3736  0.3342
  916MPD2    H513417   3.256   2.456  16.016  1.6189  2.0655 -0.2049
  916MPD2    N113418   3.118   2.844  16.305  0.0073 -0.4315 -0.2879
  916MPD2    H713419   3.087   2.938  16.329 -0.7961 -0.7108 -0.2312
  917MPD2     C13420   3.835   0.293  11.346  0.0259  0.1262  0.1344
  917MPD2    C113421   3.902   0.330  11.458 -0.1272  0.1887  0.1412
  917MPD2    C213422   3.990   0.444  11.449  0.1848 -0.2310 -0.1350
  917MPD2    C313423   4.003   0.517  11.331 -0.4893  0.0341  0.6070
  917MPD2    C413424   3.929   0.474  11.221 -0.5258  0.2983  0.6197
  917MPD2    C513425   3.853   0.361  11.231  1.1717  0.6129 -0.0480
  917MPD2     H13426   4.048   0.475  11.535 -0.2605 -1.4379  0.5870
  917MPD2    H113427   3.927   0.531  11.129  0.1628 -1.6143 -0.5857
  917MPD2    H213428   3.776   0.202  11.342  0.8598 -0.3317 -1.7927
  917MPD2    H313429   3.805   0.326  11.140  1.5977 -1.6141  0.5866
  917MPD2     N13430   4.093   0.623  11.312  0.0498 -0.2378 -0.5724
  917MPD2    H513431   4.093   0.667  11.220 -0.2814 -1.2939 -1.0763
  917MPD2    N113432   3.869   0.261  11.575  0.1181 -0.8085 -0.0243
  917MPD2    H713433   3.799   0.188  11.567 -2.1493  1.4183 -0.4776
  918MPD2     C13434   3.726   0.673  12.490 -0.1341 -0.5157 -0.0077
  918MPD2    C113435   3.842   0.656  12.420  0.0427 -0.4434 -0.5114
  918MPD2    C213436   3.833   0.586  12.302 -0.6669  0.4992 -0.4883
  918MPD2    C313437   3.723   0.521  12.256 -0.0971 -0.0348  0.0967
  918MPD2    C413438   3.604   0.548  12.327 -0.1095  0.4364  0.6402
  918MPD2    C513439   3.611   0.617  12.446 -1.0367  0.2278 -0.2732
  918MPD2     H13440   3.928   0.577  12.251 -0.0626 -1.7102  1.0671
  918MPD2    H113441   3.509   0.514  12.285  0.6299 -0.8196 -0.0202
  918MPD2    H213442   3.708   0.744  12.570 -1.0158 -0.0468 -0.6233
  918MPD2    H313443   3.521   0.649  12.496 -0.3666 -0.5286  1.4111
  918MPD2     N13444   3.732   0.432  12.142 -0.2232 -0.7628  0.0667
  918MPD2    H513445   3.823   0.412  12.103 -0.8411 -2.5687 -0.4772
  918MPD2    N113446   3.962   0.717  12.450 -0.1250  0.7958 -0.2444
  918MPD2    H713447   4.040   0.684  12.394  2.1040  4.1861  0.8297
  919MPD2     C13448   4.335   4.362  11.733  0.0586 -0.0031  0.6403
  919MPD2    C113449   4.364   4.253  11.652  0.0412 -0.2567  0.2381
  919MPD2    C213450   4.372   4.279  11.517 -0.0718 -0.0238  0.0392
  919MPD2    C313451   4.360   4.405  11.470 -0.0075  0.3198  0.0714
  919MPD2    C413452   4.343   4.511  11.556  0.7446 -0.0691 -1.0515
  919MPD2    C513453   4.342   4.496  11.690  0.2997 -0.1188  0.6034
  919MPD2     H13454   4.395   4.195  11.452  1.3123  0.6502 -0.3413
  919MPD2    H113455   4.349   4.613  11.520 -0.6821  0.6601  0.8331
  919MPD2    H213456   4.325   4.359  11.841 -1.9027  1.4992  0.5034
  919MPD2    H313457   4.326   4.576  11.761 -2.9235  0.7413 -1.0892
  919MPD2     N13458   4.354   4.442  11.329  0.1164  0.2000 -0.3370
  919MPD2    H513459   4.334   4.540  11.312 -0.1568  0.4951  1.6474
  919MPD2    N113460   4.359   4.117  11.698 -0.1208  0.2207  0.1436
  919MPD2    H713461   4.386   4.046  11.630 -0.4035  0.3585 -0.1146
  920MPD2     C13462   4.368   0.463  10.670  0.4476  0.0457  0.2952
  920MPD2    C113463   4.290   0.378  10.604  0.3512 -0.5489 -0.2173
  920MPD2    C213464   4.267   0.253  10.658  0.2485 -0.1753  0.6794
  920MPD2    C313465   4.345   0.212  10.766 -0.1913  1.2832 -0.2895
  920MPD2    C413466   4.419   0.302  10.839 -0.0303  0.6633 -0.3745
  920MPD2    C513467   4.436   0.430  10.782  0.5113  0.0143 -0.2404
  920MPD2     H13468   4.214   0.181  10.597  2.0472  0.6443 -1.8911
  920MPD2    H113469   4.488   0.274  10.918 -1.3158 -1.8185 -0.1292
  920MPD2    H213470   4.404   0.552  10.619 -0.3380  0.6641  0.8191
  920MPD2    H313471   4.496   0.511  10.822  0.9801  0.6931 -2.2820
  920MPD2     N13472   4.326   0.078  10.808 -0.4091 -0.4828  0.6183
  920MPD2    H513473   4.272   0.015  10.749 -0.0150  0.4769 -0.7596
  920MPD2    N113474   4.215   0.406  10.481 -0.5547 -0.3165  0.2718
  920MPD2    H713475   4.160   0.328  10.447 -2.0650  1.8985 -2.3324
  921MPD2     C13476   0.442   3.245  16.638 -0.1175  0.7192 -1.0802
  921MPD2    C113477   0.485   3.125  16.583  0.0490  0.0153  0.2950
  921MPD2    C213478   0.402   3.067  16.492  0.6979  0.1803 -0.1118
  921MPD2    C313479   0.281   3.116  16.457  0.5517 -0.2260 -0.9272
  921MPD2    C413480   0.247   3.238  16.501  0.4271  0.7140 -0.5039
  921MPD2    C513481   0.326   3.298  16.601  0.3726 -0.4907 -0.4792
  921MPD2     H13482   0.412   2.968  16.450 -1.0327  1.1012 -2.7055
  921MPD2    H113483   0.152   3.278  16.466 -0.3475 -0.6533  0.0383
  921MPD2    H213484   0.504   3.305  16.703  0.4699  1.5485 -2.4229
  921MPD2    H313485   0.292   3.394  16.639  0.2182 -0.8287  0.2247
  921MPD2     N13486   0.188   3.044  16.372 -0.0181 -0.2831  0.1480
  921MPD2    H513487   0.115   3.107  16.339 -0.1425  0.2063  1.3503
  921MPD2    N113488   0.597   3.057  16.640  0.1405 -0.6051 -1.2105
  921MPD2    H713489   0.633   3.088  16.729  0.4614 -0.8639 -1.2498
  922MPD2     C13490   1.598   0.618   0.164  0.3688 -0.4908 -0.4079
  922MPD2    C113491   1.556   0.593   0.037  0.3707  0.2108 -0.2484
  922MPD2    C213492   1.420   0.598   0.007 -0.2302 -0.7402 -0.2394
  922MPD2    C313493   1.327   0.640   0.098 -0.2540 -0.4068 -0.3794
  922MPD2    C413494   1.370   0.667   0.222  0.1031  0.0021 -0.3494
  922MPD2    C513495   1.504   0.653   0.257  0.5170 -0.4661  0.3652
  922MPD2     H13496   1.380   0.567  17.613 -1.3782 -0.5105  0.1648
  922MPD2    H113497   1.315   0.709   0.306  0.8478  2.3174 -1.0349
  922MPD2    H213498   1.702   0.606   0.193 -0.6009  0.6315  3.5324
  922MPD2    H313499   1.537   0.685   0.355 -0.0386  0.9656  0.0973
  922MPD2     N13500   1.196   0.659   0.054  0.2686  0.7325  0.1657
  922MPD2    H513501   1.182   0.627  17.660 -0.4194  1.6099 -0.0309
  922MPD2    N113502   1.643   0.556  17.633 -0.1728  0.0678 -0.3228
  922MPD2    H713503   1.601   0.532  17.544 -0.5695 -0.9351  0.1330
  923MPD2     C13504   2.507   2.738   9.520  0.0672 -0.4079 -0.3216
  923MPD2    C113505   2.447   2.826   9.608  0.2378 -0.4096  0.1261
  923MPD2    C213506   2.504   2.862   9.725  0.2321  0.0290 -0.8098
  923MPD2    C313507   2.622   2.799   9.760  0.8464 -0.5397 -0.3505
  923MPD2    C413508   2.662   2.690   9.687 -0.2974  0.0104  0.3777
  923MPD2    C513509   2.607   2.666   9.565  0.1415 -0.3077  0.2771
  923MPD2     H13510   2.468   2.946   9.784  1.3027 -1.2044  1.5787
  923MPD2    H113511   2.740   2.625   9.727 -1.7343 -1.7211  0.3800
  923MPD2    H213512   2.465   2.715   9.422  2.5799 -0.5448 -1.3710
  923MPD2    H313513   2.645   2.594   9.493  0.0794  0.1083 -0.1691
  923MPD2     N13514   2.699   2.834   9.874 -0.7760 -1.1809  0.3133
  923MPD2    H513515   2.785   2.782   9.892  0.2947  0.3788 -0.2498
  923MPD2    N113516   2.332   2.898   9.562  0.2751 -0.1855  0.2330
  923MPD2    H713517   2.308   2.893   9.463  0.8850  0.3413  0.0574
  924MPD2     C13518   2.916   0.689  16.665 -0.3802 -0.0014 -0.3099
  924MPD2    C113519   2.826   0.726  16.564  0.4701  0.2604 -0.2617
  924MPD2    C213520   2.840   0.850  16.510  0.1881 -0.5619  0.2460
  924MPD2    C313521   2.930   0.945  16.554 -0.1475  0.4662 -0.0069
  924MPD2    C413522   3.024   0.909  16.656  0.3638  0.1373  0.0854
  924MPD2    C513523   3.011   0.778  16.707 -0.5681  0.1992  0.1199
  924MPD2     H13524   2.778   0.872  16.424 -1.4368 -0.5710  1.4045
  924MPD2    H113525   3.087   0.988  16.694  0.4490  0.4405 -0.6814
  924MPD2    H213526   2.915   0.594  16.717  2.4891 -0.0186 -0.2804
  924MPD2    H313527   3.077   0.755  16.791  0.6960  0.3618 -0.8334
  924MPD2     N13528   2.932   1.077  16.503  0.3990  0.3736  0.0025
  924MPD2    H513529   3.005   1.134  16.543  0.9835  0.1308 -0.7169
  924MPD2    N113530   2.729   0.633  16.518 -0.0230  0.4878 -0.0094
  924MPD2    H713531   2.748   0.535  16.533  0.2873  0.3028 -1.6321
  925MPD2     C13532   1.129   3.202  14.738 -0.1174 -0.4114  0.0290
  925MPD2    C113533   1.010   3.242  14.694  0.2635 -0.2402 -0.2374
  925MPD2    C213534   0.898   3.220  14.767 -0.5248  0.0669  0.0774
  925MPD2    C313535   0.905   3.136  14.880  0.1869  0.2242 -0.0764
  925MPD2    C413536   1.029   3.085  14.918  0.7325  0.2774  0.4549
  925MPD2    C513537   1.142   3.120  14.849  0.0738 -0.0047 -0.3533
  925MPD2     H13538   0.804   3.253  14.725 -0.3384  1.2020  0.5659
  925MPD2    H113539   1.037   3.010  14.995 -0.7108 -0.2257  0.1058
  925MPD2    H213540   1.218   3.229  14.681 -0.6198 -0.2821 -0.6945
  925MPD2    H313541   1.242   3.097  14.884 -0.7140 -0.5386  1.5519
  925MPD2     N13542   0.795   3.093  14.952  0.5568 -0.2876  0.3467
  925MPD2    H513543   0.807   3.028  15.029  2.6475  0.4924  0.6683
  925MPD2    N113544   0.994   3.326  14.583  0.4618 -0.0194 -0.1444
  925MPD2    H713545   0.903   3.361  14.554  1.1037 -0.0138 -2.1649
  926MPD2     C13546   0.209   2.260  13.249 -0.1987  0.1123  0.2922
  926MPD2    C113547   0.151   2.307  13.137 -0.2745 -0.0487  0.1921
  926MPD2    C213548   0.232   2.351  13.031 -0.2433 -0.0913 -0.0563
  926MPD2    C313549   0.372   2.347  13.038 -0.1731  0.1853 -0.0901
  926MPD2    C413550   0.424   2.287  13.150  0.4140 -0.4322  0.1167
  926MPD2    C513551   0.344   2.246  13.252 -0.0181  0.2085 -0.4633
  926MPD2     H13552   0.185   2.387  12.940 -1.0331 -0.7055  0.1151
  926MPD2    H113553   0.531   2.285  13.164  0.2190  0.3030  1.6317
  926MPD2    H213554   0.157   2.217  13.334 -1.1474 -0.4627 -0.5793
  926MPD2    H313555   0.401   2.195  13.329 -2.2680 -0.6376  0.6545
  926MPD2     N13556   0.451   2.405  12.940  0.6312 -0.3740 -0.3930
  926MPD2    H513557   0.552   2.397  12.954  0.6508  1.2413  0.3040
  926MPD2    N113558   0.012   2.325  13.121  0.6486  0.1775 -0.4432
  926MPD2    H713559   4.708   2.372  13.036  0.9534 -1.0013 -1.2036
  927MPD2     C13560   4.678   4.642   0.242 -0.0964 -0.0729  0.0421
  927MPD2    C113561   4.547   4.685   0.228  0.6611  0.1071 -0.4403
  927MPD2    C213562   4.484   4.673   0.107 -0.5271  0.0682  0.4156
  927MPD2    C313563   4.540   4.609   0.002  0.0970  0.1605  0.3648
  927MPD2    C413564   4.670   4.564   0.013 -0.5231  0.2269 -0.4958
  927MPD2    C513565   0.016   4.595   0.131 -0.3803 -0.1521  0.5816
  927MPD2     H13566   4.378   4.695   0.094 -0.2378  0.8059 -0.7544
  927MPD2    H113567   4.715   4.502  17.639 -2.3003 -1.2238 -0.3757
  927MPD2    H213568   0.008   4.682   0.327  0.2024 -0.9358  0.2491
  927MPD2    H313569   0.122   4.574   0.132 -0.9609 -3.0791 -0.4929
  927MPD2     N13570   4.454   4.581  17.594  0.0195  0.5278 -0.0889
  927MPD2    H513571   4.368   4.633  17.595  0.0518  0.5958 -0.9516
  927MPD2    N113572   4.491   0.022   0.345  0.3383 -0.0363  1.0026
  927MPD2    H713573   4.551   0.047   0.423  1.0956 -0.2268  0.4806
  928MPD2     C13574   2.190   3.001   1.422  0.1663  0.6757 -0.4325
  928MPD2    C113575   2.315   2.967   1.463 -0.8106  0.6169  0.1870
  928MPD2    C213576   2.420   2.975   1.370  0.1108 -0.5781 -0.2704
  928MPD2    C313577   2.401   2.993   1.234 -0.0350 -0.6771  0.6330
  928MPD2    C413578   2.269   3.013   1.195 -0.2022 -0.1371  0.5947
  928MPD2    C513579   2.163   3.017   1.285  0.0718  0.6839  0.1112
  928MPD2     H13580   2.524   2.957   1.395 -0.2039  1.4319  2.4301
  928MPD2    H113581   2.236   3.047   1.098  0.8494 -0.9431 -0.0476
  928MPD2    H213582   2.098   3.002   1.479  1.2545 -1.3077  1.3604
  928MPD2    H313583   2.062   3.031   1.247 -0.8955 -0.1603  2.3659
  928MPD2     N13584   2.505   2.998   1.130  0.6967  0.4374  0.4326
  928MPD2    H513585   2.474   3.011   1.034  0.0629  0.3506  0.6295
  928MPD2    N113586   2.326   2.951   1.602  0.5819 -0.7052  0.3117
  928MPD2    H713587   2.241   2.954   1.658  0.9903  2.2430  0.8163
  929MPD2     C13588   2.010   3.223  10.004  0.3697 -0.2685 -0.1326
  929MPD2    C113589   1.943   3.135  10.086 -0.2958  0.3194  0.0414
  929MPD2    C213590   1.805   3.149  10.103  0.6688 -0.2481  0.2251
  929MPD2    C313591   1.739   3.243  10.024  0.6875  0.0506  0.0491
  929MPD2    C413592   1.809   3.339   9.953  0.4786  0.3387  0.0704
  929MPD2    C513593   1.946   3.325   9.935 -0.0759 -0.8650  0.1659
  929MPD2     H13594   1.750   3.072  10.156 -0.5104  1.7840  1.9546
  929MPD2    H113595   1.746   3.406   9.896 -2.7480 -1.8417  1.0846
  929MPD2    H213596   2.117   3.212  10.010  0.2277 -0.5744  1.8248
  929MPD2    H313597   2.002   3.396   9.876 -1.1143  0.3869  0.6910
  929MPD2     N13598   1.599   3.263  10.015 -0.2858  0.6848 -0.0461
  929MPD2    H513599   1.554   3.343   9.972 -1.4948  0.3024  0.4845
  929MPD2    N113600   2.020   3.027  10.144  0.0520  0.4692 -0.0146
  929MPD2    H713601   2.121   3.038  10.137  0.0073  1.6861  1.2749
  930MPD2     C13602   3.823   0.706  13.860 -0.0300  0.1491 -0.5014
  930MPD2    C113603   3.926   0.622  13.888  0.6410  0.0698  0.0724
  930MPD2    C213604   3.936   0.491  13.829 -0.3072 -0.6859  0.4344
  930MPD2    C313605   3.843   0.452  13.735  0.0679  0.0897  0.2220
  930MPD2    C413606   3.729   0.529  13.721  0.7104  0.6237 -0.5572
  930MPD2    C513607   3.716   0.653  13.783  0.5021 -0.9480  0.7163
  930MPD2     H13608   4.020   0.425  13.848  0.4781  0.2072  0.1024
  930MPD2    H113609   3.651   0.500  13.651 -0.9062 -1.0848  1.9903
  930MPD2    H213610   3.810   0.806  13.899  0.4875 -0.4654  1.2346
  930MPD2    H313611   3.636   0.721  13.756  1.5429  0.2278  0.5873
  930MPD2     N13612   3.855   0.337  13.659 -0.2137 -0.0038  0.1112
  930MPD2    H513613   3.800   0.347  13.574 -2.0103 -1.2759  1.1352
  930MPD2    N113614   4.033   0.671  13.965 -0.2807 -0.0683  0.1832
  930MPD2    H713615   4.026   0.771  13.981  1.2750  0.1575 -0.5171
  931MPD2     C13616   0.126   0.203   0.808  0.0533 -0.7034  0.6049
  931MPD2    C113617   0.002   0.197   0.872  0.5645  0.0829  0.1033
  931MPD2    C213618   4.723   0.178   1.009 -0.1852  0.4245 -0.0139
  931MPD2    C313619   0.117   0.146   1.076 -0.4119  0.3873  0.4311
  931MPD2    C413620   0.235   0.158   1.004 -0.0919  0.2584  0.0937
  931MPD2    C513621   0.240   0.187   0.876 -0.3837  0.1190  0.4517
  931MPD2     H13622   4.630   0.161   1.062  0.5765 -2.8429  0.2777
  931MPD2    H113623   0.331   0.139   1.049  0.0477 -0.5696 -0.5642
  931MPD2    H213624   0.133   0.218   0.701 -1.4586  0.6366  0.6887
  931MPD2    H313625   0.332   0.176   0.820 -0.4501  0.3392  0.3009
  931MPD2     N13626   0.123   0.104   1.209 -0.4382 -0.0811  0.5105
  931MPD2    H513627   0.209   0.060   1.238  0.4118  0.2078 -1.5951
  931MPD2    N113628   4.620   0.214   0.787 -0.2449  0.1447 -0.6140
  931MPD2    H713629   4.644   0.199   0.689 -1.5326  2.1209 -1.2227
  932MPD2     C13630   1.902   3.547  11.415 -0.4181  0.3533  0.2563
  932MPD2    C113631   1.885   3.642  11.517 -0.0408 -0.2344 -0.2469
  932MPD2    C213632   1.896   3.605  11.649  0.4794  0.4269 -0.2768
  932MPD2    C313633   1.931   3.478  11.678  0.0738  0.7629 -0.1610
  932MPD2    C413634   1.955   3.380  11.579  0.6502  0.2462 -0.2949
  932MPD2    C513635   1.934   3.417  11.449  0.0420 -0.0140  0.0583
  932MPD2     H13636   1.876   3.682  11.723  0.1802  0.5147 -0.4484
  932MPD2    H113637   1.977   3.276  11.599  2.4536  0.4488 -1.2328
  932MPD2    H213638   1.877   3.580  11.314 -1.2069 -1.4384 -0.1169
  932MPD2    H313639   1.954   3.353  11.363  0.2685 -1.7685  1.4239
  932MPD2     N13640   1.955   3.439  11.812 -0.0803 -0.1244  0.1239
  932MPD2    H513641   2.002   3.349  11.823 -0.8127 -0.6700 -1.2653
  932MPD2    N113642   1.865   3.778  11.492 -0.9775 -0.0536  0.0203
  932MPD2    H713643   1.856   3.840  11.572 -1.5076  0.0553 -0.1199
  933MPD2     C13644   1.905   3.037   2.079 -0.0994  0.1056 -0.5181
  933MPD2    C113645   2.037   3.069   2.113 -0.0802 -0.0086 -0.3036
  933MPD2    C213646   2.058   3.172   2.196 -0.5953  0.0186  0.7893
  933MPD2    C313647   1.961   3.242   2.257 -0.0661  0.0571  0.0171
  933MPD2    C413648   1.834   3.223   2.217  0.2414 -0.3702  0.2412
  933MPD2    C513649   1.802   3.111   2.138  0.3169  0.3564  0.2204
  933MPD2     H13650   2.158   3.203   2.225 -1.5264  2.7767  0.9920
  933MPD2    H113651   1.751   3.284   2.248  0.9890  0.9633 -0.3785
  933MPD2    H213652   1.878   2.962   2.005 -0.0813  1.0285 -1.4615
  933MPD2    H313653   1.697   3.089   2.125  0.3721 -0.9772  2.0019
  933MPD2     N13654   2.000   3.342   2.350  0.3251  0.4753  0.4692
  933MPD2    H513655   2.099   3.344   2.374  0.4180 -0.5581  0.1648
  933MPD2    N113656   2.137   2.999   2.049 -0.5802 -1.2836  0.2019
  933MPD2    H713657   2.114   2.961   1.958  1.3464  1.7681 -1.5788
  934MPD2     C13658   3.343   1.218   2.187 -0.5734  0.0607  0.9829
  934MPD2    C113659   3.399   1.094   2.175 -0.1649  0.1832  0.3062
  934MPD2    C213660   3.353   1.009   2.074  0.2002  0.1786 -0.2136
  934MPD2    C313661   3.238   1.031   1.998  0.2263  0.0069  0.1649
  934MPD2    C413662   3.176   1.153   2.021 -0.4806  0.4329 -0.1559
  934MPD2    C513663   3.225   1.245   2.113  0.7404  0.3544  0.5546
  934MPD2     H13664   3.415   0.921   2.061  0.8974  0.3613  1.7657
  934MPD2    H113665   3.090   1.185   1.964  0.4191  2.5351 -0.3067
  934MPD2    H213666   3.390   1.305   2.231 -1.0314 -0.4434  2.4668
  934MPD2    H313667   3.188   1.346   2.131  0.0765  0.3658 -0.8781
  934MPD2     N13668   3.188   0.944   1.902 -0.0787 -0.3990  0.2556
  934MPD2    H513669   3.112   0.981   1.845 -1.0831 -0.1666  1.7402
  934MPD2    N113670   3.508   1.057   2.254  0.0634  0.2848  0.7450
  934MPD2    H713671   3.561   0.976   2.224 -2.6306 -0.4944 -1.9506
  935MPD2     C13672   2.821   4.724   1.517 -0.0777  1.0161 -0.4440
  935MPD2    C113673   2.939   0.028   1.458 -0.4288 -0.0498  0.3964
  935MPD2    C213674   2.998   0.149   1.490 -0.1406  0.7550 -0.3178
  935MPD2    C313675   2.951   0.221   1.594 -0.1504 -0.1119  0.0589
  935MPD2    C413676   2.843   0.180   1.669 -0.5145  0.0614 -0.4465
  935MPD2    C513677   2.777   0.065   1.627 -0.0567  0.5058  0.0483
  935MPD2     H13678   3.090   0.180   1.443  1.6124 -0.5648  2.2034
  935MPD2    H113679   2.798   0.232   1.753 -0.7507 -1.2561  0.2264
  935MPD2    H213680   2.768   4.630   1.505 -0.6928  1.0291  2.1794
  935MPD2    H313681   2.687   0.041   1.684 -0.2300 -1.4151 -1.0475
  935MPD2     N13682   3.022   0.336   1.618 -0.0717  0.5321  0.9366
  935MPD2    H513683   3.089   0.368   1.550 -1.0004  1.9395  0.6701
  935MPD2    N113684   2.993   4.648   1.378  0.4461  0.6835  0.1165
  935MPD2    H713685   2.931   4.569   1.364 -1.2797  2.4102 -1.9488
  936MPD2     C13686   1.746   2.113  12.441 -1.5256 -0.9026 -0.5609
  936MPD2    C113687   1.712   2.147  12.568 -0.2257  0.2840 -0.6368
  936MPD2    C213688   1.725   2.278  12.606  0.0215  0.2461  0.4215
  936MPD2    C313689   1.783   2.373  12.524 -0.0035  0.0983  0.6612
  936MPD2    C413690   1.823   2.338  12.398 -0.3519 -0.4293 -0.3163
  936MPD2    C513691   1.802   2.209  12.363  0.4843  0.8271  0.1743
  936MPD2     H13692   1.681   2.305  12.701  2.2544  2.1622  0.9318
  936MPD2    H113693   1.884   2.410  12.345  1.3302 -1.6699 -0.0624
  936MPD2    H213694   1.747   2.009  12.408 -0.3168 -1.6942  1.9699
  936MPD2    H313695   1.838   2.182  12.264  0.8830 -1.3250  0.9218
  936MPD2     N13696   1.835   2.489  12.567  0.2471  0.8936 -0.4590
  936MPD2    H513697   1.893   2.545  12.505  0.9401  1.2025  0.4661
  936MPD2    N113698   1.659   2.051  12.652 -0.6164  0.0731  0.1557
  936MPD2    H713699   1.642   2.088  12.745 -1.0292 -0.0899  0.1461
  937MPD2     C13700   4.674   3.500  11.557  0.1803  0.3919  0.1833
  937MPD2    C113701   4.597   3.605  11.511 -0.4432  0.3893 -0.1791
  937MPD2    C213702   4.631   3.664  11.391 -0.1739  0.3521 -0.1345
  937MPD2    C313703   0.013   3.626  11.317 -0.2143 -0.1373  0.3237
  937MPD2    C413704   0.093   3.523  11.363 -0.0882  0.0820  0.2884
  937MPD2    C513705   0.062   3.460  11.483 -0.1100  0.2484  0.4778
  937MPD2     H13706   4.571   3.748  11.359  0.3713  0.0018 -2.0982
  937MPD2    H113707   0.180   3.490  11.309  0.1591 -1.6662  1.7534
  937MPD2    H213708   4.658   3.449  11.651 -0.7376 -0.5932 -0.5167
  937MPD2    H313709   0.113   3.382  11.537 -1.0966 -0.8145 -0.1313
  937MPD2     N13710   0.040   3.711  11.207 -0.8122  0.4112  0.2846
  937MPD2    H513711   4.695   3.775  11.172 -0.1856 -0.7328 -3.0211
  937MPD2    N113712   4.502   3.674  11.597 -0.0984 -0.3818  0.3302
  937MPD2    H713713   4.472   3.763  11.560 -2.0661  0.3333  3.7320
  938MPD2     C13714   2.221   4.655   1.518  0.0965 -0.9975  0.9249
  938MPD2    C113715   2.319   4.693   1.609  0.3400 -0.4886 -0.5183
  938MPD2    C213716   2.335   4.615   1.716 -0.1566  0.3123 -0.3729
  938MPD2    C313717   2.270   4.487   1.725 -0.4212  0.4312 -0.4985
  938MPD2    C413718   2.173   4.455   1.633 -0.3543 -0.5408 -0.4507
  938MPD2    C513719   2.152   4.541   1.528 -0.3626 -0.1281 -1.1049
  938MPD2     H13720   2.405   4.637   1.796  0.3669 -1.2128 -0.4078
  938MPD2    H113721   2.122   4.359   1.630  0.4210 -1.0362  1.6683
  938MPD2    H213722   2.185   4.718   1.438  1.2612  2.8532  3.4149
  938MPD2    H313723   2.082   4.517   1.449 -2.3072  0.4107  0.4613
  938MPD2     N13724   2.309   4.407   1.840 -0.4849 -1.0282 -0.6255
  938MPD2    H513725   2.397   4.429   1.884 -1.3815 -0.4631  0.8701
  938MPD2    N113726   2.382   0.093   1.607  0.3291  0.2822 -0.1003
  938MPD2    H713727   2.436   0.123   1.688 -0.9171  0.2842  0.7281
  939MPD2     C13728   4.175   1.282   1.380  0.7792 -0.0891 -0.0633
  939MPD2    C113729   4.275   1.370   1.395  0.0618  0.1740  0.4631
  939MPD2    C213730   4.328   1.419   1.275 -0.4806 -0.4398 -0.2714
  939MPD2    C313731   4.279   1.378   1.147 -0.4007 -0.1902  0.3118
  939MPD2    C413732   4.163   1.305   1.147 -0.2038 -0.5483 -0.5838
  939MPD2    C513733   4.126   1.242   1.261 -0.0440 -0.7604  0.5031
  939MPD2     H13734   4.400   1.500   1.267  0.1988 -0.8885  1.2387
  939MPD2    H113735   4.113   1.289   1.052 -0.7818 -0.7133 -0.2543
  939MPD2    H213736   4.138   1.234   1.470  0.7522 -0.3561 -0.2175
  939MPD2    H313737   4.053   1.162   1.253 -0.3629 -0.3742 -0.5247
  939MPD2     N13738   4.328   1.431   1.020 -0.0785  0.0589  0.5599
  939MPD2    H513739   4.395   1.507   1.021  1.3519 -1.2143  1.4439
  939MPD2    N113740   4.308   1.409   1.524 -0.2501 -0.1276 -0.2325
  939MPD2    H713741   4.252   1.366   1.597  2.0735 -1.0751  1.0015
  940MPD2     C13742   2.719   2.262  12.917  0.2374  0.0807  0.7521
  940MPD2    C113743   2.809   2.201  12.999  0.7137  0.0479  0.5646
  940MPD2    C213744   2.888   2.103  12.938 -0.8554 -0.1484 -0.8626
  940MPD2    C313745   2.865   2.069  12.805 -0.1118 -0.1657 -0.3233
  940MPD2    C413746   2.755   2.118  12.738  0.0854 -0.8203  0.1143
  940MPD2    C513747   2.682   2.211  12.797  1.2906  0.1222 -0.1286
  940MPD2     H13748   2.957   2.045  12.998  1.6884  1.5568 -2.1816
  940MPD2    H113749   2.737   2.076  12.640 -0.5703 -0.9622  0.2994
  940MPD2    H213750   2.647   2.332  12.959 -1.3534 -1.3509  0.4064
  940MPD2    H313751   2.599   2.255  12.744 -0.8245 -2.4268  1.0645
  940MPD2     N13752   2.938   1.963  12.741  0.0358  0.8247 -0.4775
  940MPD2    H513753   2.905   1.936  12.649 -1.4059  1.8780 -0.2657
  940MPD2    N113754   2.827   2.229  13.134  0.2808 -0.0648  0.1461
  940MPD2    H713755   2.905   2.180  13.176 -0.4025 -2.4165 -1.3102
  941MPD2     C13756   1.200   0.895   9.837  0.6084  0.3167  0.3604
  941MPD2    C113757   1.300   0.846   9.922 -0.0474  0.1976 -0.4487
  941MPD2    C213758   1.273   0.757  10.022 -0.2917 -0.4971 -0.3030
  941MPD2    C313759   1.149   0.707  10.041  0.2910 -0.4388 -0.7791
  941MPD2    C413760   1.049   0.753   9.955  0.0551 -0.3075  0.2411
  941MPD2    C513761   1.074   0.847   9.860  0.6194  0.4208 -0.4291
  941MPD2     H13762   1.355   0.746  10.092 -0.3335  4.6958  0.5887
  941MPD2    H113763   0.946   0.721   9.959 -0.7700  2.0394 -1.8812
  941MPD2    H213764   1.219   0.965   9.756 -0.3949 -1.7922 -1.6972
  941MPD2    H313765   0.992   0.883   9.799  0.1383  1.1247  0.6193
  941MPD2     N13766   1.115   0.620  10.151  0.1589 -0.4035 -0.0134
  941MPD2    H513767   1.017   0.594  10.152  0.1396 -0.3294  0.0346
  941MPD2    N113768   1.435   0.898   9.923  0.3051 -0.3553  0.3836
  941MPD2    H713769   1.502   0.856   9.987  1.4853 -2.0015 -1.9301
  942MPD2     C13770   1.136   3.165   9.339  0.7768  0.3385 -0.0503
  942MPD2    C113771   1.265   3.218   9.348  0.1957  0.8589  0.3001
  942MPD2    C213772   1.359   3.129   9.334 -0.4921  0.2172  0.1218
  942MPD2    C313773   1.330   2.991   9.313 -0.1419 -0.3211 -0.1370
  942MPD2    C413774   1.200   2.945   9.312  0.3224  0.6972 -0.3154
  942MPD2    C513775   1.100   3.036   9.326  0.0271  0.0106  0.1496
  942MPD2     H13776   1.461   3.165   9.328 -0.4988 -0.0459 -1.4288
  942MPD2    H113777   1.163   2.844   9.299 -0.6721  0.9764  0.2983
  942MPD2    H213778   1.041   3.217   9.341 -0.7115 -2.4724  2.1439
  942MPD2    H313779   0.998   3.004   9.343  0.5071 -0.8518  1.3919
  942MPD2     N13780   1.428   2.891   9.302 -0.1777  0.1417  0.0515
  942MPD2    H513781   1.391   2.803   9.268  0.4814  0.4377 -1.4547
  942MPD2    N113782   1.292   3.357   9.363  0.5853 -0.3198 -0.6814
  942MPD2    H713783   1.388   3.391   9.358 -0.3076  2.4827  1.1416
  943MPD2     C13784   0.522   1.597  10.135  0.0663 -0.0531 -0.3925
  943MPD2    C113785   0.405   1.531  10.114 -0.3906  0.1172 -0.3070
  943MPD2    C213786   0.308   1.587  10.028 -0.6063 -0.0368 -0.7146
  943MPD2    C313787   0.323   1.708   9.965  0.2863 -0.0034  0.1742
  943MPD2    C413788   0.440   1.773   9.993  0.4587 -0.5723 -0.6233
  943MPD2    C513789   0.530   1.720  10.077  0.7314  0.3884 -0.2265
  943MPD2     H13790   0.215   1.534  10.011 -0.5534 -0.6059  0.7076
  943MPD2    H113791   0.465   1.867   9.946 -0.9786  0.2745  0.2900
  943MPD2    H213792   0.600   1.559  10.200  0.2005  0.4890 -0.2420
  943MPD2    H313793   0.627   1.769  10.077  1.1241 -0.3801 -0.7482
  943MPD2     N13794   0.232   1.772   9.880 -0.0047 -0.0861 -0.0678
  943MPD2    H513795   0.269   1.855   9.834 -3.4876  0.7292 -1.3343
  943MPD2    N113796   0.400   1.400  10.177  0.2082  0.3283  0.7329
  943MPD2    H713797   0.481   1.378  10.235 -0.3129  0.5111  1.5237
  944MPD2     C13798   0.247   4.598  11.554  0.1692  0.1593  0.2534
  944MPD2    C113799   0.278   4.693  11.466 -0.7584 -0.0360  0.6278
  944MPD2    C213800   0.274   0.099  11.502  0.0205  0.2290 -0.1245
  944MPD2    C313801   0.233   0.133  11.630 -0.6747 -0.2349  0.7964
  944MPD2    C413802   0.207   0.041  11.725 -0.3854 -0.3903 -0.2408
  944MPD2    C513803   0.221   4.632  11.683 -0.9336  0.2526  0.3881
  944MPD2     H13804   0.296   0.178  11.432 -0.5965 -0.1339 -0.7182
  944MPD2    H113805   0.165   0.067  11.821 -0.2547  1.2278 -0.6313
  944MPD2    H213806   0.229   4.496  11.524  0.2419 -0.0331  0.8611
  944MPD2    H313807   0.180   4.555  11.748  0.5722  0.3988  1.4885
  944MPD2     N13808   0.222   0.271  11.652  0.5450  0.3285  0.1640
  944MPD2    H513809   0.253   0.333  11.578 -2.8253  0.2575 -1.3082
  944MPD2    N113810   0.309   4.656  11.332  0.4368  0.2181 -0.6057
  944MPD2    H713811   0.309   4.558  11.306 -3.5526 -0.1744  0.8322
    1TCq1    O113812   2.856   0.834  14.109  0.3193 -0.3087  0.0316
    1TCq1    C113813   2.873   0.860  14.240  0.5573 -0.4358  0.0948
    1TCq1    O213814   2.918   0.778  14.319  0.3470  0.0869 -0.1538
    1TCq1    C213815   2.886   1.000  14.257 -0.5004 -0.4519  0.6073
    1TCq1    C313816   2.778   1.078  14.215 -0.4960  0.4213 -0.0055
    1TCq1    C413817   2.794   1.209  14.212 -1.0740  0.4641  0.0548
    1TCq1    C513818   2.911   1.263  14.254 -0.2772 -0.5532  0.4314
    1TCq1    C613819   3.018   1.188  14.294  0.5823 -0.1159  0.0855
    1TCq1    C713820   3.007   1.048  14.300 -0.6400  0.0836  0.1662
    1TCq1    C813821   3.124   1.241  14.378  0.0526 -0.2466 -0.5922
    1TCq1    O413822   3.200   1.157  14.424 -0.8398 -0.4994 -0.5245
    1TCq1    C913823   2.688   1.304  14.187 -0.0816  0.7475 -0.3127
    1TCq1    O513824   2.590   1.266  14.128 -0.0991  0.2559 -0.3590
    1TCq1    O613825   2.696   1.424  14.235  0.7589 -0.1665  0.0203
    1TCq1    H113826   2.853   0.916  14.056 -0.8612 -0.9413 -0.8835
    1TCq1    H213827   2.691   1.036  14.167 -0.4541  0.0511  0.2409
    1TCq1    H313828   2.922   1.370  14.243 -2.4095 -0.3869 -0.0886
    1TCq1    H413829   3.083   0.977  14.330 -0.4962  0.3536  0.4482
    2MPD2     C13830   3.331   1.587  14.695  0.2560  0.7830  0.5718
    2MPD2    C113831   3.247   1.653  14.609  0.0468  0.5298  0.0806
    2MPD2    C213832   3.178   1.582  14.511  0.1795  0.0393 -0.2941
    2MPD2    C313833   3.186   1.446  14.513 -0.2014 -0.3822  0.3522
    2MPD2    C413834   3.284   1.376  14.590 -0.5812  0.2801  1.4029
    2MPD2    C513835   3.342   1.452  14.687  0.8323 -0.4698 -0.2947
    2MPD2     H13836   3.107   1.631  14.445  0.0679  1.5386  0.9297
    2MPD2    H113837   3.305   1.270  14.591  0.7194  0.4877 -1.7550
    2MPD2    H213838   3.387   1.645  14.767 -0.7298 -0.1101  2.0568
    2MPD2    H313839   3.416   1.410  14.754  1.0025  0.6730  0.2371
    2MPD2     N13840   3.105   1.370  14.418 -0.2218  0.0979 -0.5298
    2MPD2    H513841   3.029   1.421  14.375 -1.4514  0.2283  1.7886
    2MPD2    N113842   3.238   1.794  14.616 -0.1507  0.4380  0.2431
    2MPD2    H713843   3.287   1.842  14.691 -0.6559  2.5249 -0.7491
    3TMC2    C113844   3.178   2.014  14.565 -0.0506  0.7872 -0.5770
    3TMC2    C213845   3.176   2.041  14.702 -0.0334 -0.1390 -0.6178
    3TMC2    C313846   3.143   2.173  14.730  0.2215 -0.6543  0.3388
    3TMC2    C413847   3.171   2.110  14.466  0.5400 -0.0346 -0.8811
    3TMC2    C513848   3.142   2.236  14.506  0.1324 -0.3500 -0.1659
    3TMC2    C613849   3.123   2.273  14.635  0.5049 -0.0012  0.3725
    3TMC2     C13850   3.191   1.876  14.518  0.1289  0.4991  0.9141
    3TMC2     O13851   3.152   1.853  14.404 -0.7498 -0.0677 -0.2809
    3TMC2     H13852   3.179   1.962  14.776  1.0097  0.7232  0.2600
    3TMC2    H113853   3.166   2.080  14.362  3.0821  0.0329 -1.0292
    3TMC2    H213854   3.084   2.369  14.666 -1.9064 -0.9914  0.4173
    3TMC2    C713855   3.062   2.319  14.415  0.3961  0.3161 -0.2467
    3TMC2    C813856   3.106   2.199  14.867 -0.3862 -0.6793 -0.6385
    3TMC2    O113857   2.961   2.368  14.463  0.4251  0.3278  0.3200
    3TMC2    O213858   3.053   2.306  14.889 -0.2528 -0.0656 -1.0316
    3TMC2    O513859   3.211   2.151  14.938  0.0891 -0.0773 -0.0439
    3TMC2    H513860   3.253   2.063  14.924  4.0188  1.7846 -0.1336
    4MPD2     C13861   2.809   3.182  13.563  0.2167 -0.5723 -0.7036
    4MPD2    C113862   2.787   3.048  13.537  0.0895 -0.4050 -0.3849
    4MPD2    C213863   2.892   2.958  13.537  0.2142 -0.3909  0.2135
    4MPD2    C313864   3.019   2.994  13.570 -0.4103  0.2935  0.2512
    4MPD2    C413865   3.048   3.130  13.597  0.2612  0.3041  0.6810
    4MPD2    C513866   2.941   3.222  13.591 -0.3691  0.3355 -0.9728
    4MPD2     H13867   2.875   2.856  13.505  0.3432 -0.6756  1.0544
    4MPD2    H113868   3.146   3.170  13.623  1.8106 -2.8532 -0.3291
    4MPD2    H213869   2.736   3.262  13.562 -1.3677 -2.0276  1.9159
    4MPD2    H313870   2.960   3.326  13.614  1.6969 -0.2219 -0.2069
    4MPD2     N13871   3.115   2.895  13.579  0.5968  0.2850 -0.1185
    4MPD2    H513872   3.084   2.798  13.574  0.3039  0.3861 -0.2453
    4MPD2    N113873   2.652   3.012  13.514 -0.5175 -0.6840 -0.4777
    4MPD2    H713874   2.580   3.085  13.515  0.5648  0.3707  0.7600
    5TCq2    C113875   3.252   2.914  13.612  0.3686  0.0423 -0.3795
    5TCq2    O213876   3.323   3.014  13.633 -0.3666  0.2874  0.1115
    5TCq2    C213877   3.323   2.786  13.628 -0.1501 -0.4329  0.3746
    5TCq2    C313878   3.438   2.761  13.554  0.5789 -0.0877 -0.3140
    5TCq2    C413879   3.509   2.648  13.570  0.4305 -0.4699 -0.3087
    5TCq2    C513880   3.463   2.557  13.662  1.1786 -1.2220  0.0944
    5TCq2    C613881   3.352   2.589  13.736  1.4543 -0.9332 -0.9022
    5TCq2    C713882   3.275   2.699  13.715  0.4944  1.0030  0.3116
    5TCq2    C813883   3.316   2.508  13.847 -0.1849 -0.5967 -0.3207
    5TCq2    O413884   3.389   2.418  13.895  0.5423 -0.0548  0.4265
    5TCq2    C913885   3.602   2.617  13.478  0.0478  0.1900  0.2433
    5TCq2    O513886   3.635   2.693  13.385 -0.2944  0.5643  0.2624
    5TCq2    O613887   3.644   2.502  13.487  0.0526  0.1722 -0.0321
    5TCq2    H213888   3.478   2.839  13.490 -0.6559 -1.7915 -3.2073
    5TCq2    H313889   3.515   2.464  13.683  0.5296 -2.0036 -1.7118
    5TCq2    H413890   3.203   2.733  13.789  1.1857  0.6572  1.1463
    6MPD1     C13891   2.093   4.088  12.413 -0.1407  1.0404  0.4119
    6MPD1    C113892   2.148   4.142  12.530 -1.0374  0.4994 -0.1317
    6MPD1    C213893   2.163   4.062  12.645 -0.1911 -0.3770 -0.2383
    6MPD1    C313894   2.149   3.923  12.633 -0.5867 -0.7864  0.3050
    6MPD1    C413895   2.104   3.871  12.509 -0.4072 -0.4776 -0.4360
    6MPD1    C513896   2.069   3.955  12.404  0.0416 -0.4111 -0.1759
    6MPD1     H13897   2.176   4.109  12.742 -1.7537 -0.1804 -0.1241
    6MPD1    H113898   2.082   3.765  12.502 -3.8651  0.0344  2.7923
    6MPD1    H213899   2.064   4.159  12.336  1.0098  0.1051 -0.8976
    6MPD1    H313900   2.022   3.924  12.311 -0.0205 -0.5344 -0.1040
    6MPD1     N13901   2.161   3.833  12.739 -0.0788 -0.5551  0.0228
    6MPD1    H513902   2.192   3.738  12.720  0.8132 -0.0563 -1.0202
    6MPD1    N113903   2.159   4.279  12.538  0.6285 -0.2994 -0.0110
    6MPD1    H613904   2.168   4.318  12.444 -0.2213 -2.2005 -0.8816
    6MPD1    H713905   2.237   4.306  12.597  1.7991 -0.6379 -1.4024
    7MPD2     C13906   2.017   3.461  13.272 -0.3476  0.8094  0.1734
    7MPD2    C113907   2.101   3.466  13.381  0.2499  0.6840  0.5838
    7MPD2    C213908   2.146   3.355  13.452  0.4742 -0.3583  0.1377
    7MPD2    C313909   2.098   3.235  13.408  0.4601  0.8016 -0.1751
    7MPD2    C413910   2.011   3.227  13.300  0.3913 -0.0638  0.2423
    7MPD2    C513911   1.967   3.339  13.231 -0.8067  0.3750  1.0102
    7MPD2     H13912   2.226   3.356  13.525  0.7574  1.1907 -0.1865
    7MPD2    H113913   1.980   3.128  13.267 -0.8467  0.3415  0.1848
    7MPD2    H213914   1.983   3.550  13.221 -0.3106 -0.5430 -2.2187
    7MPD2    H313915   1.892   3.339  13.152  0.8176  1.1038 -0.5411
    7MPD2     N13916   2.138   3.114  13.465 -0.3012 -0.2311 -0.1088
    7MPD2    H513917   2.115   3.027  13.417  1.2843 -1.7784  1.9258
    7MPD2    N113918   2.177   3.587  13.404 -0.6384 -0.7893  0.5543
    7MPD2    H713919   2.200   3.593  13.503  0.5053 -0.2002  0.2515
    8TMC3    C113920   2.265   2.964  13.584 -0.2371 -0.0507  0.1002
    8TMC3    C213921   2.397   2.953  13.600 -0.8567 -0.5345  0.7497
    8TMC3    C313922   2.464   2.869  13.509 -0.7546  0.0774  0.3876
    8TMC3    C413923   2.194   2.886  13.497 -0.2512 -0.5953 -0.2346
    8TMC3    C513924   2.263   2.813  13.400  0.2870  0.2684 -0.4160
    8TMC3    C613925   2.399   2.795  13.414 -0.0393  0.2543  0.4338
    8TMC3     C13926   2.209   3.098  13.584 -0.3508  0.3901  0.3205
    8TMC3     O13927   2.215   3.163  13.689 -0.2616 -0.4966  0.2646
    8TMC3     H13928   2.448   3.019  13.670 -1.2033 -2.9189  3.2708
    8TMC3    H113929   2.086   2.875  13.506 -0.6555  3.1928 -0.5502
    8TMC3    H213930   2.460   2.734  13.347  0.2345  1.4425 -0.3926
    8TMC3    C713931   2.212   2.851  13.269 -0.6483  0.4211 -0.3537
    8TMC3    C813932   2.607   2.884  13.487  0.1762 -0.0519  0.0711
    8TMC3    O113933   2.108   2.915  13.269  0.0989 -0.5392  0.0396
    8TMC3    O213934   2.668   2.788  13.441  0.1451 -0.4230  0.5093
    9TMC3    C113935   2.203   3.767  12.960  0.2033  0.6403 -0.2289
    9TMC3    C213936   2.257   3.650  12.911 -0.9366 -0.2471  0.3008
    9TMC3    C313937   2.282   3.552  12.996 -0.1036 -0.8005  0.5538
    9TMC3    C413938   2.159   3.778  13.096  0.0829  0.2061  0.3993
    9TMC3    C513939   2.208   3.676  13.177 -0.3442 -0.5576 -0.3447
    9TMC3    C613940   2.266   3.561  13.129 -0.4615 -0.1015  0.4932
    9TMC3     C13941   2.153   3.870  12.873 -0.1339 -0.5703  0.3837
    9TMC3     O13942   2.100   3.967  12.925  0.1817  0.2790  0.4611
    9TMC3     H13943   2.271   3.632  12.804 -1.4147  0.3140  0.1454
    9TMC3    H113944   2.107   3.862  13.139  0.2824  0.4134  0.2381
    9TMC3    H213945   2.299   3.496  13.209  0.8506 -0.9530 -0.7238
    9TMC3    C713946   2.196   3.695  13.319 -0.0157  0.1738  0.1303
    9TMC3    C813947   2.306   3.418  12.945 -0.3144  0.0611  0.2801
    9TMC3    O113948   2.225   3.808  13.350  0.4934 -0.3981  0.0916
    9TMC3    O213949   2.327   3.417  12.827  0.0096  0.3958  0.0838
   10MPD2     C13950   2.400   2.919  12.973  0.2536 -0.2571 -1.1878
   10MPD2    C113951   2.322   2.949  13.084  0.1834 -0.2466 -0.1239
   10MPD2    C213952   2.275   3.083  13.102 -0.3630  0.7013  0.1613
   10MPD2    C313953   2.311   3.172  13.002 -0.3968 -0.3781  0.3113
   10MPD2    C413954   2.377   3.132  12.886 -0.5169  0.2288  0.4104
   10MPD2    C513955   2.417   2.999  12.869 -0.1878 -0.3260 -0.6021
   10MPD2     H13956   2.209   3.104  13.185 -1.8816 -0.3253 -0.7639
   10MPD2    H113957   2.408   3.207  12.814  0.4521  1.5745  2.2434
   10MPD2    H213958   2.437   2.819  12.951 -0.4377 -0.8765  0.5006
   10MPD2    H313959   2.468   2.980  12.775 -0.4089  1.2746 -1.0463
   10MPD2     N13960   2.286   3.311  13.026 -0.6517  0.0937 -0.2476
   10MPD2    H513961   2.244   3.329  13.117  0.8749  1.4132  0.1811
   10MPD2    N113962   2.304   2.850  13.177 -0.1813 -0.0794 -0.8028
   10MPD2    H713963   2.363   2.767  13.176 -1.2317 -0.8177 -2.1388
   11MPD2     C13964   2.921   2.406  14.164 -0.0999 -0.4325 -0.2189
   11MPD2    C113965   3.054   2.368  14.172  0.6290  0.2428  0.6339
   11MPD2    C213966   3.141   2.410  14.076  0.1371  0.2170  0.1332
   11MPD2    C313967   3.091   2.472  13.960  0.5618  0.1356  0.1246
   11MPD2    C413968   2.959   2.503  13.948 -0.6511  0.0414 -0.6424
   11MPD2    C513969   2.876   2.467  14.051 -0.2109  0.0222 -0.1555
   11MPD2     H13970   3.246   2.384  14.084  0.0326 -0.0598  0.6536
   11MPD2    H113971   2.908   2.550  13.865  0.9532  1.4997 -0.7975
   11MPD2    H213972   2.856   2.387  14.248  0.2906 -0.3431  0.1018
   11MPD2    H313973   2.771   2.484  14.032  0.2557 -0.5524 -3.4043
   11MPD2     N13974   3.179   2.523  13.859  0.3981 -0.7002 -0.3892
   11MPD2    H513975   3.147   2.575  13.778  2.3073  2.5733  0.9672
   11MPD2    N113976   3.115   2.318  14.285 -0.7558 -0.1974  0.0780
   11MPD2    H713977   3.214   2.298  14.276 -0.1818  0.5177  4.9326
    1MPD1     C13978   0.132   3.919  17.272  0.3763  0.8387 -0.0021
    1MPD1    C113979   0.242   3.940  17.351  0.8217 -0.1477  0.2097
    1MPD1    C213980   0.367   3.934  17.299 -0.3964  0.4408 -0.2024
    1MPD1    C313981   0.388   3.891  17.166 -0.1064 -0.6035  0.5033
    1MPD1    C413982   0.277   3.864  17.086 -0.3163 -0.3657 -0.4464
    1MPD1    C513983   0.149   3.883  17.141  0.7801  0.0453 -0.3253
    1MPD1     H13984   0.453   3.960  17.361 -1.3488 -1.4068  1.8621
    1MPD1    H113985   0.283   3.827  16.984  0.9692 -1.0940 -0.1083
    1MPD1    H213986   0.032   3.932  17.310 -1.1717 -1.5375 -3.2579
    1MPD1    H313987   0.067   3.868  17.072  0.6038 -0.5681  0.0080
    1MPD1     N13988   0.515   3.872  17.104 -0.1913  0.2126  0.4002
    1MPD1    H513989   0.527   3.839  17.009 -0.2471 -1.6557  1.0427
    1MPD1    N113990   0.216   3.991  17.481  0.3998 -0.0048 -0.0416
    1MPD1    H613991   0.284   3.955  17.548 -0.9601  0.2755  1.5138
    1MPD1    H713992   0.124   3.959  17.512  1.3876 -1.9765  0.8594
    2MPD1     C13993   1.610   3.994  17.102  0.5085  0.3826 -0.0228
    2MPD1    C113994   1.591   3.860  17.066  0.0818 -0.2682  0.6259
    2MPD1    C213995   1.462   3.817  17.053  0.5135  1.1556  0.7402
    2MPD1    C313996   1.350   3.906  17.061  0.3174 -0.0516 -1.0989
    2MPD1    C413997   1.376   4.043  17.084  0.0481 -0.6340 -0.0332
    2MPD1    C513998   1.511   4.082  17.103 -0.2390 -0.7730 -0.4261
    2MPD1     H13999   1.440   3.712  17.042  1.3293  1.0716 -0.1802
    2MPD1    H114000   1.307   4.125  17.098 -0.4192 -0.7886 -1.4853
    2MPD1    H214001   1.705   4.033  17.139 -1.1801  2.0586  2.6024
    2MPD1    H314002   1.532   4.184  17.133  0.3697 -0.6224 -1.3719
    2MPD1     N14003   1.217   3.861  17.054  0.2317  0.2680  0.0079
    2MPD1    H514004   1.197   3.764  17.034  1.5811  0.3968 -1.9043
    2MPD1    N114005   1.697   3.777  17.071  0.6405 -0.2310  0.4011
    2MPD1    H614006   1.788   3.812  17.042  0.4755  0.0652  0.2417
    2MPD1    H714007   1.677   3.696  17.013 -0.2117  0.1657  0.1371
    3TMC3    C114008   0.974   3.873  17.041 -0.5729  1.6459 -0.4292
    3TMC3    C214009   0.958   3.782  16.941 -0.8788 -0.6516  0.1435
    3TMC3    C314010   0.834   3.748  16.904  0.2691 -0.1173  0.3866
    3TMC3    C414011   0.861   3.924  17.102  0.5761  0.6091 -0.5212
    3TMC3    C514012   0.740   3.878  17.067 -0.8029 -0.1860  0.5485
    3TMC3    C614013   0.720   3.787  16.965  0.7500  0.2144 -0.2900
    3TMC3     C14014   1.102   3.927  17.097  0.3501 -0.0182  0.6698
    3TMC3     O14015   1.096   4.028  17.168  0.1443 -0.3117  0.3654
    3TMC3     H14016   1.046   3.736  16.897  0.2413  0.6885  0.9737
    3TMC3    H114017   0.875   4.000  17.178 -0.0638 -1.4763  1.6857
    3TMC3    H214018   0.624   3.746  16.936  1.4857 -0.2323 -2.1154
    3TMC3    C714019   0.632   3.915  17.155 -0.2195  0.4148 -0.2007
    3TMC3    C814020   0.824   3.629  16.816  0.6223  0.2350 -0.6349
    3TMC3    O114021   0.656   3.977  17.256  0.0860 -0.0724 -0.5486
    3TMC3    O214022   0.713   3.580  16.812  0.7398  0.3942 -0.0087
    4MPD1     C14023   0.963   3.294  16.447 -0.0629 -0.4128 -0.2413
    4MPD1    C114024   1.077   3.361  16.495  0.3966  0.2980  0.2221
    4MPD1    C214025   1.057   3.463  16.591  0.6007 -0.2595 -0.6075
    4MPD1    C314026   0.934   3.493  16.649 -0.5388 -0.6063 -0.4870
    4MPD1    C414027   0.830   3.420  16.602  0.4181 -0.5407 -0.4645
    4MPD1    C514028   0.843   3.320  16.504  0.0106  0.0356  0.2584
    4MPD1     H14029   1.140   3.529  16.612  0.4523 -0.7739  1.7089
    4MPD1    H114030   0.727   3.448  16.619 -0.0432 -1.0795 -2.2610
    4MPD1    H214031   0.973   3.217  16.371 -2.5661 -0.2869 -0.6943
    4MPD1    H314032   0.764   3.254  16.471  0.5301  0.0771 -1.0676
    4MPD1     N14033   0.924   3.610  16.729 -0.7736 -0.0184  0.0650
    4MPD1    H514034   1.004   3.672  16.734 -0.0690 -1.0190  1.1316
    4MPD1    N114035   1.206   3.349  16.437  0.5087 -0.5452  0.4611
    4MPD1    H614036   1.227   3.255  16.406  1.9741  0.3888 -1.4184
    4MPD1    H714037   1.281   3.385  16.496  1.6717 -1.3016 -0.5524
    1TCq1    O114038   2.465   3.659  12.360  0.0257 -0.4181  0.0821
    1TCq1    C114039   2.345   3.621  12.299  0.4485  0.4550 -0.2459
    1TCq1    O214040   2.242   3.682  12.292  0.8485 -0.6174  0.2147
    1TCq1    C214041   2.378   3.544  12.184 -0.6210 -0.8133  0.8033
    1TCq1    C314042   2.478   3.449  12.198  0.6129 -0.1924  0.0792
    1TCq1    C414043   2.544   3.396  12.094  0.0709 -0.5021 -0.3784
    1TCq1    C514044   2.484   3.410  11.974 -0.3047  0.7835 -0.2329
    1TCq1    C614045   2.399   3.514  11.949 -0.9753 -0.1118  0.4396
    1TCq1    C714046   2.345   3.581  12.057 -0.2000 -0.1608  0.4102
    1TCq1    C814047   2.327   3.529  11.826 -0.1111  0.2449  0.5529
    1TCq1    O414048   2.226   3.599  11.826  0.0692 -0.4033  0.6107
    1TCq1    C914049   2.615   3.270  12.105  0.0714  0.7359  0.3021
    1TCq1    O514050   2.625   3.222  12.219 -0.4596  0.0607  0.2659
    1TCq1    O614051   2.667   3.219  11.998 -0.1478  0.6273  0.2196
    1TCq1    H114052   2.542   3.600  12.345 -1.9926 -2.6803 -1.3151
    1TCq1    H214053   2.515   3.433  12.298  1.0956 -0.6061 -0.1592
    1TCq1    H314054   2.535   3.362  11.891  1.1287  1.0196  0.5064
    1TCq1    H414055   2.285   3.671  12.052 -1.3533 -0.9821 -0.5459
    2MPD1     C14056   2.296   3.439  11.319  0.2998  0.0215 -0.0768
    2MPD1    C114057   2.389   3.357  11.369  0.4770  0.0429 -1.1704
    2MPD1    C214058   2.406   3.356  11.507 -0.2012 -0.3007  0.0733
    2MPD1    C314059   2.340   3.444  11.595  0.5253 -0.4882  0.2314
    2MPD1    C414060   2.263   3.539  11.534  0.1262  0.0376 -0.4140
    2MPD1    C514061   2.240   3.535  11.398  0.7097 -0.6167 -0.1551
    2MPD1     H14062   2.470   3.280  11.552  0.3299  0.7786  1.1270
    2MPD1    H114063   2.215   3.617  11.592  1.5832  1.0991 -0.6430
    2MPD1    H214064   2.271   3.433  11.214  1.4875  0.3737 -0.3770
    2MPD1    H314065   2.162   3.593  11.349  1.2731  1.1600  1.0296
    2MPD1     N14066   2.378   3.449  11.729 -0.0059 -0.1452 -0.3947
    2MPD1    H514067   2.457   3.391  11.755  1.0848  1.4464 -0.1074
    2MPD1    N114068   2.450   3.259  11.286  0.6914 -0.5541  0.2141
    2MPD1    H614069   2.461   3.287  11.189  0.5634 -1.4582 -0.0538
    2MPD1    H714070   2.542   3.231  11.322  0.1993 -2.2576  0.1135
    1TCq1    O114071   0.266   2.465   1.609 -0.2192 -0.6343  0.4124
    1TCq1    C114072   0.174   2.555   1.635  0.6482 -0.2531 -0.5167
    1TCq1    O214073   0.106   2.611   1.552  0.2155 -0.1079 -0.0479
    1TCq1    C214074   0.235   2.614   1.752 -0.0964 -0.0733 -0.0439
    1TCq1    C314075   0.294   2.734   1.746  0.1263 -0.3836  0.6816
    1TCq1    C414076   0.387   2.769   1.837  0.2962 -0.4002  0.5149
    1TCq1    C514077   0.399   2.694   1.951  0.6351  0.1480  0.0060
    1TCq1    C614078   0.325   2.580   1.963 -0.1602 -0.3876  0.5122
    1TCq1    C714079   0.246   2.543   1.862  0.5188 -0.2654  0.0894
    1TCq1    C814080   0.333   2.497   2.087 -0.4299  0.7787 -0.1576
    1TCq1    O414081   0.235   2.417   2.093  0.0450 -0.4790 -0.0771
    1TCq1    C914082   0.440   2.904   1.833  0.3714 -0.2335  0.0170
    1TCq1    O514083   0.525   2.937   1.917  0.7470  0.7484  0.0656
    1TCq1    O614084   0.374   2.993   1.773 -0.2433 -0.3634 -0.1394
    1TCq1    H114085   0.339   2.462   1.674  1.6932 -0.5039 -1.7459
    1TCq1    H214086   0.294   2.781   1.648 -1.7144  1.2965  1.4859
    1TCq1    H314087   0.463   2.725   2.034  1.2061 -1.2940  0.0986
    1TCq1    H414088   0.189   2.451   1.874  1.5963 -1.2640 -2.3583
    2MPD1     C14089   0.421   2.377   2.567 -0.5875  0.0675 -0.1715
    2MPD1    C114090   0.517   2.472   2.537  0.2901 -0.3228  0.0995
    2MPD1    C214091   0.520   2.523   2.411  0.5417 -0.1545  0.3136
    2MPD1    C314092   0.437   2.466   2.306 -0.2281  1.1524 -0.2680
    2MPD1    C414093   0.365   2.359   2.335  0.1114  0.4451 -0.8378
    2MPD1    C514094   0.355   2.313   2.463 -0.1489  0.2215 -0.0958
    2MPD1     H14095   0.580   2.609   2.383  0.4820 -0.4627 -0.7839
    2MPD1    H114096   0.308   2.307   2.259 -0.8285  1.3370 -0.7455
    2MPD1    H214097   0.393   2.332   2.662 -2.1804  0.1583 -0.5834
    2MPD1    H314098   0.292   2.227   2.484 -2.2057  1.4683 -1.1018
    2MPD1     N14099   0.434   2.531   2.178 -0.0300 -0.2689 -0.5975
    2MPD1    H514100   0.499   2.604   2.154 -1.5186  0.3405 -2.7867
    2MPD1    N114101   0.572   2.548   2.643 -0.2973 -0.3908  0.0366
    2MPD1    H614102   0.658   2.594   2.615 -0.6544  0.3272  0.1414
    2MPD1    H714103   0.591   2.495   2.727 -0.2754  1.4586  1.1888
    1MPD1     C14104   4.539   3.069  12.148  0.5125  0.6693  0.7842
    1MPD1    C114105   4.420   3.137  12.124  0.7862 -0.5356 -0.1466
    1MPD1    C214106   4.380   3.152  11.992  0.3745  0.5290 -0.0922
    1MPD1    C314107   4.471   3.144  11.893 -0.1690 -0.3528  0.2367
    1MPD1    C414108   4.597   3.098  11.910  0.1418 -0.8020 -0.1339
    1MPD1    C514109   4.625   3.053  12.039 -0.1323 -0.5309  0.1200
    1MPD1     H14110   4.276   3.179  11.976 -0.6578 -1.5449  3.0640
    1MPD1    H114111   4.660   3.072  11.826  1.2451 -0.6744  0.6539
    1MPD1    H214112   4.568   3.029  12.245 -1.8215 -1.8244  0.4505
    1MPD1    H314113   4.718   3.004  12.068  0.6265  2.3077  2.4716
    1MPD1     N14114   4.422   3.176  11.764  0.1031 -0.0072  0.6106
    1MPD1    H514115   4.328   3.212  11.755  0.0613 -0.9058 -2.4044
    1MPD1    N114116   4.317   3.144  12.220  0.3024  0.3174  0.1557
    1MPD1    H614117   4.365   3.158  12.309  0.2057  2.6665 -0.1411
    1MPD1    H714118   4.255   3.223  12.202  1.9729  1.5222 -0.2566
    2MPD1     C14119   3.131   3.591  11.649  0.0763  0.4496  0.5517
    2MPD1    C114120   3.052   3.665  11.570 -0.7704 -0.4163 -0.3068
    2MPD1    C214121   3.098   3.698  11.443  0.1898  0.3338  0.0921
    2MPD1    C314122   3.212   3.653  11.396 -0.1473  0.2725  0.0217
    2MPD1    C414123   3.301   3.595  11.489  0.1135 -0.5447 -0.1778
    2MPD1    C514124   3.255   3.554  11.612  0.7646 -0.0627  0.1844
    2MPD1     H14125   3.018   3.738  11.381 -1.0595 -0.7468  1.0172
    2MPD1    H114126   3.402   3.562  11.469 -0.0041 -1.3467  0.5476
    2MPD1    H214127   3.102   3.585  11.753  0.5991 -0.4377  0.6414
    2MPD1    H314128   3.333   3.513  11.675  0.4713 -0.5338  0.2454
    2MPD1     N14129   3.260   3.676  11.268  0.0121  0.1270 -0.6943
    2MPD1    H514130   3.351   3.633  11.256  0.0786  0.4185 -1.2063
    2MPD1    N114131   2.923   3.694  11.611 -0.1428 -0.2832  0.5034
    2MPD1    H614132   2.935   3.708  11.711  0.3412 -3.7751  0.9402
    2MPD1    H714133   2.905   3.779  11.559 -0.4291 -0.9666 -0.5268
    3MPD1     C14134   2.717   3.489  10.471 -0.3124  0.0421  0.3571
    3MPD1    C114135   2.726   3.441  10.597 -0.0102 -0.0779 -0.2296
    3MPD1    C214136   2.845   3.466  10.665  0.1321  0.2225  0.3686
    3MPD1    C314137   2.948   3.548  10.619 -0.4032  0.4789  1.2130
    3MPD1    C414138   2.944   3.591  10.487 -0.4120  0.6286  0.4111
    3MPD1    C514139   2.823   3.565  10.424 -0.0340 -0.3125  0.2474
    3MPD1     H14140   2.857   3.425  10.764 -1.1448 -1.2240 -0.0827
    3MPD1    H114141   3.028   3.641  10.440 -0.5625 -0.1783 -0.7141
    3MPD1    H214142   2.629   3.496  10.408 -2.3996  1.0318  3.3738
    3MPD1    H314143   2.804   3.596  10.322 -0.4371 -1.1106  0.0752
    3MPD1     N14144   3.049   3.581  10.710 -0.0086  0.3297 -0.4397
    3MPD1    H514145   3.037   3.542  10.803 -0.4072 -0.5755 -0.8666
    3MPD1    N114146   2.633   3.340  10.637  0.3282 -0.0244 -0.7998
    3MPD1    H614147   2.540   3.367  10.606 -0.0227  1.7165  1.6887
    3MPD1    H714148   2.617   3.336  10.738 -1.0423 -0.5061 -1.0334
    4MPD2     C14149   4.167   3.816  11.470  0.1013 -0.0284  0.8712
    4MPD2    C114150   4.226   3.721  11.381 -0.5725 -0.5088 -0.0101
    4MPD2    C214151   4.288   3.761  11.266  0.0918 -0.3283  0.4352
    4MPD2    C314152   4.270   3.891  11.235 -1.1053  0.2742 -0.4200
    4MPD2    C414153   4.203   3.984  11.310 -0.4010  0.0810 -0.6210
    4MPD2    C514154   4.151   3.947  11.429 -0.3521 -0.3061  0.3340
    4MPD2     H14155   4.338   3.688  11.203  1.1815  1.8942 -1.2563
    4MPD2    H114156   4.184   4.085  11.277 -0.0411  0.2345 -0.3596
    4MPD2    H214157   4.129   3.795  11.569 -0.0250 -1.1415  0.5829
    4MPD2    H314158   4.103   4.023  11.489 -1.2244 -0.4235 -0.2162
    4MPD2     N14159   4.323   3.946  11.114  0.2738  0.1410 -1.4457
    4MPD2    H514160   4.273   4.028  11.082  0.4277  0.9870  0.4492
    4MPD2    N114161   4.217   3.582  11.398  0.1866 -0.7411 -0.4402
    4MPD2    H714162   4.259   3.519  11.331  0.7234  1.2679 -2.0004
    5TMC3    C114163   4.205   3.378  11.483 -0.6918  0.8426 -0.5483
    5TMC3    C214164   4.292   3.332  11.580  0.4635  0.1435  0.1058
    5TMC3    C314165   4.398   3.252  11.542  0.4145 -0.3149 -0.2229
    5TMC3    C414166   4.227   3.346  11.359  0.2012 -0.1514  0.8825
    5TMC3    C514167   4.331   3.261  11.322  0.2121  0.5666 -0.3896
    5TMC3    C614168   4.419   3.209  11.416  0.3979 -0.0525  0.4161
    5TMC3     C14169   4.167   3.517  11.506  0.1904 -0.5289  0.1625
    5TMC3     O14170   4.155   3.559  11.620 -0.1834 -0.4055 -0.1300
    5TMC3     H14171   4.298   3.387  11.673  3.1263 -2.1170  1.2674
    5TMC3    H114172   4.152   3.370  11.285  1.2508  0.7855  0.1120
    5TMC3    H214173   4.500   3.139  11.400 -2.3828 -2.7751 -1.7245
    5TMC3    C714174   4.409   3.339  11.220  0.4781  0.5798 -0.4603
    5TMC3    C814175   4.482   3.182  11.645 -0.0786 -0.3847 -1.3372
    5TMC3    O114176   4.349   3.440  11.185  0.0916  0.1951 -0.6882
    5TMC3    O214177   4.595   3.152  11.624 -0.0084  0.2561  0.2881
    6TMC3    C114178   3.257   3.730  11.043 -0.4038  0.2020  0.7549
    6TMC3    C214179   3.174   3.706  10.935 -0.0984 -0.6044  0.4286
    6TMC3    C314180   3.230   3.697  10.811 -0.8179  0.1285  0.1035
    6TMC3    C414181   3.394   3.747  11.031 -0.4690  0.1064 -0.1801
    6TMC3    C514182   3.445   3.742  10.904  0.1158 -0.1901  0.8677
    6TMC3    C614183   3.364   3.707  10.792  0.6766 -0.6207  0.8192
    6TMC3     C14184   3.189   3.732  11.168 -0.8141  0.8198 -0.0946
    6TMC3     O14185   3.071   3.770  11.167  0.7133 -0.0110  0.2118
    6TMC3     H14186   3.066   3.706  10.944 -0.0804 -1.3754  0.7031
    6TMC3    H114187   3.465   3.777  11.107  0.9871  0.3938 -1.6389
    6TMC3    H214188   3.403   3.694  10.692 -1.2544  0.6040 -0.1109
    6TMC3    C714189   3.590   3.737  10.895  0.2779 -0.0221  0.3477
    6TMC3    C814190   3.152   3.664  10.693  0.4985 -0.1305  0.3949
    6TMC3    O114191   3.640   3.793  10.797  0.2881 -0.0447  0.4816
    6TMC3    O214192   3.183   3.723  10.590  0.0898 -0.4459 -0.0034
    7MPD2     C14193   0.046   3.439  10.871 -0.4600  0.0759 -0.2220
    7MPD2    C114194   4.648   3.495  10.886 -0.0593  0.3626 -0.5760
    7MPD2    C214195   4.563   3.450  10.986 -0.2895  0.4228 -0.0579
    7MPD2    C314196   4.603   3.336  11.070 -0.1487  0.7944  1.0498
    7MPD2    C414197   0.006   3.287  11.053  0.0191 -0.7678  1.0801
    7MPD2    C514198   0.087   3.342  10.959 -0.0585 -0.9856 -0.0215
    7MPD2     H14199   4.475   3.506  11.014 -0.6330 -0.5084  0.7042
    7MPD2    H114200   0.051   3.213  11.118  0.4873  0.6954  2.4308
    7MPD2    H214201   0.113   3.483  10.799  0.7183  0.1157  0.9067
    7MPD2    H314202   0.194   3.326  10.966  0.4299  1.9878 -0.7650
    7MPD2     N14203   4.532   3.283  11.177 -0.4799  0.0339  0.5051
    7MPD2    H514204   4.570   3.206  11.231 -0.4998  1.2187  2.1833
    7MPD2    N114205   4.619   3.606  10.813 -0.0809  0.0405 -0.2054
    7MPD2    H714206   4.686   3.650  10.750 -0.1319  0.6161  0.1363
    8TMC3    C114207   4.475   3.771  10.732  0.6291  0.7375 -0.4527
    8TMC3    C214208   4.344   3.774  10.689  0.5941 -0.2795  0.0265
    8TMC3    C314209   4.256   3.856  10.750 -0.2308 -1.1949 -0.4254
    8TMC3    C414210   4.519   3.852  10.831 -0.3722 -0.8801  0.2310
    8TMC3    C514211   4.429   3.938  10.898  0.5281  0.3623  0.1439
    8TMC3    C614212   4.299   3.940  10.846 -0.1345  0.2067 -0.0968
    8TMC3     C14213   4.492   3.641  10.797 -0.1671  0.2882  0.0189
    8TMC3     O14214   4.382   3.603  10.832  0.2349  0.6071 -0.4487
    8TMC3     H14215   4.301   3.698  10.625 -0.6980  0.7890 -0.3782
    8TMC3    H114216   4.622   3.854  10.863 -0.5339 -0.4364  0.7409
    8TMC3    H214217   4.214   3.978  10.901  1.7185 -0.6200  3.3769
    8TMC3    C714218   4.433   3.911  11.045  0.2269  0.7318 -0.3617
    8TMC3    C814219   4.120   3.798  10.772 -0.4510 -0.4299 -0.6590
    8TMC3    O114220   4.519   3.826  11.070  0.4140 -0.1939  0.0797
    8TMC3    O214221   4.021   3.866  10.756 -0.0658  0.5247  0.7379
    9MPD2     C14222   4.045   3.528  11.020  0.3124 -0.1667  0.6147
    9MPD2    C114223   4.013   3.629  10.927 -0.3243 -0.3501 -0.3468
    9MPD2    C214224   3.883   3.667  10.908  0.4173  0.1342 -0.2377
    9MPD2    C314225   3.778   3.604  10.979  0.5324  0.1168 -0.3197
    9MPD2    C414226   3.815   3.493  11.059 -0.2706  0.1520 -0.0819
    9MPD2    C514227   3.945   3.466  11.089  0.5488 -0.0077 -0.6398
    9MPD2     H14228   3.855   3.739  10.831 -1.4446  1.7031  1.8851
    9MPD2    H114229   3.740   3.452  11.126  0.1004  0.5267  0.5611
    9MPD2    H214230   4.146   3.503  11.053  0.4333  0.7900  0.9610
    9MPD2    H314231   3.967   3.387  11.159 -0.3385 -0.1197 -0.4902
    9MPD2     N14232   3.645   3.649  10.984  0.0765  0.4767 -0.5376
    9MPD2    H514233   3.575   3.604  11.043  0.1666 -0.6745 -1.3174
    9MPD2    N114234   4.123   3.687  10.853 -0.4418  0.2787  0.1584
    9MPD2    H714235   4.219   3.654  10.862 -1.4474 -2.1556  1.9625
    1MPD1     C14236   2.905   2.370  16.089 -0.3449  0.5575 -0.4054
    1MPD1    C114237   2.996   2.317  16.181 -0.0428 -0.2391  0.0410
    1MPD1    C214238   3.058   2.201  16.150  0.4887 -0.3546 -0.1414
    1MPD1    C314239   3.055   2.147  16.019  0.7416  1.0354  0.3137
    1MPD1    C414240   2.981   2.216  15.923  0.5315  0.5618  0.2246
    1MPD1    C514241   2.907   2.323  15.966 -0.3832  0.6424  0.1698
    1MPD1     H14242   3.113   2.159  16.233  2.7596  1.0067 -0.9508
    1MPD1    H114243   2.964   2.170  15.826 -0.3043  1.4625 -0.0545
    1MPD1    H214244   2.844   2.457  16.111  0.4180  1.2850 -1.1274
    1MPD1    H314245   2.861   2.380  15.887  1.9716  1.0822 -0.8755
    1MPD1     N14246   3.125   2.026  15.985  0.2439 -0.0566 -0.4800
    1MPD1    H514247   3.114   2.009  15.886 -1.4706 -1.3978 -0.0608
    1MPD1    N114248   2.997   2.369  16.312 -0.2695  0.4064 -0.6265
    1MPD1    H614249   3.078   2.342  16.367  0.4841 -0.6398 -2.2580
    1MPD1    H714250   2.978   2.469  16.322  0.5991  0.3844  1.2361
    2MPD1     C14251   3.711   1.363  16.453 -0.2591 -0.1579  0.5861
    2MPD1    C114252   3.600   1.290  16.430  0.0198  0.5471  0.0169
    2MPD1    C214253   3.506   1.350  16.346 -0.0436 -0.1423  0.7135
    2MPD1    C314254   3.519   1.484  16.303 -0.3662  0.2984  0.5849
    2MPD1    C414255   3.631   1.558  16.345  0.0258 -0.2504  0.2424
    2MPD1    C514256   3.725   1.495  16.426 -0.4704  0.3934  0.6119
    2MPD1     H14257   3.426   1.290  16.303  0.3344  1.0524 -1.6305
    2MPD1    H114258   3.648   1.664  16.326  0.0132 -0.2327  0.3303
    2MPD1    H214259   3.795   1.319  16.506 -0.9200  1.0231  2.6345
    2MPD1    H314260   3.811   1.548  16.466  0.4724  2.6651 -4.3557
    2MPD1     N14261   3.428   1.557  16.222  0.2357  0.1794  0.4011
    2MPD1    H514262   3.428   1.658  16.219 -0.2925  0.1416 -0.9563
    2MPD1    N114263   3.600   1.155  16.461  0.6626 -0.3190 -0.2717
    2MPD1    H614264   3.505   1.123  16.474 -0.5421  2.5686 -1.9858
    2MPD1    H714265   3.653   1.148  16.547  0.2954 -2.3233 -0.2162
    3TCq2    C114266   3.371   1.506  16.110  0.1437  0.1870 -0.3621
    3TCq2    O214267   3.363   1.391  16.074  0.4294 -0.2140  0.3319
    3TCq2    C214268   3.285   1.598  16.042  0.2324 -0.0111  0.3635
    3TCq2    C314269   3.263   1.560  15.912  0.2961  0.4164  0.1364
    3TCq2    C414270   3.226   1.664  15.833 -0.3801 -0.4300  0.1949
    3TCq2    C514271   3.218   1.798  15.878  0.1931  0.2216 -0.1501
    3TCq2    C614272   3.241   1.824  16.010 -0.6199 -0.4583  0.4341
    3TCq2    C714273   3.292   1.724  16.093  0.2555  0.5649  1.2142
    3TCq2    C814274   3.186   1.941  16.072 -0.2507  0.1197 -0.2975
    3TCq2    O414275   3.188   1.949  16.196 -0.4101 -0.6362 -0.5549
    3TCq2    C914276   3.208   1.639  15.695  0.6770 -0.4979 -0.0651
    3TCq2    O514277   3.233   1.518  15.664 -0.9209  0.3591  0.1426
    3TCq2    O614278   3.203   1.740  15.615  0.2455  0.4657  0.6174
    3TCq2    H214279   3.273   1.460  15.873  0.7740  1.2825 -1.9330
    3TCq2    H314280   3.201   1.875  15.803 -0.5803  1.3229  1.1507
    3TCq2    H414281   3.284   1.733  16.201  2.9959 -1.2350  1.5501
    1TCq1    O114282   0.693   1.234  12.599  0.1249 -0.0737 -0.2489
    1TCq1    C114283   0.806   1.280  12.544 -0.4766 -0.0565 -0.0244
    1TCq1    O214284   0.819   1.319  12.428 -0.6579 -0.0929  0.0920
    1TCq1    C214285   0.913   1.244  12.630  0.7901  0.3866  0.3808
    1TCq1    C314286   0.902   1.138  12.717  0.4855 -0.3252 -0.8608
    1TCq1    C414287   1.006   1.113  12.796  0.6326 -0.1825 -0.2503
    1TCq1    C514288   1.130   1.181  12.777 -0.4214  0.0844  0.4483
    1TCq1    C614289   1.139   1.273  12.675 -0.5534 -0.1948 -0.2042
    1TCq1    C714290   1.026   1.314  12.616  0.2630 -0.5123 -0.5865
    1TCq1    C814291   1.261   1.339  12.642 -0.0040 -0.2607 -0.5489
    1TCq1    O414292   1.265   1.397  12.531  0.6137 -0.7478  0.3314
    1TCq1    C914293   0.995   1.007  12.892  0.0759 -0.0654 -0.0498
    1TCq1    O514294   0.893   0.940  12.889 -0.3469  0.0830 -0.0777
    1TCq1    O614295   1.067   1.014  12.999  0.1180  0.3495 -0.0422
    1TCq1    H114296   0.691   1.235  12.697  3.6825 -2.8927 -0.1307
    1TCq1    H214297   0.812   1.079  12.725  0.3094  0.1210  0.4949
    1TCq1    H314298   1.216   1.142  12.832  0.1894 -3.1468 -2.7723
    1TCq1    H414299   1.029   1.393  12.541 -0.6776 -0.0915 -0.1699
    2MPD2     C14300   1.524   1.482  12.651 -0.5121  0.0076 -0.2953
    2MPD2    C114301   1.468   1.420  12.764  1.3909  0.9609  0.6648
    2MPD2    C214302   1.539   1.418  12.880 -0.4834  0.2638 -0.4773
    2MPD2    C314303   1.660   1.483  12.887  0.4909  0.0048 -0.0678
    2MPD2    C414304   1.716   1.548  12.778 -0.0056 -0.1388 -0.4016
    2MPD2    C514305   1.645   1.554  12.662 -0.4931  0.0086 -0.4366
    2MPD2     H14306   1.508   1.367  12.970  1.4358  0.1816  0.1261
    2MPD2    H114307   1.810   1.601  12.772 -0.3690  0.6693  1.1678
    2MPD2    H214308   1.476   1.473  12.554 -2.4647 -0.0418  0.6786
    2MPD2    H314309   1.677   1.614  12.577  2.2020  0.2127  0.7322
    2MPD2     N14310   1.730   1.467  13.011  0.5238  0.2608  0.0861
    2MPD2    H514311   1.688   1.412  13.085 -0.4942 -1.8636 -2.0812
    2MPD2    N114312   1.341   1.352  12.754  0.2320 -0.4706  0.0600
    2MPD2    H714313   1.318   1.302  12.840  2.9725 -1.6061  0.1538
    3TCq1    O114314   1.702   1.740  13.551 -0.5988 -0.3310 -0.3513
    3TCq1    C114315   1.661   1.652  13.460  0.2016  0.1077  0.0720
    3TCq1    O214316   1.543   1.616  13.442  0.0468 -0.2916  0.1194
    3TCq1    C214317   1.778   1.603  13.383 -0.0955 -0.4676 -0.8510
    3TCq1    C314318   1.899   1.576  13.444 -0.4258  0.7639  0.3087
    3TCq1    C414319   2.005   1.538  13.366 -0.1692  0.2075 -0.2825
    3TCq1    C514320   1.994   1.525  13.229  0.1685  0.0773  0.8668
    3TCq1    C614321   1.870   1.538  13.181 -0.8068 -1.1865  0.6060
    3TCq1    C714322   1.761   1.582  13.251  0.0238 -0.0506 -0.3978
    3TCq1    C814323   1.854   1.523  13.042 -0.4187  0.4450 -0.9520
    3TCq1    O414324   1.937   1.574  12.968  0.5800 -0.2444  0.5264
    3TCq1    C914325   2.126   1.506  13.438  0.1892 -0.1162 -0.6705
    3TCq1    O514326   2.228   1.490  13.367  0.3230  0.9167  0.4614
    3TCq1    O614327   2.125   1.552  13.557  0.1431 -0.2604 -0.1005
    3TCq1    H114328   1.794   1.770  13.534 -1.0040  0.2110 -1.5918
    3TCq1    H214329   1.899   1.568  13.552  0.7919  3.1117  0.4794
    3TCq1    H314330   2.077   1.485  13.171  0.6873  0.8743  1.0655
    3TCq1    H414331   1.663   1.582  13.205 -0.0331 -1.9503 -0.2672
    1MPD2     C14332   0.907   1.331  14.525  0.3891  0.2541  0.4262
    1MPD2    C114333   0.935   1.333  14.660  0.2308 -0.2878  0.7145
    1MPD2    C214334   1.069   1.319  14.705 -0.4203  0.3091  0.2322
    1MPD2    C314335   1.169   1.294  14.618 -0.0942  0.5701  0.1840
    1MPD2    C414336   1.141   1.286  14.484  0.4083 -0.1449  0.1703
    1MPD2    C514337   1.016   1.309  14.441  0.5121 -0.5999  0.2548
    1MPD2     H14338   1.078   1.331  14.812  1.7929 -0.7806  0.1696
    1MPD2    H114339   1.214   1.281  14.404  0.0480 -2.7765  0.0184
    1MPD2    H214340   0.806   1.341  14.489  0.3636  1.0882  0.7251
    1MPD2    H314341   1.002   1.309  14.333  1.1564 -0.6843  0.1700
    1MPD2     N14342   1.304   1.287  14.655  0.7049 -0.0530 -0.0134
    1MPD2    H514343   1.372   1.255  14.586 -1.0245  0.2675 -1.8681
    1MPD2    N114344   0.830   1.366  14.747  0.0898  0.9916 -0.4701
    1MPD2    H714345   0.741   1.374  14.699 -1.3304  0.7602  2.0717
    2TMC3    C114346   0.724   1.433  14.941 -0.3660 -0.2118 -0.3197
    2TMC3    C214347   0.747   1.461  15.074 -0.5757  0.1316 -0.1058
    2TMC3    C314348   0.729   1.588  15.124 -0.0105 -0.1257 -0.9660
    2TMC3    C414349   0.650   1.516  14.870  0.2531  0.7025  0.0323
    2TMC3    C514350   0.625   1.637  14.924  0.3445 -0.7351  0.0424
    2TMC3    C614351   0.660   1.677  15.049  0.3677 -0.2096  0.5913
    2TMC3     C14352   0.830   1.361  14.884  0.2820  0.4675  0.0815
    2TMC3     O14353   0.919   1.322  14.957 -0.4353 -0.2366  0.0126
    2TMC3     H14354   0.788   1.384  15.138  0.5754  2.0358  1.4262
    2TMC3    H114355   0.615   1.491  14.770  0.1124  0.4719  0.1382
    2TMC3    H214356   0.654   1.780  15.084 -1.0632 -0.5727  1.4330
    2TMC3    C714357   0.583   1.728  14.820  0.0287  0.8160  0.4109
    2TMC3    C814358   0.830   1.635  15.211  0.3514 -0.1996  1.0652
    2TMC3    O114359   0.493   1.698  14.748  0.1453  0.5114 -0.2312
    2TMC3    O214360   0.810   1.751  15.242  0.7766  0.0679  0.1139
    3TCq1    O114361   1.354   2.555  14.178 -0.2475  0.3036  0.5426
    3TCq1    C114362   1.275   2.443  14.166  0.1323  0.0945  1.1661
    3TCq1    O214363   1.200   2.420  14.068  0.1189  0.0872 -0.2769
    3TCq1    C214364   1.236   2.387  14.292 -0.6961 -0.0815 -0.6709
    3TCq1    C314365   1.332   2.366  14.383 -0.0406  0.1774 -0.0233
    3TCq1    C414366   1.302   2.281  14.485  0.2300  0.8009 -0.2115
    3TCq1    C514367   1.177   2.242  14.511  0.0883 -0.2047  0.8309
    3TCq1    C614368   1.084   2.254  14.411 -0.6411  0.3467 -0.3356
    3TCq1    C714369   1.112   2.336  14.307 -0.3208 -0.2434  0.5450
    3TCq1    C814370   0.939   2.228  14.434 -0.6749 -0.3736 -0.0367
    3TCq1    O414371   0.863   2.262  14.342 -0.1400 -1.1150 -0.1529
    3TCq1    C914372   1.401   2.257  14.582 -0.2381 -0.0548 -0.1231
    3TCq1    O514373   1.395   2.156  14.651 -0.0830  0.2721 -0.6469
    3TCq1    O614374   1.500   2.327  14.566  0.3278  0.5934 -0.1939
    3TCq1    H114375   1.384   2.563  14.271  4.2168 -2.4549 -0.6321
    3TCq1    H214376   1.435   2.400  14.370 -1.2380  3.3946 -1.0243
    3TCq1    H314377   1.163   2.170  14.590 -1.1288 -0.0798  0.7293
    3TCq1    H414378   1.036   2.362  14.234  1.0743 -0.7390 -1.0875
    4MPD2     C14379   0.654   2.140  14.526  0.4279 -0.5504 -0.2407
    4MPD2    C114380   0.777   2.099  14.577 -0.5487 -0.1541 -0.0586
    4MPD2    C214381   0.770   2.006  14.678 -0.6249 -0.4717  0.5337
    4MPD2    C314382   0.655   1.940  14.720  0.4517 -0.5149 -0.5205
    4MPD2    C414383   0.534   1.971  14.657  0.0602  0.0180 -0.3189
    4MPD2    C514384   0.538   2.078  14.563  0.3848  0.7356 -0.1353
    4MPD2     H14385   0.862   1.979  14.730 -0.1933  1.1430  0.6180
    4MPD2    H114386   0.445   1.913  14.679  1.4547 -2.2723 -0.6393
    4MPD2    H214387   0.654   2.216  14.449 -1.9965 -0.6012 -0.2758
    4MPD2    H314388   0.446   2.113  14.519 -0.8404 -1.6504  0.5358
    4MPD2     N14389   0.672   1.829  14.807 -0.2414  0.2361 -0.0753
    4MPD2    H514390   0.755   1.808  14.862 -0.7774 -0.0169  0.6403
    4MPD2    N114391   0.904   2.157  14.546  0.2586 -0.4300 -0.2089
    4MPD2    H714392   0.979   2.126  14.607 -0.5982 -0.2811  0.9312
    5TMC2    C114393   1.606   1.488  14.949  0.1954  0.1643  0.5376
    5TMC2    C214394   1.659   1.564  14.846  0.1664 -0.7644  0.2146
    5TMC2    C314395   1.622   1.534  14.716  0.1208  1.1660  1.1321
    5TMC2    C414396   1.523   1.384  14.925 -0.4328  0.3394  0.2360
    5TMC2    C514397   1.494   1.350  14.801 -0.3077 -0.4915  0.0958
    5TMC2    C614398   1.537   1.433  14.696  0.0914  0.6411 -0.3656
    5TMC2     C14399   1.552   1.570  15.049  0.2020  0.4844 -0.0654
    5TMC2     O14400   1.603   1.675  15.093  0.6661 -0.2534  0.1007
    5TMC2     H14401   1.731   1.644  14.854 -0.8910  0.1445  0.6316
    5TMC2    H114402   1.489   1.327  15.011  0.9339 -2.0732 -0.8241
    5TMC2    H214403   1.504   1.408  14.596 -0.4702 -0.1596  0.0155
    5TMC2    C714404   1.355   1.315  14.782  0.1514  0.0322  1.2178
    5TMC2    C814405   1.700   1.581  14.602  1.3682  0.0470 -0.0279
    5TMC2    O114406   1.291   1.329  14.886 -0.9102 -0.3796  0.5084
    5TMC2    O214407   1.782   1.506  14.548  0.2214 -0.8566  0.0564
    5TMC2    O514408   1.723   1.712  14.629 -0.4101 -0.1385 -0.4091
    5TMC2    H514409   1.668   1.754  14.699 -0.4233 -1.3563  0.3184
    6MPD2     C14410   1.106   1.754  15.260 -0.5792 -0.1804  0.4259
    6MPD2    C114411   1.078   1.637  15.190 -0.0193 -0.2184 -1.1215
    6MPD2    C214412   1.188   1.570  15.132  0.0786 -0.3561 -0.1831
    6MPD2    C314413   1.317   1.613  15.140  0.3187  1.6202  0.0419
    6MPD2    C414414   1.342   1.728  15.206  0.4203 -0.0756 -0.4139
    6MPD2    C514415   1.238   1.804  15.259 -0.2057 -0.3656 -0.6864
    6MPD2     H14416   1.147   1.485  15.079  0.0286  0.1760 -1.0020
    6MPD2    H114417   1.443   1.764  15.223  0.3705 -0.4021  0.5918
    6MPD2    H214418   1.024   1.799  15.315 -0.7770  1.5635 -1.2705
    6MPD2    H314419   1.260   1.899  15.305 -0.7617 -0.4392 -0.2818
    6MPD2     N14420   1.411   1.535  15.066  0.2445  0.2162 -0.2382
    6MPD2    H514421   1.380   1.445  15.031 -1.5119 -0.4616  3.0920
    6MPD2    N114422   0.947   1.578  15.182  0.0689  0.0002  0.3153
    6MPD2    H714423   0.939   1.486  15.141 -1.0857 -0.1023  0.7527
  945NH4     N114424   1.109   3.027  14.423  0.1981 -0.2131 -0.2721
  945NH4     H214425   1.186   3.084  14.464  1.0203 -0.6137 -1.2642
  945NH4     H314426   1.037   3.085  14.377 -0.3599 -2.8440 -2.7476
  945NH4     H414427   1.068   2.968  14.498 -0.7377  0.2206 -0.4477
  945NH4     H514428   1.152   2.964  14.352 -0.1428 -1.3357  0.5199
  946SOD     NA14429   1.752   0.720  10.787 -0.5524 -0.4323  0.5070
  947SOD     NA14430   3.656   2.316  15.051  0.0382 -0.1479 -0.3218
  948SOD     NA14431   2.462   3.095  12.298  0.0298  0.1247 -0.5607
  949SOD     NA14432   2.639   3.071   4.104  0.0377 -0.4614  0.0248
  950SOD     NA14433   0.701   1.582  10.706 -0.4044 -0.2849  0.6551
  951SOD     NA14434   3.158   1.626   2.329  0.0041 -0.1683 -0.0579
  952SOD     NA14435   2.092   3.695   4.629 -0.0855  0.1313 -0.3132
  953SOD     NA14436   1.916   1.446  11.610  0.1441 -0.2668  0.5963
  954SOD     NA14437   2.087   1.167  11.523 -0.1095 -0.1126  0.1521
  955SOD     NA14438   3.642   4.381   1.743 -0.0715  0.0427  0.0264
  956SOD     NA14439   4.027   0.425  12.972 -0.2532 -0.2052  0.2600
  957SOD     NA14440   1.889   3.851  11.988 -0.3753  0.2595  0.0493
  958SOD     NA14441   2.855   2.198  16.413 -0.0231 -0.1892 -0.4485
  959SOD     NA14442   0.432   4.270  11.345 -0.0944  0.5514 -0.0165
  960SOD     NA14443   3.552   2.083  14.517 -0.4643 -0.1969 -0.0367
  961SOD     NA14444   0.440   3.184   1.888  0.1769  0.2898  0.2508
  962SOD     NA14445   0.640   3.579   9.398 -0.3885  0.2517 -0.3645
  963SOD     NA14446   4.102   0.027   2.226 -0.2559  0.0698  0.0183
  964SOD     NA14447   1.700   4.516  11.682  0.1179  0.2322  0.0120
  965SOD     NA14448   2.820   0.475   0.326 -0.2848 -0.2554  0.2541
  966SOD     NA14449   0.321   2.356  10.679 -0.0484  0.2806 -0.2507
  967SOD     NA14450   0.907   3.168  13.793 -0.0281  0.1464 -0.1478
  968SOD     NA14451   3.996   0.814  11.902  0.2656 -0.1241  0.3820
  969SOD     NA14452   1.764   1.812  15.188  0.4729  0.3043  0.5084
  970SOD     NA14453   4.406   1.004   2.860  0.3481  0.5135 -0.0258
  971SOD     NA14454   3.409   0.873  13.130  0.1711  0.1015  0.6381
  972SOD     NA14455   3.799   0.275  14.235 -0.0747 -0.2395  0.3516
  973SOD     NA14456   2.443   1.273  13.761  0.6218  0.5354  0.0148
  974SOD     NA14457   1.338   1.405  12.294 -0.3286 -0.0829 -0.2262
  975SOD     NA14458   0.098   1.780   5.325  0.2370 -0.0856  0.5703
  976SOD     NA14459   3.707   2.689  13.183  0.2891  0.0427 -0.3507
  977SOD     NA14460   3.826   2.324  15.848  0.5149 -0.6562 -0.0071
  978SOD     NA14461   1.776   1.215  11.371 -0.2599 -0.0973  0.2753
  979SOD     NA14462   2.251   1.382  12.780  0.7002 -0.2294 -0.3754
  980SOD     NA14463   2.345   1.903  14.275 -0.0509  0.3365 -0.0453
  981SOD     NA14464   4.494   1.537  10.292 -0.2385 -0.5996  0.4356
  982SOD     NA14465   0.644   4.119  11.002 -0.3583  0.1253 -0.3072
  983SOD     NA14466   1.597   0.597   5.467 -0.1443  0.2170 -0.3568
  984SOD     NA14467   0.843   0.814  10.503  0.6398  0.2200  0.2235
  985SOD     NA14468   1.500   0.729  10.320  0.3888 -0.3026 -0.1652
  986SOD     NA14469   2.883   1.519  14.739 -0.4530  0.2235  0.0858
  987SOD     NA14470   2.011   0.805  16.933  0.2901 -0.1539  0.1264
  988SOD     NA14471   0.479   3.558   8.556 -0.1681  0.2283 -0.3347
  989SOD     NA14472   4.331   2.035   0.619 -0.0140  0.5634  0.2947
  990SOD     NA14473   3.127   0.327   9.390 -0.0833  0.4938 -0.4367
  991SOD     NA14474   1.807   2.530  14.696 -0.5699  0.6056  0.5667
  992SOD     NA14475   0.961   0.861  13.112 -0.4166  0.2558  0.2648
  993SOD     NA14476   2.521   1.543  14.249 -0.4207  0.0880  0.1254
  994SOD     NA14477   1.430   1.945  14.667  0.2542  0.0773 -0.0275
  995SOD     NA14478   0.487   3.269   2.880 -0.6987  0.1178 -0.0646
  996SOD     NA14479   0.685   0.915  12.934  0.4867  0.6503  0.4428
  997SOD     NA14480   3.046   4.314  17.119  0.3140 -0.2158 -0.4601
  998SOD     NA14481   1.956   1.779  11.605 -0.3103 -0.1378 -0.1915
  999SOD     NA14482   0.815   4.694  11.168  0.5287 -0.0173  0.2980
 1000SOD     NA14483   0.122   0.328  13.926 -0.1068  0.6293 -0.3454
 1001SOD     NA14484   2.818   2.784  13.243 -0.3898 -0.1770  0.0042
 1002SOD     NA14485   0.662   1.218  10.696 -0.3824  0.2418  0.0426
 1003SOD     NA14486   2.072   1.266   0.324  0.1479 -0.6649 -0.3264
 1004SOD     NA14487   0.263   2.328   0.695  0.0641 -0.1250 -0.1451
 1005SOD     NA14488   0.271   0.018   9.221  0.3989 -0.4004  0.6051
 1006SOD     NA14489   0.144   1.245   9.090  0.0617  0.5557  0.1442
 1007SOD     NA14490   0.715   3.053   1.948  0.0259 -0.1436  0.2383
 1008SOD     NA14491   3.694   4.287   1.035 -0.4062 -0.0912 -0.6859
 1009SOD     NA14492   2.045   2.936  11.740 -0.1001 -0.1387  0.3849
 1010SOD     NA14493   1.201   2.967   1.913  0.1881 -0.5242  0.3791
 1011SOL     OW14494   2.731   0.249   6.135  0.4620  0.0568 -0.5356
 1011SOL    HW114495   2.806   0.234   6.192  0.8283  1.5378 -0.6250
 1011SOL    HW214496   2.736   0.185   6.064  1.5915 -1.8876  1.3040
 1012SOL     OW14497   4.594   0.104  16.243 -0.3201 -0.1379  0.0907
 1012SOL    HW114498   4.595   0.185  16.191 -3.4485  0.3715  0.8281
 1012SOL    HW214499   4.510   0.100  16.288 -0.9284  0.5626 -0.9939
 1013SOL     OW14500   2.880   4.188   2.898 -0.7682  0.4086 -0.1796
 1013SOL    HW114501   2.804   4.244   2.909  1.3663  2.6348  3.1705
 1013SOL    HW214502   2.937   4.258   2.866 -0.5805  0.2638 -0.1633
 1014SOL     OW14503   4.041   4.481   0.767 -0.2448 -0.4899 -0.5249
 1014SOL    HW114504   4.023   4.457   0.676 -1.7216 -0.0626 -0.3458
 1014SOL    HW214505   3.955   4.509   0.798  0.3049  2.5466 -1.8451
 1015SOL     OW14506   2.760   2.061   7.163 -0.2999  0.0767 -0.4239
 1015SOL    HW114507   2.768   2.127   7.095  1.4488 -0.7297 -1.0073
 1015SOL    HW214508   2.787   1.989   7.106 -0.9124 -0.0187 -0.5972
 1016SOL     OW14509   0.142   3.809   0.157 -0.2720  0.1921 -0.2625
 1016SOL    HW114510   0.059   3.762   0.157 -0.5456  0.6659 -0.3767
 1016SOL    HW214511   0.126   3.879   0.093  1.9073 -0.2899 -1.3526
 1017SOL     OW14512   0.299   2.110  10.895  0.3968  0.3473  0.5126
 1017SOL    HW114513   0.368   2.157  10.943  0.4670 -0.7425  1.4768
 1017SOL    HW214514   0.237   2.182  10.886  0.2002 -0.0675 -1.5202
 1018SOL     OW14515   2.299   1.235   6.730 -0.1695  0.2088  0.1120
 1018SOL    HW114516   2.267   1.146   6.744  0.1008  0.1703  0.4951
 1018SOL    HW214517   2.214   1.279   6.724 -0.1741  0.0678 -0.8342
 1019SOL     OW14518   1.437   3.113   2.629 -0.2038  0.0781 -0.4253
 1019SOL    HW114519   1.363   3.060   2.598 -2.0604  3.4987 -1.7996
 1019SOL    HW214520   1.395   3.198   2.629  1.2646  0.8074  0.4682
 1020SOL     OW14521   0.803   2.180   5.932  0.0961 -0.0614  0.3426
 1020SOL    HW114522   0.707   2.173   5.929  0.2681 -1.3440 -2.2202
 1020SOL    HW214523   0.814   2.218   5.845  0.7963  0.3922  0.6269
 1021SOL     OW14524   1.390   4.687  16.091  0.2302  0.1075 -0.2534
 1021SOL    HW114525   1.442   4.708  16.014 -0.2327 -2.4781 -1.2558
 1021SOL    HW214526   1.341   0.044  16.087  1.2038  0.5979 -2.0082
 1022SOL     OW14527   0.189   4.205  10.554  0.2099 -0.0699 -0.2314
 1022SOL    HW114528   0.277   4.194  10.589  0.3114 -0.7373 -0.6778
 1022SOL    HW214529   0.191   4.296  10.525  0.8346 -0.5327 -1.6605
 1023SOL     OW14530   1.114   3.652  14.617  0.1177 -0.0298 -0.4266
 1023SOL    HW114531   1.148   3.666  14.705 -1.9022  1.2954  0.1550
 1023SOL    HW214532   1.031   3.699  14.628  0.5189  0.4443  0.5444
 1024SOL     OW14533   1.492   0.334   8.439 -0.0039 -0.4546 -0.1570
 1024SOL    HW114534   1.508   0.417   8.394 -2.0988 -0.1918 -0.4369
 1024SOL    HW214535   1.409   0.307   8.399  1.1811 -0.1948 -2.7669
 1025SOL     OW14536   3.708   3.258  15.696 -0.2781 -0.2671 -0.2571
 1025SOL    HW114537   3.723   3.287  15.606 -2.1116  1.1156 -0.1325
 1025SOL    HW214538   3.799   3.255  15.723 -0.1159  0.5340 -0.7225
 1026SOL     OW14539   0.590   0.324   6.837 -0.4881 -0.2596 -0.5636
 1026SOL    HW114540   0.619   0.290   6.922 -2.0006 -0.0398  0.0488
 1026SOL    HW214541   0.589   0.413   6.871  0.3020 -0.8562  1.0531
 1027SOL     OW14542   2.722   3.456  17.448  0.2250  0.0763 -0.2369
 1027SOL    HW114543   2.697   3.371  17.485  1.1218 -0.1153 -0.0795
 1027SOL    HW214544   2.720   3.505  17.530 -2.3528  1.8733 -1.3783
 1028SOL     OW14545   1.145   4.386   7.956 -0.5206 -0.4255 -0.5649
 1028SOL    HW114546   1.104   4.310   7.999  0.8711 -0.8815 -0.0369
 1028SOL    HW214547   1.105   4.458   8.004 -0.7294 -0.4827 -0.6539
 1029SOL     OW14548   0.079   3.284   8.951  0.3942  0.0319  0.1572
 1029SOL    HW114549   0.091   3.258   8.860  2.0381  2.3202 -0.2828
 1029SOL    HW214550   0.050   3.202   8.992 -0.1810 -0.6371 -1.6065
 1030SOL     OW14551   3.979   2.751   4.525 -0.0460  0.3836  0.0668
 1030SOL    HW114552   3.939   2.664   4.529  0.4647  0.0990 -0.8851
 1030SOL    HW214553   4.002   2.767   4.434 -0.3257 -1.5731 -0.3547
 1031SOL     OW14554   1.083   0.389   8.912  0.1350  0.2426  0.0963
 1031SOL    HW114555   1.056   0.477   8.937  0.4443 -0.2548  2.2068
 1031SOL    HW214556   1.041   0.331   8.976  1.8794 -0.3822  0.6755
 1032SOL     OW14557   0.518   2.395  10.501 -0.6938  0.4627  0.3976
 1032SOL    HW114558   0.604   2.368  10.470 -0.8688  0.1198  0.2127
 1032SOL    HW214559   0.512   2.479  10.455  0.1994  0.9552  1.1834
 1033SOL     OW14560   1.592   0.830   2.736 -0.3103 -0.3264  0.3024
 1033SOL    HW114561   1.677   0.799   2.704 -1.0718 -2.2899  0.1899
 1033SOL    HW214562   1.629   0.883   2.807 -0.3787 -0.8700  0.7450
 1034SOL     OW14563   1.636   1.721   6.297 -0.0798 -0.3359  0.6379
 1034SOL    HW114564   1.598   1.751   6.379 -0.3631  0.4090  0.2321
 1034SOL    HW214565   1.629   1.627   6.314 -1.7274 -0.4089 -0.4119
 1035SOL     OW14566   0.042   1.838  15.914  0.7829 -0.3878  0.5834
 1035SOL    HW114567   0.105   1.894  15.870  0.8187 -0.5100  0.4782
 1035SOL    HW214568   0.014   1.894  15.986 -0.6419  0.0094 -0.2791
 1036SOL     OW14569   2.565   3.238   7.923  0.0434 -0.1262  0.5698
 1036SOL    HW114570   2.516   3.158   7.908 -0.6015  0.8547 -2.5007
 1036SOL    HW214571   2.505   3.306   7.955 -2.4930 -1.4857 -1.3238
 1037SOL     OW14572   0.398   0.751   5.905 -0.4775 -0.3811 -0.1308
 1037SOL    HW114573   0.416   0.767   5.998 -0.1420 -0.7810 -0.1260
 1037SOL    HW214574   0.465   0.683   5.900  1.1607  1.2911 -1.0424
 1038SOL     OW14575   4.184   2.755  14.684  0.5097 -0.1772 -0.7183
 1038SOL    HW114576   4.148   2.731  14.770 -1.4921  0.0442 -1.5086
 1038SOL    HW214577   4.114   2.803  14.641  0.5060  2.8889  2.6105
 1039SOL     OW14578   3.552   2.408   9.143  0.0099  0.2586  0.2378
 1039SOL    HW114579   3.601   2.374   9.218 -1.3097  0.3897  1.1540
 1039SOL    HW214580   3.600   2.361   9.075 -0.5614 -0.5557  0.4025
 1040SOL     OW14581   2.339   3.090   9.984 -0.5500 -0.3994  0.5423
 1040SOL    HW114582   2.288   3.072   9.905 -1.0704  1.1037  0.5344
 1040SOL    HW214583   2.425   3.048   9.973 -0.7834 -0.1531 -2.2850
 1041SOL     OW14584   2.788   0.961   8.620  0.4403  0.5875  0.3302
 1041SOL    HW114585   2.700   0.924   8.615 -0.0218  1.8815 -0.8824
 1041SOL    HW214586   2.826   0.880   8.655 -2.5408 -0.8724  0.1624
 1042SOL     OW14587   3.277   2.734  12.639 -0.1468  0.3097  0.4931
 1042SOL    HW114588   3.221   2.665  12.675 -2.4643  1.2103 -1.3702
 1042SOL    HW214589   3.364   2.704  12.661 -0.5112 -1.6281 -0.7355
 1043SOL     OW14590   3.753   3.531  16.730  0.1503  0.1478  0.0763
 1043SOL    HW114591   3.738   3.567  16.643 -1.3813 -1.6444 -0.4026
 1043SOL    HW214592   3.831   3.476  16.718  0.6312  0.3453  2.3571
 1044SOL     OW14593   2.338   2.195   0.849  0.0079 -0.0777 -0.3000
 1044SOL    HW114594   2.323   2.278   0.804 -0.4734  0.0239  0.0496
 1044SOL    HW214595   2.431   2.190   0.828 -0.0503 -1.1815 -0.3142
 1045SOL     OW14596   1.440   2.099   3.582  0.0853  0.2277  0.3580
 1045SOL    HW114597   1.351   2.123   3.609  0.1154  0.2113  0.4761
 1045SOL    HW214598   1.466   2.189   3.567 -0.5729  0.6693  1.8760
 1046SOL     OW14599   3.604   1.456   6.088 -0.0059  0.0342 -0.9766
 1046SOL    HW114600   3.527   1.399   6.087  2.1210 -2.9124  0.4014
 1046SOL    HW214601   3.665   1.397   6.134 -0.9478 -0.3629 -0.2452
 1047SOL     OW14602   3.034   3.459  13.418  0.4223 -0.3453 -0.2303
 1047SOL    HW114603   3.042   3.376  13.373  1.1374 -0.0164 -0.7082
 1047SOL    HW214604   3.116   3.504  13.396  0.1423  1.3493  2.1661
 1048SOL     OW14605   0.471   4.421  12.866 -0.3832 -0.0389 -0.3160
 1048SOL    HW114606   0.424   4.349  12.825  0.0940  0.5955 -1.9819
 1048SOL    HW214607   0.399   4.466  12.910 -0.1321 -2.4329  2.5680
 1049SOL     OW14608   0.652   2.300   3.668  0.1266  0.3322 -0.0151
 1049SOL    HW114609   0.579   2.304   3.730  2.0651 -1.7349  2.4025
 1049SOL    HW214610   0.618   2.245   3.597 -1.2306  0.4617  0.5430
 1050SOL     OW14611   3.454   4.353   4.344 -0.7994 -0.2136  0.3120
 1050SOL    HW114612   3.514   4.322   4.277  0.0447  0.3160  0.8261
 1050SOL    HW214613   3.389   4.394   4.287 -1.2190  0.7983  1.5164
 1051SOL     OW14614   0.323   2.534   6.496 -0.6504  0.0962  0.0576
 1051SOL    HW114615   0.265   2.605   6.469  0.0737  0.4221 -0.6323
 1051SOL    HW214616   0.270   2.489   6.562  0.0327  2.2748  2.0900
 1052SOL     OW14617   0.159   3.852   5.679  0.0842 -0.0761  0.4133
 1052SOL    HW114618   0.095   3.796   5.634  0.0417  0.1285  0.2209
 1052SOL    HW214619   0.241   3.813   5.648 -0.0049 -1.3444  1.7919
 1053SOL     OW14620   1.647   0.238   3.789  0.0678  0.8733  0.2079
 1053SOL    HW114621   1.666   0.234   3.696  0.5659 -5.7318  0.6159
 1053SOL    HW214622   1.555   0.213   3.806 -0.0037  0.8223 -0.2711
 1054SOL     OW14623   3.973   2.462   7.581  0.0410 -0.1910 -0.0403
 1054SOL    HW114624   3.975   2.397   7.511  0.2380  0.6901 -0.8621
 1054SOL    HW214625   3.945   2.540   7.533 -1.9337 -0.7691  0.2166
 1055SOL     OW14626   0.913   0.760   6.856 -0.6292 -0.5905 -0.0656
 1055SOL    HW114627   0.830   0.781   6.815 -0.9386  3.2903  2.5271
 1055SOL    HW214628   0.934   0.677   6.814 -1.2594  0.3153 -2.1384
 1056SOL     OW14629   1.412   0.492   7.539  0.4281 -0.3461  0.1392
 1056SOL    HW114630   1.452   0.551   7.602 -0.8096 -1.6547  2.1710
 1056SOL    HW214631   1.319   0.507   7.557  1.0514  2.0595  1.3326
 1057SOL     OW14632   1.188   0.566   5.733 -0.2640  0.4300  0.4540
 1057SOL    HW114633   1.203   0.639   5.674 -1.6618  0.2138 -0.1669
 1057SOL    HW214634   1.148   0.601   5.813 -1.5487  0.7155 -0.3118
 1058SOL     OW14635   1.613   3.252   4.736  0.4752 -0.8706  0.4135
 1058SOL    HW114636   1.551   3.319   4.764  0.7236  0.2682 -1.7629
 1058SOL    HW214637   1.565   3.218   4.660 -0.7542 -2.0659  1.7149
 1059SOL     OW14638   3.166   2.503   9.832  0.0741 -0.1411 -0.3955
 1059SOL    HW114639   3.096   2.466   9.779 -0.7413 -0.5079  0.9374
 1059SOL    HW214640   3.241   2.490   9.773  0.7205 -0.3820  0.4767
 1060SOL     OW14641   3.882   3.600   6.431  0.0752  0.4201 -0.2119
 1060SOL    HW114642   3.791   3.629   6.425 -0.1276  0.1871  1.8079
 1060SOL    HW214643   3.927   3.680   6.460  1.9220  0.0177 -1.9639
 1061SOL     OW14644   0.571   1.690   6.062 -0.0249  0.0543 -0.1017
 1061SOL    HW114645   0.579   1.711   6.155 -2.1735  0.6198 -0.0332
 1061SOL    HW214646   0.500   1.627   6.045  0.4415 -0.0775 -1.5388
 1062SOL     OW14647   0.404   0.099   8.569 -0.2306 -0.1850  0.0887
 1062SOL    HW114648   0.468   0.028   8.576 -0.4515 -0.4049 -0.0964
 1062SOL    HW214649   0.401   0.113   8.474 -0.6120  1.8739  0.4064
 1063SOL     OW14650   3.240   3.344   5.436 -0.1587  0.4819  0.3329
 1063SOL    HW114651   3.231   3.428   5.390  1.0967 -1.2675 -3.1231
 1063SOL    HW214652   3.171   3.300   5.386  0.0623 -0.5405  0.9482
 1064SOL     OW14653   3.383   1.937   7.576 -0.4133  0.0680 -0.1716
 1064SOL    HW114654   3.445   2.002   7.544  1.9398 -1.5346  1.1462
 1064SOL    HW214655   3.304   1.963   7.529  0.0257 -1.3062 -1.6909
 1065SOL     OW14656   3.273   2.192   8.907  0.0018  0.0930  0.0419
 1065SOL    HW114657   3.343   2.129   8.889  0.7471  1.1489 -0.7812
 1065SOL    HW214658   3.300   2.220   8.995 -1.3260 -0.4884  0.6409
 1066SOL     OW14659   3.599   3.990  11.177  0.2037 -0.3929  0.3468
 1066SOL    HW114660   3.542   3.993  11.254  0.4918 -1.5791  0.6105
 1066SOL    HW214661   3.686   3.978  11.214  1.1217  0.4883 -1.5877
 1067SOL     OW14662   1.055   0.495   3.501 -0.4923 -0.0664 -0.2089
 1067SOL    HW114663   1.131   0.437   3.498 -1.7015 -1.7748  2.1277
 1067SOL    HW214664   1.078   0.574   3.454  0.0680 -0.1887 -0.1363
 1068SOL     OW14665   1.798   2.489  11.142  0.4705 -0.1046 -0.0620
 1068SOL    HW114666   1.786   2.546  11.066  1.5614 -0.9565 -0.8770
 1068SOL    HW214667   1.885   2.452  11.124 -0.0399 -1.4316  0.1529
 1069SOL     OW14668   1.405   0.381   5.759  0.2681 -1.0018 -0.4385
 1069SOL    HW114669   1.398   0.395   5.854  0.9087 -0.4234 -0.4835
 1069SOL    HW214670   1.327   0.428   5.728  0.4611  0.5614  1.4243
 1070SOL     OW14671   3.156   2.608   5.285 -0.1370  0.1122 -0.2486
 1070SOL    HW114672   3.243   2.648   5.282  0.5540 -1.3513  0.0374
 1070SOL    HW214673   3.146   2.573   5.196 -2.4277 -1.3533  0.5891
 1071SOL     OW14674   2.297   0.622  12.086 -0.4111 -0.4084 -0.7175
 1071SOL    HW114675   2.260   0.696  12.038 -0.5512  0.2604  0.4226
 1071SOL    HW214676   2.213   0.602  12.128  0.0659 -1.7646 -0.4259
 1072SOL     OW14677   3.676   1.810   7.463  0.3331  0.4680  0.3027
 1072SOL    HW114678   3.675   1.757   7.383 -1.6294  2.0473 -0.7337
 1072SOL    HW214679   3.709   1.754   7.533 -0.6343 -1.3894 -0.7075
 1073SOL     OW14680   2.104   1.748   2.903 -0.0279 -0.2974  0.0222
 1073SOL    HW114681   2.192   1.728   2.869 -0.7983 -2.2285 -0.8189
 1073SOL    HW214682   2.118   1.742   2.997  2.4683 -0.9566 -0.3756
 1074SOL     OW14683   3.166   3.694  14.621  0.0918  0.3604 -0.5193
 1074SOL    HW114684   3.103   3.623  14.629  2.8016 -2.0775 -0.8605
 1074SOL    HW214685   3.240   3.652  14.577 -1.4158 -1.6347 -1.1477
 1075SOL     OW14686   4.235   4.300   7.745  0.0760 -0.2198  0.5678
 1075SOL    HW114687   4.153   4.334   7.710 -1.7751 -3.7925  1.4320
 1075SOL    HW214688   4.287   4.275   7.669 -1.0464  2.2487 -0.9734
 1076SOL     OW14689   2.154   1.143  13.067  0.2348  0.7424 -0.4363
 1076SOL    HW114690   2.164   1.146  12.972  0.0530 -0.8246 -0.5188
 1076SOL    HW214691   2.065   1.111  13.081  1.0817 -2.1852 -1.7152
 1077SOL     OW14692   0.700   3.084   4.540 -0.1762  0.2579  0.4832
 1077SOL    HW114693   0.681   3.175   4.518  1.4976  0.6363  0.6084
 1077SOL    HW214694   0.661   3.085   4.627  0.4282 -0.4942  0.7588
 1078SOL     OW14695   3.767   1.865   1.154 -0.1470 -0.0369 -0.1427
 1078SOL    HW114696   3.760   1.813   1.074  2.5853  1.6762 -1.4958
 1078SOL    HW214697   3.704   1.822   1.211  0.9478  0.8762  1.7756
 1079SOL     OW14698   2.545   3.513  14.619  0.3222  0.3306  0.3615
 1079SOL    HW114699   2.457   3.516  14.581  0.7288  1.3099 -0.5006
 1079SOL    HW214700   2.528   3.489  14.710  1.6084 -0.7851  0.3024
 1080SOL     OW14701   0.512   1.478   6.311 -0.6679 -0.8026  0.1731
 1080SOL    HW114702   0.581   1.530   6.269 -1.5312 -0.3210 -0.6594
 1080SOL    HW214703   0.549   1.390   6.303  2.2913  0.4449  0.0432
 1081SOL     OW14704   0.522   2.565   9.072  0.0779 -0.5245 -0.3185
 1081SOL    HW114705   0.467   2.500   9.114  0.2433  0.5825  1.5834
 1081SOL    HW214706   0.539   2.526   8.986 -1.0708  0.4822 -1.0138
 1082SOL     OW14707   0.717   4.349   2.894  0.6944  0.6826  0.5263
 1082SOL    HW114708   0.745   4.395   2.815 -1.2371  0.7417 -0.1354
 1082SOL    HW214709   0.635   4.397   2.908 -2.1278 -3.6660 -0.8953
 1083SOL     OW14710   1.564   0.497   2.385  0.5398  0.4430  0.5317
 1083SOL    HW114711   1.656   0.523   2.391  0.2647  0.6734  3.8503
 1083SOL    HW214712   1.574   0.405   2.361  4.7627  1.2923 -0.7791
 1084SOL     OW14713   3.968   1.612  11.504  0.2702  0.0229 -0.1543
 1084SOL    HW114714   3.925   1.678  11.450 -1.5208 -1.6974 -0.8223
 1084SOL    HW214715   3.960   1.660  11.587 -0.7620 -1.8460  0.8322
 1085SOL     OW14716   2.346   4.522   5.269  0.0033 -0.0106  0.0272
 1085SOL    HW114717   2.417   4.520   5.205  0.7478  1.9484  0.8006
 1085SOL    HW214718   2.321   4.614   5.262 -2.7729 -0.8556 -1.3665
 1086SOL     OW14719   2.208   3.600  10.397 -0.6663 -0.3506  0.1543
 1086SOL    HW114720   2.257   3.518  10.395 -1.2658 -0.7190  0.7483
 1086SOL    HW214721   2.125   3.578  10.354 -0.9579  0.6141  0.2102
 1087SOL     OW14722   4.357   0.581  11.755 -0.5569  0.1720  0.1213
 1087SOL    HW114723   4.449   0.599  11.734 -0.6746  1.5535  0.8084
 1087SOL    HW214724   4.312   0.564  11.673  0.4864 -1.6914 -0.0884
 1088SOL     OW14725   1.728   1.842   7.183  0.0433 -0.1265  0.2664
 1088SOL    HW114726   1.707   1.754   7.214 -0.6023 -0.1396 -0.2151
 1088SOL    HW214727   1.724   1.835   7.088 -2.5623  0.3270  0.3367
 1089SOL     OW14728   0.126   1.536   5.242 -0.1238 -0.2992 -0.3955
 1089SOL    HW114729   0.092   1.449   5.259  0.9425 -0.5015  0.7065
 1089SOL    HW214730   0.104   1.543   5.149 -0.6331 -1.3037 -0.3432
 1090SOL     OW14731   3.889   4.226   4.928 -0.1637 -0.0843 -0.2866
 1090SOL    HW114732   3.857   4.316   4.924  0.2637  0.2202  2.8069
 1090SOL    HW214733   3.908   4.213   4.835  0.4265  2.4016 -0.5353
 1091SOL     OW14734   3.053   4.648   7.460  0.1431  0.3473 -0.4939
 1091SOL    HW114735   3.023   4.698   7.536 -0.1846 -0.6705  0.0533
 1091SOL    HW214736   3.016   4.562   7.483  2.5694 -0.2239  1.2786
 1092SOL     OW14737   3.609   1.303  16.031  0.2685  0.2155  0.1295
 1092SOL    HW114738   3.565   1.227  15.992 -0.4483 -0.2761  1.8649
 1092SOL    HW214739   3.528   1.344  16.062  0.8701  0.2490  1.6615
 1093SOL     OW14740   4.017   2.166   1.784  0.3172 -0.1480 -0.2038
 1093SOL    HW114741   4.069   2.113   1.724  0.9219  0.9772 -0.6762
 1093SOL    HW214742   4.007   2.235   1.719 -0.0398  0.7423  0.7896
 1094SOL     OW14743   0.377   3.502   7.279  0.3188  0.3712 -0.2068
 1094SOL    HW114744   0.310   3.517   7.213  0.4880 -0.7164 -0.6279
 1094SOL    HW214745   0.437   3.445   7.230 -0.8866 -1.8951  0.9399
 1095SOL     OW14746   1.756   4.587   2.835 -0.1353  0.2521  0.1943
 1095SOL    HW114747   1.836   4.552   2.871  0.1117  1.1317  0.5110
 1095SOL    HW214748   1.753   4.549   2.747  1.7795 -0.5658  0.4980
 1096SOL     OW14749   2.540   1.926   4.440  0.1278 -0.1040 -0.2857
 1096SOL    HW114750   2.603   1.970   4.496 -0.1206  0.6539 -0.6048
 1096SOL    HW214751   2.538   2.000   4.380  1.0386  1.9183  2.2164
 1097SOL     OW14752   2.570   3.068   5.582  0.4530 -0.1169  0.1858
 1097SOL    HW114753   2.482   3.097   5.558  0.3752 -0.7713 -0.3418
 1097SOL    HW214754   2.543   3.002   5.646  0.3127 -1.1984 -0.9726
 1098SOL     OW14755   3.431   0.752  15.199 -0.7296  0.1366  0.1757
 1098SOL    HW114756   3.381   0.671  15.213 -0.5044 -0.2817 -1.4020
 1098SOL    HW214757   3.360   0.811  15.173 -0.4402  1.2080  1.8708
 1099SOL     OW14758   2.981   2.871   9.584 -0.2620  0.3143 -0.5352
 1099SOL    HW114759   2.969   2.953   9.632 -0.6827 -0.6812  1.0720
 1099SOL    HW214760   2.977   2.817   9.663  0.0821 -3.7457 -3.3122
 1100SOL     OW14761   2.319   4.437   7.973 -0.1654 -0.1469 -0.7151
 1100SOL    HW114762   2.267   4.408   8.048 -0.5212  0.6097 -0.6699
 1100SOL    HW214763   2.399   4.476   8.006 -0.6081  0.5130 -0.4160
 1101SOL     OW14764   1.368   4.400   9.054 -0.2210  0.0930 -0.3000
 1101SOL    HW114765   1.282   4.359   9.062  0.1986 -0.8011 -0.3088
 1101SOL    HW214766   1.350   4.491   9.031  0.3343  0.0898 -0.7473
 1102SOL     OW14767   2.354   4.478   4.868  0.4525  0.8083  0.5190
 1102SOL    HW114768   2.303   4.547   4.912 -0.5969 -0.5777  1.4471
 1102SOL    HW214769   2.327   4.401   4.918  2.2821  0.5119  1.0786
 1103SOL     OW14770   1.171   4.603   3.552 -0.2764 -0.5067  0.2896
 1103SOL    HW114771   1.226   4.540   3.598  0.5001  1.1199  1.5568
 1103SOL    HW214772   1.092   4.551   3.536 -0.3652  0.2753 -1.7660
 1104SOL     OW14773   3.740   1.196   6.587  0.0386 -0.2450  0.0802
 1104SOL    HW114774   3.820   1.186   6.639 -2.4257 -0.0585  3.9172
 1104SOL    HW214775   3.689   1.140   6.646 -0.3503 -1.4198 -1.3591
 1105SOL     OW14776   0.455   0.045   4.453 -0.2788 -0.1146 -0.4430
 1105SOL    HW114777   0.525   0.109   4.465  0.6360 -1.3787  0.8715
 1105SOL    HW214778   0.478   4.718   4.376 -0.3693 -1.4362  0.4296
 1106SOL     OW14779   2.446   0.049   7.130  0.2401 -0.0450  0.5486
 1106SOL    HW114780   2.373   0.103   7.158  0.4750  1.3183 -1.5017
 1106SOL    HW214781   2.418   4.687   7.159  1.3237 -0.2730  0.9289
 1107SOL     OW14782   2.051   1.094  17.668  0.1234  0.1470  0.5313
 1107SOL    HW114783   2.130   1.047  17.642  0.3702  0.6978  0.2975
 1107SOL    HW214784   2.067   1.093   0.060 -0.2182  0.8200  0.5978
 1108SOL     OW14785   0.196   4.178  16.504 -0.4066 -0.3340 -0.6104
 1108SOL    HW114786   0.132   4.184  16.434 -0.7628  1.3701 -0.1217
 1108SOL    HW214787   0.227   4.089  16.487  0.3486 -0.2595  0.3747
 1109SOL     OW14788   4.050   3.929  16.150 -0.3135 -0.3353  0.4904
 1109SOL    HW114789   4.030   4.021  16.169 -0.3303  0.1740 -1.9409
 1109SOL    HW214790   3.996   3.914  16.072  2.5151 -0.3897 -1.4284
 1110SOL     OW14791   3.084   3.665   9.301 -0.2789  0.5983  0.6317
 1110SOL    HW114792   3.167   3.711   9.312  0.4519 -0.3334 -0.9510
 1110SOL    HW214793   3.015   3.728   9.318 -1.3886  0.0799 -1.9368
 1111SOL     OW14794   2.203   2.053  17.237 -0.8037 -0.2021 -0.2132
 1111SOL    HW114795   2.135   1.993  17.268 -0.2882  0.5914  2.4558
 1111SOL    HW214796   2.170   2.069  17.148  1.8107 -0.0156 -1.1577
 1112SOL     OW14797   0.702   3.702   4.085 -0.4712 -0.0917  0.0094
 1112SOL    HW114798   0.756   3.732   4.158 -0.4148  0.3014 -0.1978
 1112SOL    HW214799   0.730   3.760   4.015 -0.3348 -2.2701 -1.7113
 1113SOL     OW14800   2.669   0.901   0.319  0.5056 -0.2489  0.4217
 1113SOL    HW114801   2.752   0.936   0.353  2.4151 -2.1872 -2.3568
 1113SOL    HW214802   2.699   0.899   0.229 -1.9603  0.0784 -0.4175
 1114SOL     OW14803   3.373   1.951  17.144 -0.4272 -0.0412 -0.6259
 1114SOL    HW114804   3.327   1.934  17.062 -1.3645  2.1296 -0.5374
 1114SOL    HW214805   3.454   1.989  17.110  0.5733 -2.8041 -1.3426
 1115SOL     OW14806   1.193   4.475   4.571  0.2172 -0.0826 -0.1651
 1115SOL    HW114807   1.240   4.427   4.503  0.5107  1.6497 -1.1866
 1115SOL    HW214808   1.232   4.561   4.556  0.3418 -0.0452  0.3920
 1116SOL     OW14809   1.022   2.678   0.625  0.1307 -0.6092  0.0480
 1116SOL    HW114810   1.087   2.745   0.602  1.8982 -1.8140  1.5999
 1116SOL    HW214811   0.984   2.667   0.537 -1.8609  1.8115  0.6343
 1117SOL     OW14812   4.630   2.005  13.948 -0.3739  0.5175 -0.4141
 1117SOL    HW114813   4.639   1.957  14.030  1.8434 -0.0580 -0.9891
 1117SOL    HW214814   4.724   1.998  13.933 -0.1383  0.8924  0.9149
 1118SOL     OW14815   2.855   1.667   4.564 -0.2123  0.2473  0.7106
 1118SOL    HW114816   2.880   1.598   4.502 -0.4530  1.0507 -0.2935
 1118SOL    HW214817   2.904   1.741   4.528 -1.0392  0.2036 -0.5371
 1119SOL     OW14818   0.801   2.840   5.871  0.0936  0.1077  0.3768
 1119SOL    HW114819   0.788   2.907   5.938 -1.4801  0.6938 -0.5206
 1119SOL    HW214820   0.893   2.857   5.850  0.7925  0.0122  3.3737
 1120SOL     OW14821   0.781   1.575   0.258  0.0392 -0.6778  0.0485
 1120SOL    HW114822   0.814   1.500   0.307  1.1882 -0.1048  0.1741
 1120SOL    HW214823   0.767   1.542   0.169  0.6882 -1.2879  0.1710
 1121SOL     OW14824   1.452   3.026   2.285 -0.1419  0.6244  0.6336
 1121SOL    HW114825   1.527   3.032   2.344  0.2320 -1.0385  0.3154
 1121SOL    HW214826   1.418   3.116   2.288 -1.2524  0.2792 -1.4104
 1122SOL     OW14827   1.854   3.111   8.689  0.1558 -0.4825 -1.0452
 1122SOL    HW114828   1.763   3.127   8.664  0.7571 -0.0495 -2.8785
 1122SOL    HW214829   1.846   3.025   8.731 -2.0574  0.2192 -0.0028
 1123SOL     OW14830   0.211   0.641   9.732 -0.6282  0.2121  0.5150
 1123SOL    HW114831   0.177   0.628   9.821  0.8609  0.2018  1.0757
 1123SOL    HW214832   0.154   0.585   9.679 -1.2323 -1.0436  2.4862
 1124SOL     OW14833   2.170   1.737   7.078  0.3046  0.0253 -0.2229
 1124SOL    HW114834   2.115   1.768   7.151  0.1428  0.1854 -0.4137
 1124SOL    HW214835   2.194   1.655   7.121 -2.1759  0.5025  2.1092
 1125SOL     OW14836   1.821   0.878   7.536 -0.2568 -0.8568  0.0400
 1125SOL    HW114837   1.877   0.953   7.555  2.1080 -2.0706 -2.2001
 1125SOL    HW214838   1.778   0.868   7.621  2.0741 -0.1651  1.3274
 1126SOL     OW14839   2.978   1.194   5.670  0.2240 -0.4580  0.9507
 1126SOL    HW114840   2.948   1.241   5.748  1.3995  2.3664 -0.2850
 1126SOL    HW214841   3.048   1.139   5.706  3.4720  3.7488  1.0032
 1127SOL     OW14842   2.828   1.770  11.582 -0.1360 -0.6415 -0.0163
 1127SOL    HW114843   2.759   1.763  11.517 -0.5998 -0.9848  0.5139
 1127SOL    HW214844   2.818   1.865  11.596 -2.8645 -0.7801 -1.1003
 1128SOL     OW14845   4.655   3.127   3.558  0.3421 -0.1119  0.0660
 1128SOL    HW114846   4.660   3.185   3.634 -2.0386 -0.3814  0.4196
 1128SOL    HW214847   4.594   3.176   3.503  0.1448  1.0158  1.2765
 1129SOL     OW14848   0.958   2.891   4.559 -0.4663 -0.2317  0.5442
 1129SOL    HW114849   0.932   2.843   4.638  0.7824  0.2554  1.2556
 1129SOL    HW214850   0.875   2.915   4.518 -0.1792 -0.6054 -0.2448
 1130SOL     OW14851   0.792   0.747   2.321 -0.1340  0.0680  0.8726
 1130SOL    HW114852   0.825   0.660   2.301 -1.3357 -0.3914  0.8441
 1130SOL    HW214853   0.874   0.796   2.323  0.6141 -1.1729  0.6433
 1131SOL     OW14854   0.856   3.310  14.058 -0.3452  0.0460  0.2964
 1131SOL    HW114855   0.849   3.361  13.977  0.0579  0.4562  0.5200
 1131SOL    HW214856   0.774   3.339  14.097  0.1546  1.6499  0.1560
 1132SOL     OW14857   1.913   4.454   9.490  0.4116 -0.0539  0.2731
 1132SOL    HW114858   1.888   4.546   9.500 -0.0118 -0.2963  1.4833
 1132SOL    HW214859   1.838   4.415   9.446  0.5465 -1.4444  1.2458
 1133SOL     OW14860   1.513   1.832   6.508  0.7680 -0.1904  0.0936
 1133SOL    HW114861   1.434   1.832   6.563  0.8898 -0.1287  0.2669
 1133SOL    HW214862   1.583   1.863   6.565 -0.2192  1.9375  0.1469
 1134SOL     OW14863   2.974   0.457   6.670 -0.7486 -0.0843 -0.3297
 1134SOL    HW114864   2.925   0.530   6.709  0.8649  0.6859  0.2452
 1134SOL    HW214865   3.037   0.509   6.620  0.3870 -1.0826  0.0683
 1135SOL     OW14866   3.451   4.490   1.802 -0.0901  0.0521 -0.0373
 1135SOL    HW114867   3.366   4.450   1.788  0.2045 -0.3937 -0.5241
 1135SOL    HW214868   3.456   4.577   1.762  0.7819  0.9790  2.0252
 1136SOL     OW14869   0.066   2.344   9.354 -0.0851 -0.3808 -0.1972
 1136SOL    HW114870   0.069   2.249   9.360  1.1660 -0.4823 -2.4033
 1136SOL    HW214871   0.033   2.342   9.264 -1.5216 -1.3618  0.3461
 1137SOL     OW14872   2.891   3.927   5.917  0.4004  0.5486 -0.0375
 1137SOL    HW114873   2.883   3.936   5.822 -0.4904  2.8277  0.2352
 1137SOL    HW214874   2.808   3.887   5.944  0.6844  0.3546  0.5446
 1138SOL     OW14875   2.845   1.005   8.343 -0.1523 -0.1590 -0.7960
 1138SOL    HW114876   2.842   1.005   8.439 -0.8391 -2.0599 -0.8136
 1138SOL    HW214877   2.823   0.913   8.325 -1.2596  0.1180 -0.8618
 1139SOL     OW14878   1.238   3.208   6.532  0.4230 -0.3445 -0.2351
 1139SOL    HW114879   1.306   3.163   6.582  0.7270 -2.4867 -2.5627
 1139SOL    HW214880   1.199   3.249   6.609  1.6717 -0.1096  0.2781
 1140SOL     OW14881   4.078   1.023   5.019 -0.1421 -0.2014 -0.0527
 1140SOL    HW114882   4.023   0.968   5.076  1.0531 -2.2555 -0.9030
 1140SOL    HW214883   4.133   0.952   4.986  1.3638 -0.0767  2.2125
 1141SOL     OW14884   1.673   0.715   8.477  0.6702 -0.0607 -0.0250
 1141SOL    HW114885   1.598   0.751   8.524  1.3323  2.4502 -0.9084
 1141SOL    HW214886   1.634   0.679   8.397 -0.5074 -0.2693  0.6427
 1142SOL     OW14887   0.612   1.848   3.988  0.1456 -0.4841 -0.5017
 1142SOL    HW114888   0.667   1.863   3.911 -1.1068 -1.1306 -1.5171
 1142SOL    HW214889   0.677   1.818   4.051 -0.3951  1.2600  0.8828
 1143SOL     OW14890   3.796   4.466   3.530  0.0386 -0.3941  0.1290
 1143SOL    HW114891   3.805   4.392   3.471 -0.4147 -0.3898  0.0544
 1143SOL    HW214892   3.871   4.519   3.504  0.0764 -0.7171 -0.4015
 1144SOL     OW14893   0.451   2.380   3.828  0.1082 -0.8018 -0.3062
 1144SOL    HW114894   0.493   2.402   3.911 -1.5043 -1.3970  0.6906
 1144SOL    HW214895   0.371   2.337   3.860 -0.5041  0.4290 -0.1902
 1145SOL     OW14896   0.278   0.544  16.536 -0.5286 -0.2598  0.8949
 1145SOL    HW114897   0.310   0.456  16.555 -2.4758 -0.6590  2.2224
 1145SOL    HW214898   0.189   0.526  16.506 -1.0659 -1.3530  3.1713
 1146SOL     OW14899   1.840   0.731   2.659  0.2328  0.0299 -0.5891
 1146SOL    HW114900   1.924   0.776   2.649  0.3502 -0.3862 -1.4771
 1146SOL    HW214901   1.869   0.640   2.664 -2.0874 -0.5492  2.5049
 1147SOL     OW14902   4.506   2.391   5.681  0.7930  0.0913 -0.0867
 1147SOL    HW114903   4.580   2.344   5.645  0.1235 -1.5093  0.6184
 1147SOL    HW214904   4.547   2.467   5.722  1.0436 -0.6737  1.0621
 1148SOL     OW14905   0.839   1.386   2.147 -0.7482 -0.4190  0.1861
 1148SOL    HW114906   0.773   1.354   2.086 -0.2095  0.4255 -0.8418
 1148SOL    HW214907   0.848   1.306   2.198  0.7768 -0.6795 -0.5113
 1149SOL     OW14908   4.719   1.015   7.023 -0.2585 -0.2784  0.5304
 1149SOL    HW114909   0.017   1.106   7.038 -1.8975  0.1045  0.6437
 1149SOL    HW214910   4.683   0.989   7.108 -5.9169 -0.0503 -1.7992
 1150SOL     OW14911   3.633   0.833   8.010 -0.2191 -0.6314  0.0949
 1150SOL    HW114912   3.547   0.829   7.968  0.5669 -0.0318 -1.5783
 1150SOL    HW214913   3.651   0.927   8.005 -4.6734  0.2674  0.5153
 1151SOL     OW14914   3.881   3.311   4.044  0.2557  0.0695  0.6755
 1151SOL    HW114915   3.963   3.345   4.007  0.3925 -1.1225 -0.1331
 1151SOL    HW214916   3.910   3.257   4.118  1.6558 -1.6077 -1.0812
 1152SOL     OW14917   3.879   1.354   5.611  0.1401  0.2095 -0.0501
 1152SOL    HW114918   3.850   1.295   5.542  1.2574  0.8223 -1.0423
 1152SOL    HW214919   3.817   1.321   5.676 -0.3325  0.5566 -0.3254
 1153SOL     OW14920   0.973   3.866  16.428 -0.0496 -0.2437 -0.2254
 1153SOL    HW114921   1.025   3.920  16.367 -0.6724  1.9319  1.1808
 1153SOL    HW214922   1.014   3.782  16.406  2.9767  0.9833  0.6200
 1154SOL     OW14923   1.984   1.616   3.234  0.0012 -0.2732  0.1523
 1154SOL    HW114924   1.937   1.693   3.268  0.9946  0.0482  0.8027
 1154SOL    HW214925   1.912   1.554   3.241 -0.6509  0.5753  1.0107
 1155SOL     OW14926   4.619   1.794   8.089 -0.2961  0.3006 -0.5648
 1155SOL    HW114927   4.603   1.713   8.041 -0.5705  1.1849 -1.9618
 1155SOL    HW214928   4.535   1.838   8.074 -0.9736 -1.3976 -1.7122
 1156SOL     OW14929   1.996   2.093   0.707  0.1222 -0.5173  0.3841
 1156SOL    HW114930   2.033   2.175   0.740 -1.4053 -0.1102  1.0728
 1156SOL    HW214931   2.045   2.025   0.753 -2.0806 -1.8903  0.6538
 1157SOL     OW14932   4.225   3.341   6.348 -0.4121 -0.0334 -0.2261
 1157SOL    HW114933   4.316   3.368   6.355 -0.7365  0.6244  1.5040
 1157SOL    HW214934   4.199   3.365   6.437 -1.1087 -2.1749  0.1375
 1158SOL     OW14935   1.019   2.691  11.387 -0.3804 -0.0012 -0.0723
 1158SOL    HW114936   1.039   2.672  11.295 -1.0505  2.4309 -0.7239
 1158SOL    HW214937   0.981   2.778  11.376 -2.4508 -0.6997  1.5976
 1159SOL     OW14938   0.784   3.345   8.406  0.6195 -0.1972  0.4991
 1159SOL    HW114939   0.738   3.410   8.354  0.3037  0.4508  1.5925
 1159SOL    HW214940   0.876   3.364   8.386 -0.3832  1.3140 -2.5926
 1160SOL     OW14941   3.620   2.883   7.692  0.0504 -0.3002 -0.1907
 1160SOL    HW114942   3.537   2.930   7.683  0.3569  0.3218  0.2327
 1160SOL    HW214943   3.617   2.869   7.787 -1.5764 -0.6408 -0.2868
 1161SOL     OW14944   0.051   4.249   5.243  0.4827 -0.4828  0.1248
 1161SOL    HW114945   4.714   4.227   5.173  2.8270  1.5290 -2.6000
 1161SOL    HW214946   0.000   4.241   5.324  1.0255  0.4858  0.5590
 1162SOL     OW14947   2.276   1.407  10.017  0.1817  0.3921 -0.1494
 1162SOL    HW114948   2.194   1.370  10.050  1.5113  1.1581  4.0007
 1162SOL    HW214949   2.339   1.336  10.009 -0.8113 -0.3269 -1.5797
 1163SOL     OW14950   1.559   1.743   8.475  0.0072 -0.1668 -0.2594
 1163SOL    HW114951   1.492   1.761   8.541  0.2526 -0.2288  0.0033
 1163SOL    HW214952   1.546   1.649   8.460  1.5791 -0.5031  0.5208
 1164SOL     OW14953   1.883   4.684   9.768  0.3345 -0.0379  0.1692
 1164SOL    HW114954   1.833   4.614   9.809 -0.4672  0.8091  0.6382
 1164SOL    HW214955   1.975   4.663   9.779  0.9696  1.3499 -2.3571
 1165SOL     OW14956   0.019   2.804  16.731 -0.7136  0.6051  0.2937
 1165SOL    HW114957   0.049   2.892  16.753  2.5481 -0.0330 -1.5967
 1165SOL    HW214958   0.085   2.759  16.784  0.3133  1.1036 -0.5539
 1166SOL     OW14959   0.072   1.470   6.275  0.3299 -0.2604 -0.2303
 1166SOL    HW114960   4.712   1.500   6.305  0.6437 -0.9358  1.3682
 1166SOL    HW214961   0.050   1.379   6.256 -1.9130 -0.1087  1.6779
 1167SOL     OW14962   1.488   2.591   2.355  0.2834  0.5957 -0.1268
 1167SOL    HW114963   1.463   2.504   2.387  1.5014  0.6573  0.9932
 1167SOL    HW214964   1.503   2.640   2.436 -1.7689 -0.4433  0.8891
 1168SOL     OW14965   2.812   3.406   8.847  0.2086  0.5114  0.0709
 1168SOL    HW114966   2.893   3.369   8.882 -0.2272  1.0149  1.6107
 1168SOL    HW214967   2.808   3.353   8.768  1.9019  1.5632 -0.7254
 1169SOL     OW14968   1.151   2.303   5.132  0.1897 -0.2215  0.1766
 1169SOL    HW114969   1.067   2.259   5.141  0.5238 -0.5675  1.5398
 1169SOL    HW214970   1.132   2.384   5.179  0.6253  0.5967 -1.0294
 1170SOL     OW14971   2.572   3.576   8.865  0.5812  0.0870 -0.6972
 1170SOL    HW114972   2.623   3.496   8.865 -1.9371 -1.5247  0.2516
 1170SOL    HW214973   2.604   3.626   8.940  0.4932 -0.6589 -0.1668
 1171SOL     OW14974   2.230   1.198  17.002  0.6316  0.2016 -0.0306
 1171SOL    HW114975   2.249   1.182  17.094  1.5442  2.4745  0.1824
 1171SOL    HW214976   2.234   1.113  16.958  0.2723  0.0750  0.1903
 1172SOL     OW14977   0.529   0.013   8.146  0.1530 -0.1713 -0.0212
 1172SOL    HW114978   0.530   0.055   8.059 -0.3757  0.5019  0.2967
 1172SOL    HW214979   0.516   4.646   8.125  1.0925 -0.9311  2.7645
 1173SOL     OW14980   2.141   2.098   0.049 -0.0405  0.2620  0.8020
 1173SOL    HW114981   2.195   2.044   0.106 -1.1295 -0.5632  1.0557
 1173SOL    HW214982   2.111   2.168   0.106 -1.5790  0.2157  0.0574
 1174SOL     OW14983   0.782   4.579  16.534 -0.4868  0.2747 -0.6093
 1174SOL    HW114984   0.687   4.586  16.542 -0.5366 -0.5232 -0.4312
 1174SOL    HW214985   0.784   4.489  16.568  1.8934  1.0817  1.4305
 1175SOL     OW14986   2.126   2.327   5.066 -0.3240 -0.0424 -0.3560
 1175SOL    HW114987   2.113   2.387   5.139  2.1504 -0.1175  0.1433
 1175SOL    HW214988   2.041   2.332   5.021 -0.0055  0.3379 -0.9056
 1176SOL     OW14989   2.976   2.328   9.702  0.0330  0.4835 -0.5413
 1176SOL    HW114990   3.036   2.257   9.725 -1.2949 -0.7944 -0.9940
 1176SOL    HW214991   2.890   2.288   9.710  0.1122  0.1418 -1.4212
 1177SOL     OW14992   4.127   3.701  13.209  0.2572 -0.5348 -0.3065
 1177SOL    HW114993   4.192   3.675  13.274 -2.2966 -2.1397  1.6288
 1177SOL    HW214994   4.088   3.620  13.177  2.8418 -2.0091  0.3203
 1178SOL     OW14995   1.188   4.557   3.147 -0.0945  0.1435 -0.3029
 1178SOL    HW114996   1.264   4.561   3.090  0.2040  0.7840  0.1330
 1178SOL    HW214997   1.194   4.463   3.162 -0.4744  0.1873  0.1327
 1179SOL     OW14998   1.994   3.771   8.384 -0.5585 -0.1526 -0.4864
 1179SOL    HW114999   2.069   3.723   8.421 -1.4191 -0.3843  0.9459
 1179SOL    HW215000   2.043   3.839   8.338 -1.3104  1.2150  0.7302
 1180SOL     OW15001   1.537   4.091  11.865  0.0920 -0.4710 -0.1818
 1180SOL    HW115002   1.507   4.170  11.911 -1.6068  0.7170 -3.3469
 1180SOL    HW215003   1.496   4.027  11.923  1.3947 -0.7197  0.4743
 1181SOL     OW15004   2.784   2.433  10.167  0.0132 -0.1370 -0.1633
 1181SOL    HW115005   2.846   2.506  10.166 -1.7165  1.3595  2.0021
 1181SOL    HW215006   2.819   2.378  10.097  3.5567  1.7477  0.1113
 1182SOL     OW15007   4.446   4.127  17.670  0.4099  0.0778 -0.1654
 1182SOL    HW115008   4.477   4.208   0.008  0.4030 -0.3316  0.6638
 1182SOL    HW215009   4.356   4.131  17.701 -0.3075 -0.4462 -2.1404
 1183SOL     OW15010   0.322   2.533   3.612 -0.3787 -0.5885  0.7763
 1183SOL    HW115011   0.311   2.457   3.554  0.2840  2.3621 -3.2181
 1183SOL    HW215012   0.344   2.489   3.694  1.0401 -0.8448  0.2578
 1184SOL     OW15013   4.061   1.702  14.818 -0.0129  0.0174 -0.3602
 1184SOL    HW115014   3.990   1.704  14.883  0.3747 -0.7626  0.0845
 1184SOL    HW215015   4.020   1.747  14.744 -0.6927 -0.9860 -0.5946
 1185SOL     OW15016   0.329   3.008  17.265 -0.2494 -0.6499  0.3765
 1185SOL    HW115017   0.268   2.943  17.302  0.4473 -0.6063  1.6122
 1185SOL    HW215018   0.359   3.043  17.349 -1.6883  1.8378 -0.1629
 1186SOL     OW15019   0.957   0.258   1.192 -0.2950 -0.0738 -0.1391
 1186SOL    HW115020   0.911   0.181   1.159 -1.5076  0.0877  1.2225
 1186SOL    HW215021   0.989   0.233   1.278  1.2401  0.0156 -0.6805
 1187SOL     OW15022   3.025   2.927   6.180  0.1842 -0.0823  0.0302
 1187SOL    HW115023   3.066   2.860   6.235 -0.8729 -0.3915  0.4365
 1187SOL    HW215024   2.966   2.877   6.124  1.2021  0.7200 -1.7457
 1188SOL     OW15025   4.240   0.176   2.117 -0.2248 -0.1138  0.9796
 1188SOL    HW115026   4.253   0.223   2.034  1.4280  1.5764  2.1876
 1188SOL    HW215027   4.234   0.255   2.171 -1.5851 -0.2785  1.0707
 1189SOL     OW15028   3.626   0.309   7.449  0.1231  0.3588 -0.4515
 1189SOL    HW115029   3.538   0.340   7.431 -0.1057  1.7733  3.0745
 1189SOL    HW215030   3.678   0.365   7.391 -0.2316  1.9573  0.7671
 1190SOL     OW15031   1.467   3.531  10.369  0.1713  0.4710 -0.4168
 1190SOL    HW115032   1.413   3.604  10.342 -3.0842 -0.8810  2.4140
 1190SOL    HW215033   1.546   3.580  10.391  0.0707  0.7174 -0.6071
 1191SOL     OW15034   0.141   3.071   7.746 -0.2554 -0.6175  0.2719
 1191SOL    HW115035   0.170   3.066   7.655  1.3877 -2.3799  0.8967
 1191SOL    HW215036   0.140   3.166   7.759  0.2556 -0.6575  0.5876
 1192SOL     OW15037   0.545   3.365   7.097 -0.2332  0.2989  0.4443
 1192SOL    HW115038   0.503   3.411   7.025  1.3737  0.3860 -0.4471
 1192SOL    HW215039   0.632   3.367   7.056 -0.2372  0.9497  0.4727
 1193SOL     OW15040   1.534   3.492   9.243 -0.2833  0.2366 -0.1782
 1193SOL    HW115041   1.582   3.574   9.233  0.2930 -0.1161 -0.2910
 1193SOL    HW215042   1.469   3.477   9.174 -0.1091  0.3465 -0.3637
 1194SOL     OW15043   3.774   2.153   5.705 -0.0276 -0.2245  0.1657
 1194SOL    HW115044   3.815   2.236   5.731 -0.5652  0.2044 -0.3505
 1194SOL    HW215045   3.851   2.099   5.721  0.0940 -0.6227 -1.6959
 1195SOL     OW15046   3.348   0.343  15.703 -0.8753 -0.5696  0.1334
 1195SOL    HW115047   3.328   0.436  15.695 -0.2874 -0.3797  0.8736
 1195SOL    HW215048   3.338   0.319  15.611 -0.1158 -1.9440  0.4105
 1196SOL     OW15049   4.131   2.267   3.814  0.1532  0.1421 -0.0596
 1196SOL    HW115050   4.119   2.319   3.735  1.1089  0.4705  0.0081
 1196SOL    HW215051   4.208   2.311   3.849  0.5971  0.1459 -1.0384
 1197SOL     OW15052   3.134   3.727   2.153  0.0533 -0.2926  0.3441
 1197SOL    HW115053   3.182   3.807   2.131 -0.4110 -0.9005 -2.8905
 1197SOL    HW215054   3.150   3.676   2.074  1.0766  1.3075 -0.4776
 1198SOL     OW15055   4.345   0.710   6.509 -0.3100 -0.2541  0.5785
 1198SOL    HW115056   4.395   0.792   6.513 -0.2849 -0.3103  1.5607
 1198SOL    HW215057   4.335   0.690   6.416  2.0859 -0.7648  0.4457
 1199SOL     OW15058   3.948   2.533   3.989  0.0685 -0.1163 -0.2433
 1199SOL    HW115059   3.965   2.544   3.896  0.8965 -0.0170 -0.0767
 1199SOL    HW215060   3.869   2.586   3.994 -1.1499 -1.9304 -0.1344
 1200SOL     OW15061   3.740   2.656   0.010 -0.0753  0.1182 -0.0204
 1200SOL    HW115062   3.717   2.671  17.620  1.9761 -0.9834 -0.6998
 1200SOL    HW215063   3.656   2.624   0.044 -0.7416  0.8964 -0.9241
 1201SOL     OW15064   0.680   4.515   6.566 -0.5676  0.0939 -0.4127
 1201SOL    HW115065   0.688   4.606   6.595  0.5246  0.1312 -0.8470
 1201SOL    HW215066   0.714   4.470   6.643  0.0619  0.3564 -0.5414
 1202SOL     OW15067   2.760   4.223   2.445  0.0417  0.2811  0.1457
 1202SOL    HW115068   2.843   4.178   2.430  0.4942  0.9849  0.5187
 1202SOL    HW215069   2.727   4.213   2.356  0.1661  1.7757 -0.0674
 1203SOL     OW15070   0.603   2.783   4.096  0.5961  0.4043 -0.2177
 1203SOL    HW115071   0.542   2.856   4.098 -1.5969 -1.4374 -0.3011
 1203SOL    HW215072   0.611   2.785   4.000  0.9811 -1.7799 -0.2302
 1204SOL     OW15073   2.646   3.327  14.307  0.3262 -0.2539 -0.0052
 1204SOL    HW115074   2.677   3.387  14.238  1.5513 -1.6852 -0.6976
 1204SOL    HW215075   2.684   3.377  14.379  0.7620 -1.7913  0.8234
 1205SOL     OW15076   4.405   2.667  13.934 -0.4157  0.0672  0.0219
 1205SOL    HW115077   4.494   2.673  13.899 -0.4825  1.0273  0.0110
 1205SOL    HW215078   4.386   2.756  13.964  0.4404  1.0187 -2.1902
 1206SOL     OW15079   3.863   0.368   7.853 -0.2816 -0.4259  0.2207
 1206SOL    HW115080   3.808   0.437   7.816  0.2429  0.0423  0.3072
 1206SOL    HW215081   3.808   0.290   7.855 -0.2957 -0.4437 -0.8965
 1207SOL     OW15082   1.292   0.794  14.182 -0.5847  0.6672 -0.0303
 1207SOL    HW115083   1.295   0.699  14.171  1.6249  0.5798  1.3104
 1207SOL    HW215084   1.256   0.821  14.098  2.2037  0.7172 -1.2162
 1208SOL     OW15085   0.556   1.336   6.029  0.0645  0.0576  0.2343
 1208SOL    HW115086   0.588   1.246   6.037 -0.1798  0.1235  2.0495
 1208SOL    HW215087   0.468   1.335   5.991  0.1209 -2.9020  0.1838
 1209SOL     OW15088   3.871   0.333   4.268  0.3736 -0.5235 -0.0876
 1209SOL    HW115089   3.811   0.262   4.292 -1.4573  0.9671 -0.2271
 1209SOL    HW215090   3.956   0.294   4.288 -0.8092 -2.3635  1.3668
 1210SOL     OW15091   2.791   0.877  10.293  0.1774  0.1838  0.1219
 1210SOL    HW115092   2.697   0.869  10.306  0.1190  0.4282 -0.1546
 1210SOL    HW215093   2.813   0.857  10.384 -1.9489 -0.6237  0.4639
 1211SOL     OW15094   4.002   1.594   3.282 -0.2784  0.3045  0.7594
 1211SOL    HW115095   3.918   1.575   3.324 -1.0190 -0.7790 -1.2193
 1211SOL    HW215096   3.977   1.566   3.194  3.2355 -1.4625  0.3357
 1212SOL     OW15097   1.879   1.015  17.277 -0.3087 -0.4522  0.2890
 1212SOL    HW115098   1.881   0.958  17.353  1.3048  0.5747  1.0219
 1212SOL    HW215099   1.893   1.100  17.319 -0.0563 -0.3328 -0.0284
 1213SOL     OW15100   3.589   4.056   3.468 -0.1970 -0.4643 -0.8774
 1213SOL    HW115101   3.668   4.096   3.504  0.3195 -1.3585 -1.0201
 1213SOL    HW215102   3.614   4.045   3.376 -2.4009 -0.7430 -1.4467
 1214SOL     OW15103   0.579   1.209   8.881 -0.3608 -0.3965  0.2714
 1214SOL    HW115104   0.647   1.276   8.878 -0.6733 -0.0212  1.8752
 1214SOL    HW215105   0.549   1.210   8.790  2.8489 -2.5233 -0.8023
 1215SOL     OW15106   1.498   2.573  11.493  0.4695  0.1270  0.1201
 1215SOL    HW115107   1.453   2.634  11.550  0.2273  1.5665 -1.6262
 1215SOL    HW215108   1.473   2.610  11.408  0.9033 -2.3391 -1.1042
 1216SOL     OW15109   3.624   2.369  17.024  0.1525 -0.5218 -0.5151
 1216SOL    HW115110   3.598   2.456  17.054 -1.1503 -0.2429 -2.4251
 1216SOL    HW215111   3.681   2.405  16.956  0.8297  2.1315  1.4631
 1217SOL     OW15112   2.597   4.658   6.512 -0.3613 -0.1643  0.1097
 1217SOL    HW115113   2.584   4.701   6.428  0.0943  1.2849  0.7912
 1217SOL    HW215114   2.569   4.570   6.484  1.0026 -0.2460 -0.9847
 1218SOL     OW15115   2.989   1.924  14.924 -0.0186  0.3838 -0.2109
 1218SOL    HW115116   2.926   1.872  14.875 -1.1495  0.0359  1.5988
 1218SOL    HW215117   3.047   1.857  14.959  0.5514  0.8258 -0.3106
 1219SOL     OW15118   3.965   1.569   5.311 -0.2132  0.2506 -0.6770
 1219SOL    HW115119   3.955   1.660   5.340 -0.6553 -0.0015 -0.0320
 1219SOL    HW215120   3.894   1.575   5.247  0.6344  0.1861 -1.6083
 1220SOL     OW15121   3.360   4.259   8.064 -0.2203  0.4027  0.0644
 1220SOL    HW115122   3.367   4.171   8.028  1.2240  0.9356 -0.9434
 1220SOL    HW215123   3.425   4.260   8.135 -0.3496  1.5954  0.1678
 1221SOL     OW15124   1.607   3.525  11.937  0.5685 -0.1397 -0.5921
 1221SOL    HW115125   1.672   3.588  11.969 -0.5814 -0.0998  1.7293
 1221SOL    HW215126   1.533   3.583  11.915 -0.1355  0.1106  2.3465
 1222SOL     OW15127   1.699   1.034   2.903  0.6275 -0.3927  0.3613
 1222SOL    HW115128   1.682   1.089   2.980  3.2576  0.2592  0.4943
 1222SOL    HW215129   1.789   1.063   2.889  0.7339  0.0213  1.8095
 1223SOL     OW15130   4.181   3.799   8.163  0.0803  0.0424 -0.2785
 1223SOL    HW115131   4.263   3.826   8.204 -0.6249  0.5391  0.7891
 1223SOL    HW215132   4.216   3.791   8.074 -0.0872 -2.9945 -0.0688
 1224SOL     OW15133   2.609   4.144   7.345 -0.8729 -0.3484 -0.0663
 1224SOL    HW115134   2.517   4.130   7.367 -0.5657 -0.7651  0.9652
 1224SOL    HW215135   2.605   4.179   7.256  0.0596 -1.9791 -0.7555
 1225SOL     OW15136   1.444   1.675  15.547 -0.0182 -0.5272 -0.6845
 1225SOL    HW115137   1.454   1.630  15.630 -1.4550 -0.7508 -0.6289
 1225SOL    HW215138   1.388   1.612  15.500  0.4988 -1.6596  0.2315
 1226SOL     OW15139   1.830   3.855  16.679  0.1216  0.4075  0.6201
 1226SOL    HW115140   1.858   3.783  16.621 -0.0314  0.5969  0.3125
 1226SOL    HW215141   1.735   3.847  16.681  0.2643 -1.7481 -0.4780
 1227SOL     OW15142   4.545   1.590  17.628 -0.2785 -0.1725 -0.0287
 1227SOL    HW115143   4.605   1.650  17.584 -2.1492 -0.1727 -2.5873
 1227SOL    HW215144   4.465   1.588  17.575  0.8395  0.1215 -1.7072
 1228SOL     OW15145   1.370   0.672   2.355 -0.7137 -0.0235 -0.2448
 1228SOL    HW115146   1.418   0.714   2.284 -0.5331  0.1801 -0.0034
 1228SOL    HW215147   1.445   0.615   2.373  0.2177  1.0035 -0.8627
 1229SOL     OW15148   4.342   1.552  16.528 -0.0109  0.1096  0.6421
 1229SOL    HW115149   4.350   1.506  16.445  1.8216 -1.2426  1.5708
 1229SOL    HW215150   4.262   1.599  16.503  0.4625  0.4219 -0.2408
 1230SOL     OW15151   2.378   1.220   9.444 -0.3414 -0.2315 -0.4138
 1230SOL    HW115152   2.429   1.292   9.479  0.9598 -0.1417 -2.4599
 1230SOL    HW215153   2.363   1.176   9.528 -1.4082  0.6516 -0.1392
 1231SOL     OW15154   0.982   2.570   1.168  0.5590 -0.1274 -0.2180
 1231SOL    HW115155   0.982   2.506   1.097  2.6339 -3.8806  3.1770
 1231SOL    HW215156   0.949   2.644   1.116  2.1291  0.1187 -0.8540
 1232SOL     OW15157   4.232   1.842   8.925  0.0318 -0.1066  0.0380
 1232SOL    HW115158   4.324   1.864   8.910  0.1499 -0.6089  0.0344
 1232SOL    HW215159   4.245   1.769   8.985 -1.2146 -1.0086 -0.7871
 1233SOL     OW15160   4.487   1.731   7.164  0.0214 -0.1613  0.0676
 1233SOL    HW115161   4.432   1.750   7.088  0.6479  3.4180  0.5041
 1233SOL    HW215162   4.445   1.651   7.197 -0.7242  0.6306  1.0280
 1234SOL     OW15163   0.694   4.605   6.169 -0.0269 -0.7498 -0.1497
 1234SOL    HW115164   0.719   4.675   6.229 -1.5436 -1.1921  0.9997
 1234SOL    HW215165   0.607   4.579   6.199 -0.4929  0.1162 -0.7410
 1235SOL     OW15166   0.719   2.733   5.037  0.1412 -0.5418 -0.2017
 1235SOL    HW115167   0.728   2.803   5.102 -2.8791  0.4511 -0.8733
 1235SOL    HW215168   0.741   2.655   5.088 -0.6331 -1.3852 -1.1780
 1236SOL     OW15169   3.290   1.520   6.510  0.0315 -0.2610  0.2808
 1236SOL    HW115170   3.265   1.432   6.483  0.0638 -0.1340 -0.1672
 1236SOL    HW215171   3.351   1.544   6.440  1.2306 -0.7827  1.1457
 1237SOL     OW15172   4.643   2.151  17.588  0.0512  0.2267 -0.2014
 1237SOL    HW115173   0.013   2.150  17.599  0.1082 -1.9814 -0.7418
 1237SOL    HW215174   4.610   2.092  17.655 -1.8259  0.1112 -1.2290
 1238SOL     OW15175   3.481   1.708   7.790  0.2198  0.5753 -0.2348
 1238SOL    HW115176   3.535   1.703   7.869  0.0861 -0.1576 -0.1880
 1238SOL    HW215177   3.406   1.762   7.815 -0.8488 -0.2039 -1.7340
 1239SOL     OW15178   2.577   1.999   0.728  0.8708 -0.3603 -0.3139
 1239SOL    HW115179   2.664   1.982   0.764  2.1238  2.0382 -2.2299
 1239SOL    HW215180   2.588   2.060   0.655 -0.6932  0.1632 -0.1031
 1240SOL     OW15181   2.278   3.265   6.060 -0.5422  0.4703 -0.1817
 1240SOL    HW115182   2.358   3.318   6.068 -0.7017  0.1065  3.5786
 1240SOL    HW215183   2.265   3.239   6.151  1.8754  0.6235  0.2186
 1241SOL     OW15184   1.972   0.459   6.484  0.7316  0.1042  0.5790
 1241SOL    HW115185   1.945   0.523   6.418  0.4638  1.5665  2.1152
 1241SOL    HW215186   2.060   0.438   6.452 -0.5401  0.0488 -2.8776
 1242SOL     OW15187   1.313   0.058   9.476 -0.1507 -0.0310 -0.2343
 1242SOL    HW115188   1.298   0.045   9.383  0.6172 -0.9451 -0.2254
 1242SOL    HW215189   1.235   0.016   9.514  1.1229 -1.8881  0.3322
 1243SOL     OW15190   4.459   2.279  17.414 -0.9164 -0.4471  0.3461
 1243SOL    HW115191   4.519   2.217  17.456  1.2371  0.6735 -1.1477
 1243SOL    HW215192   4.384   2.271  17.474 -0.5068 -1.4145  0.7212
 1244SOL     OW15193   2.082   2.655   3.872 -0.0607  0.1012  0.2325
 1244SOL    HW115194   2.175   2.634   3.871 -0.0415  0.1719  0.5516
 1244SOL    HW215195   2.043   2.591   3.932 -1.6581 -0.1331 -1.0523
 1245SOL     OW15196   3.184   2.600   1.845  0.4542  0.2726 -0.1156
 1245SOL    HW115197   3.265   2.630   1.886  0.6422  1.9933 -1.7394
 1245SOL    HW215198   3.161   2.675   1.790 -0.5941  0.3129  0.3699
 1246SOL     OW15199   2.955   1.548   7.954  0.0269  0.3064  0.3224
 1246SOL    HW115200   3.007   1.499   8.018 -0.5281 -1.4783 -0.5946
 1246SOL    HW215201   2.922   1.470   7.909  1.7673 -0.2018 -0.0886
 1247SOL     OW15202   4.134   0.308   5.375  0.4560 -0.1064 -0.2073
 1247SOL    HW115203   4.153   0.279   5.286  2.2540 -0.1254  0.1946
 1247SOL    HW215204   4.143   0.403   5.364 -0.7647  0.2414  1.7042
 1248SOL     OW15205   2.729   1.027  13.569 -0.0015 -0.0341  0.1537
 1248SOL    HW115206   2.824   1.025  13.559  0.0714 -3.1033  1.7097
 1248SOL    HW215207   2.709   0.957  13.631  0.0706 -0.1738  0.0189
 1249SOL     OW15208   2.868   4.248   3.464  0.0509  0.1742  0.3127
 1249SOL    HW115209   2.906   4.170   3.424  0.0100 -0.7407  2.0783
 1249SOL    HW215210   2.777   4.241   3.436  0.1688 -0.2288  0.0420
 1250SOL     OW15211   1.655   2.690   6.332 -0.5377  0.3319  0.5389
 1250SOL    HW115212   1.575   2.725   6.291 -0.0051  1.3200  0.3529
 1250SOL    HW215213   1.611   2.623   6.384 -3.1465  0.2945 -1.7147
 1251SOL     OW15214   4.182   4.509   4.531  0.3984  0.5759  0.2939
 1251SOL    HW115215   4.097   4.499   4.574  0.2156  0.8280 -0.0119
 1251SOL    HW215216   4.165   4.512   4.437  0.4700  1.9880  0.3343
 1252SOL     OW15217   3.772   1.493   1.249  0.1366  0.4951  0.4400
 1252SOL    HW115218   3.710   1.566   1.254  1.2254  1.4907 -0.5647
 1252SOL    HW215219   3.764   1.466   1.157  2.4395 -0.3059  0.4786
 1253SOL     OW15220   3.373   1.224   3.542  0.7064 -0.4379  0.6614
 1253SOL    HW115221   3.374   1.202   3.448 -0.0347 -0.6026  0.6888
 1253SOL    HW215222   3.396   1.138   3.579 -1.2078 -2.1175 -2.0353
 1254SOL     OW15223   1.314   3.023  11.495 -0.4916 -0.0907 -0.1236
 1254SOL    HW115224   1.260   3.099  11.472 -2.5489 -1.6186 -0.3375
 1254SOL    HW215225   1.300   3.026  11.590  1.7838  1.2213  0.1769
 1255SOL     OW15226   3.356   0.337   6.463 -0.1114 -0.6789  0.2686
 1255SOL    HW115227   3.347   0.251   6.503  0.5655 -1.1496 -0.5796
 1255SOL    HW215228   3.450   0.356   6.456 -0.3990  0.0568 -1.6583
 1256SOL     OW15229   3.041   2.657   2.436 -0.0096  0.3607 -0.1154
 1256SOL    HW115230   3.132   2.627   2.439 -1.0302 -2.5313  1.7442
 1256SOL    HW215231   3.028   2.678   2.344 -0.4666 -2.4833 -0.6961
 1257SOL     OW15232   2.890   0.035   6.560  0.5310  0.0924  0.3392
 1257SOL    HW115233   2.796   0.020   6.569  0.9627 -2.2253  0.9483
 1257SOL    HW215234   2.898   4.678   6.512 -1.3983  1.0870 -1.6825
 1258SOL     OW15235   1.988   3.554   3.861 -0.3619  0.7676  0.8431
 1258SOL    HW115236   1.921   3.504   3.908 -1.2016  2.4380  1.4023
 1258SOL    HW215237   1.931   3.584   3.790 -0.1241  1.4865  0.9568
 1259SOL     OW15238   1.124   3.648   5.766  0.1566 -0.3218  0.1008
 1259SOL    HW115239   1.046   3.592   5.773 -0.8823  1.0759 -0.1929
 1259SOL    HW215240   1.115   3.679   5.676  1.1860 -2.6228 -0.7836
 1260SOL     OW15241   4.138   1.301   4.692  0.0143  0.2238 -0.3346
 1260SOL    HW115242   4.127   1.214   4.653 -1.4753 -0.4994  1.6867
 1260SOL    HW215243   4.077   1.294   4.766  1.2123 -0.9410  0.5597
 1261SOL     OW15244   2.927   2.119  15.437  0.0011 -0.2385  0.5236
 1261SOL    HW115245   2.880   2.195  15.472  2.3037  1.6871 -0.5685
 1261SOL    HW215246   2.865   2.084  15.373 -0.2051  1.6982 -0.3365
 1262SOL     OW15247   1.294   0.905   6.802  0.1494 -0.2629 -0.8834
 1262SOL    HW115248   1.290   0.811   6.786 -0.8911 -0.2204 -0.8449
 1262SOL    HW215249   1.381   0.912   6.841 -0.6431  1.7633  0.5412
 1263SOL     OW15250   0.765   2.984   7.600  0.0108 -0.3476  0.3380
 1263SOL    HW115251   0.778   3.071   7.562 -0.2410 -1.4772 -2.3164
 1263SOL    HW215252   0.856   2.956   7.615 -0.1468 -1.2825 -0.4151
 1264SOL     OW15253   3.330   2.875   6.385 -0.5240 -0.0815  0.0890
 1264SOL    HW115254   3.305   2.802   6.328 -1.0395  1.2928 -1.4584
 1264SOL    HW215255   3.300   2.829   6.463 -0.1454 -1.4123 -0.5403
 1265SOL     OW15256   4.017   1.523   9.141 -0.5286 -0.4448 -0.3633
 1265SOL    HW115257   4.092   1.576   9.168 -1.0081 -0.0989  0.2968
 1265SOL    HW215258   4.022   1.450   9.203 -1.8005 -0.3179 -0.0995
 1266SOL     OW15259   0.812   0.723   4.091  0.0418 -0.1768 -0.0616
 1266SOL    HW115260   0.901   0.742   4.059 -0.0803 -1.6788 -1.2948
 1266SOL    HW215261   0.785   0.814   4.106  1.5484 -0.0264  1.7332
 1267SOL     OW15262   3.019   3.603  16.932 -0.7087  0.5967  0.5169
 1267SOL    HW115263   3.004   3.519  16.888 -0.8945  0.4636  0.8353
 1267SOL    HW215264   2.964   3.657  16.876 -1.2882  1.0713  1.5565
 1268SOL     OW15265   1.387   4.548   4.936  0.3239  0.0429 -0.7375
 1268SOL    HW115266   1.391   4.524   5.028  2.0621 -0.2473 -0.8947
 1268SOL    HW215267   1.436   4.630   4.941 -0.7960  0.6908 -0.4948
 1269SOL     OW15268   4.667   3.145   0.697  0.1673 -0.0411 -0.2038
 1269SOL    HW115269   0.030   3.118   0.669 -1.0404 -2.9147 -1.2960
 1269SOL    HW215270   4.645   3.216   0.637  1.6229 -0.2119 -0.9319
 1270SOL     OW15271   3.950   4.433   6.951 -0.3282 -0.2794  0.1539
 1270SOL    HW115272   3.868   4.480   6.937 -0.6401 -0.4769  1.3181
 1270SOL    HW215273   3.967   4.419   6.858 -2.5908  2.1847 -0.6358
 1271SOL     OW15274   4.669   0.097   3.282 -0.0092 -0.5117 -0.1000
 1271SOL    HW115275   0.031   0.126   3.254 -1.0059  1.1053 -1.4808
 1271SOL    HW215276   4.666   0.002   3.269 -3.2087 -0.2375 -1.2524
 1272SOL     OW15277   2.336   4.228   2.570  0.2446  0.0399  0.2429
 1272SOL    HW115278   2.301   4.163   2.510  0.3332 -0.1525  0.3981
 1272SOL    HW215279   2.317   4.312   2.529  0.5098  0.6548  1.3890
 1273SOL     OW15280   2.579   1.418   5.178  0.1283 -0.1924  0.3066
 1273SOL    HW115281   2.491   1.434   5.145  1.5743  1.0136 -2.9606
 1273SOL    HW215282   2.612   1.506   5.195  0.0695 -0.0918 -0.0893
 1274SOL     OW15283   3.943   3.887   9.479  0.2411  0.3606 -0.3368
 1274SOL    HW115284   4.014   3.882   9.414 -0.6379  1.7036 -1.3941
 1274SOL    HW215285   3.880   3.953   9.450 -0.5141 -0.2169  0.0147
 1275SOL     OW15286   3.789   0.607  14.527  0.4845 -0.2138  0.3153
 1275SOL    HW115287   3.767   0.663  14.602 -3.1530 -1.7572  0.3982
 1275SOL    HW215288   3.733   0.644  14.459  2.7366 -0.5141 -1.6702
 1276SOL     OW15289   3.853   0.814   9.117  0.4178  0.2281 -0.3551
 1276SOL    HW115290   3.841   0.743   9.054  0.7324 -0.5621  0.4841
 1276SOL    HW215291   3.936   0.781   9.151 -0.0466  1.3216  1.8914
 1277SOL     OW15292   0.877   2.032  10.565  0.5394  0.0225  0.1544
 1277SOL    HW115293   0.962   2.078  10.570  0.9991 -1.1797  3.1571
 1277SOL    HW215294   0.855   2.031  10.472 -0.9284 -1.7738  0.5431
 1278SOL     OW15295   0.885   2.381  11.826  0.9765  0.3433 -0.1187
 1278SOL    HW115296   0.965   2.405  11.871 -0.5370  0.2875  2.5792
 1278SOL    HW215297   0.895   2.401  11.733  0.9684  0.0297 -0.1878
 1279SOL     OW15298   3.396   0.074   8.310  0.6752  0.2073  0.4663
 1279SOL    HW115299   3.357   0.160   8.320 -0.8045 -0.6412  2.0401
 1279SOL    HW215300   3.384   0.066   8.216 -1.6816  1.3721  0.6846
 1280SOL     OW15301   1.235   1.120   8.693 -0.3815 -0.2462  0.3971
 1280SOL    HW115302   1.296   1.109   8.765 -2.3499 -3.2764  1.6026
 1280SOL    HW215303   1.200   1.031   8.691  0.2001 -0.4947  1.7030
 1281SOL     OW15304   1.855   1.732   5.953  0.5894  0.5163 -0.3089
 1281SOL    HW115305   1.822   1.725   5.864  0.7367  2.6101 -0.5178
 1281SOL    HW215306   1.936   1.681   5.944 -0.3378 -0.5403 -2.6074
 1282SOL     OW15307   2.617   2.448   1.587  0.1143 -0.1372 -0.6608
 1282SOL    HW115308   2.593   2.526   1.536 -0.9803 -0.2504 -0.3255
 1282SOL    HW215309   2.540   2.427   1.640  0.7345 -1.1064 -0.1494
 1283SOL     OW15310   4.124   3.852   9.971 -0.4256  0.0441  0.4188
 1283SOL    HW115311   4.085   3.776  10.014 -1.4370 -0.3353 -1.1995
 1283SOL    HW215312   4.116   3.826   9.879 -2.2037  1.6026  0.1312
 1284SOL     OW15313   4.300   4.312   7.181 -0.4088 -0.2620  0.3301
 1284SOL    HW115314   4.209   4.341   7.187 -0.4493  0.1019 -2.1185
 1284SOL    HW215315   4.282   4.223   7.211  1.3508 -0.6122  0.3569
 1285SOL     OW15316   1.639   0.393   8.676  0.4567  0.5095 -0.2440
 1285SOL    HW115317   1.586   0.402   8.596 -0.3523  1.9794  0.4561
 1285SOL    HW215318   1.726   0.381   8.637  1.0699  1.9916  0.6306
 1286SOL     OW15319   0.410   0.917   8.928  0.6253 -0.1027 -0.7873
 1286SOL    HW115320   0.392   1.009   8.949  1.1304  0.1386 -1.4072
 1286SOL    HW215321   0.505   0.913   8.920  0.4953 -0.5534 -2.1227
 1287SOL     OW15322   3.504   1.523   9.943  0.2049 -0.5861  0.5748
 1287SOL    HW115323   3.545   1.580   9.878 -1.4154  0.8581  0.8020
 1287SOL    HW215324   3.502   1.584  10.017  1.1533 -1.6640  1.5024
 1288SOL     OW15325   0.389   0.037   0.170  0.6696 -0.0627 -0.3977
 1288SOL    HW115326   0.367   4.676   0.206  1.3560  0.1952  0.6548
 1288SOL    HW215327   0.476   0.015   0.136  0.3615  1.0597 -1.8865
 1289SOL     OW15328   0.539   3.390   5.135  0.1348  0.0609  0.1510
 1289SOL    HW115329   0.474   3.370   5.203  2.3258  4.5394  3.5649
 1289SOL    HW215330   0.582   3.304   5.128  0.0857  0.1214 -0.8982
 1290SOL     OW15331   3.711   3.571   0.983  0.3351  0.4616 -0.3936
 1290SOL    HW115332   3.645   3.634   1.014 -2.3288 -2.0109 -1.0008
 1290SOL    HW215333   3.789   3.621   1.005 -0.0273 -0.2383  2.4763
 1291SOL     OW15334   1.624   3.235   5.629  0.5223 -0.4141  0.2207
 1291SOL    HW115335   1.685   3.162   5.643  0.2263 -0.8141 -0.5638
 1291SOL    HW215336   1.561   3.238   5.701 -0.7180 -1.7972 -0.8048
 1292SOL     OW15337   0.304   1.200   7.088  0.1814 -1.4733  0.3968
 1292SOL    HW115338   0.221   1.247   7.077  0.9060 -0.0107  1.1799
 1292SOL    HW215339   0.283   1.161   7.173  1.1469 -0.5897  1.0333
 1293SOL     OW15340   1.919   0.869  17.512 -0.1531  0.7958  0.6743
 1293SOL    HW115341   1.982   0.939  17.530 -0.4071  1.3363 -0.5688
 1293SOL    HW215342   1.886   0.857  17.602 -1.9493  0.6463  0.0003
 1294SOL     OW15343   3.929   2.159   2.764  0.8325  0.1911 -0.2619
 1294SOL    HW115344   3.845   2.204   2.766  1.1395  0.7589 -0.2440
 1294SOL    HW215345   3.993   2.229   2.776  2.7402 -1.8609  1.5108
 1295SOL     OW15346   1.768   0.764   1.207 -0.3137 -0.8200 -0.5287
 1295SOL    HW115347   1.747   0.774   1.114 -1.5616  1.8660  0.0305
 1295SOL    HW215348   1.730   0.678   1.222 -0.8169 -0.4780  0.1513
 1296SOL     OW15349   0.411   2.198  16.396  0.5122  0.2023 -0.0422
 1296SOL    HW115350   0.447   2.203  16.484  0.4067  1.2289 -0.0561
 1296SOL    HW215351   0.431   2.106  16.374  0.6330  0.6356 -1.8008
 1297SOL     OW15352   3.547   4.394  15.004 -0.2911 -0.5124  0.6925
 1297SOL    HW115353   3.536   4.320  15.063 -0.9058 -1.6771 -0.8647
 1297SOL    HW215354   3.641   4.406  15.011 -0.5543  0.8769  1.7839
 1298SOL     OW15355   0.141   1.766   6.856 -0.3983  0.1512  0.3822
 1298SOL    HW115356   0.108   1.734   6.940 -3.4472  0.6715 -0.6324
 1298SOL    HW215357   0.172   1.853   6.882  1.3859 -0.2509 -0.3654
 1299SOL     OW15358   0.058   4.600   2.282 -0.4326 -0.4896 -0.0578
 1299SOL    HW115359   0.060   4.505   2.284 -0.1549 -0.4813  0.0418
 1299SOL    HW215360   0.130   4.615   2.221  0.9207 -0.4325  1.5363
 1300SOL     OW15361   0.755   1.533   1.870  0.1776  0.0747 -0.0086
 1300SOL    HW115362   0.786   1.444   1.853 -2.1205 -0.9901  1.3681
 1300SOL    HW215363   0.756   1.566   1.780 -0.0145  1.2280  0.4005
 1301SOL     OW15364   4.508   4.444   5.578 -0.0654 -0.4218 -0.6117
 1301SOL    HW115365   4.422   4.444   5.536  0.3066  0.2416 -1.3850
 1301SOL    HW215366   4.531   4.351   5.571 -0.2813 -0.2769 -3.2814
 1302SOL     OW15367   4.635   3.464  13.797 -0.0572 -0.4296 -0.2447
 1302SOL    HW115368   4.707   3.469  13.733  0.3853 -1.8645  0.1482
 1302SOL    HW215369   4.654   3.526  13.867  1.6172 -1.4830  0.2296
 1303SOL     OW15370   4.134   2.388  17.546  0.5111  0.2473  0.1338
 1303SOL    HW115371   4.197   2.361  17.612  0.8601 -0.3795 -0.4528
 1303SOL    HW215372   4.053   2.358  17.587 -0.1408 -1.5122 -2.4299
 1304SOL     OW15373   1.676   0.988  15.685  0.9659  0.2717  0.0803
 1304SOL    HW115374   1.652   1.024  15.770 -1.1038  1.5253 -1.0527
 1304SOL    HW215375   1.630   1.055  15.635 -0.3511 -1.2990 -0.7947
 1305SOL     OW15376   4.457   1.302   3.174 -0.2520  0.2353  0.1698
 1305SOL    HW115377   4.388   1.347   3.222 -2.4158 -2.3787 -0.4999
 1305SOL    HW215378   4.486   1.366   3.108 -3.4723  1.2493 -0.2468
 1306SOL     OW15379   3.736   1.738  11.404  0.2903  0.2815 -0.1915
 1306SOL    HW115380   3.659   1.793  11.391 -1.4759 -1.7983  1.5907
 1306SOL    HW215381   3.764   1.767  11.491  1.3494  2.1669 -1.1502
 1307SOL     OW15382   3.916   3.580   6.155  0.1222  0.2915  0.3550
 1307SOL    HW115383   3.930   3.543   6.242 -1.8877  0.0944  0.5849
 1307SOL    HW215384   3.833   3.539   6.132  0.8311 -0.6605 -0.5467
 1308SOL     OW15385   2.216   1.718   3.848 -0.1138  0.4721  0.4287
 1308SOL    HW115386   2.275   1.694   3.919 -0.5515  1.6302  1.1833
 1308SOL    HW215387   2.241   1.809   3.839  3.2750 -0.3893  1.4686
 1309SOL     OW15388   1.937   2.553  14.493  0.0356  0.3965  0.8036
 1309SOL    HW115389   1.992   2.629  14.477 -0.8502  0.2325 -2.9411
 1309SOL    HW215390   1.914   2.540  14.401 -0.5473 -0.7908  1.1217
 1310SOL     OW15391   2.788   3.396   7.893  0.2027 -0.3203  0.3541
 1310SOL    HW115392   2.756   3.393   7.803 -2.8085 -0.0747  1.4365
 1310SOL    HW215393   2.716   3.349   7.935 -0.8889 -0.6769 -1.9122
 1311SOL     OW15394   2.877   0.800   1.221 -0.4181 -0.1122  0.2590
 1311SOL    HW115395   2.869   0.875   1.279  2.1329  1.3887 -1.3704
 1311SOL    HW215396   2.903   0.734   1.286 -1.3371 -1.6182 -0.8939
 1312SOL     OW15397   1.756   4.361   6.737  0.0985 -0.1236  0.5241
 1312SOL    HW115398   1.816   4.435   6.727 -2.0982  1.7403  1.1696
 1312SOL    HW215399   1.667   4.397   6.738  0.5278  0.9530  0.2077
 1313SOL     OW15400   3.933   3.188   4.263 -0.8203  0.1556 -0.8678
 1313SOL    HW115401   4.001   3.224   4.319  0.5923 -2.4220 -0.8864
 1313SOL    HW215402   3.863   3.190   4.328 -1.1151  1.0103 -1.2112
 1314SOL     OW15403   1.277   2.976   6.914  0.0190  0.3435 -0.2676
 1314SOL    HW115404   1.302   2.950   7.003 -0.1853 -1.6247 -0.8034
 1314SOL    HW215405   1.232   2.897   6.885 -0.2906  1.2502 -2.2322
 1315SOL     OW15406   3.368   0.755   3.903  0.2690  0.0868 -0.1057
 1315SOL    HW115407   3.432   0.709   3.957  0.4721 -0.1515 -0.5496
 1315SOL    HW215408   3.382   0.707   3.822 -0.8872 -0.5800  0.0866
 1316SOL     OW15409   1.456   3.196   7.410 -0.7101 -0.0120  0.2224
 1316SOL    HW115410   1.527   3.215   7.471  0.3408 -2.0566 -0.3396
 1316SOL    HW215411   1.445   3.276   7.360  2.1444  0.5355  0.4847
 1317SOL     OW15412   0.604   3.392  14.173 -0.0449  0.3502 -0.7787
 1317SOL    HW115413   0.570   3.421  14.089  0.9283  1.3684 -0.8283
 1317SOL    HW215414   0.547   3.437  14.236  0.1953  0.3596 -0.5648
 1318SOL     OW15415   4.191   0.742  10.656 -0.0546 -0.8170  0.2540
 1318SOL    HW115416   4.254   0.799  10.700 -0.8930 -0.3370  0.8231
 1318SOL    HW215417   4.238   0.708  10.579 -1.1299 -2.3852  0.2772
 1319SOL     OW15418   0.157   2.144   9.110  0.2186  0.3166 -0.0419
 1319SOL    HW115419   0.179   2.139   9.203  0.9192 -1.7023 -0.3225
 1319SOL    HW215420   0.066   2.114   9.117  0.3230  0.7162  3.1773
 1320SOL     OW15421   3.622   2.743   9.297  0.0062  0.5359 -0.6063
 1320SOL    HW115422   3.609   2.835   9.272 -1.7127  0.0718 -1.4110
 1320SOL    HW215423   3.717   2.739   9.282 -0.0581 -1.7640 -0.3375
 1321SOL     OW15424   0.898   2.819   7.013  0.2603  0.4421  0.0481
 1321SOL    HW115425   0.818   2.860   6.980 -0.1080 -0.0343  0.3530
 1321SOL    HW215426   0.905   2.859   7.100  3.3545 -0.9748  0.4554
 1322SOL     OW15427   2.751   2.637   9.265 -0.5012  0.6872  0.2765
 1322SOL    HW115428   2.742   2.728   9.293  1.3790  0.5752  1.2387
 1322SOL    HW215429   2.799   2.606   9.342 -1.4250  2.0491  1.4133
 1323SOL     OW15430   0.883   3.032   1.239  0.2008 -0.4108  0.2190
 1323SOL    HW115431   0.793   3.036   1.272 -0.2659  1.5222 -1.2997
 1323SOL    HW215432   0.923   3.074   1.316 -0.6657 -0.8154  0.8840
 1324SOL     OW15433   1.317   1.410   2.086 -0.3039 -0.4433  0.1712
 1324SOL    HW115434   1.320   1.340   2.151 -1.0014 -1.8876 -1.3561
 1324SOL    HW215435   1.229   1.446   2.098  0.4979  1.6789 -0.2573
 1325SOL     OW15436   2.773   0.422   4.531 -0.1070 -0.3083  0.4966
 1325SOL    HW115437   2.766   0.449   4.439 -1.2431 -1.2504  0.2946
 1325SOL    HW215438   2.704   0.356   4.542  0.6282 -1.0008  0.9521
 1326SOL     OW15439   1.270   4.676   7.701  0.1233  0.3463 -0.5226
 1326SOL    HW115440   1.227   0.032   7.674  1.1116  0.3622 -2.0731
 1326SOL    HW215441   1.286   4.690   7.794 -0.6153  1.7238 -0.5963
 1327SOL     OW15442   4.335   3.920   1.141  0.2504  0.1770  0.2247
 1327SOL    HW115443   4.394   3.854   1.104 -0.4159  0.0127 -0.5564
 1327SOL    HW215444   4.395   3.993   1.154  0.6013  0.0267 -0.5605
 1328SOL     OW15445   4.162   4.520  17.642 -0.2852 -0.2763  0.6907
 1328SOL    HW115446   4.183   4.479   0.024  2.3739 -0.2303  0.0499
 1328SOL    HW215447   4.080   4.474  17.622 -0.1541  0.7080 -2.1453
 1329SOL     OW15448   1.418   3.369  14.861  0.3347  0.0620 -0.3184
 1329SOL    HW115449   1.363   3.393  14.935 -2.0214 -0.4541 -1.9031
 1329SOL    HW215450   1.484   3.315  14.904  0.6822  1.3052  0.6996
 1330SOL     OW15451   0.849   3.378  17.540  0.0489  0.0645 -0.7204
 1330SOL    HW115452   0.824   3.419  17.457  1.3781  2.0314 -0.1538
 1330SOL    HW215453   0.916   3.320  17.503 -0.4288 -0.0786 -1.3642
 1331SOL     OW15454   2.944   0.878   9.051 -0.0651 -0.1842  0.5851
 1331SOL    HW115455   2.969   0.970   9.051 -1.7388  0.2706 -0.6252
 1331SOL    HW215456   3.026   0.833   9.073  1.3372  1.6102 -0.8834
 1332SOL     OW15457   1.718   2.496   4.689 -0.4390  0.6265  0.5294
 1332SOL    HW115458   1.775   2.542   4.627 -1.2187 -0.8252 -1.2550
 1332SOL    HW215459   1.742   2.550   4.765  0.5494  0.7166  0.1560
 1333SOL     OW15460   1.106   0.214   2.446 -0.0880  0.1258  0.1473
 1333SOL    HW115461   1.175   0.275   2.418  0.8991 -0.4817  1.2339
 1333SOL    HW215462   1.049   0.268   2.500 -0.3205  1.3930 -1.3543
 1334SOL     OW15463   2.847   2.617   1.279  0.2961 -0.2762 -0.3828
 1334SOL    HW115464   2.865   2.636   1.187 -1.9796  1.8667 -0.3898
 1334SOL    HW215465   2.755   2.642   1.288  0.3446 -1.4190  3.3871
 1335SOL     OW15466   4.586   1.755  10.457  0.4350  0.0655 -0.4510
 1335SOL    HW115467   4.609   1.770  10.548  1.2340 -1.0828 -0.4785
 1335SOL    HW215468   4.632   1.823  10.407 -2.5511  1.6839 -0.9753
 1336SOL     OW15469   2.635   1.120   7.325  0.2514  0.1737 -0.0850
 1336SOL    HW115470   2.710   1.115   7.384  0.2325 -0.0084 -0.0776
 1336SOL    HW215471   2.667   1.077   7.246 -2.9993 -0.7670 -0.9071
 1337SOL     OW15472   4.070   2.295   0.619 -0.1415  0.2472  0.1199
 1337SOL    HW115473   4.076   2.209   0.577  1.6178  1.0710 -1.3743
 1337SOL    HW215474   3.997   2.283   0.680 -0.6632  0.0546 -0.5410
 1338SOL     OW15475   1.417   0.434   6.618 -0.3714 -0.7043 -0.3169
 1338SOL    HW115476   1.486   0.485   6.575  0.2718 -1.3363 -0.0320
 1338SOL    HW215477   1.455   0.402   6.699 -1.7293 -0.7127  0.3121
 1339SOL     OW15478   1.257   0.889   5.214 -0.2136 -0.4739  0.0012
 1339SOL    HW115479   1.200   0.880   5.138  0.4618  0.4429 -0.6030
 1339SOL    HW215480   1.268   0.984   5.219 -0.3044 -0.4423 -0.3973
 1340SOL     OW15481   0.641   0.599   2.848 -0.5761 -0.3226 -0.2433
 1340SOL    HW115482   0.611   0.677   2.802  1.9629 -0.4216 -2.0388
 1340SOL    HW215483   0.584   0.534   2.806 -1.1287  0.0138 -0.0107
 1341SOL     OW15484   0.327   2.665   4.126  0.0154 -0.9767 -0.3254
 1341SOL    HW115485   0.279   2.728   4.072  0.8503  0.1332  0.2118
 1341SOL    HW215486   0.420   2.675   4.107 -0.2096  0.4772 -0.6729
 1342SOL     OW15487   0.621   4.464   7.327 -0.4486  0.3520 -0.1170
 1342SOL    HW115488   0.657   4.524   7.393 -2.4478  2.6914 -1.1444
 1342SOL    HW215489   0.559   4.421   7.386 -0.5562  3.3059  1.9289
 1343SOL     OW15490   1.301   3.298  11.515 -0.1406 -0.0981  0.1111
 1343SOL    HW115491   1.397   3.301  11.518 -0.1566  1.9763 -1.8988
 1343SOL    HW215492   1.281   3.370  11.455  0.0594 -0.0894  0.0548
 1344SOL     OW15493   1.407   2.902   5.097  0.2913 -0.1472 -0.2230
 1344SOL    HW115494   1.433   2.869   5.183  0.3630 -0.6568 -0.4390
 1344SOL    HW215495   1.387   2.995   5.108  1.3185  0.5824 -4.4535
 1345SOL     OW15496   3.217   2.958   9.084  0.0994  0.1046 -0.6511
 1345SOL    HW115497   3.214   2.901   9.007  3.5146  0.2221 -0.8557
 1345SOL    HW215498   3.185   2.892   9.146  1.0822  0.8258  0.6057
 1346SOL     OW15499   1.667   2.514  16.568  0.2223 -0.5922  0.6269
 1346SOL    HW115500   1.610   2.556  16.632  1.3598  1.2721  0.4063
 1346SOL    HW215501   1.608   2.461  16.514  1.6764 -0.6508 -0.9376
 1347SOL     OW15502   4.342   1.444  11.919  0.1917 -0.0083  0.0560
 1347SOL    HW115503   4.280   1.432  11.990  0.1964 -4.8787 -0.7498
 1347SOL    HW215504   4.298   1.422  11.837 -0.9243  2.4467  0.0139
 1348SOL     OW15505   2.062   3.825  11.830  0.3807 -0.1661  0.2001
 1348SOL    HW115506   2.141   3.861  11.871 -0.3622 -1.3153  2.5963
 1348SOL    HW215507   2.094   3.737  11.812 -3.1246 -1.6656  1.4940
 1349SOL     OW15508   0.683   3.462   6.313 -0.0698  0.7991 -0.1909
 1349SOL    HW115509   0.708   3.555   6.312 -0.3530  0.8689 -1.0964
 1349SOL    HW215510   0.765   3.417   6.334 -1.2755 -0.5978  1.4965
 1350SOL     OW15511   4.601   0.871  14.791  0.1336  0.3070  0.5893
 1350SOL    HW115512   4.566   0.863  14.879  1.0571 -3.1929  0.6345
 1350SOL    HW215513   4.532   0.834  14.736 -0.5892 -1.5853  2.7777
 1351SOL     OW15514   1.106   3.177   6.979 -0.4278  0.2709 -0.4400
 1351SOL    HW115515   1.179   3.117   6.965 -0.0620  1.0091 -1.7244
 1351SOL    HW215516   1.091   3.174   7.073 -1.4295  0.2465 -0.6037
 1352SOL     OW15517   1.746   2.009   1.718 -0.1263  0.2173  0.2437
 1352SOL    HW115518   1.706   1.923   1.702 -1.3343  0.7866  0.2078
 1352SOL    HW215519   1.783   2.024   1.631 -0.9510  2.5831  0.3129
 1353SOL     OW15520   3.538   2.415   6.227  0.8190 -0.3158  0.0182
 1353SOL    HW115521   3.497   2.338   6.188 -0.8178  0.5847 -0.0243
 1353SOL    HW215522   3.620   2.380   6.263  0.6233 -1.2696 -0.4470
 1354SOL     OW15523   2.343   3.762  13.732 -0.1964 -0.6203 -0.4623
 1354SOL    HW115524   2.357   3.823  13.804 -0.6604 -1.4170  0.3124
 1354SOL    HW215525   2.431   3.726  13.727  0.3589  0.7136 -0.0823
 1355SOL     OW15526   0.607   0.396   1.413  0.1021  0.1892 -0.0958
 1355SOL    HW115527   0.623   0.433   1.500 -1.6025  3.3992 -1.1594
 1355SOL    HW215528   0.678   0.428   1.357 -1.5760 -0.8592 -2.7966
 1356SOL     OW15529   1.468   1.433   7.813 -0.0962  0.3145  0.2585
 1356SOL    HW115530   1.523   1.409   7.888  0.9945  0.6599 -0.4219
 1356SOL    HW215531   1.438   1.523   7.825  1.5142  0.8213  0.4574
 1357SOL     OW15532   3.017   2.722  10.925  0.0275 -0.2067 -0.0737
 1357SOL    HW115533   2.974   2.682  10.849  0.7311  0.4799 -0.8323
 1357SOL    HW215534   3.038   2.810  10.895 -1.8618  0.4419  0.5536
 1358SOL     OW15535   3.808   2.505  13.687  0.4199  0.0093 -0.1535
 1358SOL    HW115536   3.772   2.445  13.752  0.9561 -1.0007 -0.7935
 1358SOL    HW215537   3.755   2.487  13.610  1.4662  1.4026 -1.1875
 1359SOL     OW15538   2.616   1.386   7.218  0.1637  0.3288  0.3627
 1359SOL    HW115539   2.607   1.435   7.300 -0.1739 -0.0929  0.5770
 1359SOL    HW215540   2.603   1.297   7.251 -1.6246 -0.4653 -2.5167
 1360SOL     OW15541   1.527   0.540  15.941  0.1288  0.1128  0.1451
 1360SOL    HW115542   1.478   0.569  15.863  1.0431  0.1984 -0.3967
 1360SOL    HW215543   1.586   0.615  15.954 -0.6635  0.4918  1.6226
 1361SOL     OW15544   0.317   3.468   5.795 -0.4211  0.1560 -0.5137
 1361SOL    HW115545   0.261   3.460   5.718 -0.5204 -1.9219 -0.2324
 1361SOL    HW215546   0.383   3.520   5.750  1.0148 -2.1099 -1.0506
 1362SOL     OW15547   0.110   4.045   4.299  0.3687 -0.1695  0.3158
 1362SOL    HW115548   0.182   4.107   4.308 -1.4262  2.1476 -1.4781
 1362SOL    HW215549   0.159   3.966   4.320 -1.7275 -1.6704 -0.4598
 1363SOL     OW15550   0.606   2.693   3.784 -0.1203  0.7894 -0.1441
 1363SOL    HW115551   0.584   2.664   3.695 -0.5674 -1.4841  0.6858
 1363SOL    HW215552   0.533   2.751   3.807 -1.2776 -0.9649  0.6334
 1364SOL     OW15553   0.853   0.891   0.978 -0.2687 -0.0183 -0.1873
 1364SOL    HW115554   0.820   0.897   1.068 -2.5032  2.6573 -1.1777
 1364SOL    HW215555   0.846   0.982   0.948  2.2237  0.4922  0.7847
 1365SOL     OW15556   1.348   4.346   7.404 -0.6563  0.5974  0.5693
 1365SOL    HW115557   1.306   4.347   7.318 -0.6117 -0.1960  0.5374
 1365SOL    HW215558   1.342   4.251   7.415 -0.6218  0.4227 -1.0045
 1366SOL     OW15559   2.920   0.415   3.793  0.5306 -0.3518 -0.3325
 1366SOL    HW115560   2.885   0.327   3.777  1.0591 -0.3309 -1.6289
 1366SOL    HW215561   2.971   0.410   3.711  1.0185 -1.1394  0.0151
 1367SOL     OW15562   3.952   4.400   6.676 -0.3243  0.1792 -1.5653
 1367SOL    HW115563   3.932   4.493   6.680 -0.0488  0.1728  0.0344
 1367SOL    HW215564   3.887   4.384   6.607 -2.1313 -0.3870  0.2657
 1368SOL     OW15565   3.152   1.238  12.253 -0.4945 -0.3799  0.0309
 1368SOL    HW115566   3.146   1.223  12.347  2.4001 -1.0731  0.1085
 1368SOL    HW215567   3.135   1.332  12.242 -1.8145 -0.6508 -0.1439
 1369SOL     OW15568   4.626   2.600   0.122  0.6105 -0.7312  0.1844
 1369SOL    HW115569   4.570   2.598   0.045  1.5137 -0.5724 -0.4818
 1369SOL    HW215570   4.625   2.506   0.142 -0.2956 -0.5263  1.0766
 1370SOL     OW15571   0.369   1.347   1.207 -0.1845  0.2706  0.1210
 1370SOL    HW115572   0.359   1.337   1.112 -0.8529  1.3011  0.0744
 1370SOL    HW215573   0.352   1.260   1.243  0.9530  0.3664  0.8922
 1371SOL     OW15574   4.097   2.807   2.751 -0.5489  0.0532  0.5862
 1371SOL    HW115575   4.029   2.788   2.815  0.6031 -2.1355  1.1479
 1371SOL    HW215576   4.146   2.725   2.750  1.4016  1.2249 -1.8516
 1372SOL     OW15577   3.329   4.673  10.058  0.3965  0.6844 -0.1622
 1372SOL    HW115578   3.302   4.591  10.016 -1.6489  1.2948 -0.0602
 1372SOL    HW215579   3.252   0.005  10.060 -0.3191 -0.2324 -1.5619
 1373SOL     OW15580   2.181   2.444   8.232  0.1762 -0.3842  0.1121
 1373SOL    HW115581   2.183   2.521   8.175  1.4049 -0.0888  0.5590
 1373SOL    HW215582   2.244   2.471   8.299  2.5353 -0.4212 -2.1008
 1374SOL     OW15583   3.915   4.022  13.567  0.1067 -0.0591 -0.1244
 1374SOL    HW115584   3.869   4.061  13.493 -3.6228 -0.8962  1.7907
 1374SOL    HW215585   3.848   4.017  13.635 -0.4744  1.0326 -0.6329
 1375SOL     OW15586   4.182   4.526   5.085 -0.6991  0.1082  0.0558
 1375SOL    HW115587   4.213   4.446   5.043 -0.4797 -0.3730  1.1447
 1375SOL    HW215588   4.248   4.593   5.070 -0.4054 -0.6122 -1.8341
 1376SOL     OW15589   2.246   1.576   7.489  0.1052 -0.2623 -0.2746
 1376SOL    HW115590   2.336   1.608   7.496 -0.1725  0.1827  1.3076
 1376SOL    HW215591   2.264   1.486   7.459 -0.2949 -0.1395 -0.8744
 1377SOL     OW15592   0.819   2.321  10.514 -0.2768 -0.0344 -0.7041
 1377SOL    HW115593   0.813   2.260  10.587 -0.6567 -1.2261 -1.7209
 1377SOL    HW215594   0.853   2.391  10.570  0.5973 -3.1837  2.7106
 1378SOL     OW15595   3.044   1.586   1.918  0.0815 -0.2895 -0.7629
 1378SOL    HW115596   2.991   1.659   1.885 -1.0254 -0.0422  1.5450
 1378SOL    HW215597   2.985   1.551   1.985 -0.2956  0.2482 -0.8117
 1379SOL     OW15598   1.366   0.678   4.082 -0.8221  0.3036 -0.2978
 1379SOL    HW115599   1.378   0.646   4.172 -1.7083  0.2172 -0.2125
 1379SOL    HW215600   1.431   0.748   4.071  0.3183 -0.3944  1.9306
 1380SOL     OW15601   2.078   3.607   9.002  0.4728 -0.2566 -0.4511
 1380SOL    HW115602   2.128   3.599   8.920 -1.2116  0.1312 -1.5148
 1380SOL    HW215603   2.050   3.698   8.997  0.6039 -0.2406 -0.8822
 1381SOL     OW15604   2.950   0.222   6.357  0.1935  0.5539  0.1305
 1381SOL    HW115605   3.001   0.177   6.289 -2.0264 -1.6415 -0.0923
 1381SOL    HW215606   2.944   0.160   6.430 -0.2920  0.8355  0.3290
 1382SOL     OW15607   4.596   1.345   7.210 -0.5061  0.1212 -0.2756
 1382SOL    HW115608   4.577   1.300   7.292 -1.6485  1.2062  0.0686
 1382SOL    HW215609   4.509   1.380   7.188 -0.1735  1.2625  0.2121
 1383SOL     OW15610   4.445   4.471   2.230 -0.8090  0.4132  0.4249
 1383SOL    HW115611   4.368   4.431   2.268 -0.1504 -0.4199  0.8569
 1383SOL    HW215612   4.513   4.405   2.218 -2.8219 -1.0098 -3.1661
 1384SOL     OW15613   2.005   3.343  13.707  0.0557 -0.3617  0.6179
 1384SOL    HW115614   2.072   3.275  13.699 -1.0715 -1.2429 -1.3483
 1384SOL    HW215615   2.041   3.426  13.674  0.4617 -1.1604 -0.9790
 1385SOL     OW15616   3.699   0.218   6.733 -0.8187 -0.1487  0.9537
 1385SOL    HW115617   3.648   0.138   6.749 -0.2377 -1.0085 -1.4279
 1385SOL    HW215618   3.703   0.260   6.818 -2.1064  0.2285  0.8350
 1386SOL     OW15619   0.344   2.708   2.640 -0.2346  0.3985 -0.0203
 1386SOL    HW115620   0.404   2.634   2.635 -0.1524  0.6165 -1.9926
 1386SOL    HW215621   0.326   2.719   2.547  0.1691  0.0570 -0.1393
 1387SOL     OW15622   2.049   0.279  14.037 -0.4098 -0.4761  0.5565
 1387SOL    HW115623   2.013   0.301  14.124 -2.9676 -0.3335 -0.5199
 1387SOL    HW215624   1.975   0.251  13.982 -1.2969 -0.3535  1.6727
 1388SOL     OW15625   2.573   2.239   5.026 -0.4709  0.5640 -0.2098
 1388SOL    HW115626   2.553   2.254   5.119 -2.3231  0.3362 -0.5744
 1388SOL    HW215627   2.499   2.278   4.980 -1.3173  0.9269  1.4640
 1389SOL     OW15628   4.505   1.267   8.823 -0.8380 -0.2230 -0.5356
 1389SOL    HW115629   4.438   1.267   8.755  0.4201  1.9603 -1.7577
 1389SOL    HW215630   4.567   1.308   8.763  0.1602  0.1228  0.7188
 1390SOL     OW15631   3.156   2.949   5.595 -0.2506 -0.0429 -0.4582
 1390SOL    HW115632   3.106   2.988   5.667 -0.0178  0.0694 -0.3608
 1390SOL    HW215633   3.123   2.859   5.600  0.4882 -0.3267 -0.7095
 1391SOL     OW15634   3.467   0.270  17.175 -0.2581  0.3133 -0.2528
 1391SOL    HW115635   3.499   0.328  17.244 -0.6648  0.1293  0.0875
 1391SOL    HW215636   3.420   0.332  17.119 -1.5529  0.4427  0.9701
 1392SOL     OW15637   4.326   3.839   7.122  0.2549  0.6725  0.1975
 1392SOL    HW115638   4.288   3.751   7.117 -0.8788  1.1235  0.7783
 1392SOL    HW215639   4.255   3.891   7.086 -0.0222 -0.3461 -0.7191
 1393SOL     OW15640   1.563   1.224   6.470  0.0562 -0.6605  0.1715
 1393SOL    HW115641   1.494   1.286   6.493  2.4455  1.5819  1.3961
 1393SOL    HW215642   1.506   1.154   6.442 -3.0527  0.9732  2.4569
 1394SOL     OW15643   1.689   4.578   9.234  0.2426  0.1249  0.1337
 1394SOL    HW115644   1.645   4.580   9.319  0.1967  0.5872  0.0994
 1394SOL    HW215645   1.673   4.672   9.223  0.0263  0.1386  0.5336
 1395SOL     OW15646   1.063   4.524   5.961 -0.3345  0.1310  0.2375
 1395SOL    HW115647   0.995   4.469   6.000  0.5049 -0.4748  0.8810
 1395SOL    HW215648   1.138   4.468   5.984 -0.0310  0.5694  0.3213
 1396SOL     OW15649   0.848   0.367   6.326  0.4566  0.3963  0.1241
 1396SOL    HW115650   0.834   0.459   6.346  0.5731  0.4061  0.1621
 1396SOL    HW215651   0.934   0.366   6.283  0.6271 -2.1139  0.4882
 1397SOL     OW15652   4.237   3.416   2.817 -0.7380 -0.0576  0.3138
 1397SOL    HW115653   4.165   3.362   2.784 -0.7872 -0.8750  1.7880
 1397SOL    HW215654   4.248   3.478   2.745 -0.8944 -1.8472 -1.2715
 1398SOL     OW15655   3.656   0.081  15.753 -0.5193  0.3165 -0.0204
 1398SOL    HW115656   3.561   0.088  15.760 -1.0438 -2.7381 -3.9785
 1398SOL    HW215657   3.695   0.160  15.791 -0.4196 -0.0422  0.6213
 1399SOL     OW15658   1.707   4.602   5.761  0.2271  0.5222 -0.0361
 1399SOL    HW115659   1.794   4.578   5.791  0.9275  1.1170 -1.5731
 1399SOL    HW215660   1.728   4.686   5.719 -2.4272  0.7989 -0.8395
 1400SOL     OW15661   3.870   2.625  16.255  0.2649 -0.3938 -0.4861
 1400SOL    HW115662   3.798   2.567  16.281  1.6532 -1.3978  1.1495
 1400SOL    HW215663   3.831   2.709  16.279 -3.0706 -1.3453 -2.7410
 1401SOL     OW15664   3.925   2.544   1.140  0.0938 -0.2335 -0.2177
 1401SOL    HW115665   3.982   2.487   1.190  1.4570  0.1309 -1.3562
 1401SOL    HW215666   3.844   2.537   1.191  0.4851  0.6464  0.5283
 1402SOL     OW15667   4.178   4.635  10.610  0.3142  0.0509  0.3562
 1402SOL    HW115668   4.092   4.648  10.650  0.1414 -2.0810  0.6883
 1402SOL    HW215669   4.159   4.643  10.517  0.7857 -3.0399 -0.0065
 1403SOL     OW15670   3.463   4.316  16.065  0.3625 -0.1215  0.4013
 1403SOL    HW115671   3.513   4.334  16.144  1.1621 -1.0379  0.1012
 1403SOL    HW215672   3.473   4.396  16.014  1.0315  1.3143  2.7943
 1404SOL     OW15673   2.250   2.425  14.443 -0.0097  0.2090 -0.0501
 1404SOL    HW115674   2.226   2.401  14.353 -0.2517 -0.6359  0.2373
 1404SOL    HW215675   2.283   2.514  14.431 -1.2298  0.7482  0.5273
 1405SOL     OW15676   2.719   2.182  15.099  0.5035  0.3379  0.4236
 1405SOL    HW115677   2.762   2.229  15.171  1.2319 -1.6704  1.3135
 1405SOL    HW215678   2.734   2.233  15.020  2.5280 -0.6370  0.1770
 1406SOL     OW15679   2.887   1.041   7.659 -0.4485  0.6906 -0.5183
 1406SOL    HW115680   2.799   1.007   7.673  0.3294 -1.2866 -0.3640
 1406SOL    HW215681   2.924   0.969   7.609  1.4784  0.1679  1.6016
 1407SOL     OW15682   0.898   1.090   5.108  0.3085 -0.7303  0.6204
 1407SOL    HW115683   0.977   1.039   5.091  1.6549  2.1411 -1.8975
 1407SOL    HW215684   0.914   1.154   5.038  2.9350 -1.0007  0.9430
 1408SOL     OW15685   0.102   3.256   6.078  0.2628  0.5447 -0.9438
 1408SOL    HW115686   0.076   3.320   6.012 -1.8249  0.7139  0.0530
 1408SOL    HW215687   0.019   3.214   6.099  0.9934  0.2447  1.2974
 1409SOL     OW15688   3.339   2.843   8.527 -0.3081  0.1099 -0.0758
 1409SOL    HW115689   3.309   2.813   8.442  1.6038  0.7017 -0.9622
 1409SOL    HW215690   3.390   2.772   8.566 -2.1340  0.0861  2.2866
 1410SOL     OW15691   0.286   1.925  16.933 -0.3288  0.2516 -0.0957
 1410SOL    HW115692   0.331   1.944  16.850  0.4436 -1.6681 -0.1010
 1410SOL    HW215693   0.252   2.013  16.950 -2.7427 -0.5235 -0.8968
 1411SOL     OW15694   2.287   0.079   5.337 -0.4487  0.3014 -0.1420
 1411SOL    HW115695   2.370   0.123   5.352 -1.0716  2.0967 -1.9821
 1411SOL    HW215696   2.227   0.150   5.358  0.2270  1.8763 -3.4306
 1412SOL     OW15697   3.695   3.682   3.793  0.3514  0.1375  0.2059
 1412SOL    HW115698   3.631   3.722   3.735  2.2565  1.7208 -0.8209
 1412SOL    HW215699   3.746   3.755   3.829 -4.9597  3.3364  1.1767
 1413SOL     OW15700   2.003   2.915  10.701  0.8383  0.4210 -0.6521
 1413SOL    HW115701   2.084   2.915  10.754  0.0521 -0.5492  0.5434
 1413SOL    HW215702   1.943   2.854  10.743 -1.0647  1.6168 -1.6609
 1414SOL     OW15703   2.132   4.216   3.883  0.5202  0.0080  1.0962
 1414SOL    HW115704   2.222   4.186   3.896  1.4445  2.3581 -0.0090
 1414SOL    HW215705   2.111   4.216   3.977  1.5033  0.7777  1.3124
 1415SOL     OW15706   4.433   1.363   5.278 -0.3824  0.5148  0.3194
 1415SOL    HW115707   4.457   1.421   5.206 -1.5797 -0.2961 -0.7236
 1415SOL    HW215708   4.376   1.300   5.234  0.1587  1.7812 -2.1953
 1416SOL     OW15709   2.579   2.675   1.441  0.2615  0.1565 -0.1004
 1416SOL    HW115710   2.542   2.755   1.476  1.5728  0.0897  1.4367
 1416SOL    HW215711   2.539   2.672   1.354 -4.0649  0.5897  1.9055
 1417SOL     OW15712   2.669   1.346   1.652  0.3990  0.6224  0.3416
 1417SOL    HW115713   2.707   1.258   1.652 -2.2962 -0.5358  0.0330
 1417SOL    HW215714   2.598   1.345   1.587  0.7088 -1.0133  0.0075
 1418SOL     OW15715   2.268   3.213   5.511 -0.3103  0.3144 -0.1371
 1418SOL    HW115716   2.235   3.198   5.599 -2.3838 -0.0482 -0.9721
 1418SOL    HW215717   2.202   3.169   5.456  1.0408 -0.6113 -1.0441
 1419SOL     OW15718   1.587   4.083   8.593  0.5339 -0.0384  0.3725
 1419SOL    HW115719   1.590   4.027   8.516 -0.4561  0.9989 -0.4199
 1419SOL    HW215720   1.668   4.134   8.588  0.4447  0.3502  2.6787
 1420SOL     OW15721   0.829   1.046   9.451  0.4441  0.0595  0.4477
 1420SOL    HW115722   0.815   1.129   9.405 -1.7712 -0.3538  0.4148
 1420SOL    HW215723   0.739   1.015   9.460 -0.5186  2.1554 -2.1608
 1421SOL     OW15724   3.022   4.435   3.647 -0.3535 -0.3833 -0.5814
 1421SOL    HW115725   2.992   4.362   3.593 -1.8844 -0.3578  0.2446
 1421SOL    HW215726   3.075   4.386   3.710 -0.1998  1.2509  0.5283
 1422SOL     OW15727   0.111   2.945   6.421 -0.1818 -0.2353  0.3792
 1422SOL    HW115728   0.036   2.952   6.480 -0.4491 -3.0671  0.3494
 1422SOL    HW215729   0.131   3.033   6.388  0.3776 -1.5559 -2.7319
 1423SOL     OW15730   2.224   3.506  15.235  0.0657 -0.2441 -0.2328
 1423SOL    HW115731   2.151   3.524  15.295  0.9383  2.2573  0.0599
 1423SOL    HW215732   2.172   3.450  15.177 -1.8375 -0.5688  1.7961
 1424SOL     OW15733   3.939   2.119   2.134  0.6905 -0.1993  0.1031
 1424SOL    HW115734   4.022   2.164   2.145 -0.2002  2.7664 -5.1016
 1424SOL    HW215735   3.896   2.121   2.219  0.3522  2.8820 -0.1694
 1425SOL     OW15736   0.954   0.282  13.919  0.2616  0.6531 -0.0631
 1425SOL    HW115737   0.867   0.320  13.931  0.0282  0.1698 -0.2083
 1425SOL    HW215738   0.960   0.230  14.000  0.0640 -0.5642 -0.8375
 1426SOL     OW15739   3.990   1.717   2.605  0.6096  0.5636 -0.3543
 1426SOL    HW115740   4.062   1.672   2.650 -0.1721  0.3904  0.7364
 1426SOL    HW215741   3.915   1.690   2.659  1.0201 -0.2655 -0.1857
 1427SOL     OW15742   0.528   2.211   5.951  0.3085  0.3025 -0.2215
 1427SOL    HW115743   0.447   2.189   5.905 -0.9558  1.0518  1.6040
 1427SOL    HW215744   0.496   2.262   6.026  0.1177  2.1393 -1.5528
 1428SOL     OW15745   4.491   2.188   7.516  0.4705 -0.0284 -0.0243
 1428SOL    HW115746   4.587   2.184   7.516  0.4751  0.2000  2.7125
 1428SOL    HW215747   4.483   2.276   7.480  0.2806  0.3067  0.8520
 1429SOL     OW15748   3.417   3.562  13.154 -0.4493  0.2181 -0.4036
 1429SOL    HW115749   3.469   3.623  13.207  0.3997 -0.9658  0.1550
 1429SOL    HW215750   3.374   3.515  13.226  0.9187 -0.0480  0.2533
 1430SOL     OW15751   2.283   4.413   3.497  0.5157  0.7077  0.1479
 1430SOL    HW115752   2.323   4.420   3.411 -0.6558  0.2863 -0.4367
 1430SOL    HW215753   2.330   4.336   3.530 -1.6932 -0.4505  0.6528
 1431SOL     OW15754   2.733   1.433   0.712 -0.1519 -0.4244 -0.5933
 1431SOL    HW115755   2.747   1.414   0.805  4.3202 -2.0363 -1.6533
 1431SOL    HW215756   2.692   1.520   0.719 -0.2698 -0.5416  0.1437
 1432SOL     OW15757   2.503   0.166   7.970  0.7226 -0.0190  0.4022
 1432SOL    HW115758   2.584   0.167   7.920 -2.8587  1.4005 -5.3270
 1432SOL    HW215759   2.477   0.076   7.952 -0.5616  0.2200  1.0004
 1433SOL     OW15760   4.307   1.077   3.052  0.2452  0.3130 -0.4035
 1433SOL    HW115761   4.213   1.082   3.067  0.4389  0.5391  0.7558
 1433SOL    HW215762   4.346   1.157   3.088 -0.7578  0.7268 -0.2350
 1434SOL     OW15763   4.523   1.284  11.360 -0.0295 -0.4619 -0.1016
 1434SOL    HW115764   4.559   1.338  11.430  0.9352 -0.1276 -0.8541
 1434SOL    HW215765   4.569   1.202  11.377 -1.0949 -0.7846  1.2154
 1435SOL     OW15766   3.779   3.411   3.617  0.6846  0.0787  0.9720
 1435SOL    HW115767   3.749   3.495   3.651  1.6073  0.1727  1.5439
 1435SOL    HW215768   3.835   3.435   3.544  3.5848 -1.7817  2.5610
 1436SOL     OW15769   4.259   1.096   7.157  0.0210 -0.4038 -0.4060
 1436SOL    HW115770   4.198   1.110   7.085 -1.6156 -1.0001  0.8749
 1436SOL    HW215771   4.227   1.154   7.226 -0.1351 -1.3753  0.3337
 1437SOL     OW15772   3.423   3.138   5.973 -0.1732 -0.6115 -0.3904
 1437SOL    HW115773   3.446   3.046   5.966 -0.2428 -0.8329  2.4858
 1437SOL    HW215774   3.479   3.169   6.044 -0.9771 -0.1279  0.0390
 1438SOL     OW15775   3.691   3.938  13.710  0.1136  0.3945 -0.5641
 1438SOL    HW115776   3.610   3.896  13.681 -0.3749  1.4373 -0.7012
 1438SOL    HW215777   3.669   3.965  13.799  0.8537 -2.7045  0.5710
 1439SOL     OW15778   4.086   2.289   6.817  0.0413  0.1359 -0.5726
 1439SOL    HW115779   4.128   2.375   6.824 -0.1413  0.1162  0.8946
 1439SOL    HW215780   4.137   2.256   6.743 -0.7182 -1.5584 -0.3416
 1440SOL     OW15781   2.758   3.406   2.887  0.3974  0.0574  0.0292
 1440SOL    HW115782   2.720   3.460   2.817  0.9212  0.5460  0.1160
 1440SOL    HW215783   2.835   3.365   2.847 -0.5259  0.2252 -1.9311
 1441SOL     OW15784   2.962   4.397   4.349  0.3645 -0.1260  0.4747
 1441SOL    HW115785   3.007   4.388   4.264  1.5728 -0.3518  1.1405
 1441SOL    HW215786   2.963   4.490   4.368 -1.0004  0.0774 -0.3944
 1442SOL     OW15787   3.934   0.523   6.681 -0.4529 -0.4966  0.4656
 1442SOL    HW115788   3.998   0.592   6.696 -0.1804 -0.6791  0.1358
 1442SOL    HW215789   3.951   0.519   6.587 -1.4547  1.2756  0.1962
 1443SOL     OW15790   1.064   2.365   5.848  0.0028  0.2749  0.7282
 1443SOL    HW115791   1.101   2.284   5.883  0.6012 -0.7513 -2.2566
 1443SOL    HW215792   1.141   2.420   5.864 -1.3591  1.6727  2.4631
 1444SOL     OW15793   4.569   3.508   5.862 -0.0408 -0.1317 -0.1403
 1444SOL    HW115794   4.586   3.468   5.777 -1.2365  1.0772 -0.9476
 1444SOL    HW215795   4.657   3.517   5.900 -0.3534 -1.1969  0.8337
 1445SOL     OW15796   2.573   1.747   8.548  0.0481 -0.3309 -0.4014
 1445SOL    HW115797   2.560   1.747   8.643 -1.6519  0.1951 -0.6181
 1445SOL    HW215798   2.639   1.678   8.547 -0.0813 -0.4777  1.1715
 1446SOL     OW15799   2.419   0.682   0.729 -0.0109 -0.0512 -0.1358
 1446SOL    HW115800   2.494   0.632   0.762  1.1160  0.1153 -2.4349
 1446SOL    HW215801   2.395   0.739   0.802  1.7597  0.2762  0.1952
 1447SOL     OW15802   1.171   2.292   4.261  0.0293  0.6533  0.2004
 1447SOL    HW115803   1.126   2.215   4.228  0.7238  0.5300 -0.4403
 1447SOL    HW215804   1.149   2.351   4.189  0.6590  1.6481  0.8096
 1448SOL     OW15805   1.562   4.667   9.458 -0.8000  0.1599 -0.0473
 1448SOL    HW115806   1.535   4.606   9.526  1.5937 -0.4728  0.3227
 1448SOL    HW215807   1.488   0.003   9.464 -1.7098 -0.8170 -1.3023
 1449SOL     OW15808   3.621   3.709   6.480  0.7841 -0.3842  0.0863
 1449SOL    HW115809   3.625   3.658   6.561 -0.0601 -0.7151 -0.0769
 1449SOL    HW215810   3.550   3.665   6.433  2.1227  0.7979 -3.0829
 1450SOL     OW15811   4.213   0.767   3.127 -0.2917 -0.1131  0.4552
 1450SOL    HW115812   4.143   0.814   3.082 -0.3915 -1.2019 -0.5216
 1450SOL    HW215813   4.176   0.679   3.121 -1.2924  0.3470 -0.0185
 1451SOL     OW15814   0.510   3.895   2.883 -0.2003 -0.3351  0.1616
 1451SOL    HW115815   0.454   3.819   2.901  0.8920 -0.8324  1.4420
 1451SOL    HW215816   0.496   3.913   2.790  2.6291 -1.4205 -0.4745
 1452SOL     OW15817   2.305   3.687   1.334  0.0710  0.4197 -0.0767
 1452SOL    HW115818   2.340   3.619   1.391  2.6771  0.5647 -1.5090
 1452SOL    HW215819   2.381   3.708   1.280 -0.3876  0.5850 -0.6641
 1453SOL     OW15820   4.530   1.831   9.163  0.2306  0.0417 -0.4164
 1453SOL    HW115821   4.508   1.739   9.153 -2.3768  0.8108 -1.8039
 1453SOL    HW215822   4.625   1.830   9.154  0.3397  1.2243  0.5951
 1454SOL     OW15823   1.078   1.522   2.111  0.5280 -0.2737  0.1792
 1454SOL    HW115824   1.063   1.597   2.169  2.0506 -1.3275  1.9282
 1454SOL    HW215825   0.987   1.491   2.108  0.2823  0.6704 -1.5263
 1455SOL     OW15826   0.277   2.390   4.188 -0.4157  0.4348  0.3934
 1455SOL    HW115827   0.274   2.313   4.131  1.1766  0.9886 -0.4116
 1455SOL    HW215828   0.260   2.465   4.131 -0.9667 -0.6440 -0.8465
 1456SOL     OW15829   2.847   2.512   5.352 -0.3823 -0.6169  0.1294
 1456SOL    HW115830   2.756   2.539   5.342 -0.2101  0.9331  2.6082
 1456SOL    HW215831   2.853   2.451   5.279 -0.5924 -1.2265  0.6240
 1457SOL     OW15832   0.706   0.894   8.643  0.3314  0.0742 -0.2078
 1457SOL    HW115833   0.776   0.933   8.592  0.3855  2.0866  1.4226
 1457SOL    HW215834   0.658   0.840   8.580  1.8076  0.9728 -2.1039
 1458SOL     OW15835   0.128   0.891  14.750 -0.4345 -0.1532  0.4907
 1458SOL    HW115836   0.136   0.802  14.782 -1.7812 -0.3285  0.3296
 1458SOL    HW215837   0.034   0.897  14.735 -0.6648 -0.0923  1.9439
 1459SOL     OW15838   1.689   1.841   6.898 -0.2771 -0.0028 -0.2117
 1459SOL    HW115839   1.701   1.750   6.872 -1.3657  0.3509 -1.9431
 1459SOL    HW215840   1.601   1.827   6.933  0.7209 -0.1233  2.2533
 1460SOL     OW15841   4.677   2.615  16.539 -0.4337  0.4939 -0.5182
 1460SOL    HW115842   4.593   2.599  16.582 -0.5523 -0.2686 -1.0449
 1460SOL    HW215843   4.713   2.689  16.588  1.1170  0.9352 -2.3191
 1461SOL     OW15844   3.337   4.534   3.768  0.3062  0.3909 -0.5467
 1461SOL    HW115845   3.335   4.629   3.771 -1.9225  0.3538 -1.2906
 1461SOL    HW215846   3.274   4.511   3.836  0.7884 -1.6227 -0.7818
 1462SOL     OW15847   1.501   2.664  16.768  0.1044 -0.2097  0.1735
 1462SOL    HW115848   1.552   2.723  16.712 -0.8553  0.6665  0.2243
 1462SOL    HW215849   1.499   2.704  16.854  2.5553  0.8929 -0.2712
 1463SOL     OW15850   0.321   0.997   9.775  0.1050 -0.1517  0.5664
 1463SOL    HW115851   0.393   1.049   9.811  1.3001 -1.3206 -0.0887
 1463SOL    HW215852   0.331   0.928   9.840  2.0474 -1.9008 -1.5625
 1464SOL     OW15853   2.186   0.850   1.183 -0.0250 -0.2853  0.4977
 1464SOL    HW115854   2.095   0.826   1.203 -0.6217  0.5376 -1.2752
 1464SOL    HW215855   2.218   0.868   1.272  0.3401 -1.3435  0.5877
 1465SOL     OW15856   2.874   2.068   7.602 -0.1970  0.6960  0.6306
 1465SOL    HW115857   2.932   2.125   7.653 -1.6092  2.1517  0.5903
 1465SOL    HW215858   2.803   2.049   7.662 -0.5511 -1.5576 -0.5096
 1466SOL     OW15859   4.028   3.286  14.619 -0.5516 -0.0188  0.3125
 1466SOL    HW115860   4.038   3.314  14.528  2.4312  0.7752  0.9147
 1466SOL    HW215861   4.004   3.371  14.656  0.7694  0.4059  0.1862
 1467SOL     OW15862   1.979   2.075   2.627  0.0670 -0.3382  0.1848
 1467SOL    HW115863   1.942   2.039   2.547  1.0501  1.1182 -0.9243
 1467SOL    HW215864   1.937   2.033   2.702  1.1684  0.2446  1.1391
 1468SOL     OW15865   3.831   0.746   3.125  0.2508 -0.6074 -0.0270
 1468SOL    HW115866   3.838   0.653   3.148 -0.8733 -0.2203  1.8558
 1468SOL    HW215867   3.797   0.784   3.206 -0.7750  0.3901 -0.9251
 1469SOL     OW15868   1.655   1.935   7.886  0.4940 -0.5284  0.0064
 1469SOL    HW115869   1.641   1.896   7.799 -3.2996  1.2639 -0.1742
 1469SOL    HW215870   1.663   1.863   7.948 -2.8046  0.4844  1.5808
 1470SOL     OW15871   0.939   1.381   8.428  0.0625 -0.2325  0.3796
 1470SOL    HW115872   0.889   1.390   8.509 -0.1262 -0.1836  0.2587
 1470SOL    HW215873   0.898   1.445   8.369  1.2438 -1.2098 -1.5066
 1471SOL     OW15874   3.587   4.204   8.741 -0.0150 -0.2208  0.3115
 1471SOL    HW115875   3.643   4.140   8.697 -3.3649 -1.0382 -2.7815
 1471SOL    HW215876   3.564   4.269   8.675 -0.3176 -1.7127 -1.0552
 1472SOL     OW15877   1.972   0.457  13.814  0.0412 -0.1183  0.7811
 1472SOL    HW115878   1.998   0.382  13.760  1.4421  0.8897  0.0269
 1472SOL    HW215879   1.978   0.527  13.749  0.7832  0.0873  1.0704
 1473SOL     OW15880   3.890   4.555  14.851  0.9507 -0.0551 -0.0087
 1473SOL    HW115881   3.826   4.520  14.790  0.7734  0.9167 -0.3775
 1473SOL    HW215882   3.931   4.475  14.885 -2.8992 -0.6540  3.2752
 1474SOL     OW15883   2.779   0.531  15.605  0.9956  0.2414 -0.8078
 1474SOL    HW115884   2.754   0.508  15.516 -1.9866  2.0036 -0.4455
 1474SOL    HW215885   2.732   0.464  15.655 -0.9248  1.8328 -0.4781
 1475SOL     OW15886   2.925   1.496   4.370 -0.5632  0.2045  0.6704
 1475SOL    HW115887   2.915   1.403   4.349  1.2222  0.3179 -0.7165
 1475SOL    HW215888   3.015   1.508   4.342  0.3861 -0.7859  3.3280
 1476SOL     OW15889   2.993   4.523   4.757 -0.3314  0.6060  0.2263
 1476SOL    HW115890   2.950   4.599   4.798  0.1717  1.2946 -0.5283
 1476SOL    HW215891   2.913   4.470   4.752 -1.6956  2.4289  2.2288
 1477SOL     OW15892   2.276   1.559   2.287  0.5724  0.0142 -0.0030
 1477SOL    HW115893   2.348   1.552   2.224  0.4457  0.5920 -0.2057
 1477SOL    HW215894   2.199   1.557   2.230  1.4397  2.2112 -1.2512
 1478SOL     OW15895   0.438   1.832   6.459 -0.1773 -0.1200  0.0195
 1478SOL    HW115896   0.366   1.772   6.443 -0.9477  0.5107  1.1155
 1478SOL    HW215897   0.474   1.792   6.538 -0.0782 -1.1940 -0.5655
 1479SOL     OW15898   3.827   3.641   4.479  0.0783 -0.8120  0.1112
 1479SOL    HW115899   3.755   3.645   4.416  1.7636  2.0214 -1.6256
 1479SOL    HW215900   3.854   3.732   4.487 -0.5964 -0.4599 -1.5756
 1480SOL     OW15901   0.637   0.044   5.853 -0.2993  0.7108  0.1826
 1480SOL    HW115902   0.645   0.020   5.760 -1.1646  0.9168  0.0536
 1480SOL    HW215903   0.643   4.683   5.895 -0.3568  0.0456 -1.1376
 1481SOL     OW15904   1.237   0.150   1.790 -0.0979  0.9132  0.3742
 1481SOL    HW115905   1.251   0.056   1.790  0.7584  1.0479 -1.8252
 1481SOL    HW215906   1.182   0.156   1.869 -0.3761 -1.6680  0.3556
 1482SOL     OW15907   4.616   2.375  13.999 -0.5565 -0.2004  0.0574
 1482SOL    HW115908   4.615   2.469  13.983 -1.3499 -0.5543 -1.9939
 1482SOL    HW215909   4.667   2.356  13.920  0.1391  0.0613  0.4422
 1483SOL     OW15910   1.986   3.010   4.596  0.3779  0.2311  0.0445
 1483SOL    HW115911   2.044   3.038   4.667 -1.1534  0.4439  1.2258
 1483SOL    HW215912   1.910   2.989   4.651  0.3705  1.6245  0.5835
 1484SOL     OW15913   1.868   2.255   3.998  0.5545 -0.1593 -0.1738
 1484SOL    HW115914   1.923   2.186   4.035  1.4531  1.6280  1.8312
 1484SOL    HW215915   1.824   2.214   3.924 -0.8534 -0.4342  0.8248
 1485SOL     OW15916   3.178   1.010   7.381 -0.1196 -0.1303  0.3220
 1485SOL    HW115917   3.085   0.989   7.388 -0.1612 -0.0259  0.0644
 1485SOL    HW215918   3.195   1.049   7.467 -1.4925  2.1935 -0.4399
 1486SOL     OW15919   1.963   2.975   2.439  0.1934  0.4538  0.0285
 1486SOL    HW115920   1.972   3.057   2.391  1.2910 -0.5341 -1.4574
 1486SOL    HW215921   2.028   2.979   2.509  0.3868 -0.5769 -0.0904
 1487SOL     OW15922   1.544   3.866  12.597 -0.3645 -0.4368 -0.8967
 1487SOL    HW115923   1.636   3.891  12.599 -1.0365  1.9584 -0.6766
 1487SOL    HW215924   1.565   3.777  12.569  2.3524 -0.0929  0.1561
 1488SOL     OW15925   2.099   2.963  11.509  0.1811  0.8346  0.1226
 1488SOL    HW115926   2.057   2.968  11.423 -0.5154  0.8993  0.4634
 1488SOL    HW215927   2.191   2.987  11.499  0.8570 -1.5174  0.7809
 1489SOL     OW15928   4.632   1.086   7.859  0.3454 -0.2814 -0.4274
 1489SOL    HW115929   4.673   1.023   7.919  0.1245 -1.5853 -1.6325
 1489SOL    HW215930   4.676   1.167   7.886 -2.3014  0.7862  0.6317
 1490SOL     OW15931   0.845   1.760   1.154 -0.0816 -0.0949  0.7687
 1490SOL    HW115932   0.756   1.781   1.126  0.6932  0.1377 -1.5603
 1490SOL    HW215933   0.838   1.740   1.247  0.4062  0.2838  0.8824
 1491SOL     OW15934   0.484   1.787  13.959  0.1009 -0.1596 -0.1116
 1491SOL    HW115935   0.514   1.846  13.889  3.8065 -2.6063 -0.5385
 1491SOL    HW215936   0.429   1.730  13.905  0.5897  0.7845 -1.6190
 1492SOL     OW15937   4.527   4.196   0.501 -0.4611 -0.4872  0.7715
 1492SOL    HW115938   4.540   4.155   0.587  2.0601  2.2862  1.7505
 1492SOL    HW215939   4.470   4.273   0.511 -0.4788 -0.0424 -2.7211
 1493SOL     OW15940   3.784   1.676   2.265  0.5319 -0.1447  0.1799
 1493SOL    HW115941   3.837   1.675   2.344 -0.1343  1.3647  0.6563
 1493SOL    HW215942   3.834   1.740   2.215 -0.8661  0.2698 -0.7128
 1494SOL     OW15943   3.894   2.686   7.439 -0.3189 -0.1291 -0.0449
 1494SOL    HW115944   3.816   2.740   7.449  0.3681  0.6885  0.8079
 1494SOL    HW215945   3.959   2.754   7.456 -0.0553 -0.3725 -0.0657
 1495SOL     OW15946   1.648   3.456  15.995  0.4494  0.0545 -0.3882
 1495SOL    HW115947   1.697   3.514  16.054 -2.8482 -1.4575  3.8692
 1495SOL    HW215948   1.562   3.493  16.016 -0.3447 -0.9479 -1.8619
 1496SOL     OW15949   0.992   1.142   1.246  0.1467 -0.1818  0.2094
 1496SOL    HW115950   1.062   1.157   1.182  0.8019  1.3716  1.2640
 1496SOL    HW215951   0.934   1.079   1.205  0.7974  1.1460 -2.7292
 1497SOL     OW15952   1.732   1.955   6.642 -0.3498  0.0704 -0.2888
 1497SOL    HW115953   1.824   1.976   6.631 -0.5013  0.7392 -0.3104
 1497SOL    HW215954   1.731   1.916   6.729 -1.3933  2.0266  0.5907
 1498SOL     OW15955   2.885   1.302  14.675  0.4015  0.1472  0.0209
 1498SOL    HW115956   2.836   1.320  14.594  1.1809  0.4004 -0.3928
 1498SOL    HW215957   2.892   1.207  14.673 -0.4565  0.0719  0.5265
 1499SOL     OW15958   0.839   0.244   8.165  0.5095 -0.5659  0.0867
 1499SOL    HW115959   0.788   0.191   8.227  0.8790 -0.1662  0.7285
 1499SOL    HW215960   0.798   0.330   8.168  0.5865 -0.4633 -1.8236
 1500SOL     OW15961   4.221   1.255   5.118  0.1344  0.1970 -0.1594
 1500SOL    HW115962   4.167   1.188   5.078  1.2395 -1.1845  0.6531
 1500SOL    HW215963   4.283   1.273   5.047 -0.4952 -2.3499 -1.3425
 1501SOL     OW15964   3.349   4.616  13.302 -0.4272  0.2950 -0.3227
 1501SOL    HW115965   3.344   4.521  13.310  0.0437  0.2488 -0.5576
 1501SOL    HW215966   3.394   4.635  13.384  0.5429  0.2748 -0.8440
 1502SOL     OW15967   3.935   3.268  11.668  0.1456  1.1297  0.8240
 1502SOL    HW115968   3.878   3.340  11.695 -1.3040  0.9448 -1.6995
 1502SOL    HW215969   3.894   3.231  11.590  0.6482  1.8313  0.2345
 1503SOL     OW15970   0.073   0.974   2.274  0.0734 -0.4267 -0.2032
 1503SOL    HW115971   0.109   0.944   2.190 -0.5289 -0.6560 -0.3787
 1503SOL    HW215972   4.708   0.981   2.244 -0.0166 -0.4110  0.0746
 1504SOL     OW15973   4.204   3.508   3.734  0.2694  0.6965 -0.3998
 1504SOL    HW115974   4.246   3.431   3.696 -0.7888  1.1745 -2.5353
 1504SOL    HW215975   4.271   3.558   3.779  0.8912  0.3753 -0.9702
 1505SOL     OW15976   4.404   1.021   6.714 -0.5619 -1.2667 -0.3644
 1505SOL    HW115977   4.317   1.042   6.681 -0.3351 -0.0180 -0.1758
 1505SOL    HW215978   4.395   0.986   6.803  1.4213 -1.8452 -0.3935
 1506SOL     OW15979   1.516   1.377   1.924  0.2846 -0.6445 -0.6083
 1506SOL    HW115980   1.506   1.282   1.913  1.5412 -0.5780 -2.3669
 1506SOL    HW215981   1.441   1.405   1.976  0.0002 -0.0850 -1.3224
 1507SOL     OW15982   3.708   1.807   6.776  0.0571  0.4642  0.3031
 1507SOL    HW115983   3.651   1.879   6.802 -0.2851  0.1735  0.3495
 1507SOL    HW215984   3.649   1.734   6.792 -0.4150  0.6657 -0.4899
 1508SOL     OW15985   3.500   2.680  17.484 -0.3709  0.0063  0.3327
 1508SOL    HW115986   3.590   2.662  17.457  0.1097  1.8740  0.7051
 1508SOL    HW215987   3.464   2.591  17.486 -1.5625  0.5061  1.0551
 1509SOL     OW15988   2.251   1.695   6.679 -0.1450  0.3176 -0.1468
 1509SOL    HW115989   2.313   1.717   6.609 -0.9103  2.2020 -0.2150
 1509SOL    HW215990   2.309   1.707   6.754 -1.2262 -0.8797  0.8869
 1510SOL     OW15991   0.569   1.135   7.145 -1.0075  0.4714  0.2228
 1510SOL    HW115992   0.484   1.138   7.101 -0.4756 -0.8221 -0.8930
 1510SOL    HW215993   0.563   1.046   7.181  1.6995  0.2119  0.0662
 1511SOL     OW15994   1.769   3.537   6.274  0.2481  0.3982  0.2513
 1511SOL    HW115995   1.744   3.603   6.209 -0.3636  0.4865  0.5759
 1511SOL    HW215996   1.710   3.467   6.245 -1.2700  1.3414  1.1190
 1512SOL     OW15997   2.438   1.315   6.137  0.1593  0.0444  0.2837
 1512SOL    HW115998   2.465   1.235   6.092  0.9469 -0.9424  2.5238
 1512SOL    HW215999   2.354   1.334   6.096 -0.9477 -3.2836  1.0003
 1513SOL     OW16000   2.783   2.235   9.966 -0.0402  0.1363  0.3642
 1513SOL    HW116001   2.756   2.217   9.876  1.2081  1.1569 -0.2202
 1513SOL    HW216002   2.796   2.148  10.003 -0.2767 -1.0805 -2.3867
 1514SOL     OW16003   2.613   2.135   4.299  0.5174  0.5486  0.1036
 1514SOL    HW116004   2.570   2.211   4.339  0.3284  0.2150  0.5307
 1514SOL    HW216005   2.660   2.172   4.224 -0.7602 -0.2620 -1.0955
 1515SOL     OW16006   0.529   2.885   8.600 -0.2957  0.4667 -0.2237
 1515SOL    HW116007   0.510   2.974   8.629 -0.1161 -0.1910  1.8926
 1515SOL    HW216008   0.544   2.896   8.506 -2.4523  0.3922 -0.5798
 1516SOL     OW16009   3.102   0.343   4.986 -0.3393  0.5470 -0.0399
 1516SOL    HW116010   3.094   0.248   5.000  0.8681  0.5316  0.5755
 1516SOL    HW216011   3.074   0.352   4.895  0.0631 -0.6320 -0.2781
 1517SOL     OW16012   0.329   2.760   7.069  0.0666  0.0616  0.0539
 1517SOL    HW116013   0.278   2.823   7.018  1.0032  0.4437 -0.4086
 1517SOL    HW216014   0.368   2.815   7.137 -0.7845  1.6876 -0.7830
 1518SOL     OW16015   1.264   1.599   0.150  0.6093  0.0572  0.4811
 1518SOL    HW116016   1.185   1.614   0.202  0.4027  2.5170 -0.5741
 1518SOL    HW216017   1.265   1.678   0.096 -1.2737  0.3281  0.8443
 1519SOL     OW16018   3.989   1.626   5.627  0.1442 -0.1402  0.1664
 1519SOL    HW116019   3.955   1.538   5.613  1.5029 -0.5055 -0.9015
 1519SOL    HW216020   3.919   1.681   5.591  2.7970  2.7644 -0.5381
 1520SOL     OW16021   3.774   4.396   1.926 -0.0848  0.2786 -0.0787
 1520SOL    HW116022   3.812   4.345   1.997  0.0580  0.2653 -0.1653
 1520SOL    HW216023   3.742   4.474   1.970  0.0457  0.4705 -0.3270
 1521SOL     OW16024   3.336   0.538   9.156  0.1105 -0.4296 -0.2098
 1521SOL    HW116025   3.314   0.500   9.241 -1.7383  0.3903 -0.3169
 1521SOL    HW216026   3.426   0.511   9.135 -1.1573 -2.2419 -3.2723
 1522SOL     OW16027   1.837   3.469   7.506 -0.3496 -0.4181 -0.0910
 1522SOL    HW116028   1.838   3.414   7.427 -4.6009 -1.1373  0.3352
 1522SOL    HW216029   1.810   3.554   7.472  1.2980  0.1995  0.1563
 1523SOL     OW16030   2.705   2.644   8.755 -0.8009 -0.2888  0.1328
 1523SOL    HW116031   2.621   2.688   8.742 -2.3193 -2.8773  1.0740
 1523SOL    HW216032   2.707   2.643   8.851  2.2533  1.7518  0.0662
 1524SOL     OW16033   0.864   3.225   5.975 -0.6820  0.1696 -0.3414
 1524SOL    HW116034   0.944   3.236   6.026  1.4941  0.2441 -3.7441
 1524SOL    HW216035   0.818   3.307   5.992 -0.8328  0.0453 -0.1546
 1525SOL     OW16036   4.088   2.746   6.673  0.0762 -0.1162 -0.0607
 1525SOL    HW116037   4.100   2.823   6.617  1.0381 -0.3568 -0.1906
 1525SOL    HW216038   4.032   2.693   6.616  2.9981 -2.0067 -1.1532
 1526SOL     OW16039   1.709   4.492   8.965 -0.3316  0.3199 -0.1777
 1526SOL    HW116040   1.692   4.520   9.055  0.3495 -0.5630  0.2253
 1526SOL    HW216041   1.787   4.440   8.981 -1.2854 -0.6718  1.2185
 1527SOL     OW16042   2.623   1.857   4.116  0.1061  0.5439 -0.1141
 1527SOL    HW116043   2.640   1.891   4.203  1.3683  2.3886 -1.0734
 1527SOL    HW216044   2.697   1.884   4.062 -1.6473  1.7644 -1.9200
 1528SOL     OW16045   1.761   2.079   8.810  0.2747 -0.1656  0.1690
 1528SOL    HW116046   1.747   2.159   8.760  1.0705 -0.4830 -0.5624
 1528SOL    HW216047   1.730   2.093   8.899 -0.6776 -1.2517  0.0153
 1529SOL     OW16048   3.396   3.612   3.750  0.1704  0.1616 -0.9422
 1529SOL    HW116049   3.408   3.694   3.702  0.3964  0.5650 -0.1811
 1529SOL    HW216050   3.380   3.547   3.681  2.3557 -1.1155 -0.2291
 1530SOL     OW16051   4.657   0.560   8.520 -0.2783 -0.8646  0.3487
 1530SOL    HW116052   4.704   0.477   8.514 -0.0174 -0.6803 -0.2020
 1530SOL    HW216053   4.568   0.529   8.505  0.0829 -1.7685  0.1102
 1531SOL     OW16054   1.386   4.020  10.870  0.7075  0.5680  0.0432
 1531SOL    HW116055   1.369   3.925  10.866  1.3219  0.3922  1.6108
 1531SOL    HW216056   1.347   4.042  10.955 -3.1492 -0.2755 -1.4615
 1532SOL     OW16057   4.510   4.264  13.853  0.0275  0.0780 -0.1912
 1532SOL    HW116058   4.454   4.316  13.795 -1.1180  1.3471  2.0403
 1532SOL    HW216059   4.473   4.273  13.940 -1.0728 -0.4519 -0.6081
 1533SOL     OW16060   3.829   4.085   2.421  0.1032  0.3047 -0.2975
 1533SOL    HW116061   3.896   4.120   2.363  0.5480  0.6448  0.4168
 1533SOL    HW216062   3.866   4.103   2.508  0.7781  0.4818 -0.6236
 1534SOL     OW16063   4.407   4.489  12.980 -0.0634  0.4770  0.2443
 1534SOL    HW116064   4.375   4.429  12.913 -0.8934  1.3062 -0.1034
 1534SOL    HW216065   4.494   4.506  12.944 -0.3895 -0.5505 -1.0097
 1535SOL     OW16066   0.197   1.629   0.078  0.5613  0.0947 -0.1959
 1535SOL    HW116067   0.144   1.673   0.012 -1.9480 -1.0843  1.0338
 1535SOL    HW216068   0.131   1.593   0.137 -0.2732  1.4199 -0.3242
 1536SOL     OW16069   1.399   1.292  17.190 -0.4993  0.0168  0.3126
 1536SOL    HW116070   1.470   1.228  17.189 -1.7185 -1.3259  0.7994
 1536SOL    HW216071   1.329   1.237  17.155  1.3622 -1.7155 -0.6763
 1537SOL     OW16072   2.497   1.229  14.854 -0.6911  0.1352 -0.2044
 1537SOL    HW116073   2.573   1.278  14.823 -0.0124 -0.2983  0.7774
 1537SOL    HW216074   2.513   1.135  14.851 -0.1484  0.2382 -0.4275
 1538SOL     OW16075   0.915   4.470   7.083 -0.1685 -0.2766  0.4018
 1538SOL    HW116076   0.853   4.402   7.112 -0.2013 -0.1956  0.5231
 1538SOL    HW216077   0.922   4.517   7.167  1.5423 -1.4612  0.9155
 1539SOL     OW16078   1.607   1.208   4.147 -0.0293  0.1511 -0.1259
 1539SOL    HW116079   1.627   1.302   4.147  1.1723 -0.1285 -2.3913
 1539SOL    HW216080   1.514   1.197   4.127  0.0560 -0.3975 -0.2243
 1540SOL     OW16081   2.089   0.051   3.430  0.1300  0.1758 -0.1830
 1540SOL    HW116082   2.127   0.118   3.487 -1.3643 -1.0521  2.2558
 1540SOL    HW216083   2.097   4.694   3.477 -1.7275 -0.5591 -1.1489
 1541SOL     OW16084   2.141   0.669   3.389  0.3216  0.0424 -0.1979
 1541SOL    HW116085   2.061   0.626   3.359  0.7071 -3.3377  3.6636
 1541SOL    HW216086   2.115   0.755   3.423  0.4429  0.3175 -0.7989
 1542SOL     OW16087   4.583   3.324  15.818 -0.1446 -0.8605 -0.5369
 1542SOL    HW116088   4.579   3.404  15.765 -1.6952 -0.9593 -0.5743
 1542SOL    HW216089   4.534   3.342  15.898 -0.1843 -0.6099 -0.6203
 1543SOL     OW16090   4.295   0.837   3.532  0.2356  0.6478  0.0259
 1543SOL    HW116091   4.316   0.744   3.542  1.2560  1.0112  1.3934
 1543SOL    HW216092   4.311   0.852   3.439 -1.9357  0.0930 -0.4213
 1544SOL     OW16093   4.551   2.268   3.894 -0.0007  0.6140 -0.3891
 1544SOL    HW116094   4.552   2.176   3.868 -0.1505  0.2462  0.9333
 1544SOL    HW216095   4.617   2.277   3.963 -0.7081  0.6774  0.2672
 1545SOL     OW16096   2.677   4.465   3.905  0.0311 -0.0614 -0.0614
 1545SOL    HW116097   2.736   4.531   3.869  0.9680 -0.8217  0.0587
 1545SOL    HW216098   2.681   4.394   3.840 -0.6332 -0.3516  0.2094
 1546SOL     OW16099   1.996   0.989   5.388  0.1025 -0.1557 -0.1106
 1546SOL    HW116100   2.068   0.985   5.326 -0.4600  0.0386 -0.7706
 1546SOL    HW216101   1.931   0.946   5.332  0.1473 -1.2600  0.6879
 1547SOL     OW16102   2.899   2.874   9.124 -0.4312  0.5749  0.0205
 1547SOL    HW116103   2.982   2.832   9.149  0.4402  2.0034 -0.4783
 1547SOL    HW216104   2.859   2.902   9.207  1.2051 -0.5670  1.2039
 1548SOL     OW16105   4.476   3.586   9.390 -0.0435 -0.5014 -0.0175
 1548SOL    HW116106   4.526   3.615   9.466 -0.4975 -1.6748  0.7342
 1548SOL    HW216107   4.548   3.556   9.335 -1.1049  0.3713 -1.8714
 1549SOL     OW16108   4.678   1.860   3.639  0.5907 -0.3718  0.1463
 1549SOL    HW116109   4.607   1.802   3.665  0.1718  0.0042 -0.1403
 1549SOL    HW216110   4.634   1.915   3.574  0.5862 -1.4969 -0.7944
 1550SOL     OW16111   4.692   3.255  16.259  0.3361  0.4365 -0.4646
 1550SOL    HW116112   0.005   3.337  16.229  0.5896  0.8097  0.8705
 1550SOL    HW216113   4.598   3.267  16.274 -0.1156 -2.0385 -1.2403
 1551SOL     OW16114   4.328   1.334   3.524  0.5491  0.1237 -0.0185
 1551SOL    HW116115   4.267   1.305   3.592 -0.8866 -0.2802 -1.4707
 1551SOL    HW216116   4.344   1.245   3.493 -2.0289  0.1113 -1.3545
 1552SOL     OW16117   4.412   1.951  15.825 -0.0517  0.9804 -0.0852
 1552SOL    HW116118   4.459   1.872  15.801  0.8572  1.7148 -0.7465
 1552SOL    HW216119   4.317   1.935  15.825  0.4229 -1.7772  0.8950
 1553SOL     OW16120   4.678   3.178   7.438 -0.2681  0.6385  0.2360
 1553SOL    HW116121   4.680   3.129   7.356  0.2547  0.5131  0.3259
 1553SOL    HW216122   4.605   3.234   7.413 -0.1344  0.9613  0.5628
 1554SOL     OW16123   1.464   4.063   2.718  0.3836 -0.5177  0.2946
 1554SOL    HW116124   1.405   3.997   2.681  1.0265 -0.0947 -1.4776
 1554SOL    HW216125   1.424   4.150   2.720  1.9467  0.2407 -1.5221
 1555SOL     OW16126   0.718   2.287   0.906 -0.1160 -0.1582 -0.1231
 1555SOL    HW116127   0.705   2.303   0.999  0.8112 -0.4908  0.0610
 1555SOL    HW216128   0.813   2.275   0.904 -0.2700 -1.3222 -0.5270
 1556SOL     OW16129   0.974   2.352   2.927 -0.5668 -0.2511  0.1773
 1556SOL    HW116130   0.887   2.366   2.889  0.3482  1.2879 -1.3458
 1556SOL    HW216131   1.016   2.289   2.868 -0.3068  1.1415 -1.1347
 1557SOL     OW16132   4.666   2.330   0.379  0.4468 -0.5234  0.3639
 1557SOL    HW116133   4.585   2.369   0.412 -0.0269 -1.0370 -0.1874
 1557SOL    HW216134   4.637   2.263   0.317 -0.2112 -1.6785  1.9181
 1558SOL     OW16135   0.033   0.788   5.001  0.1403 -0.6772 -0.1174
 1558SOL    HW116136   0.025   0.733   4.923 -0.0304 -0.6559 -0.1133
 1558SOL    HW216137   0.112   0.840   4.981  0.2441 -0.6336  0.4108
 1559SOL     OW16138   2.472   4.243   5.885 -0.2199  0.1540  0.1436
 1559SOL    HW116139   2.542   4.308   5.887  1.7807 -1.9764 -1.2112
 1559SOL    HW216140   2.413   4.287   5.823 -0.3450  0.6101  0.5909
 1560SOL     OW16141   0.225   2.584   4.620  0.8153  0.4152 -0.2166
 1560SOL    HW116142   0.253   2.508   4.569 -0.6342  0.7626 -1.5142
 1560SOL    HW216143   0.237   2.652   4.554 -0.8781  1.2150  0.2934
 1561SOL     OW16144   0.791   4.044   3.381  0.2327 -0.2117  0.0782
 1561SOL    HW116145   0.803   4.077   3.292  2.0281  0.6169  0.6340
 1561SOL    HW216146   0.795   3.950   3.361 -1.4537 -0.3722  0.4943
 1562SOL     OW16147   2.677   3.015  15.834  0.9376  0.3973  0.2594
 1562SOL    HW116148   2.765   3.046  15.810  0.1295  0.7320 -2.2192
 1562SOL    HW216149   2.617   3.048  15.767  0.8318  0.6669  0.4856
 1563SOL     OW16150   0.859   3.303   7.821  0.1499  0.1621 -0.3833
 1563SOL    HW116151   0.798   3.360   7.774 -0.8772 -0.1899  0.5286
 1563SOL    HW216152   0.944   3.325   7.783  0.5772  0.0540  0.5179
 1564SOL     OW16153   0.337   1.077   6.229  0.8949 -0.0508 -0.0385
 1564SOL    HW116154   0.329   1.084   6.325  0.1300  1.9137 -0.2323
 1564SOL    HW216155   0.255   1.103   6.186  0.8826  2.8652  1.6517
 1565SOL     OW16156   3.885   2.151   8.170  0.2722  0.5965  0.1391
 1565SOL    HW116157   3.798   2.189   8.182  0.3092  0.7681 -0.1536
 1565SOL    HW216158   3.887   2.167   8.076 -0.8823  1.2420  0.2155
 1566SOL     OW16159   1.130   1.590   5.232  0.0074  0.3866  0.0696
 1566SOL    HW116160   1.127   1.625   5.321 -0.0976  1.5151 -0.3729
 1566SOL    HW216161   1.045   1.547   5.221  0.7143 -0.5548 -1.7471
 1567SOL     OW16162   1.248   3.692  14.857 -0.0521 -0.6371 -0.0943
 1567SOL    HW116163   1.322   3.752  14.853 -1.0906  0.6872  0.5019
 1567SOL    HW216164   1.281   3.625  14.917 -0.8088 -1.0370 -0.1128
 1568SOL     OW16165   2.354   3.403  17.526  0.1726 -0.6325  0.4756
 1568SOL    HW116166   2.324   3.414  17.436 -0.6325 -2.0351  0.5754
 1568SOL    HW216167   2.387   3.314  17.513  0.0761 -0.6455  0.3244
 1569SOL     OW16168   2.991   2.399   0.667 -0.1157  0.9461 -0.0498
 1569SOL    HW116169   2.913   2.401   0.613 -0.2813  2.5391  0.2445
 1569SOL    HW216170   3.056   2.430   0.604 -1.4987  0.7296 -1.5544
 1570SOL     OW16171   2.456   3.864   7.492 -0.4854 -0.4652 -0.8340
 1570SOL    HW116172   2.453   3.886   7.585 -2.7392 -1.1346 -0.7533
 1570SOL    HW216173   2.394   3.929   7.459 -1.3501 -0.7185  0.2950
 1571SOL     OW16174   2.654   1.086   6.179  0.2900 -0.1880 -0.2451
 1571SOL    HW116175   2.699   1.064   6.097 -1.6626 -3.5208 -0.4366
 1571SOL    HW216176   2.725   1.121   6.234 -1.0276 -1.2297  2.1048
 1572SOL     OW16177   2.027   0.137   9.378 -0.3593 -0.2144 -0.0334
 1572SOL    HW116178   1.959   0.106   9.437  2.0818 -2.9629  1.3342
 1572SOL    HW216179   2.088   0.067   9.402 -0.4553 -0.4988 -0.6235
 1573SOL     OW16180   1.939   1.639   3.899  0.3244 -0.0454 -0.2334
 1573SOL    HW116181   1.904   1.665   3.814  1.8300 -2.1083 -1.4984
 1573SOL    HW216182   2.029   1.671   3.896  0.3393 -0.0047  0.6012
 1574SOL     OW16183   4.252   4.497   5.781 -0.1398 -1.2598  0.1031
 1574SOL    HW116184   4.215   4.426   5.728 -0.2390 -2.2451  1.4900
 1574SOL    HW216185   4.220   4.575   5.735 -0.4702 -2.2904 -1.3925
 1575SOL     OW16186   0.962   4.155   6.877 -0.2671 -0.2019 -0.0662
 1575SOL    HW116187   0.989   4.247   6.873 -0.2970 -0.1437  0.8915
 1575SOL    HW216188   0.873   4.160   6.844 -0.1734  0.3741 -0.2237
 1576SOL     OW16189   3.724   2.537  11.146 -0.6298  0.5942  0.5097
 1576SOL    HW116190   3.648   2.569  11.196 -0.9486  0.7175 -0.0478
 1576SOL    HW216191   3.797   2.565  11.202 -2.3009  0.0707  2.9796
 1577SOL     OW16192   1.439   4.465   5.202  0.1099  0.1889  0.2001
 1577SOL    HW116193   1.351   4.430   5.218  1.0438 -1.6864  1.3122
 1577SOL    HW216194   1.452   4.524   5.276  1.7436 -0.4315  0.4100
 1578SOL     OW16195   4.519   0.556  13.146  0.5518 -0.0097 -0.2455
 1578SOL    HW116196   4.429   0.526  13.133  0.2533  0.2651  1.1584
 1578SOL    HW216197   4.512   0.646  13.113  2.1584  0.2765  0.2009
 1579SOL     OW16198   1.731   0.704   4.751 -0.1946  0.1183  0.2189
 1579SOL    HW116199   1.790   0.773   4.781 -0.2518 -0.0514  0.7141
 1579SOL    HW216200   1.691   0.759   4.684  0.5040  0.2706 -0.0830
 1580SOL     OW16201   3.461   0.247  13.480 -0.0449  0.1079  0.3492
 1580SOL    HW116202   3.440   0.337  13.505  1.3184  1.0192 -1.8266
 1580SOL    HW216203   3.554   0.255  13.462 -0.7779 -0.0713 -3.4808
 1581SOL     OW16204   0.563   0.142  16.799  0.2998 -0.0846 -0.3806
 1581SOL    HW116205   0.511   0.110  16.725  1.1858 -1.8186 -0.2481
 1581SOL    HW216206   0.550   0.074  16.865 -0.7902  0.1693 -0.3284
 1582SOL     OW16207   1.970   0.620   0.991  0.3857  0.8505  0.0415
 1582SOL    HW116208   2.037   0.581   1.047 -1.1750 -0.2365  1.1309
 1582SOL    HW216209   1.899   0.563   1.020  1.1400 -0.1502 -0.0678
 1583SOL     OW16210   4.501   4.388   5.223  0.4870  0.2504  0.2064
 1583SOL    HW116211   4.461   4.354   5.142  0.8862  1.1276 -0.3637
 1583SOL    HW216212   4.430   4.372   5.284  0.3533  1.0718  0.2670
 1584SOL     OW16213   4.412   4.712  15.060  0.0609  0.4555 -0.5749
 1584SOL    HW116214   4.351   0.047  15.103 -2.0853 -2.0746 -0.0923
 1584SOL    HW216215   4.379   4.624  15.074  1.1549  0.3095  1.0354
 1585SOL     OW16216   1.881   2.789   6.626  0.0803  0.4720  0.6199
 1585SOL    HW116217   1.865   2.836   6.708 -3.2071  0.7652 -0.2148
 1585SOL    HW216218   1.882   2.867   6.571  1.7962 -0.8756 -1.2442
 1586SOL     OW16219   0.096   2.961  11.230 -0.5856  0.1310 -0.6458
 1586SOL    HW116220   0.059   3.005  11.307 -0.2001 -1.0447  0.2120
 1586SOL    HW216221   0.131   2.881  11.270  2.2900  1.4095 -0.5949
 1587SOL     OW16222   1.066   1.048   7.429  0.2458 -0.1420  0.1194
 1587SOL    HW116223   1.151   1.020   7.463  0.8818 -0.8529 -2.0688
 1587SOL    HW216224   1.037   1.105   7.501 -2.6183 -1.5157  0.0302
 1588SOL     OW16225   3.413   2.117   8.447 -0.1052  0.2827 -0.2243
 1588SOL    HW116226   3.440   2.106   8.538  0.9112  1.5348 -0.3668
 1588SOL    HW216227   3.336   2.173   8.453 -0.3973 -0.0224 -1.1317
 1589SOL     OW16228   3.885   1.788   7.141  0.7631  0.2106 -0.2751
 1589SOL    HW116229   3.808   1.736   7.119  0.8628  0.1241 -0.4196
 1589SOL    HW216230   3.829   1.854   7.183 -0.6126 -1.4553  0.5019
 1590SOL     OW16231   4.202   1.021   8.537 -0.1980 -0.1189 -0.2956
 1590SOL    HW116232   4.251   1.045   8.459 -0.0024 -0.3417 -0.2423
 1590SOL    HW216233   4.177   0.933   8.509 -1.3052 -0.2039  0.9679
 1591SOL     OW16234   1.534   2.382  17.656  0.0954 -0.1302  0.5605
 1591SOL    HW116235   1.471   2.379  17.584 -0.6564  0.0658  1.2037
 1591SOL    HW216236   1.568   2.294  17.645 -0.7225 -0.3183 -0.4597
 1592SOL     OW16237   4.405   1.022   3.701 -0.5978  0.1177 -0.1049
 1592SOL    HW116238   4.435   0.951   3.758  0.6724 -0.0773 -1.0113
 1592SOL    HW216239   4.371   0.970   3.629  0.9315  0.4169 -1.0446
 1593SOL     OW16240   3.993   1.949   3.267  0.3177  0.5133 -0.3500
 1593SOL    HW116241   4.008   1.962   3.361  1.7382 -1.5053 -0.3084
 1593SOL    HW216242   3.904   1.915   3.272  0.7340 -0.2189  1.8347
 1594SOL     OW16243   0.308   2.695   4.871  0.0545  0.2720  0.0157
 1594SOL    HW116244   0.306   2.788   4.849  0.0081 -0.3370 -2.5532
 1594SOL    HW216245   0.268   2.658   4.792  2.3423 -1.9227 -0.1057
 1595SOL     OW16246   1.853   1.219   0.327  0.7021 -0.6089 -0.1025
 1595SOL    HW116247   1.804   1.167   0.264 -0.1117  1.0013 -0.8116
 1595SOL    HW216248   1.815   1.185   0.408 -0.1055 -2.4143 -1.2512
 1596SOL     OW16249   2.120   2.905  10.960  0.2455 -0.1439  0.7709
 1596SOL    HW116250   2.190   2.924  10.897  0.7493  1.1770  1.7376
 1596SOL    HW216251   2.145   2.959  11.035  0.4024  3.9695 -2.2605
 1597SOL     OW16252   1.493   2.748   2.589  0.2610 -0.1402  0.5690
 1597SOL    HW116253   1.398   2.750   2.576  0.4085  2.1161 -0.1349
 1597SOL    HW216254   1.521   2.835   2.559  1.8713 -0.3904  1.3539
 1598SOL     OW16255   2.224   0.980   7.210 -0.5873 -0.0104 -0.7628
 1598SOL    HW116256   2.211   0.961   7.117 -3.8141 -0.6282 -0.2047
 1598SOL    HW216257   2.140   0.961   7.253 -0.2249 -0.3565 -0.2152
 1599SOL     OW16258   4.094   2.132   5.733 -0.0728  0.2713 -0.5906
 1599SOL    HW116259   4.106   2.037   5.744  0.3137  0.3741 -0.1263
 1599SOL    HW216260   4.099   2.153   5.826  1.2405 -0.0654 -0.5822
 1600SOL     OW16261   2.383   3.458   7.447 -0.3243  0.0621  0.0471
 1600SOL    HW116262   2.429   3.468   7.531  1.3708 -0.7069 -0.7861
 1600SOL    HW216263   2.362   3.365   7.448  2.1267 -0.4935  1.3838
 1601SOL     OW16264   2.111   0.732  13.291  0.3798 -0.3956  0.0386
 1601SOL    HW116265   2.161   0.789  13.232  1.5594 -2.9236 -1.4243
 1601SOL    HW216266   2.135   0.764  13.378 -1.0954 -0.7578  0.5641
 1602SOL     OW16267   0.966   0.932  14.171 -0.3515 -0.2158  0.4902
 1602SOL    HW116268   1.033   0.878  14.213  1.5128  0.3629 -1.7270
 1602SOL    HW216269   1.022   0.955  14.097  1.2721  1.5680  2.2507
 1603SOL     OW16270   2.958   3.549   6.895 -0.0231 -0.3598 -0.9618
 1603SOL    HW116271   2.914   3.546   6.810 -0.0600  2.1336 -1.0281
 1603SOL    HW216272   3.019   3.622   6.883  2.4714 -2.5745 -1.7543
 1604SOL     OW16273   1.948   1.376  11.166  0.1652 -0.5176  0.1287
 1604SOL    HW116274   1.950   1.445  11.100 -0.1536  0.5833  1.2830
 1604SOL    HW216275   1.890   1.411  11.234  0.5796  2.1887 -0.9135
 1605SOL     OW16276   2.640   4.293   3.288 -0.5626 -0.2446 -0.4837
 1605SOL    HW116277   2.596   4.279   3.204 -1.2355 -0.6831 -0.0622
 1605SOL    HW216278   2.579   4.241   3.339 -0.5562 -0.2578 -0.4897
 1606SOL     OW16279   0.303   1.970   7.539  0.3922 -0.8309  0.4118
 1606SOL    HW116280   0.342   2.010   7.617  0.4153  0.1347 -0.0910
 1606SOL    HW216281   0.378   1.976   7.481  0.8245  0.6543  1.1089
 1607SOL     OW16282   2.830   4.093  12.354  0.1821  0.4335  0.0205
 1607SOL    HW116283   2.896   4.032  12.320  0.4804  0.1961  1.0150
 1607SOL    HW216284   2.827   4.055  12.442 -0.7367  3.5264  1.3122
 1608SOL     OW16285   1.835   1.649   8.649  0.6086 -0.0007 -0.3392
 1608SOL    HW116286   1.747   1.640   8.613  0.2237 -1.0846  0.8957
 1608SOL    HW216287   1.814   1.707   8.722  1.9325 -1.0349  0.8433
 1609SOL     OW16288   1.250   1.216   6.239 -0.0867  0.5376  0.6670
 1609SOL    HW116289   1.156   1.208   6.223 -0.1941 -0.1793  1.7206
 1609SOL    HW216290   1.270   1.209   6.146  0.3644  1.2426  0.7024
 1610SOL     OW16291   1.013   2.605   4.577 -0.2865 -0.1828 -0.0012
 1610SOL    HW116292   1.000   2.624   4.670  1.1773  0.4744  0.0615
 1610SOL    HW216293   0.927   2.624   4.539 -0.9474 -0.0203  1.5535
 1611SOL     OW16294   0.064   1.787   9.243  0.0264 -0.1494  0.1274
 1611SOL    HW116295   0.061   1.705   9.293 -0.1638 -0.9201 -1.1594
 1611SOL    HW216296   0.143   1.820   9.287  0.7259 -3.0083  1.0680
 1612SOL     OW16297   0.859   2.750   4.219 -0.3893  0.0739 -0.4789
 1612SOL    HW116298   0.832   2.696   4.294  1.5125 -2.2169 -1.4487
 1612SOL    HW216299   0.769   2.761   4.188 -0.0695 -1.0638 -1.7928
 1613SOL     OW16300   2.355   4.192  15.897 -0.7174  0.0402  0.7894
 1613SOL    HW116301   2.315   4.235  15.821  1.5931  1.0777  0.1573
 1613SOL    HW216302   2.280   4.198  15.956 -0.6947  2.8464  0.5467
 1614SOL     OW16303   0.185   0.744   4.552  0.2090  0.5638  0.1822
 1614SOL    HW116304   0.149   0.833   4.551  1.9812  1.2701 -0.5404
 1614SOL    HW216305   0.243   0.731   4.477 -0.4426  2.7275 -0.6878
 1615SOL     OW16306   0.421   2.851   3.862 -0.1008  0.6479  0.0838
 1615SOL    HW116307   0.341   2.843   3.914 -0.1903 -0.7956 -0.2970
 1615SOL    HW216308   0.416   2.940   3.826 -0.7539  0.8192  0.5891
 1616SOL     OW16309   1.152   1.612   1.337  0.3902 -0.2825 -0.4591
 1616SOL    HW116310   1.178   1.686   1.282 -0.8292  1.1228  0.8465
 1616SOL    HW216311   1.117   1.654   1.415 -2.2866 -2.2373 -0.5930
 1617SOL     OW16312   1.632   1.414   8.022 -0.6672 -0.2145  0.5689
 1617SOL    HW116313   1.664   1.474   8.090  1.0155  0.3888 -0.7470
 1617SOL    HW216314   1.596   1.345   8.077 -0.8383 -0.9978 -0.5463
 1618SOL     OW16315   1.640   1.905   2.093  0.2167 -0.2121  0.3266
 1618SOL    HW116316   1.574   1.840   2.069  0.6214 -0.8072  0.8245
 1618SOL    HW216317   1.717   1.852   2.111 -0.3802 -1.6660 -1.4796
 1619SOL     OW16318   1.995   3.839   7.387  0.2317 -0.5757 -0.6809
 1619SOL    HW116319   1.977   3.850   7.294  1.6133 -0.6022 -0.9556
 1619SOL    HW216320   2.052   3.763   7.383  0.5594 -0.3755  0.1587
 1620SOL     OW16321   1.023   2.417   1.404  0.3173 -0.1663 -0.0732
 1620SOL    HW116322   1.048   2.342   1.350 -0.9983 -0.9912  0.4674
 1620SOL    HW216323   1.016   2.487   1.339 -0.0375 -1.2811 -1.2303
 1621SOL     OW16324   0.685   3.171   2.956  0.3165  0.1613 -0.7226
 1621SOL    HW116325   0.704   3.097   2.898 -0.5978 -1.4366  1.0226
 1621SOL    HW216326   0.736   3.139   3.030  1.1043  1.2239 -0.8109
 1622SOL     OW16327   3.831   4.675   8.453 -0.7621 -0.0083  0.3128
 1622SOL    HW116328   3.824   0.044   8.437  1.3809 -0.1953 -1.8486
 1622SOL    HW216329   3.798   4.641   8.370  0.7820  2.5145 -1.3520
 1623SOL     OW16330   4.048   1.933   2.469 -0.4435 -0.5629 -0.0645
 1623SOL    HW116331   3.978   1.887   2.516  1.0924 -1.7220  1.0712
 1623SOL    HW216332   4.119   1.875   2.496  0.1219  0.7430  1.2390
 1624SOL     OW16333   4.674   4.585   7.913 -0.1242  0.2392  0.3350
 1624SOL    HW116334   4.596   4.546   7.953  0.3312  2.9491  3.8279
 1624SOL    HW216335   4.685   4.675   7.942  2.9931 -0.0139 -0.1427
 1625SOL     OW16336   2.382   4.047   9.423 -0.1918 -0.4610 -0.2163
 1625SOL    HW116337   2.304   4.066   9.371 -0.1410 -1.3459 -0.6331
 1625SOL    HW216338   2.366   4.095   9.504 -0.5435  0.8402 -1.0651
 1626SOL     OW16339   0.123   1.977   5.499 -0.3376  0.3660  0.2164
 1626SOL    HW116340   0.088   2.060   5.529 -0.2036  0.3658  0.3749
 1626SOL    HW216341   0.203   1.962   5.549  1.0028  2.6199 -1.2504
 1627SOL     OW16342   3.402   2.973   1.944 -0.6001 -0.1878 -0.1859
 1627SOL    HW116343   3.457   3.045   1.974  1.8146 -2.0122 -0.2235
 1627SOL    HW216344   3.379   3.000   1.855 -0.9504  2.0808  0.5908
 1628SOL     OW16345   0.312   4.200   4.287  0.1991  0.2232  0.4844
 1628SOL    HW116346   0.333   4.255   4.363  0.5609 -1.1226  1.3522
 1628SOL    HW216347   0.321   4.267   4.219 -0.3704 -0.1967 -0.0097
 1629SOL     OW16348   0.806   3.732  11.039  0.0287  0.1275 -0.4141
 1629SOL    HW116349   0.728   3.706  10.989  0.4496 -1.5436 -0.2260
 1629SOL    HW216350   0.877   3.699  10.985  0.7845 -1.5061  1.5732
 1630SOL     OW16351   2.409   3.971   4.573 -0.0309  0.7176 -0.8047
 1630SOL    HW116352   2.351   4.047   4.585 -2.0736 -0.8188 -1.0269
 1630SOL    HW216353   2.491   4.009   4.604 -0.5766  1.8493 -0.7289
 1631SOL     OW16354   1.716   3.115  17.482 -0.3408  0.5377  0.7110
 1631SOL    HW116355   1.804   3.103  17.445 -0.3312 -0.4590  1.0408
 1631SOL    HW216356   1.696   3.031  17.525 -1.3874 -0.2499 -1.3391
 1632SOL     OW16357   0.997   2.533   5.169 -0.3221 -0.7352 -0.2590
 1632SOL    HW116358   1.017   2.602   5.232 -1.1169 -0.9776  0.2666
 1632SOL    HW216359   0.906   2.505   5.184 -0.4754 -0.5097 -0.7606
 1633SOL     OW16360   0.522   1.173   5.054  0.6900  0.8058  0.6435
 1633SOL    HW116361   0.522   1.266   5.031 -3.2026  0.2170 -1.7989
 1633SOL    HW216362   0.431   1.153   5.076  0.5102  0.4556 -0.4121
 1634SOL     OW16363   3.411   4.162  10.489  0.8981  0.5229 -0.3864
 1634SOL    HW116364   3.465   4.101  10.438 -1.2332 -2.4954  0.9308
 1634SOL    HW216365   3.480   4.208  10.535  0.9289  2.2531 -2.1197
 1635SOL     OW16366   3.447   0.629   3.652 -0.1189  0.0415  0.1121
 1635SOL    HW116367   3.521   0.588   3.606  2.6700  2.4710  2.3918
 1635SOL    HW216368   3.388   0.563   3.615  0.4517 -0.3341 -0.1314
 1636SOL     OW16369   1.602   1.639   3.066 -0.0065  0.0456  0.3606
 1636SOL    HW116370   1.619   1.702   3.137  0.7370  1.3984 -1.0323
 1636SOL    HW216371   1.566   1.566   3.117  0.9240 -1.1588 -0.7262
 1637SOL     OW16372   4.006   1.013   5.805 -0.3489  0.1841  0.4736
 1637SOL    HW116373   3.912   1.033   5.809 -0.4661 -0.7690  2.3720
 1637SOL    HW216374   4.044   1.043   5.888 -2.8069  1.2279  1.2149
 1638SOL     OW16375   1.032   4.186   6.504 -0.9203  0.3434 -0.6635
 1638SOL    HW116376   1.063   4.226   6.586  0.7377 -0.6321 -0.8228
 1638SOL    HW216377   0.998   4.265   6.462  0.7743  0.1232 -2.4199
 1639SOL     OW16378   1.833   0.280   7.005 -0.2513  0.2159 -0.4409
 1639SOL    HW116379   1.900   0.295   7.071  1.4528 -3.7346 -1.2377
 1639SOL    HW216380   1.773   0.235   7.064  0.0027 -1.0191 -1.1233
 1640SOL     OW16381   4.429   3.358  16.030 -0.5345 -0.3114  0.6892
 1640SOL    HW116382   4.360   3.422  16.042  1.5957  2.1262 -0.1938
 1640SOL    HW216383   4.373   3.284  16.054  1.0871 -2.5633 -2.4995
 1641SOL     OW16384   4.583   1.520  13.377 -0.2183  0.2602  0.0388
 1641SOL    HW116385   4.544   1.545  13.293 -1.2129 -0.0504  0.4050
 1641SOL    HW216386   4.669   1.508  13.337 -0.5135 -3.6573  0.5869
 1642SOL     OW16387   0.828   1.306   3.874 -0.1335  0.0117  0.3465
 1642SOL    HW116388   0.868   1.238   3.820  0.6818  0.0192  0.9253
 1642SOL    HW216389   0.908   1.329   3.922 -0.0393 -0.7004  0.5256
 1643SOL     OW16390   1.665   3.860   1.259 -0.1675  0.0474 -0.1081
 1643SOL    HW116391   1.751   3.822   1.279 -0.2354  0.5728  1.1515
 1643SOL    HW216392   1.661   3.944   1.303  1.3396  0.3710 -0.5864
 1644SOL     OW16393   4.589   2.213  16.557 -0.6964  0.3803  0.2798
 1644SOL    HW116394   4.626   2.281  16.502  0.2250  0.4628  0.9923
 1644SOL    HW216395   4.586   2.235  16.651  0.0807 -1.3816  0.7197
 1645SOL     OW16396   0.934   3.162  17.094 -0.6477  0.5246  0.9617
 1645SOL    HW116397   0.924   3.132  17.184 -0.7773 -0.3041  0.6627
 1645SOL    HW216398   0.862   3.122  17.045 -0.1640  2.4142 -1.3047
 1646SOL     OW16399   2.697   2.153   1.097 -0.2189  0.1113  0.3344
 1646SOL    HW116400   2.726   2.134   1.008  0.3983 -2.3572  1.0708
 1646SOL    HW216401   2.734   2.241   1.105  0.9138 -0.2487 -0.9832
 1647SOL     OW16402   2.071   2.003   7.914 -0.0333 -0.0136 -0.0291
 1647SOL    HW116403   2.076   2.087   7.959 -0.2919  0.1364 -0.2800
 1647SOL    HW216404   2.042   1.944   7.983  2.5152 -0.1057  0.9429
 1648SOL     OW16405   3.214   2.585   7.427  0.0608  0.2023 -0.7566
 1648SOL    HW116406   3.240   2.671   7.459 -0.0735 -1.0635  2.7126
 1648SOL    HW216407   3.267   2.528   7.482 -2.4962 -1.7231 -0.3004
 1649SOL     OW16408   0.182   4.472   7.886 -1.3531  0.3068  0.6367
 1649SOL    HW116409   0.164   4.399   7.827 -0.2132  0.4473  0.1092
 1649SOL    HW216410   0.095   4.511   7.897 -0.8640  1.1151  1.6943
 1650SOL     OW16411   4.509   4.414   1.091  0.0524 -0.0507  0.2652
 1650SOL    HW116412   4.500   4.504   1.058 -3.2230  0.1636  1.8019
 1650SOL    HW216413   4.566   4.421   1.168  0.2516  0.2600  0.0920
 1651SOL     OW16414   3.062   3.279   3.073 -0.1012 -0.2997  0.2208
 1651SOL    HW116415   3.014   3.259   2.992 -1.4056 -0.2814  0.9768
 1651SOL    HW216416   3.069   3.372   3.055 -1.8509 -0.2763 -0.3947
 1652SOL     OW16417   2.260   0.674   8.821  0.4181  0.0927  0.4915
 1652SOL    HW116418   2.207   0.620   8.880 -0.2273 -0.8094 -0.9026
 1652SOL    HW216419   2.214   0.757   8.813 -1.5581 -0.8345  2.1590
 1653SOL     OW16420   1.070   2.035   8.717 -0.2113 -0.1893 -0.3479
 1653SOL    HW116421   1.108   2.113   8.677 -0.3479 -0.0898 -0.2833
 1653SOL    HW216422   1.070   1.971   8.646  0.2070  0.6713 -1.1130
 1654SOL     OW16423   2.699   2.810   7.004 -0.8072  0.1371 -0.1021
 1654SOL    HW116424   2.636   2.766   7.061  2.0376 -5.1005 -1.0817
 1654SOL    HW216425   2.706   2.741   6.939  2.0629 -0.8721  1.2807
 1655SOL     OW16426   3.481   2.773  16.577 -0.0455  0.7277  0.9074
 1655SOL    HW116427   3.558   2.827  16.557  0.1535  0.1210 -0.0170
 1655SOL    HW216428   3.431   2.827  16.637  0.4946  0.7667  1.3244
 1656SOL     OW16429   4.279   0.176   9.299  0.2271 -0.1582 -0.1672
 1656SOL    HW116430   4.330   0.100   9.270 -2.5339 -1.4830 -1.5076
 1656SOL    HW216431   4.299   0.173   9.393  1.1561  0.3903 -0.3401
 1657SOL     OW16432   1.920   2.006   8.300  0.1863  0.1019 -0.0495
 1657SOL    HW116433   1.971   1.949   8.243 -0.1672 -0.9143  0.6669
 1657SOL    HW216434   1.836   2.022   8.257  1.4035  0.0268 -2.4553
 1658SOL     OW16435   2.607   1.951  15.687  0.0963 -0.1920  0.1351
 1658SOL    HW116436   2.615   1.969  15.594 -2.1597 -0.3651 -0.0720
 1658SOL    HW216437   2.517   1.922  15.698  0.4926 -1.3560  0.3669
 1659SOL     OW16438   4.130   1.350   9.334  0.1758 -0.3762 -0.3942
 1659SOL    HW116439   4.215   1.320   9.367  1.2349  1.6075 -1.3756
 1659SOL    HW216440   4.075   1.273   9.349 -0.3093  0.0016 -0.2503
 1660SOL     OW16441   1.555   4.466  17.308  0.2177 -0.1947  0.2542
 1660SOL    HW116442   1.509   4.382  17.302 -0.5428  0.3194 -1.1684
 1660SOL    HW216443   1.477   4.520  17.319  1.4373  1.9534 -1.5552
 1661SOL     OW16444   3.110   2.997   8.457 -0.2920 -0.3974 -0.0330
 1661SOL    HW116445   3.066   3.045   8.527 -0.1478  1.8709 -1.5219
 1661SOL    HW216446   3.183   2.966   8.510  1.7858  2.3197 -1.3112
 1662SOL     OW16447   2.249   2.545   7.753 -0.1656  0.5721  0.2478
 1662SOL    HW116448   2.318   2.486   7.721  0.7253  2.4289 -1.2523
 1662SOL    HW216449   2.165   2.500   7.740 -0.2607  0.8567 -0.1294
 1663SOL     OW16450   3.076   4.418   8.236  0.0109 -0.0788  0.5063
 1663SOL    HW116451   3.133   4.478   8.283  0.3628 -0.3340  0.4108
 1663SOL    HW216452   2.996   4.470   8.225 -0.8690 -1.6320 -0.5252
 1664SOL     OW16453   4.052   3.837   3.857  0.0531 -0.0921  0.0814
 1664SOL    HW116454   4.102   3.918   3.849 -0.8290  0.3819 -0.5690
 1664SOL    HW216455   3.968   3.882   3.868  0.9487  1.5184  0.3147
 1665SOL     OW16456   3.914   4.516  14.104 -0.6914  0.2494 -0.0585
 1665SOL    HW116457   3.957   4.592  14.065  0.8918 -1.3171 -1.3370
 1665SOL    HW216458   3.976   4.474  14.163 -1.1313 -0.7781 -0.3197
 1666SOL     OW16459   1.488   4.341   3.552  0.3011 -0.2712 -0.0786
 1666SOL    HW116460   1.412   4.313   3.603  0.1646 -2.6316 -1.5629
 1666SOL    HW216461   1.547   4.266   3.561  0.4429 -0.0309  0.9379
 1667SOL     OW16462   4.647   3.949  15.354 -0.0865 -0.4511  0.4107
 1667SOL    HW116463   4.596   4.026  15.378 -0.6421 -0.8064  0.3792
 1667SOL    HW216464   4.720   3.958  15.416  0.5993  0.5709 -0.5536
 1668SOL     OW16465   2.790   3.479   7.496 -0.3855  0.5873  0.1925
 1668SOL    HW116466   2.766   3.563   7.535 -0.8282  0.0759  1.0398
 1668SOL    HW216467   2.738   3.419   7.550  0.4073  0.2633  0.6020
 1669SOL     OW16468   2.971   4.126   4.402 -0.1271 -0.2259 -0.5827
 1669SOL    HW116469   2.918   4.088   4.332 -0.7421 -1.5996  0.6542
 1669SOL    HW216470   2.971   4.222   4.390  1.1519 -0.0878  0.5392
 1670SOL     OW16471   0.571   2.872   6.531 -0.0243  0.4139 -0.2403
 1670SOL    HW116472   0.625   2.882   6.608  0.9907  1.0227 -1.0300
 1670SOL    HW216473   0.604   2.793   6.488 -1.3233 -0.3786  0.1991
 1671SOL     OW16474   2.902   3.834   1.108  0.0618 -0.4527  0.1558
 1671SOL    HW116475   2.908   3.786   1.190 -2.0916 -0.4014  0.3490
 1671SOL    HW216476   2.927   3.769   1.042 -2.6317 -0.8276 -0.5150
 1672SOL     OW16477   3.998   0.889   8.161 -0.0097  0.1795 -0.0227
 1672SOL    HW116478   4.092   0.902   8.176 -0.5606 -1.1278  4.6166
 1672SOL    HW216479   3.975   0.844   8.242 -0.4801 -0.7574 -0.6760
 1673SOL     OW16480   2.003   2.377   7.335 -0.5077 -0.2149 -0.0675
 1673SOL    HW116481   1.918   2.397   7.375 -0.3968  0.3645 -0.1292
 1673SOL    HW216482   1.973   2.338   7.253 -2.4996  1.0973  0.0250
 1674SOL     OW16483   2.018   4.251   7.462  0.0525  0.5213 -0.4044
 1674SOL    HW116484   1.953   4.182   7.448  3.5300 -3.1224  1.7917
 1674SOL    HW216485   1.967   4.305   7.523  1.6031  1.1382  0.3336
 1675SOL     OW16486   2.555   1.675   3.736  0.1318  0.1518  0.0793
 1675SOL    HW116487   2.530   1.628   3.656 -0.8852  0.1878  0.3692
 1675SOL    HW216488   2.634   1.628   3.763  0.5649  2.2313  2.5010
 1676SOL     OW16489   2.528   2.689  14.177 -0.3914  0.2382 -0.1979
 1676SOL    HW116490   2.571   2.604  14.167  0.8062  1.0666 -2.0131
 1676SOL    HW216491   2.576   2.748  14.119  0.4870 -0.1454  0.1492
 1677SOL     OW16492   1.360   1.391   3.457  0.0924 -0.0657  0.2039
 1677SOL    HW116493   1.322   1.370   3.541  1.8107  0.2464  1.0635
 1677SOL    HW216494   1.395   1.308   3.425  0.1739 -0.6937  1.9762
 1678SOL     OW16495   1.427   3.063   0.556 -0.0879 -0.0969 -0.6364
 1678SOL    HW116496   1.500   3.005   0.536 -1.0089 -1.3453 -0.3379
 1678SOL    HW216497   1.466   3.145   0.586  0.0953 -0.1987 -0.5927
 1679SOL     OW16498   0.036   0.320   2.348  0.0862  0.7224  0.4541
 1679SOL    HW116499   4.699   0.337   2.277  0.9557 -0.0719 -0.5040
 1679SOL    HW216500   4.712   0.341   2.427 -0.0516  1.6769  0.1229
 1680SOL     OW16501   0.018   3.137   1.020  0.4383  0.4168  0.1245
 1680SOL    HW116502   0.014   3.062   1.080  1.1097  0.9676  0.8519
 1680SOL    HW216503   0.074   3.090   0.959  1.3431  0.9117  0.5726
 1681SOL     OW16504   4.083   4.440  10.845 -0.2924  0.0758 -0.3936
 1681SOL    HW116505   4.082   4.423  10.939  1.5032  0.8623 -0.2305
 1681SOL    HW216506   4.032   4.520  10.834 -0.5346 -0.0605 -0.2684
 1682SOL     OW16507   1.437   3.913   3.409  0.0005  0.1455  0.4987
 1682SOL    HW116508   1.482   3.959   3.338  0.0155  0.1651  0.5212
 1682SOL    HW216509   1.343   3.924   3.396 -0.0547  1.0011  1.6256
 1683SOL     OW16510   1.982   1.477  17.477  0.1531 -0.1247  0.3005
 1683SOL    HW116511   2.048   1.543  17.454 -1.2450  1.6024  1.2017
 1683SOL    HW216512   1.898   1.504  17.439  0.6853 -0.4004 -1.0682
 1684SOL     OW16513   4.100   0.429   7.104 -0.0797  0.1733 -0.2611
 1684SOL    HW116514   4.138   0.489   7.039  1.0012 -0.7232 -0.4635
 1684SOL    HW216515   4.055   0.496   7.155  0.2949  1.0668 -1.1012
 1685SOL     OW16516   0.561   2.030   7.078 -0.3622  0.0535 -0.1446
 1685SOL    HW116517   0.645   2.076   7.076 -0.5016  0.2675 -0.7727
 1685SOL    HW216518   0.538   2.031   7.171  0.2973  2.4336 -0.0087
 1686SOL     OW16519   1.711   3.723   9.227 -0.1858  0.1227 -0.7928
 1686SOL    HW116520   1.727   3.800   9.172  1.5506  1.1424  1.1774
 1686SOL    HW216521   1.774   3.753   9.292  1.1783 -1.1926 -1.5091
 1687SOL     OW16522   4.611   2.981   6.624 -0.1814  0.0881 -0.1929
 1687SOL    HW116523   4.532   2.984   6.677  0.2537 -1.4363  0.5750
 1687SOL    HW216524   4.605   2.887   6.606 -0.2943  0.7907 -3.8698
 1688SOL     OW16525   1.556   3.580   6.069 -0.4502  0.3269 -0.3191
 1688SOL    HW116526   1.626   3.548   6.012  0.4565 -2.4780  2.3776
 1688SOL    HW216527   1.576   3.674   6.067  1.5853 -0.0993  0.5280
 1689SOL     OW16528   0.407   2.332   9.191  0.3132  0.0401 -0.6732
 1689SOL    HW116529   0.425   2.268   9.121  0.5327 -1.1930  0.5081
 1689SOL    HW216530   0.315   2.354   9.179  0.4589  0.7793 -0.3997
 1690SOL     OW16531   4.381   1.598   3.034 -0.2607  0.1019  0.5589
 1690SOL    HW116532   4.297   1.610   2.990  0.4304 -0.9206 -1.0389
 1690SOL    HW216533   4.351   1.600   3.125  0.8678  0.5719  0.9270
 1691SOL     OW16534   4.405   4.446   7.933 -0.0975 -0.6839 -0.0007
 1691SOL    HW116535   4.411   4.499   7.853  3.4054  0.6849  1.1416
 1691SOL    HW216536   4.318   4.408   7.923 -1.7210  3.3246 -0.9643
 1692SOL     OW16537   1.559   3.462   3.293 -0.0417 -0.7339 -0.2032
 1692SOL    HW116538   1.646   3.502   3.292  0.6318 -2.1468  1.1917
 1692SOL    HW216539   1.562   3.416   3.377 -0.1688  1.6140  1.0854
 1693SOL     OW16540   1.903   2.694   6.213 -0.4592  0.2449 -0.8628
 1693SOL    HW116541   1.967   2.734   6.272  0.3720 -1.5034 -0.5895
 1693SOL    HW216542   1.823   2.704   6.264  0.2839 -1.0162  0.5450
 1694SOL     OW16543   4.558   1.674  15.378 -0.0970  0.2957 -0.0593
 1694SOL    HW116544   4.527   1.762  15.358  1.1629  0.4836 -1.2022
 1694SOL    HW216545   4.565   1.627  15.295  0.7690  0.0038  0.1763
 1695SOL     OW16546   0.212   1.470   8.290 -0.2296 -0.9604 -0.0758
 1695SOL    HW116547   0.287   1.504   8.240 -0.1206  0.1526  0.8423
 1695SOL    HW216548   0.232   1.377   8.280 -0.0119 -0.9116 -0.0952
 1696SOL     OW16549   0.912   4.235   8.339 -0.2889 -0.3145  1.0745
 1696SOL    HW116550   0.943   4.152   8.302 -2.5900 -0.5349 -0.3466
 1696SOL    HW216551   0.995   4.278   8.358 -0.2405  1.3728 -2.9610
 1697SOL     OW16552   0.335   1.979  12.325 -0.1286 -0.4762 -0.0252
 1697SOL    HW116553   0.248   1.958  12.361 -0.5536 -2.0521 -2.0279
 1697SOL    HW216554   0.371   2.037  12.393  0.7892 -1.7493  0.5720
 1698SOL     OW16555   4.022   0.805   8.461 -0.1288 -0.2132  0.3276
 1698SOL    HW116556   4.074   0.732   8.494  2.2486 -0.0207 -2.9718
 1698SOL    HW216557   3.935   0.799   8.502 -0.1467 -1.3914  0.1017
 1699SOL     OW16558   2.659   2.909   2.410 -0.0727  0.9970 -0.1802
 1699SOL    HW116559   2.739   2.900   2.462  0.2713  1.5091 -0.6281
 1699SOL    HW216560   2.696   2.919   2.323  2.5777 -1.5134  0.6827
 1700SOL     OW16561   2.270   4.461   2.486  0.4931 -0.1376  0.3034
 1700SOL    HW116562   2.360   4.459   2.453 -0.2538 -1.4075 -1.6174
 1700SOL    HW216563   2.219   4.471   2.406  0.2120  1.5973  0.6934
 1701SOL     OW16564   3.691   2.902   7.087 -0.2461 -0.0490  0.1265
 1701SOL    HW116565   3.650   2.830   7.135  0.7036 -0.6479  0.0339
 1701SOL    HW216566   3.754   2.931   7.153  0.4543  0.2897 -0.6915
 1702SOL     OW16567   1.762   3.939  11.821  0.2079  0.3115 -0.2393
 1702SOL    HW116568   1.714   3.886  11.758 -1.3134  0.7306  0.5621
 1702SOL    HW216569   1.690   3.998  11.844  0.6804  0.6688  0.3083
 1703SOL     OW16570   3.372   0.100   6.620  0.0927  0.7025  0.4954
 1703SOL    HW116571   3.320   0.171   6.656 -1.4386 -1.3225  2.2761
 1703SOL    HW216572   3.412   0.062   6.698  0.6137  0.2251  0.0009
 1704SOL     OW16573   1.427   1.539   8.185  0.2272  0.0079  0.1346
 1704SOL    HW116574   1.471   1.538   8.270 -1.0518  1.7007  0.8398
 1704SOL    HW216575   1.401   1.447   8.177 -1.7311  0.5794 -0.0661
 1705SOL     OW16576   1.008   4.641   2.843  0.1755  0.1939  0.0671
 1705SOL    HW116577   0.973   4.662   2.930  0.7355  0.1640  0.2971
 1705SOL    HW216578   1.058   4.564   2.869  0.2394  0.4821  0.7930
 1706SOL     OW16579   1.776   1.080   0.607 -0.0091  0.5477 -0.3288
 1706SOL    HW116580   1.742   1.167   0.628  0.1536 -0.0969  2.6164
 1706SOL    HW216581   1.866   1.086   0.639 -0.0214  2.9385 -0.7607
 1707SOL     OW16582   2.100   2.619  10.919 -0.0649 -0.0358  0.4038
 1707SOL    HW116583   2.105   2.694  10.978  0.3083  1.0845 -1.0524
 1707SOL    HW216584   2.016   2.655  10.890  0.6079  1.7918  0.7150
 1708SOL     OW16585   1.268   1.837   1.204 -1.1381  0.0316 -0.0752
 1708SOL    HW116586   1.204   1.907   1.214  0.0241  1.0285  0.4026
 1708SOL    HW216587   1.299   1.857   1.115  2.4638 -1.3658  0.8401
 1709SOL     OW16588   1.211   2.521   7.999 -0.4100  0.1802  0.1759
 1709SOL    HW116589   1.299   2.485   7.987 -0.3043  0.4165  0.2391
 1709SOL    HW216590   1.215   2.614   7.978 -0.4381  0.2775  0.5896
 1710SOL     OW16591   1.700   3.297  15.771  0.0776  0.6297  0.0725
 1710SOL    HW116592   1.686   3.209  15.805 -0.3427  1.0550  0.9953
 1710SOL    HW216593   1.712   3.343  15.854 -3.3081  0.1443  0.8236
 1711SOL     OW16594   0.844   2.313  14.915 -0.8263 -0.0915  0.3844
 1711SOL    HW116595   0.921   2.275  14.874 -0.5538  1.1077 -0.2002
 1711SOL    HW216596   0.831   2.259  14.993 -1.0794 -0.1288  0.3154
 1712SOL     OW16597   3.100   1.433   4.139  0.3764 -0.3477 -0.5336
 1712SOL    HW116598   3.133   1.349   4.168  1.7923  0.4825  0.2638
 1712SOL    HW216599   3.159   1.489   4.189  0.9590 -0.4410 -1.1198
 1713SOL     OW16600   4.263   3.224   0.756  0.2926 -0.5792  0.1036
 1713SOL    HW116601   4.192   3.281   0.784  0.8979 -0.0283  0.5350
 1713SOL    HW216602   4.234   3.201   0.668 -2.0590  0.0047  0.7240
 1714SOL     OW16603   2.565   0.093  14.039 -0.1676  0.5758  0.5250
 1714SOL    HW116604   2.590   0.016  13.988 -0.8418 -1.0390  2.6607
 1714SOL    HW216605   2.607   0.162  13.986  2.8605 -2.1172 -0.6384
 1715SOL     OW16606   2.386   3.874   7.109 -0.0359  0.1782  0.2010
 1715SOL    HW116607   2.364   3.799   7.164  1.5599  1.2583  2.3208
 1715SOL    HW216608   2.378   3.944   7.174  0.0671  2.5119 -2.3480
 1716SOL     OW16609   1.049   0.198   7.533  0.0628 -0.3518 -0.2688
 1716SOL    HW116610   1.022   0.194   7.625 -2.9720  0.2554 -1.1041
 1716SOL    HW216611   1.141   0.175   7.544  0.2176  1.8290  2.9515
 1717SOL     OW16612   3.902   3.039  12.599  0.2303  0.2235 -0.1607
 1717SOL    HW116613   3.932   2.984  12.527 -0.5108  0.0092 -0.2986
 1717SOL    HW216614   3.906   2.984  12.677  0.8666 -2.8180 -2.3589
 1718SOL     OW16615   2.639   2.271  15.365 -0.0590  0.2220  0.7979
 1718SOL    HW116616   2.650   2.319  15.283  2.5149  0.4814  1.2730
 1718SOL    HW216617   2.551   2.302  15.385 -0.2875  0.4342 -0.5547
 1719SOL     OW16618   2.085   1.364   5.338 -0.0998 -0.0559 -0.2615
 1719SOL    HW116619   2.147   1.295   5.313  1.9533  1.5263  0.4269
 1719SOL    HW216620   2.019   1.364   5.269 -1.1196  1.0055  0.7308
 1720SOL     OW16621   3.201   4.228   2.581 -0.3599 -0.6923 -0.1818
 1720SOL    HW116622   3.129   4.283   2.549  0.0066 -0.7550 -1.1277
 1720SOL    HW216623   3.158   4.148   2.610 -2.6744  0.5192 -0.3218
 1721SOL     OW16624   2.539   0.094   6.274  0.1705 -0.5177  0.2891
 1721SOL    HW116625   2.480   0.165   6.299 -0.7839 -1.1831 -0.0873
 1721SOL    HW216626   2.601   0.153   6.231  2.6277 -2.7943  0.7142
 1722SOL     OW16627   3.709   4.087   6.634  0.2209  0.0068 -0.4112
 1722SOL    HW116628   3.636   4.039   6.596 -1.5665  3.0528 -0.7835
 1722SOL    HW216629   3.685   4.121   6.721  2.9621 -0.0438  0.3747
 1723SOL     OW16630   2.280   0.673   8.266  0.4298 -0.9095  0.1065
 1723SOL    HW116631   2.339   0.688   8.340  1.2379  1.8777 -1.1059
 1723SOL    HW216632   2.216   0.608   8.296  0.5229 -0.7144  0.7198
 1724SOL     OW16633   0.605   4.082   1.541  0.3469  0.6149  0.2055
 1724SOL    HW116634   0.574   4.157   1.592 -1.2283 -1.1535  1.8353
 1724SOL    HW216635   0.531   4.048   1.490 -0.0641 -0.0359  1.2274
 1725SOL     OW16636   2.273   2.887   2.481 -0.6651  0.2236  0.5525
 1725SOL    HW116637   2.272   2.943   2.403 -0.1541 -0.7072 -0.1268
 1725SOL    HW216638   2.220   2.936   2.544 -4.1963 -1.1350 -1.3719
 1726SOL     OW16639   3.372   3.756  11.999  0.4221  0.0942  0.8331
 1726SOL    HW116640   3.291   3.711  12.025 -0.0755 -0.2315 -1.2768
 1726SOL    HW216641   3.432   3.718  12.063  0.5844  0.1076  0.6869
 1727SOL     OW16642   0.210   4.665   0.551 -0.0426 -0.3066  0.2077
 1727SOL    HW116643   0.252   4.588   0.590 -2.7211 -1.7991  0.1293
 1727SOL    HW216644   0.124   4.670   0.592  0.0357 -0.1481  0.3528
 1728SOL     OW16645   2.597   1.237  16.049  0.2480  0.0221  0.5211
 1728SOL    HW116646   2.512   1.216  16.088 -0.2283 -0.0741 -0.5536
 1728SOL    HW216647   2.577   1.190  15.968  0.2916 -0.3375  0.7203
 1729SOL     OW16648   4.138   1.455   8.483  0.0005 -0.2272 -0.3440
 1729SOL    HW116649   4.210   1.517   8.501 -0.5434  0.6318 -1.1299
 1729SOL    HW216650   4.068   1.520   8.485  0.4867  0.3034 -0.3599
 1730SOL     OW16651   1.635   4.570   3.594 -0.3579  0.1701  0.4951
 1730SOL    HW116652   1.578   4.492   3.594  1.2732 -1.0133 -0.6508
 1730SOL    HW216653   1.568   4.638   3.592 -0.9083 -0.2424  3.4121
 1731SOL     OW16654   0.946   3.386   6.368 -0.5029  0.7654  0.5405
 1731SOL    HW116655   0.931   3.396   6.462 -2.3947 -1.4000  0.4563
 1731SOL    HW216656   1.014   3.453   6.363  0.5760 -0.4361 -0.7427
 1732SOL     OW16657   0.030   1.075   5.807 -0.5331 -0.2276  0.7991
 1732SOL    HW116658   4.662   1.092   5.792 -0.8140 -1.5134  1.0457
 1732SOL    HW216659   0.030   0.986   5.843  2.0694  0.3220  2.1402
 1733SOL     OW16660   1.036   3.348   4.975 -0.0307 -0.3895  0.5397
 1733SOL    HW116661   1.016   3.352   5.069 -1.4479 -0.7428  0.2477
 1733SOL    HW216662   1.022   3.438   4.944  0.2587 -1.3043 -2.2161
 1734SOL     OW16663   4.563   1.592   6.312  0.0265 -0.5607  0.8707
 1734SOL    HW116664   4.573   1.680   6.274  2.9813 -0.3918  2.0611
 1734SOL    HW216665   4.472   1.580   6.286  1.1278 -1.1154 -2.7053
 1735SOL     OW16666   2.573   3.214   2.840  0.4082 -0.8278  0.2232
 1735SOL    HW116667   2.617   3.129   2.835 -0.9638 -1.5744  0.9596
 1735SOL    HW216668   2.643   3.280   2.838 -1.6081  1.2706 -1.9108
 1736SOL     OW16669   3.910   2.108   7.657  0.0247  0.1874  0.3940
 1736SOL    HW116670   3.952   2.035   7.703 -0.5176 -0.1437  0.3611
 1736SOL    HW216671   3.969   2.122   7.582  1.2453 -0.8606  1.1450
 1737SOL     OW16672   1.924   1.759  15.054 -0.1213  0.2787 -0.0750
 1737SOL    HW116673   2.005   1.742  15.102  0.5454 -2.9883 -2.3952
 1737SOL    HW216674   1.955   1.796  14.971 -0.0828 -1.2269 -0.7359
 1738SOL     OW16675   4.621   0.300  13.561  0.5274  0.0537 -0.1630
 1738SOL    HW116676   4.596   0.388  13.589 -1.4680 -0.4412 -0.3791
 1738SOL    HW216677   4.608   0.298  13.466 -1.1843  2.9638  0.0046
 1739SOL     OW16678   0.490   3.023  15.569 -0.0469  0.3864  0.1235
 1739SOL    HW116679   0.555   3.054  15.506 -0.0749  0.6525  0.2250
 1739SOL    HW216680   0.432   3.098  15.558  1.6810  1.4528 -1.6085
 1740SOL     OW16681   1.776   3.657   6.711  0.3880  0.0840  0.4018
 1740SOL    HW116682   1.851   3.716   6.721  1.5101 -1.4152  0.8534
 1740SOL    HW216683   1.809   3.602   6.640  0.8420 -0.9227  1.3922
 1741SOL     OW16684   4.514   0.869   6.227 -0.3207  0.0685  0.2268
 1741SOL    HW116685   4.510   0.895   6.319 -0.3713 -0.7663  0.4587
 1741SOL    HW216686   4.610   0.876   6.222 -0.2736  0.2639  1.2780
 1742SOL     OW16687   3.507   0.872   4.609  0.0730  0.3865  0.2594
 1742SOL    HW116688   3.473   0.890   4.522  0.0477  0.4064  0.2733
 1742SOL    HW216689   3.427   0.873   4.662  0.7828  1.7661  1.3169
 1743SOL     OW16690   0.626   3.438   3.987  0.6608 -0.3565 -0.4738
 1743SOL    HW116691   0.668   3.515   3.949  1.6271  0.0239  1.3802
 1743SOL    HW216692   0.536   3.466   3.968  0.4346  1.9728  4.0750
 1744SOL     OW16693   1.067   1.410   1.856  0.6119  0.3847 -0.0426
 1744SOL    HW116694   1.041   1.318   1.849  2.2005  0.0464 -1.7952
 1744SOL    HW216695   1.076   1.429   1.949 -1.4909 -1.8195  0.5992
 1745SOL     OW16696   0.085   4.579   5.915 -0.1104  0.1106 -0.9053
 1745SOL    HW116697   0.071   4.653   5.855  2.2012 -1.0352 -2.8361
 1745SOL    HW216698   0.175   4.586   5.945 -0.5222 -1.0890  0.6111
 1746SOL     OW16699   0.923   1.825   7.663 -0.1342  0.2559  0.0328
 1746SOL    HW116700   0.980   1.807   7.589 -0.4520  4.5472 -1.2679
 1746SOL    HW216701   0.976   1.780   7.728  0.7458  2.2558  0.7079
 1747SOL     OW16702   3.498   2.054   8.893 -0.8384  0.2624  0.0185
 1747SOL    HW116703   3.507   2.127   8.953  2.5830  0.1070 -0.2680
 1747SOL    HW216704   3.545   1.980   8.932 -2.5335 -0.3798  0.8145
 1748SOL     OW16705   3.026   3.088  11.768  0.1270  0.5296 -0.3861
 1748SOL    HW116706   3.027   3.078  11.672  2.1747 -2.0362 -0.0948
 1748SOL    HW216707   3.042   2.995  11.786 -0.2575  0.6063  0.3086
 1749SOL     OW16708   1.234   2.738   4.460 -0.5099 -0.1931 -0.2703
 1749SOL    HW116709   1.212   2.705   4.373  5.2137  0.0274 -1.7877
 1749SOL    HW216710   1.160   2.700   4.509 -1.0874  2.3811  0.8229
 1750SOL     OW16711   2.396   4.676   0.446  0.3485  0.5316 -0.2367
 1750SOL    HW116712   2.314   4.647   0.487  0.3514 -0.2642 -0.8029
 1750SOL    HW216713   2.438   4.716   0.522 -0.5523 -0.9309  1.0302
 1751SOL     OW16714   2.592   1.653   0.771 -0.4495  0.0349  0.2120
 1751SOL    HW116715   2.523   1.718   0.785 -0.9016 -0.2808 -0.5034
 1751SOL    HW216716   2.613   1.683   0.682  2.2663  0.9039  1.1493
 1752SOL     OW16717   2.141   0.183   1.941 -0.0613 -0.7355  0.0029
 1752SOL    HW116718   2.183   0.097   1.937  2.9342  0.7318 -0.3465
 1752SOL    HW216719   2.212   0.248   1.936 -1.9750  1.2827 -0.8018
 1753SOL     OW16720   4.697   4.159   9.066  0.5306  0.3425  0.3961
 1753SOL    HW116721   0.012   4.090   9.014 -1.0927  0.8456 -1.5394
 1753SOL    HW216722   4.663   4.216   8.997 -1.1256 -0.1987  0.7815
 1754SOL     OW16723   4.211   3.563   7.158 -0.2172 -0.4963  0.5701
 1754SOL    HW116724   4.246   3.542   7.072 -1.8117 -4.6019  0.9312
 1754SOL    HW216725   4.133   3.508   7.170  0.0628 -0.8058  0.9870
 1755SOL     OW16726   3.405   1.735   8.196 -0.2149  0.3144  0.2069
 1755SOL    HW116727   3.424   1.771   8.283 -2.7969 -0.5788  1.1484
 1755SOL    HW216728   3.338   1.798   8.168  0.2646  0.9457  0.4882
 1756SOL     OW16729   1.142   2.805   8.011  0.2047  0.1931 -0.3880
 1756SOL    HW116730   1.175   2.895   8.019  0.0511  0.2063  0.1257
 1756SOL    HW216731   1.106   2.791   8.099 -2.5354  2.1155 -1.1896
 1757SOL     OW16732   4.296   2.677   2.249 -0.0016  0.4038 -0.3760
 1757SOL    HW116733   4.287   2.627   2.168  0.5887  0.7392 -0.6522
 1757SOL    HW216734   4.218   2.647   2.294 -0.2802 -1.8730 -2.4095
 1758SOL     OW16735   1.280   0.133   7.280  0.7075  0.0976 -0.0384
 1758SOL    HW116736   1.287   0.173   7.366  0.5933  0.3816 -0.1594
 1758SOL    HW216737   1.224   0.057   7.299 -3.0348  2.5227 -1.2166
 1759SOL     OW16738   3.375   0.725  13.550  0.5333 -0.5128 -0.0283
 1759SOL    HW116739   3.333   0.649  13.590 -0.2801  0.8328  1.7246
 1759SOL    HW216740   3.332   0.796  13.598  1.8864 -0.2088  0.7321
 1760SOL     OW16741   4.170   0.032   5.745 -0.3016 -0.4808  0.1008
 1760SOL    HW116742   4.206   0.053   5.659 -0.9826 -2.3757 -0.6504
 1760SOL    HW216743   4.177   0.109   5.801 -1.3882 -1.6845  1.8732
 1761SOL     OW16744   3.867   0.393  13.129 -0.5765  0.1240  0.1278
 1761SOL    HW116745   3.819   0.474  13.113 -1.6586 -0.7729 -1.2091
 1761SOL    HW216746   3.794   0.335  13.148  0.5516 -1.7935 -1.3338
 1762SOL     OW16747   1.623   3.774  11.663 -0.3898 -0.3838  0.1216
 1762SOL    HW116748   1.601   3.689  11.700 -1.1475  0.0681  0.6941
 1762SOL    HW216749   1.574   3.774  11.581 -1.6601  0.5304  0.8751
 1763SOL     OW16750   3.004   3.226   1.570 -0.4176  0.1365 -0.0246
 1763SOL    HW116751   2.948   3.167   1.521 -0.3516  0.7454 -0.8370
 1763SOL    HW216752   2.991   3.309   1.524  2.0014 -0.1176 -1.1861
 1764SOL     OW16753   0.910   0.335  14.380 -0.3032 -0.1572  0.4272
 1764SOL    HW116754   0.931   0.281  14.456 -1.7519  1.1057  1.7353
 1764SOL    HW216755   0.844   0.280  14.339 -1.3507  0.5177  1.1969
 1765SOL     OW16756   0.781   0.573   5.990  0.5046  0.2600 -0.0446
 1765SOL    HW116757   0.723   0.631   6.039  0.0370 -0.6129  0.4347
 1765SOL    HW216758   0.733   0.492   6.007 -1.2847  0.6275 -3.3306
 1766SOL     OW16759   0.566   0.832   4.393  0.5256  0.0088  0.0495
 1766SOL    HW116760   0.580   0.904   4.454  0.3124 -0.3851  0.5636
 1766SOL    HW216761   0.588   0.876   4.311 -1.8413  2.5209  0.7491
 1767SOL     OW16762   2.029   3.863   7.110  0.0883  0.2357 -0.0204
 1767SOL    HW116763   1.937   3.885   7.098  0.9763  3.8123 -0.4278
 1767SOL    HW216764   2.067   3.904   7.032  0.1388 -1.7153 -1.0329
 1768SOL     OW16765   2.284   0.279   8.075  0.1929  0.1101  0.3136
 1768SOL    HW116766   2.361   0.225   8.055  0.8608  1.0783  0.2983
 1768SOL    HW216767   2.231   0.214   8.123  0.1337  0.2201  0.3966
 1769SOL     OW16768   4.552   0.986   8.595  1.0552  0.0066 -0.0544
 1769SOL    HW116769   4.627   1.036   8.626  0.0953  2.9769 -2.4768
 1769SOL    HW216770   4.514   1.051   8.535 -1.8879 -0.1821  1.5828
 1770SOL     OW16771   4.112   0.466  16.276 -0.2267  0.6885 -0.2047
 1770SOL    HW116772   4.183   0.469  16.340 -1.2525  2.2088  0.8419
 1770SOL    HW216773   4.158   0.464  16.192  2.2627  1.1178  1.1465
 1771SOL     OW16774   0.955   0.115  15.430  0.5278 -0.2555  0.5984
 1771SOL    HW116775   0.974   0.132  15.338 -1.4147 -0.8019  0.0994
 1771SOL    HW216776   0.860   0.120  15.430  0.4434 -1.8183  0.2077
 1772SOL     OW16777   1.954   2.498   4.084 -0.3947  0.2670  0.2979
 1772SOL    HW116778   1.873   2.549   4.086  0.6086  1.9276 -1.7465
 1772SOL    HW216779   1.917   2.412   4.062  2.4110 -0.4309 -1.7884
 1773SOL     OW16780   2.498   0.021   3.650 -0.0515  0.0698  0.6754
 1773SOL    HW116781   2.440   0.047   3.578  2.0898  0.6293 -0.8546
 1773SOL    HW216782   2.539   4.665   3.619  0.5532  0.4140  0.5787
 1774SOL     OW16783   1.267   2.707   5.682  0.1145  0.0762  0.3020
 1774SOL    HW116784   1.297   2.630   5.731  0.6286  0.2374  0.2363
 1774SOL    HW216785   1.243   2.763   5.756 -2.1261  0.0775 -0.3980
 1775SOL     OW16786   3.439   3.523   4.355  0.2613 -0.1496 -0.4880
 1775SOL    HW116787   3.418   3.457   4.421  2.8803  0.9259  1.4014
 1775SOL    HW216788   3.354   3.529   4.310 -1.0688 -0.5982  1.9421
 1776SOL     OW16789   3.888   2.188   0.286 -0.0774  0.1384  0.4146
 1776SOL    HW116790   3.949   2.120   0.315 -0.4459 -1.4524 -2.5407
 1776SOL    HW216791   3.819   2.135   0.246  1.7526 -0.2243 -2.2335
 1777SOL     OW16792   1.905   3.338   4.721 -0.2588 -0.6612  0.1648
 1777SOL    HW116793   1.863   3.419   4.751  0.3038 -0.2937 -0.0215
 1777SOL    HW216794   1.963   3.317   4.793 -0.9326 -1.6284  0.4188
 1778SOL     OW16795   3.514   3.566   2.947  0.7428 -0.3644 -0.1471
 1778SOL    HW116796   3.462   3.492   2.916 -0.2897  0.8652 -1.3798
 1778SOL    HW216797   3.523   3.540   3.038  2.8849  1.1440  0.0584
 1779SOL     OW16798   4.018   4.090  10.014  0.5567  0.2813  0.0992
 1779SOL    HW116799   4.060   4.010   9.983  0.4042  0.7753 -1.4132
 1779SOL    HW216800   4.006   4.131   9.928 -2.0926  0.3025  0.4857
 1780SOL     OW16801   0.123   0.780   2.504 -0.5963 -0.0826 -0.6189
 1780SOL    HW116802   0.110   0.747   2.415  0.9827  0.0499 -0.9058
 1780SOL    HW216803   0.118   0.875   2.493 -1.0847 -0.1796 -1.2492
 1781SOL     OW16804   2.275   2.270   4.302  0.1679 -0.0806  0.3171
 1781SOL    HW116805   2.240   2.189   4.340  0.6493  0.0712  1.0913
 1781SOL    HW216806   2.330   2.302   4.374  2.1917 -0.1276 -1.2367
 1782SOL     OW16807   4.265   2.874  11.743  0.0206 -0.3564 -0.1268
 1782SOL    HW116808   4.193   2.818  11.773  0.4084 -0.7023  0.1493
 1782SOL    HW216809   4.240   2.965  11.763 -0.7486 -1.2630  3.1170
 1783SOL     OW16810   2.415   1.662   9.018 -0.6710 -0.0413 -0.1172
 1783SOL    HW116811   2.379   1.699   9.098  0.6716  1.5952 -0.2537
 1783SOL    HW216812   2.504   1.667   9.051 -0.8128  2.8390 -0.1813
 1784SOL     OW16813   2.751   4.433   4.605  0.4486  0.0644  0.1392
 1784SOL    HW116814   2.745   4.515   4.556 -2.3396  0.2960  0.8685
 1784SOL    HW216815   2.753   4.364   4.539  0.1065 -1.1561  1.3901
 1785SOL     OW16816   3.067   3.350  12.162 -0.4619 -0.1884 -0.1180
 1785SOL    HW116817   3.032   3.261  12.164 -1.8746  0.3479 -1.0962
 1785SOL    HW216818   3.039   3.369  12.072 -1.1211 -0.1615  0.0897
 1786SOL     OW16819   4.251   2.526   6.353 -0.4737  0.6036  0.4275
 1786SOL    HW116820   4.267   2.501   6.262  1.1030  1.3266  0.5110
 1786SOL    HW216821   4.158   2.504   6.359  0.0422 -1.3735  1.1579
 1787SOL     OW16822   3.830   3.126   2.620 -0.0013 -0.0434 -0.6052
 1787SOL    HW116823   3.881   3.202   2.648  2.0188 -0.9060 -1.9443
 1787SOL    HW216824   3.765   3.128   2.690 -0.0946  2.7641 -0.7754
 1788SOL     OW16825   3.285   4.128  16.097 -0.1622 -0.0917 -0.2434
 1788SOL    HW116826   3.364   4.086  16.061  1.3394  1.4090  1.3144
 1788SOL    HW216827   3.324   4.215  16.093 -0.6000  0.1282  0.3770
 1789SOL     OW16828   1.701   1.562   7.239 -0.3267 -0.0728  0.0409
 1789SOL    HW116829   1.725   1.545   7.330  3.0222 -1.5913 -1.1236
 1789SOL    HW216830   1.769   1.511   7.197  2.4733  1.9335  2.1377
 1790SOL     OW16831   0.041   0.253   8.978  0.7236 -0.0706 -0.0490
 1790SOL    HW116832   0.024   0.341   8.944  2.5280 -0.3341 -1.5988
 1790SOL    HW216833   4.708   0.203   8.921  1.1185 -1.1809  0.5123
 1791SOL     OW16834   1.523   4.573  12.259 -0.3635  0.5802 -0.5054
 1791SOL    HW116835   1.539   4.532  12.344  0.4071  2.4805  0.2530
 1791SOL    HW216836   1.429   4.573  12.244 -0.2945 -0.8293 -1.0068
 1792SOL     OW16837   4.701   3.523   9.027 -0.2752  0.0764 -0.5591
 1792SOL    HW116838   4.612   3.494   9.009 -0.7570 -0.8774  3.2662
 1792SOL    HW216839   0.027   3.444   9.009  1.2960  1.5937 -2.7424
 1793SOL     OW16840   3.430   4.068   7.225  0.1801 -0.2759  0.3883
 1793SOL    HW116841   3.438   4.060   7.320 -1.9144  0.6387  0.6444
 1793SOL    HW216842   3.497   4.004   7.200  0.3256  0.1264 -0.2661
 1794SOL     OW16843   1.171   3.387  11.770 -0.4778 -0.0766 -0.0791
 1794SOL    HW116844   1.208   3.385  11.681  2.0597 -2.6501  1.0424
 1794SOL    HW216845   1.240   3.329  11.802 -0.1427  1.7266  2.3863
 1795SOL     OW16846   4.215   0.819   4.198  0.0710  0.0594  0.3294
 1795SOL    HW116847   4.148   0.781   4.141  0.7700  2.6236 -2.2183
 1795SOL    HW216848   4.190   0.800   4.288 -1.0184 -0.8058 -0.1585
 1796SOL     OW16849   3.576   2.092  16.995  0.1136 -0.3151  0.5050
 1796SOL    HW116850   3.569   2.187  16.992  0.1702 -0.3934 -2.2253
 1796SOL    HW216851   3.624   2.079  16.913 -1.3851 -4.4661  0.2471
 1797SOL     OW16852   3.760   1.386   3.337  0.1906 -0.2258  0.5213
 1797SOL    HW116853   3.665   1.401   3.336  0.3121  0.4454 -1.8010
 1797SOL    HW216854   3.761   1.316   3.272  2.2330  1.5695 -1.3718
 1798SOL     OW16855   0.149   0.040  13.608 -0.4378 -0.7783  0.1525
 1798SOL    HW116856   0.195   0.117  13.574 -1.9119 -1.0157 -2.4273
 1798SOL    HW216857   0.119   0.020  13.519 -1.3748 -0.8051  0.4776
 1799SOL     OW16858   3.769   2.484  15.450  0.2082 -0.0052  0.6613
 1799SOL    HW116859   3.752   2.578  15.449  2.0149  0.2879 -1.2592
 1799SOL    HW216860   3.679   2.457  15.432  0.9810  0.0027 -3.3858
 1800SOL     OW16861   1.234   4.418  13.778 -0.0307 -0.0886  0.1463
 1800SOL    HW116862   1.200   4.339  13.820 -1.0779 -0.5417 -1.5826
 1800SOL    HW216863   1.256   4.463  13.860 -2.5069  1.0572  0.1644
 1801SOL     OW16864   1.981   1.479   7.027  0.1399  0.4717  0.2061
 1801SOL    HW116865   1.988   1.385   7.039  1.2497  0.2214 -2.4235
 1801SOL    HW216866   2.049   1.492   6.961 -0.7217  0.3987 -0.7111
 1802SOL     OW16867   4.141   0.701   8.934  0.2812 -0.0587 -0.0338
 1802SOL    HW116868   4.070   0.643   8.962 -0.0400 -0.2562 -1.2623
 1802SOL    HW216869   4.150   0.685   8.840  0.7716 -1.8846  0.3226
 1803SOL     OW16870   0.851   0.783   3.007  0.4239  0.2415 -0.7941
 1803SOL    HW116871   0.772   0.836   2.998  1.1319  1.4238  0.0264
 1803SOL    HW216872   0.805   0.706   3.042  0.4908  0.7075  0.3324
 1804SOL     OW16873   4.716   3.374   1.939 -0.1186 -0.0679  0.0328
 1804SOL    HW116874   4.674   3.323   1.870 -3.4570 -0.5143  2.4170
 1804SOL    HW216875   4.714   3.463   1.904  1.0196  0.1674  0.5504
 1805SOL     OW16876   2.602   3.050   3.373  0.2594  0.3789  0.1351
 1805SOL    HW116877   2.562   3.031   3.288  1.0497 -0.7975  0.0252
 1805SOL    HW216878   2.535   3.102   3.417 -0.7399 -1.3827  0.6672
 1806SOL     OW16879   0.718   1.766  10.520 -0.2109  0.2908  0.0160
 1806SOL    HW116880   0.755   1.797  10.437  0.1744 -2.5159 -0.8518
 1806SOL    HW216881   0.696   1.848  10.565  0.4591 -0.5029  1.7602
 1807SOL     OW16882   3.698   3.763   2.910  0.1061 -0.0581 -0.4592
 1807SOL    HW116883   3.644   3.689   2.936  0.6961 -0.3975 -0.1876
 1807SOL    HW216884   3.689   3.758   2.815  1.6661  0.3479 -0.6297
 1808SOL     OW16885   1.224   4.101  12.527 -0.6253 -0.0158  0.7152
 1808SOL    HW116886   1.145   4.053  12.506 -1.6528  0.3866  3.6967
 1808SOL    HW216887   1.203   4.138  12.613  1.1349 -0.9714  1.5753
 1809SOL     OW16888   3.765   1.737  15.412  0.4250 -0.5261  0.5323
 1809SOL    HW116889   3.707   1.813  15.410  1.6633  0.4597  1.5280
 1809SOL    HW216890   3.712   1.677  15.465  1.2078  3.1865  5.5084
 1810SOL     OW16891   1.697   2.345   8.751  0.2943  0.1146  0.0757
 1810SOL    HW116892   1.650   2.423   8.720 -1.4037  0.0251  2.4293
 1810SOL    HW216893   1.765   2.391   8.800  1.3579  1.1511 -2.3354
 1811SOL     OW16894   0.142   1.640   3.628 -0.1251 -0.0111 -0.8394
 1811SOL    HW116895   0.189   1.686   3.697  0.0612  0.6253 -1.3891
 1811SOL    HW216896   0.065   1.696   3.624  0.0670  0.2833 -0.3421
 1812SOL     OW16897   4.218   2.363   5.650 -0.5803  0.5929  0.5384
 1812SOL    HW116898   4.304   2.322   5.637 -1.9205 -1.8158 -0.7634
 1812SOL    HW216899   4.168   2.288   5.683  1.3746 -0.6385  0.7552
 1813SOL     OW16900   3.456   0.795  12.714  0.1446 -0.3263 -0.1031
 1813SOL    HW116901   3.379   0.753  12.751  0.3375 -0.9998 -0.4687
 1813SOL    HW216902   3.524   0.778  12.779 -0.2762 -1.2615  0.0926
 1814SOL     OW16903   1.116   2.754  14.353 -0.1485 -0.3109  0.2186
 1814SOL    HW116904   1.069   2.691  14.408  0.8833 -1.7503 -0.5563
 1814SOL    HW216905   1.201   2.722  14.383 -1.2369 -1.1747  2.3768
 1815SOL     OW16906   1.550   2.268   2.322 -1.1428  0.2909 -0.1261
 1815SOL    HW116907   1.578   2.177   2.311  0.7808  0.6965  1.4352
 1815SOL    HW216908   1.568   2.290   2.413 -0.1626  1.0154 -0.4919
 1816SOL     OW16909   2.087   2.748   3.456  0.0457 -0.8685  0.5555
 1816SOL    HW116910   2.105   2.710   3.371 -0.1054 -0.3959  0.3109
 1816SOL    HW216911   1.993   2.735   3.446 -0.1008  0.7011 -0.0657
 1817SOL     OW16912   3.866   4.268   8.956 -0.3038 -0.0495  0.2016
 1817SOL    HW116913   3.850   4.174   8.944 -0.1925 -0.1745  1.0122
 1817SOL    HW216914   3.940   4.282   8.898 -1.5742 -0.1439 -1.4616
 1818SOL     OW16915   1.479   3.197   0.899 -0.1115 -0.0295 -0.0347
 1818SOL    HW116916   1.567   3.161   0.904  0.5818  1.3819 -2.0133
 1818SOL    HW216917   1.490   3.250   0.820 -0.3850 -3.6354 -2.4824
 1819SOL     OW16918   2.409   2.405   5.525  0.5012 -0.5908  0.2339
 1819SOL    HW116919   2.392   2.490   5.484 -0.8674  0.7657  3.6168
 1819SOL    HW216920   2.403   2.439   5.614 -0.5647  2.5198 -1.0188
 1820SOL     OW16921   3.374   3.970   5.271 -0.1155  0.5671  1.2842
 1820SOL    HW116922   3.369   3.914   5.194  0.9009 -1.0668  2.4328
 1820SOL    HW216923   3.439   3.926   5.325 -1.0829  1.1071  2.9158
 1821SOL     OW16924   1.222   1.494  11.935 -0.0118 -0.1844 -0.4890
 1821SOL    HW116925   1.159   1.543  11.986 -0.2936 -1.5336  0.4577
 1821SOL    HW216926   1.289   1.480  12.002 -0.1073 -1.2801 -0.6225
 1822SOL     OW16927   2.721   3.130   7.004  0.0278  0.9748  0.0837
 1822SOL    HW116928   2.776   3.206   7.021  2.9771 -1.2005  0.2101
 1822SOL    HW216929   2.780   3.062   7.036 -1.0856 -0.1536 -0.2662
 1823SOL     OW16930   0.302   4.237  17.455 -0.4169 -0.1567 -0.0263
 1823SOL    HW116931   0.263   4.153  17.480 -1.3906  0.0540 -0.8152
 1823SOL    HW216932   0.301   4.220  17.361 -4.5579 -0.5630  0.0776
 1824SOL     OW16933   4.234   2.604   5.003  0.2729  0.0727  0.1265
 1824SOL    HW116934   4.207   2.536   5.065  3.4791  1.3095  2.8848
 1824SOL    HW216935   4.271   2.668   5.064  1.3232  0.8442 -1.3232
 1825SOL     OW16936   0.635   4.051   2.085 -0.4595  0.6590  0.5146
 1825SOL    HW116937   0.677   4.065   2.000 -0.5572 -0.2530  0.3141
 1825SOL    HW216938   0.545   4.041   2.054 -0.9204 -0.7856  2.2958
 1826SOL     OW16939   3.770   0.766  12.827  0.3189  0.0785  0.1744
 1826SOL    HW116940   3.825   0.806  12.759 -1.0627 -1.5511 -1.9149
 1826SOL    HW216941   3.793   0.673  12.822 -1.2223 -0.2366 -1.2112
 1827SOL     OW16942   2.823   0.634   3.309 -0.6487  0.3055  0.2068
 1827SOL    HW116943   2.728   0.629   3.303 -0.8027  1.7383  1.3767
 1827SOL    HW216944   2.828   0.671   3.221  2.9805 -1.0025 -0.1580
 1828SOL     OW16945   3.445   3.888  11.394  0.7639 -0.2543 -0.7683
 1828SOL    HW116946   3.439   3.938  11.475  1.1885  0.1996 -1.0151
 1828SOL    HW216947   3.356   3.896  11.359 -0.4796  0.9247  2.6661
 1829SOL     OW16948   2.115   0.214  10.770  0.8898  0.5155  0.4821
 1829SOL    HW116949   2.159   0.151  10.713  0.2022 -0.3486  0.9151
 1829SOL    HW216950   2.084   0.153  10.837 -0.4611 -0.5744 -1.1364
 1830SOL     OW16951   4.604   0.882  16.082  0.3687 -0.3563  0.1293
 1830SOL    HW116952   4.532   0.934  16.120  1.5488  0.9040  0.6248
 1830SOL    HW216953   4.566   0.795  16.093 -1.0381  0.1133 -0.8752
 1831SOL     OW16954   2.425   0.397  11.512  0.3449 -0.0448  0.1770
 1831SOL    HW116955   2.400   0.476  11.560 -1.7376 -1.5182  1.4801
 1831SOL    HW216956   2.349   0.390  11.454  0.3715 -1.1037  0.2838
 1832SOL     OW16957   3.590   1.386   5.539 -0.4204  0.0992  0.3320
 1832SOL    HW116958   3.552   1.425   5.460  2.9224  0.2228 -1.1992
 1832SOL    HW216959   3.638   1.310   5.507  0.4551  0.6614  0.2905
 1833SOL     OW16960   3.391   1.252   1.797 -0.5964  0.3773 -0.1412
 1833SOL    HW116961   3.296   1.241   1.807 -0.6841  0.4104 -0.9677
 1833SOL    HW216962   3.408   1.301   1.878  2.3384 -0.1940 -0.3974
 1834SOL     OW16963   2.678   2.933  16.088  0.4508  0.5939  0.6150
 1834SOL    HW116964   2.673   2.962  15.997  0.0148  1.5788  0.9619
 1834SOL    HW216965   2.623   2.855  16.092  0.8177  0.1895 -2.5083
 1835SOL     OW16966   3.134   2.750   3.097  0.6779  0.1124  0.3551
 1835SOL    HW116967   3.197   2.809   3.138  2.3863 -1.6601  0.2925
 1835SOL    HW216968   3.101   2.798   3.021 -0.4661  0.6611  1.1967
 1836SOL     OW16969   3.220   2.982   5.344 -0.3356 -0.0964 -0.4643
 1836SOL    HW116970   3.298   2.930   5.326  1.4279  2.5544 -0.4230
 1836SOL    HW216971   3.192   2.951   5.431  0.5253  0.8686  0.1562
 1837SOL     OW16972   2.998   2.056   0.055  0.4201  0.5477 -0.2419
 1837SOL    HW116973   2.946   2.084   0.131  0.1542 -0.0420 -0.2069
 1837SOL    HW216974   2.949   1.987   0.011 -0.7019  0.8219  0.5753
 1838SOL     OW16975   1.850   0.952   8.481  0.0041 -0.1246 -0.8448
 1838SOL    HW116976   1.794   1.009   8.532 -0.2553 -1.8462  0.7760
 1838SOL    HW216977   1.822   0.862   8.498  2.2080 -0.6446  0.0808
 1839SOL     OW16978   2.915   0.145  10.092  0.6429 -0.5358  0.3547
 1839SOL    HW116979   2.934   0.170  10.182 -1.3490 -0.0105  0.6146
 1839SOL    HW216980   2.827   0.180  10.083  2.1611  3.1088 -0.4355
 1840SOL     OW16981   3.315   2.828   2.152 -0.4047 -0.4217  0.5261
 1840SOL    HW116982   3.356   2.883   2.086 -1.6114 -2.4963 -1.9573
 1840SOL    HW216983   3.330   2.742   2.113 -0.6511 -1.2426  2.1918
 1841SOL     OW16984   0.146   2.562   7.415  0.2444  0.6063 -0.0880
 1841SOL    HW116985   0.092   2.559   7.336 -2.6004  0.5929  1.8466
 1841SOL    HW216986   0.160   2.656   7.423  2.0107  0.6102 -3.4153
 1842SOL     OW16987   1.990   1.604  13.781 -0.1611  0.1294 -0.1468
 1842SOL    HW116988   2.028   1.589  13.694  0.4155  1.0449 -0.0464
 1842SOL    HW216989   2.063   1.634  13.836 -1.5668  0.6316  1.4432
 1843SOL     OW16990   4.039   0.519   3.405 -0.1167  0.5011 -0.2427
 1843SOL    HW116991   4.102   0.484   3.341  1.1395 -0.2446  1.4160
 1843SOL    HW216992   3.959   0.497   3.357 -2.0637 -3.9260  5.0505
 1844SOL     OW16993   2.553   0.621   6.976 -0.2971  0.2111  0.0825
 1844SOL    HW116994   2.576   0.529   6.989  1.7176  0.6651 -0.3614
 1844SOL    HW216995   2.567   0.657   7.063  0.0906  0.6537 -0.1645
 1845SOL     OW16996   3.248   1.886   0.542 -0.4321 -0.1734  0.2670
 1845SOL    HW116997   3.174   1.826   0.535  0.4732 -0.8679 -3.7417
 1845SOL    HW216998   3.279   1.847   0.624  1.5608 -1.4969 -1.1156
 1846SOL     OW16999   4.351   3.340  13.405  0.0866  1.0560  0.3958
 1846SOL    HW117000   4.311   3.340  13.493  0.4955 -0.8591  0.5927
 1846SOL    HW217001   4.336   3.251  13.372 -1.7668  1.9322 -1.1258
 1847SOL     OW17002   4.220   2.092  11.828 -0.6567  0.2324  0.7441
 1847SOL    HW117003   4.288   2.040  11.871 -0.9585 -0.3871  0.4707
 1847SOL    HW217004   4.243   2.183  11.849 -1.0466  0.8518 -1.4537
 1848SOL     OW17005   2.598   0.266   7.630  0.0623 -0.0631  0.1657
 1848SOL    HW117006   2.673   0.217   7.596  0.0021 -1.5810  2.2368
 1848SOL    HW217007   2.530   0.252   7.563  0.5522  1.1065 -0.5732
 1849SOL     OW17008   4.603   0.339   7.243 -0.4912 -0.1188 -0.5856
 1849SOL    HW117009   4.645   0.261   7.209 -1.6102 -0.9793 -0.0017
 1849SOL    HW217010   4.520   0.335   7.194 -0.4011  2.1611 -0.9398
 1850SOL     OW17011   4.024   3.824   9.126  0.3685 -0.1836 -0.3644
 1850SOL    HW117012   3.934   3.804   9.153 -0.1361  1.1992 -1.0396
 1850SOL    HW217013   4.053   3.866   9.207 -0.6972 -0.0107 -0.0756
 1851SOL     OW17014   2.988   2.554   3.223 -0.4031  0.2852 -0.2286
 1851SOL    HW117015   3.064   2.593   3.179  0.1318  0.3933  0.7978
 1851SOL    HW217016   3.003   2.596   3.308 -0.4685 -2.6229  1.2211
 1852SOL     OW17017   0.821   0.755   7.479 -0.0752 -0.0341 -0.5510
 1852SOL    HW117018   0.901   0.745   7.426  0.5028  0.1363  0.2871
 1852SOL    HW217019   0.808   0.664   7.507 -0.7494  0.9495  2.3312
 1853SOL     OW17020   1.458   4.523  14.153 -0.2991 -0.5672  0.0316
 1853SOL    HW117021   1.432   4.572  14.231 -2.8691 -0.0746 -1.1327
 1853SOL    HW217022   1.526   4.467  14.192  1.3160  1.8169  0.6255
 1854SOL     OW17023   2.568   4.087  16.587 -0.2630  0.2555  0.5472
 1854SOL    HW117024   2.533   4.117  16.671 -1.4740 -2.6182  1.0682
 1854SOL    HW217025   2.555   4.165  16.532  0.2650  0.0136  0.0750
 1855SOL     OW17026   2.615   1.674   1.879  0.5665 -0.4586 -0.3000
 1855SOL    HW117027   2.555   1.639   1.814 -1.8449  2.3231  0.4577
 1855SOL    HW217028   2.560   1.746   1.909  0.6030 -0.7673  0.5328
 1856SOL     OW17029   3.967   2.913   4.299  0.5274  0.1605  0.1798
 1856SOL    HW117030   4.053   2.879   4.273  0.0880  0.1842 -1.3495
 1856SOL    HW217031   3.962   3.003   4.269 -1.1574 -0.6282 -1.9420
 1857SOL     OW17032   0.924   1.407   0.398  0.2989  0.6811 -0.9055
 1857SOL    HW117033   0.990   1.343   0.370 -2.0786 -1.4908 -1.4804
 1857SOL    HW217034   0.976   1.488   0.394 -0.0291  0.8621 -1.4587
 1858SOL     OW17035   1.286   0.486   7.954 -0.2842 -0.5004  0.4066
 1858SOL    HW117036   1.326   0.567   7.987 -2.6312  0.8868 -0.1378
 1858SOL    HW217037   1.244   0.514   7.873  0.1585  0.5515  0.5367
 1859SOL     OW17038   0.214   3.381   3.699 -0.3022  0.4545  0.1327
 1859SOL    HW117039   0.192   3.441   3.628 -2.0908 -1.2208 -0.7163
 1859SOL    HW217040   0.242   3.303   3.652  1.1015  0.3724  1.1206
 1860SOL     OW17041   2.151   0.900   1.480  0.4734  0.5890 -0.3584
 1860SOL    HW117042   2.077   0.845   1.453  0.7786  1.3074 -2.6470
 1860SOL    HW217043   2.144   0.899   1.576  0.1772 -0.5099 -0.3895
 1861SOL     OW17044   4.163   3.234  14.829 -0.7454 -0.4375  0.2179
 1861SOL    HW117045   4.157   3.147  14.867  0.0838 -1.0330 -1.0310
 1861SOL    HW217046   4.103   3.218  14.756  0.9051 -1.2398 -0.9660
 1862SOL     OW17047   1.920   0.649  16.798  0.4397  0.7636 -0.5611
 1862SOL    HW117048   1.835   0.610  16.820  1.2945  0.0125  1.4129
 1862SOL    HW217049   1.983   0.581  16.819 -0.4320 -0.0567 -0.6031
 1863SOL     OW17050   3.763   0.237   2.889  0.5226  0.0200 -0.4754
 1863SOL    HW117051   3.717   0.170   2.940  0.6334  1.0758  1.0219
 1863SOL    HW217052   3.708   0.312   2.912 -0.1030 -0.3085 -0.9158
 1864SOL     OW17053   1.975   4.588   5.806  0.2569 -0.1052  0.0544
 1864SOL    HW117054   2.058   4.633   5.791  0.2087 -0.4942 -1.3610
 1864SOL    HW217055   1.996   4.534   5.882 -0.4003  0.6090  0.7486
 1865SOL     OW17056   3.260   2.400   6.636  0.1016 -0.1550  0.1392
 1865SOL    HW117057   3.328   2.455   6.597  0.1163  1.5599  2.5609
 1865SOL    HW217058   3.190   2.465   6.629 -0.1643 -0.6342 -1.5847
 1866SOL     OW17059   4.410   4.456   0.595 -0.1528  0.0442  0.4078
 1866SOL    HW117060   4.339   4.433   0.535  1.8405 -1.6021 -1.3205
 1866SOL    HW217061   4.367   4.511   0.661 -1.3459 -0.7686  0.3247
 1867SOL     OW17062   2.372   2.058   6.456 -0.3775 -0.1084  0.5748
 1867SOL    HW117063   2.463   2.053   6.486 -0.5498 -0.6641  1.0323
 1867SOL    HW217064   2.390   2.025   6.368 -1.3410 -1.1749  0.7617
 1868SOL     OW17065   0.057   2.795   5.126 -0.3098 -0.8944  0.6182
 1868SOL    HW117066   0.120   2.723   5.133 -0.7947 -1.4096 -0.3235
 1868SOL    HW217067   0.124   2.862   5.116 -0.6573 -0.5874  0.3673
 1869SOL     OW17068   1.836   0.108   7.862 -0.5956 -0.1555  0.0409
 1869SOL    HW117069   1.760   0.136   7.811 -0.8521  0.9416  1.0216
 1869SOL    HW217070   1.808   0.126   7.952 -1.6846 -0.4880 -0.2268
 1870SOL     OW17071   1.772   3.398   0.933 -0.1289  0.0282 -0.2023
 1870SOL    HW117072   1.860   3.415   0.901 -1.2026 -0.4266 -3.4684
 1870SOL    HW217073   1.747   3.490   0.943  0.1118 -0.1517  1.9736
 1871SOL     OW17074   3.563   0.489   5.637  0.1167 -0.2488  0.0319
 1871SOL    HW117075   3.593   0.562   5.582 -1.8093  0.6563  0.2109
 1871SOL    HW217076   3.632   0.425   5.619  0.5384  1.1904 -3.5724
 1872SOL     OW17077   0.051   2.209   2.499 -0.2889  0.2308 -0.0524
 1872SOL    HW117078   4.710   2.147   2.468 -2.4479  1.3657  2.2582
 1872SOL    HW217079   0.045   2.192   2.593 -2.3794 -1.3468 -0.4630
 1873SOL     OW17080   3.482   3.899   9.472  0.2365 -0.0202 -0.1855
 1873SOL    HW117081   3.522   3.881   9.558 -1.4797  2.3797  1.1069
 1873SOL    HW217082   3.397   3.934   9.496  0.3871 -0.3409  0.8284
 1874SOL     OW17083   0.764   0.667   7.148  0.0569  0.6614 -0.2971
 1874SOL    HW117084   0.785   0.758   7.129  1.1550  0.5572  0.4073
 1874SOL    HW217085   0.793   0.663   7.239  2.3156 -2.3223 -1.1473
 1875SOL     OW17086   3.837   1.363   2.260  0.0180 -0.4088  0.0314
 1875SOL    HW117087   3.912   1.309   2.285  0.6828  0.5332  0.0707
 1875SOL    HW217088   3.811   1.403   2.343 -0.7202 -0.3862 -0.2124
 1876SOL     OW17089   0.253   3.474   6.674  0.3558 -0.2151  0.5278
 1876SOL    HW117090   0.272   3.455   6.582 -0.0760  1.6084  0.0506
 1876SOL    HW217091   0.195   3.548   6.657  1.3027  0.2189 -0.7949
 1877SOL     OW17092   3.003   3.823   7.546  0.4513  0.4087 -0.3134
 1877SOL    HW117093   3.005   3.879   7.469 -2.2105  0.8218 -0.0799
 1877SOL    HW217094   2.915   3.785   7.552  0.1156  1.0917 -0.9520
 1878SOL     OW17095   2.145   1.766   3.478 -0.3962 -0.1471 -0.0119
 1878SOL    HW117096   2.058   1.792   3.449  0.0336 -1.3576 -2.3940
 1878SOL    HW217097   2.186   1.850   3.459 -0.0898  0.0138  1.3187
 1879SOL     OW17098   3.713   3.888  16.646  0.5611 -0.2540  0.1157
 1879SOL    HW117099   3.743   3.813  16.697 -1.7898 -0.5457  1.0730
 1879SOL    HW217100   3.621   3.861  16.642 -0.0498  1.6373  1.5006
 1880SOL     OW17101   0.209   0.840   7.824 -0.5252 -0.1352 -0.1067
 1880SOL    HW117102   0.252   0.920   7.794  0.0144  0.1424  1.4109
 1880SOL    HW217103   0.222   0.769   7.761 -3.2059 -2.3641  1.8308
 1881SOL     OW17104   3.401   2.039   1.159 -0.2757 -0.0545 -0.0061
 1881SOL    HW117105   3.356   2.079   1.233  1.1082  0.4821  0.5408
 1881SOL    HW217106   3.391   1.945   1.171 -0.6073  0.1945  1.6218
 1882SOL     OW17107   2.123   2.044   4.448  0.4691 -0.1452 -0.0147
 1882SOL    HW117108   2.038   2.029   4.406  2.2946 -3.1445 -2.6934
 1882SOL    HW217109   2.152   1.953   4.459  0.3830 -0.3021 -1.0665
 1883SOL     OW17110   2.148   3.295  15.461 -0.2393  0.3673  0.4530
 1883SOL    HW117111   2.218   3.319  15.522 -0.5592 -0.5922  1.2125
 1883SOL    HW217112   2.096   3.375  15.460  1.3310  1.3596 -2.1916
 1884SOL     OW17113   3.261   0.168   2.655 -0.5168  0.7009  0.1869
 1884SOL    HW117114   3.268   0.073   2.652 -0.5733  0.6336  2.5182
 1884SOL    HW217115   3.222   0.177   2.742  0.5354  0.6892  0.6605
 1885SOL     OW17116   3.117   3.505  13.157 -0.0424 -0.3574  0.0454
 1885SOL    HW117117   3.107   3.516  13.063 -0.4659  0.0686  0.1393
 1885SOL    HW217118   3.078   3.582  13.198  0.4568 -0.6312  1.0601
 1886SOL     OW17119   4.144   0.040   0.048 -0.1159 -0.8974 -0.6674
 1886SOL    HW117120   4.182   0.029   0.135  0.3506  1.4647 -0.5743
 1886SOL    HW217121   4.145   4.680   0.006  0.3083 -1.9222  1.4384
 1887SOL     OW17122   3.324   0.932  10.866 -0.7230 -0.0064 -0.0943
 1887SOL    HW117123   3.397   0.910  10.925  0.9378  0.6674 -1.9096
 1887SOL    HW217124   3.358   1.007  10.817 -1.5978  1.9041  2.2406
 1888SOL     OW17125   1.390   2.467   3.756  0.2024 -0.0077  0.1020
 1888SOL    HW117126   1.409   2.439   3.667  1.6355 -0.3921  0.5315
 1888SOL    HW217127   1.476   2.477   3.796  0.7947 -2.9696 -0.4340
 1889SOL     OW17128   4.067   4.085  15.792  0.8142  0.2911 -0.0711
 1889SOL    HW117129   4.000   4.046  15.849  1.0861 -1.3780 -0.8773
 1889SOL    HW217130   4.028   4.108  15.708  1.3951 -0.3731 -0.5290
 1890SOL     OW17131   1.162   3.752  11.938  0.5540 -0.9502  0.0212
 1890SOL    HW117132   1.121   3.725  11.856  3.9477 -1.9830 -1.3382
 1890SOL    HW217133   1.089   3.740  11.999  0.0178 -0.5424 -0.5513
 1891SOL     OW17134   3.696   2.329  16.040 -0.2360  0.1531 -0.2963
 1891SOL    HW117135   3.691   2.377  16.123 -3.0176  2.4244 -1.7906
 1891SOL    HW217136   3.607   2.296  16.044 -0.3335  0.5737  1.2091
 1892SOL     OW17137   3.311   4.353   2.354  0.6921  0.4352 -0.6027
 1892SOL    HW117138   3.258   4.315   2.424  1.0326 -0.1240 -0.6441
 1892SOL    HW217139   3.403   4.331   2.373  0.3695 -0.2532  0.1716
 1893SOL     OW17140   0.606   4.641   8.509 -0.6172  0.5255  0.2659
 1893SOL    HW117141   0.656   4.591   8.574 -0.8725 -0.1826 -0.0840
 1893SOL    HW217142   0.609   4.571   8.443  1.4108 -0.1307  1.0646
 1894SOL     OW17143   4.332   2.408   7.447 -0.0806  0.2013  0.1546
 1894SOL    HW117144   4.254   2.419   7.503  1.4175  0.3272  2.2382
 1894SOL    HW217145   4.330   2.314   7.431 -0.1910  0.2855 -0.3293
 1895SOL     OW17146   3.668   3.285   7.982 -0.4458  0.2292 -0.0999
 1895SOL    HW117147   3.658   3.191   7.970  0.9976  0.4662 -3.1706
 1895SOL    HW217148   3.647   3.294   8.075 -0.2366  0.6274 -0.0899
 1896SOL     OW17149   4.695   2.787   9.593 -0.0726 -0.6448  0.2295
 1896SOL    HW117150   4.623   2.826   9.642  0.0522  0.8600 -0.7559
 1896SOL    HW217151   0.047   2.825   9.635 -0.2338 -0.6624  0.5381
 1897SOL     OW17152   0.881   0.177   4.079 -0.2749 -0.2396  0.3740
 1897SOL    HW117153   0.914   0.246   4.021  0.3760 -0.3691  0.5875
 1897SOL    HW217154   0.905   0.096   4.036 -3.2893 -1.5415  1.1331
 1898SOL     OW17155   2.408   1.185   2.366 -0.2981  0.1525 -0.0069
 1898SOL    HW117156   2.404   1.125   2.291  1.1032  0.6928 -0.5202
 1898SOL    HW217157   2.399   1.121   2.436 -1.9697 -1.3360 -1.5492
 1899SOL     OW17158   1.879   0.712   2.227  0.0218  0.2091 -0.1469
 1899SOL    HW117159   1.879   0.619   2.247 -0.2561 -0.2593 -2.2740
 1899SOL    HW217160   1.825   0.753   2.294 -1.0154 -1.2309 -0.0934
 1900SOL     OW17161   2.078   2.392   1.600 -0.3956  0.1924  0.6936
 1900SOL    HW117162   2.076   2.315   1.657  0.9814  1.0214  1.8670
 1900SOL    HW217163   2.036   2.459   1.655  0.5969  1.1444  0.2787
 1901SOL     OW17164   3.518   3.965   6.490 -0.1015  0.0705 -0.0450
 1901SOL    HW117165   3.563   3.886   6.460  0.0065 -0.3722  1.2647
 1901SOL    HW217166   3.504   4.021   6.414 -1.3764 -1.0389 -0.6400
 1902SOL     OW17167   4.277   1.719   7.770 -0.3405 -0.2377  0.0874
 1902SOL    HW117168   4.309   1.691   7.685 -0.8998  1.1501 -0.5736
 1902SOL    HW217169   4.219   1.647   7.793 -1.0558  0.6109  0.9595
 1903SOL     OW17170   4.602   0.572   9.213 -0.0114 -0.6593 -0.0254
 1903SOL    HW117171   4.551   0.518   9.274  1.0194  0.1802  1.5651
 1903SOL    HW217172   4.581   0.529   9.130  0.2936 -0.2502 -0.3141
 1904SOL     OW17173   4.173   1.950   4.646 -0.1334  0.0083  0.0508
 1904SOL    HW117174   4.082   1.979   4.652 -1.1398 -3.8579  3.3024
 1904SOL    HW217175   4.164   1.883   4.579  0.8368 -0.2125  0.1391
 1905SOL     OW17176   2.001   3.516  15.400 -0.0541  0.2771  0.3525
 1905SOL    HW117177   1.944   3.499  15.324  0.3705 -2.3406  0.6084
 1905SOL    HW217178   1.942   3.559  15.461 -0.1615 -0.1604  0.5612
 1906SOL     OW17179   1.115   1.017   0.751 -0.0147 -0.1933  0.2917
 1906SOL    HW117180   1.203   1.054   0.754  0.3678 -0.9426 -1.5545
 1906SOL    HW217181   1.122   0.966   0.670 -0.6302 -3.9569  2.5938
 1907SOL     OW17182   4.538   4.400   4.738  0.3848  0.2584 -0.2690
 1907SOL    HW117183   4.585   4.469   4.691 -1.3770  0.8322 -1.1973
 1907SOL    HW217184   4.609   4.337   4.732 -0.3377 -0.5852  0.1433
 1908SOL     OW17185   1.379   3.047   1.737  0.7321 -0.3561  0.2454
 1908SOL    HW117186   1.418   2.964   1.712 -1.2098 -1.2522  0.2136
 1908SOL    HW217187   1.447   3.111   1.715 -0.0338  0.0972 -0.8209
 1909SOL     OW17188   3.070   1.595   1.261  0.3994  0.8713  0.0305
 1909SOL    HW117189   3.069   1.622   1.353 -1.2867  0.1163  0.2263
 1909SOL    HW217190   3.153   1.546   1.268 -2.0664 -3.1394  1.4880
 1910SOL     OW17191   2.826   2.945   1.720 -0.0167  0.4736  0.9320
 1910SOL    HW117192   2.847   2.957   1.627  2.1580 -2.9671  0.9555
 1910SOL    HW217193   2.733   2.964   1.716  0.3371  1.3181 -2.6176
 1911SOL     OW17194   1.607   2.560   2.751  0.1174 -0.3665 -0.1580
 1911SOL    HW117195   1.632   2.608   2.830  1.7155  0.5801 -1.2479
 1911SOL    HW217196   1.565   2.626   2.696  2.1154  0.6062 -0.5066
 1912SOL     OW17197   4.335   3.526   5.567 -0.1748 -0.1274 -0.0220
 1912SOL    HW117198   4.244   3.516   5.595 -0.1424 -1.0670 -0.2550
 1912SOL    HW217199   4.330   3.478   5.485  1.0439  0.9967 -0.7615
 1913SOL     OW17200   2.009   3.123  15.271  0.5377 -0.2704  0.2929
 1913SOL    HW117201   2.063   3.185  15.319  0.9725 -0.0084 -0.5441
 1913SOL    HW217202   1.931   3.120  15.326  1.3659  1.2419  1.5208
 1914SOL     OW17203   4.509   0.242   7.527  0.1509 -0.0207 -0.2754
 1914SOL    HW117204   4.549   0.155   7.527  1.4923  0.6041 -0.5222
 1914SOL    HW217205   4.539   0.276   7.442  3.0524  1.4534  1.3568
 1915SOL     OW17206   1.095   3.640  15.669  0.2639 -0.1818 -0.1995
 1915SOL    HW117207   1.126   3.584  15.739 -0.8821 -1.1885 -0.5039
 1915SOL    HW217208   1.032   3.587  15.620  0.5645 -0.3305 -0.4306
 1916SOL     OW17209   2.266   1.579   5.414 -0.0408 -0.4738  0.2597
 1916SOL    HW117210   2.197   1.537   5.362 -1.8543  1.7975  0.8382
 1916SOL    HW217211   2.321   1.504   5.437  0.1416  0.0152  1.3865
 1917SOL     OW17212   3.558   4.457  15.383  0.0882 -0.1940  0.0657
 1917SOL    HW117213   3.533   4.373  15.344  0.6501  0.0455 -0.7998
 1917SOL    HW217214   3.478   4.508  15.372  1.7899  2.3790 -0.3525
 1918SOL     OW17215   4.611   3.921   9.730  0.2642 -0.1475 -0.5844
 1918SOL    HW117216   4.537   3.981   9.740 -1.3091 -1.9405 -1.4095
 1918SOL    HW217217   4.678   3.989   9.733  0.4616 -0.2922 -1.4297
 1919SOL     OW17218   0.176   0.648  14.932 -0.1259 -0.0764 -0.2938
 1919SOL    HW117219   0.098   0.660  14.986 -0.3023 -2.1537 -0.0719
 1919SOL    HW217220   0.222   0.580  14.981 -0.2066 -0.3156 -0.5511
 1920SOL     OW17221   4.221   4.164  17.441  0.0765  0.1022 -0.2598
 1920SOL    HW117222   4.198   4.183  17.531  1.1816 -1.0454  0.2659
 1920SOL    HW217223   4.176   4.236  17.396  2.9929  1.5056 -0.8776
 1921SOL     OW17224   3.106   3.015   2.035 -0.4012  0.0821 -0.4270
 1921SOL    HW117225   3.200   3.000   2.034 -0.5524 -0.7833 -1.7077
 1921SOL    HW217226   3.100   3.038   1.942  0.3779  3.3581  0.3242
 1922SOL     OW17227   1.238   0.327  13.947 -0.5432  0.0071  0.1800
 1922SOL    HW117228   1.208   0.301  14.034 -0.4318 -3.1479 -0.7357
 1922SOL    HW217229   1.158   0.346  13.900 -0.7767  2.7913  1.6747
 1923SOL     OW17230   1.847   2.996   7.848 -0.4249 -0.3066 -0.0894
 1923SOL    HW117231   1.822   3.001   7.755 -1.4281  2.3195  0.3104
 1923SOL    HW217232   1.873   3.084   7.876 -1.4142  0.4645 -1.5701
 1924SOL     OW17233   1.936   1.259   3.257  0.3546  0.0489 -0.3401
 1924SOL    HW117234   2.014   1.301   3.294  1.3141 -2.0261 -0.0190
 1924SOL    HW217235   1.972   1.175   3.230  0.1560 -0.7372  1.8852
 1925SOL     OW17236   2.466   4.667   9.053  0.2563  0.1592  0.6722
 1925SOL    HW117237   2.510   4.705   9.129 -1.5677  1.7138  0.9344
 1925SOL    HW217238   2.385   4.626   9.083  0.6595 -0.8612  0.3695
 1926SOL     OW17239   2.287   2.212  17.566  0.3051 -0.1244  0.5840
 1926SOL    HW117240   2.315   2.294  17.606 -1.1575  0.7377 -0.1625
 1926SOL    HW217241   2.236   2.171  17.636  0.1025  0.6885  0.9153
 1927SOL     OW17242   2.733   3.298   3.164  0.0029  0.1421  0.1186
 1927SOL    HW117243   2.689   3.335   3.087  0.3071 -1.2293 -0.7145
 1927SOL    HW217244   2.678   3.332   3.234 -0.5229  4.3433 -2.3564
 1928SOL     OW17245   0.520   4.033  13.033  0.3140  0.2357  0.3452
 1928SOL    HW117246   0.496   4.003  13.121  1.5665 -1.1481  0.2040
 1928SOL    HW217247   0.435   4.029  12.989  0.6641 -0.6870 -0.2359
 1929SOL     OW17248   1.920   1.335   5.848 -0.2902  0.4138  0.7573
 1929SOL    HW117249   1.927   1.408   5.910 -0.0790 -0.0363  1.2616
 1929SOL    HW217250   1.981   1.352   5.776 -1.2292 -0.0958 -0.1452
 1930SOL     OW17251   1.099   4.314   9.688  0.2229 -0.1507  0.0483
 1930SOL    HW117252   1.053   4.245   9.736 -0.7772  0.7863  0.4441
 1930SOL    HW217253   1.059   4.304   9.601 -0.2539 -1.5430  0.4350
 1931SOL     OW17254   1.397   3.358  12.232  0.5404 -0.0165 -0.4553
 1931SOL    HW117255   1.483   3.354  12.191  0.3784  2.9346 -1.1172
 1931SOL    HW217256   1.381   3.265  12.245  0.8156 -0.1505 -1.0874
 1932SOL     OW17257   3.291   0.806   6.969 -0.3678  0.8274  0.3806
 1932SOL    HW117258   3.387   0.803   6.964 -0.4962 -2.5287 -0.0622
 1932SOL    HW217259   3.261   0.847   7.050  0.3467  0.0049  1.0621
 1933SOL     OW17260   3.469   1.215   8.819  0.1247  0.3340  0.2996
 1933SOL    HW117261   3.410   1.189   8.748  1.5192 -0.7812 -0.4592
 1933SOL    HW217262   3.523   1.269   8.760 -0.4417  1.6321  0.9735
 1934SOL     OW17263   1.659   2.083   4.447  0.1614  0.0216 -0.1324
 1934SOL    HW117264   1.579   2.029   4.450  0.0545  0.2842  1.5682
 1934SOL    HW217265   1.630   2.153   4.389  0.3616  1.1860  1.1602
 1935SOL     OW17266   0.350   4.412   4.466  0.2643 -0.1013 -0.4128
 1935SOL    HW117267   0.257   4.406   4.445 -0.3913 -2.9463  3.2073
 1935SOL    HW217268   0.353   4.488   4.524 -0.4927 -1.2071  1.1183
 1936SOL     OW17269   1.068   3.354   6.099  0.0480  0.1968 -0.4935
 1936SOL    HW117270   1.140   3.413   6.079 -1.5697  2.1270 -0.6058
 1936SOL    HW217271   1.035   3.391   6.180  0.8906  0.2881 -0.1974
 1937SOL     OW17272   0.520   2.657  17.604  0.4389  0.1399 -0.4401
 1937SOL    HW117273   0.554   2.604  17.675  2.6082  2.0554 -0.0504
 1937SOL    HW217274   0.455   2.715  17.644  1.4242 -0.5649  2.1518
 1938SOL     OW17275   2.481   0.718   9.007  0.1279  0.3069 -0.2205
 1938SOL    HW117276   2.521   0.805   8.998 -2.0036  1.6173  3.1074
 1938SOL    HW217277   2.413   0.711   8.940 -1.0579 -0.9060  1.1204
 1939SOL     OW17278   0.480   1.693  10.776 -0.5459 -0.4837 -0.6636
 1939SOL    HW117279   0.486   1.783  10.745  0.5843  0.3640  1.9799
 1939SOL    HW217280   0.397   1.664  10.739 -0.9555  0.7388 -0.6854
 1940SOL     OW17281   1.104   0.877  16.932  0.6688  0.1002 -0.3401
 1940SOL    HW117282   1.024   0.879  16.880 -0.3964 -2.6658  1.1865
 1940SOL    HW217283   1.072   0.834  17.011 -1.0110  2.1697  0.1054
 1941SOL     OW17284   1.796   0.276   8.110  0.4265  0.1176  0.2338
 1941SOL    HW117285   1.869   0.329   8.077  0.3225  1.2170  1.7437
 1941SOL    HW217286   1.730   0.340   8.136 -0.8034 -0.8022 -0.6298
 1942SOL     OW17287   1.917   2.462   8.411 -0.4431  0.1992 -0.5592
 1942SOL    HW117288   1.878   2.381   8.443  0.2090  0.8055  1.7968
 1942SOL    HW217289   1.995   2.437   8.361 -0.8300  0.6892 -1.4048
 1943SOL     OW17290   3.512   1.201   7.730  0.4753 -0.2140  0.0015
 1943SOL    HW117291   3.607   1.202   7.742  0.8321  0.1262 -2.9077
 1943SOL    HW217292   3.491   1.293   7.747 -1.1123 -0.6190  0.2173
 1944SOL     OW17293   4.271   1.600  15.783  0.3883 -0.4448 -0.6250
 1944SOL    HW117294   4.339   1.667  15.784 -0.4385  0.3719  0.0161
 1944SOL    HW217295   4.298   1.575  15.694  2.8871  0.3732 -0.0908
 1945SOL     OW17296   1.601   3.455   6.744 -0.7871  0.4753  0.2292
 1945SOL    HW117297   1.658   3.395   6.695 -0.3976 -0.7055  2.1481
 1945SOL    HW217298   1.655   3.532   6.759 -1.5936  1.4692 -1.9387
 1946SOL     OW17299   3.775   4.033  10.109  0.2937 -0.3961  0.3009
 1946SOL    HW117300   3.859   4.059  10.072  0.8453  0.0057  1.8297
 1946SOL    HW217301   3.719   4.022  10.032  0.3069 -0.4248  0.2952
 1947SOL     OW17302   1.531   3.594   8.949 -0.0618 -0.0563 -0.2053
 1947SOL    HW117303   1.475   3.531   8.996  0.5312 -0.2718  0.2069
 1947SOL    HW217304   1.614   3.566   8.987 -1.2927 -1.8885  1.1530
 1948SOL     OW17305   2.021   1.146   1.666  0.2769  0.0488  0.3127
 1948SOL    HW117306   2.010   1.124   1.573 -1.7956 -1.3167  0.8761
 1948SOL    HW217307   1.931   1.144   1.700  0.5639 -0.2014  1.0419
 1949SOL     OW17308   2.628   3.939   6.627 -0.1216 -0.5614  0.2368
 1949SOL    HW117309   2.690   3.867   6.616 -0.3684 -0.5498 -1.2301
 1949SOL    HW217310   2.548   3.890   6.644  0.5436 -1.6362  0.2802
 1950SOL     OW17311   3.168   1.451   8.739  0.5231 -0.2321 -0.0524
 1950SOL    HW117312   3.149   1.483   8.651  0.3198 -0.8205 -0.2246
 1950SOL    HW217313   3.085   1.413   8.769  0.7529  1.0447  2.2060
 1951SOL     OW17314   0.830   1.810   3.387  0.5898  0.1216  0.2923
 1951SOL    HW117315   0.817   1.874   3.456 -0.1768 -0.6226  0.8387
 1951SOL    HW217316   0.849   1.732   3.440  0.9970 -1.2881 -1.9167
 1952SOL     OW17317   0.028   3.367   8.054  0.0637  0.3988 -1.3887
 1952SOL    HW117318   0.052   3.401   7.968 -0.1545  0.5402 -1.3946
 1952SOL    HW217319   0.105   3.374   8.110 -2.1282  0.4008  1.6191
 1953SOL     OW17320   3.471   0.106  11.082  0.0045 -0.4166 -0.5828
 1953SOL    HW117321   3.523   0.099  11.002  0.8266  3.0618 -0.3230
 1953SOL    HW217322   3.407   0.034  11.076  0.0503 -0.4348 -0.8332
 1954SOL     OW17323   4.066   3.055   8.199  0.1695  0.3168 -0.0430
 1954SOL    HW117324   4.070   3.102   8.282 -0.5038  1.4130 -0.6306
 1954SOL    HW217325   4.137   3.098   8.151  0.9572  0.0650  0.8978
 1955SOL     OW17326   0.861   1.115   6.729 -0.3600 -0.2158  0.0056
 1955SOL    HW117327   0.825   1.156   6.807 -0.3532  0.4558 -0.3490
 1955SOL    HW217328   0.955   1.116   6.749 -0.4683  0.8058  0.4546
 1956SOL     OW17329   3.168   4.523   7.228  0.3621 -0.1838  0.2431
 1956SOL    HW117330   3.093   4.466   7.209  1.6546 -1.7585 -0.0811
 1956SOL    HW217331   3.139   4.561   7.310  0.4834 -0.4254  0.3971
 1957SOL     OW17332   0.464   0.046  14.677 -0.3238 -0.0468 -0.6455
 1957SOL    HW117333   0.494   0.137  14.674 -2.1514  0.5825  0.0610
 1957SOL    HW217334   0.541   0.006  14.717 -1.7364 -0.0801  2.0211
 1958SOL     OW17335   3.985   4.675   1.246  0.2292  0.3171 -0.0396
 1958SOL    HW117336   3.906   4.707   1.288  0.2416  0.4827 -0.1440
 1958SOL    HW217337   4.038   4.639   1.318 -2.3862 -2.7987  0.3278
 1959SOL     OW17338   2.742   1.050   2.467  0.1172  0.0190 -0.1713
 1959SOL    HW117339   2.753   0.955   2.460 -0.0755 -0.0168  0.0143
 1959SOL    HW217340   2.664   1.044   2.523 -0.8444 -1.3953 -1.6497
 1960SOL     OW17341   1.923   3.006   3.045  0.2306  0.4471 -0.2091
 1960SOL    HW117342   1.983   2.966   2.982 -1.0018 -1.5428 -0.1032
 1960SOL    HW217343   1.905   3.095   3.015 -0.1272  0.4755  0.0847
 1961SOL     OW17344   3.161   4.307  16.909 -0.4664 -0.2403  0.0672
 1961SOL    HW117345   3.157   4.365  16.833  0.8880 -1.7760 -1.1825
 1961SOL    HW217346   3.132   4.225  16.868 -0.4091 -1.0294  1.6213
 1962SOL     OW17347   4.599   0.488   3.853  0.7442 -0.4159  0.2796
 1962SOL    HW117348   4.545   0.501   3.932 -0.3896 -1.2550 -0.3537
 1962SOL    HW217349   4.556   0.415   3.809  1.3092  0.0099 -0.9755
 1963SOL     OW17350   1.532   0.923   1.744  0.5159  0.1951  0.2963
 1963SOL    HW117351   1.614   0.882   1.771  1.1673 -1.5800 -4.2605
 1963SOL    HW217352   1.515   0.995   1.803 -0.9997 -0.7238  0.9597
 1964SOL     OW17353   0.910   0.171   4.763  0.1741  0.4028  0.1029
 1964SOL    HW117354   0.837   0.169   4.825  1.0511 -0.7667  1.1208
 1964SOL    HW217355   0.886   0.244   4.707 -2.0008 -0.8000 -0.5223
 1965SOL     OW17356   3.802   3.593   7.941 -0.0654  0.7773  0.0208
 1965SOL    HW117357   3.791   3.499   7.923 -2.3174  0.9211  0.6121
 1965SOL    HW217358   3.789   3.604   8.035 -0.7624 -1.2923  0.1749
 1966SOL     OW17359   4.017   0.944   3.032  0.3100 -0.2335 -0.2630
 1966SOL    HW117360   3.991   0.973   2.945 -1.1292  0.7290  0.4818
 1966SOL    HW217361   3.940   0.892   3.056  0.1347 -0.5748 -1.6052
 1967SOL     OW17362   1.625   3.653   2.396 -0.6427  0.1784  0.2830
 1967SOL    HW117363   1.640   3.730   2.451 -1.3055  1.2179 -0.9832
 1967SOL    HW217364   1.698   3.602   2.432 -0.9651 -2.4559 -2.8239
 1968SOL     OW17365   1.468   1.534   7.114 -0.2658 -0.0274  0.1418
 1968SOL    HW117366   1.553   1.560   7.150 -1.7701 -0.4758  4.0688
 1968SOL    HW217367   1.477   1.443   7.141  0.6840  0.0217 -0.0214
 1969SOL     OW17368   0.632   2.448   6.678 -0.1641 -0.1778 -0.9400
 1969SOL    HW117369   0.638   2.378   6.743  0.3738  0.9754  0.2442
 1969SOL    HW217370   0.573   2.508   6.725 -0.2872 -0.5576 -0.6117
 1970SOL     OW17371   3.715   1.663  11.132  0.0148 -0.3454  0.3407
 1970SOL    HW117372   3.765   1.744  11.124 -0.7322  0.1531  0.7629
 1970SOL    HW217373   3.728   1.638  11.223  0.9937 -0.4860  0.1620
 1971SOL     OW17374   3.755   1.598   7.656 -0.4225  0.4077  0.5208
 1971SOL    HW117375   3.764   1.651   7.735 -1.0269  1.1830  0.0660
 1971SOL    HW217376   3.803   1.519   7.683 -0.9225  0.8146  2.6529
 1972SOL     OW17377   0.992   3.173  17.415 -0.9696 -0.3656  0.4023
 1972SOL    HW117378   0.957   3.085  17.402  1.4983 -1.4081  0.7173
 1972SOL    HW217379   1.082   3.153  17.441 -0.2962 -0.8022 -2.2254
 1973SOL     OW17380   3.736   3.533   9.826 -0.3082 -0.1953  0.0047
 1973SOL    HW117381   3.689   3.611   9.854 -0.4444 -0.4787  0.5551
 1973SOL    HW217382   3.665   3.471   9.809 -1.5807  1.3593 -0.4478
 1974SOL     OW17383   4.650   3.111  13.546 -0.3751 -0.1618 -0.2332
 1974SOL    HW117384   4.698   3.027  13.546  1.0610  0.6633 -2.1808
 1974SOL    HW217385   4.646   3.141  13.637 -0.7646 -2.2444  0.4386
 1975SOL     OW17386   1.391   2.351   0.217 -0.0795  0.2672 -0.5700
 1975SOL    HW117387   1.424   2.389   0.136 -0.0707  0.8595 -0.2912
 1975SOL    HW217388   1.426   2.262   0.214  0.1492  0.2810  1.6039
 1976SOL     OW17389   0.475   0.581   8.849  0.3585  0.3932 -0.0934
 1976SOL    HW117390   0.460   0.527   8.927  0.1899  1.2370  0.4584
 1976SOL    HW217391   0.527   0.642   8.901 -1.0114  1.3038  0.2183
 1977SOL     OW17392   2.677   0.356  10.441 -0.2659  0.0072 -0.4102
 1977SOL    HW117393   2.689   0.437  10.391 -0.0420  0.5728  0.5449
 1977SOL    HW217394   2.761   0.310  10.440 -0.0104  0.4399  0.9548
 1978SOL     OW17395   1.291   1.351   5.060  0.6008 -0.0406 -0.6828
 1978SOL    HW117396   1.309   1.407   5.135  1.4819  0.0603 -0.9720
 1978SOL    HW217397   1.265   1.278   5.116 -2.2137  0.8191 -0.8762
 1979SOL     OW17398   1.138   3.277   1.034 -0.0977 -0.2457  0.2826
 1979SOL    HW117399   1.225   3.286   1.073  0.3285 -0.7808 -0.5424
 1979SOL    HW217400   1.132   3.341   0.963  0.8864  0.5252  0.9037
 1980SOL     OW17401   1.803   2.724   7.592 -0.2719  0.2277  0.3275
 1980SOL    HW117402   1.786   2.816   7.613  1.1341  0.5764 -0.0711
 1980SOL    HW217403   1.894   2.736   7.565  0.1858 -1.2260  1.2605
 1981SOL     OW17404   0.895   0.456   4.189  0.7065  0.4329  0.1151
 1981SOL    HW117405   0.939   0.434   4.107  0.6162 -0.9968  0.4508
 1981SOL    HW217406   0.803   0.446   4.163  0.5476 -0.1910  0.9358
 1982SOL     OW17407   1.840   3.723   7.983  0.1008  0.1500  0.2898
 1982SOL    HW117408   1.824   3.754   7.894 -0.0595  0.0982  0.3010
 1982SOL    HW217409   1.821   3.630   7.974  2.1280 -0.2334 -0.0546
 1983SOL     OW17410   1.325   1.411   6.474 -0.4092  0.2595 -0.2269
 1983SOL    HW117411   1.295   1.500   6.460 -0.2867  0.7144  2.3924
 1983SOL    HW217412   1.283   1.370   6.399  2.3610 -3.4219  0.2026
 1984SOL     OW17413   1.639   3.071   4.033 -0.2207  0.2559  0.2460
 1984SOL    HW117414   1.582   3.027   4.096 -0.4498  4.0350  2.6887
 1984SOL    HW217415   1.720   3.020   4.046 -0.0522  0.9933  2.0340
 1985SOL     OW17416   3.097   3.659   5.910 -0.5611  0.5215 -0.0558
 1985SOL    HW117417   3.022   3.719   5.910 -1.5582 -0.6976  2.3978
 1985SOL    HW217418   3.069   3.584   5.858  0.0385 -0.2698  0.7567
 1986SOL     OW17419   0.090   1.407  10.895 -0.0661 -0.4273  0.3425
 1986SOL    HW117420   0.136   1.382  10.975 -0.5391  0.5537  0.9191
 1986SOL    HW217421   0.146   1.478  10.863  0.0260 -0.9849 -0.7438
 1987SOL     OW17422   0.504   3.028   5.843 -0.2694 -0.9358 -0.6645
 1987SOL    HW117423   0.578   3.016   5.902  0.5951  1.6673 -1.1975
 1987SOL    HW217424   0.432   3.045   5.905  1.5578 -0.0408  1.2017
 1988SOL     OW17425   1.283   2.509   5.911 -0.0510  0.5279  0.1232
 1988SOL    HW117426   1.314   2.492   6.000  2.0751  3.2165 -0.1171
 1988SOL    HW217427   1.366   2.495   5.866 -0.8073 -2.9910 -0.2232
 1989SOL     OW17428   1.065   4.500   0.012 -0.2256 -0.3595  0.1173
 1989SOL    HW117429   1.068   4.533  17.624  1.6667  1.2087  0.7672
 1989SOL    HW217430   1.152   4.462   0.029 -0.8228 -1.5476  0.5485
 1990SOL     OW17431   3.030   2.997   8.799 -0.1273 -0.0643 -0.2130
 1990SOL    HW117432   3.000   2.909   8.774 -0.5541  0.4547 -1.5272
 1990SOL    HW217433   2.981   3.028   8.875  0.0508  0.0426 -0.1424
 1991SOL     OW17434   0.890   1.400   6.004 -0.0475  0.1592  0.3046
 1991SOL    HW117435   0.956   1.335   6.027  1.0070  1.1416  0.0830
 1991SOL    HW217436   0.881   1.448   6.087  0.1221  0.1121  0.3510
 1992SOL     OW17437   3.049   1.030   7.039 -0.4556  0.8150  0.1479
 1992SOL    HW117438   3.062   0.984   6.955  1.9421  1.2905  0.2536
 1992SOL    HW217439   3.074   1.121   7.023  1.9800  0.0668 -0.4033
 1993SOL     OW17440   0.864   0.567  14.639 -0.9534 -0.1510  0.0355
 1993SOL    HW117441   0.779   0.593  14.605 -0.2186  2.7475  0.3896
 1993SOL    HW217442   0.856   0.481  14.679  0.7328 -0.2993  0.0688
 1994SOL     OW17443   0.053   0.724   5.415 -0.6677  0.2362  0.3113
 1994SOL    HW117444   0.089   0.700   5.500  0.3882  1.6703  0.2721
 1994SOL    HW217445   0.090   0.657   5.358 -0.0964 -0.7935  1.9029
 1995SOL     OW17446   4.668   2.901   5.839 -0.6853  0.5281 -0.0725
 1995SOL    HW117447   4.658   2.945   5.923 -4.2063 -2.6702  1.1143
 1995SOL    HW217448   4.723   2.965   5.792 -0.7713 -0.3675 -1.4175
 1996SOL     OW17449   0.832   3.512   9.300 -0.4228 -0.0382  0.0476
 1996SOL    HW117450   0.861   3.474   9.217 -0.3374  1.8311 -0.7863
 1996SOL    HW217451   0.919   3.517   9.339 -0.3280 -3.1201  0.2411
 1997SOL     OW17452   2.853   1.230  13.707 -0.9552 -0.1805  0.5889
 1997SOL    HW117453   2.915   1.257  13.640 -3.4093  3.5243 -0.2059
 1997SOL    HW217454   2.836   1.314  13.750 -0.1131  0.3736 -0.1513
 1998SOL     OW17455   3.699   1.567   5.739  0.3391 -1.1744  0.3301
 1998SOL    HW117456   3.683   1.475   5.759  0.5451 -0.6905  2.7988
 1998SOL    HW217457   3.656   1.582   5.655 -0.1678 -1.5400  0.5219
 1999SOL     OW17458   2.031   3.248   5.331  0.1026 -0.6128 -0.4687
 1999SOL    HW117459   1.986   3.169   5.301  0.7114 -0.4459 -1.8041
 1999SOL    HW217460   2.004   3.245   5.423  1.8580  0.8541  0.1110
 2000SOL     OW17461   0.268   2.876   5.707  0.0737 -0.3846  0.0613
 2000SOL    HW117462   0.352   2.903   5.744 -0.2393  0.5442  0.0929
 2000SOL    HW217463   0.221   2.944   5.757  0.8386  2.0797 -2.5624
 2001SOL     OW17464   2.390   3.259   9.571  0.1078 -0.0507  0.1153
 2001SOL    HW117465   2.374   3.285   9.662 -1.2237 -3.7330  0.9129
 2001SOL    HW217466   2.414   3.338   9.522  0.0108 -0.2526 -0.2552
 2002SOL     OW17467   0.219   2.834   8.222 -0.0343  0.8320 -0.0623
 2002SOL    HW117468   0.216   2.845   8.127  2.9659 -2.5663 -0.5429
 2002SOL    HW217469   0.153   2.900   8.246 -1.6593 -0.4330 -1.0494
 2003SOL     OW17470   2.522   3.136   2.374 -0.1826  0.7635 -0.4602
 2003SOL    HW117471   2.452   3.096   2.323  0.7468 -0.4181 -0.8163
 2003SOL    HW217472   2.573   3.058   2.394 -1.7495  0.1221  1.0088
 2004SOL     OW17473   3.211   0.684   5.871  0.0466  0.3454 -0.6405
 2004SOL    HW117474   3.233   0.592   5.855  1.3355  0.6382 -0.5262
 2004SOL    HW217475   3.295   0.718   5.841  1.0831 -1.5583  0.0963
 2005SOL     OW17476   1.224   1.967   8.947 -0.2912 -0.4220  0.5119
 2005SOL    HW117477   1.180   1.996   9.027 -0.1721 -0.5201  0.6129
 2005SOL    HW217478   1.197   2.033   8.883 -0.2068  0.2616  1.1773
 2006SOL     OW17479   1.098   0.088   5.142 -0.1104 -0.2907 -0.2518
 2006SOL    HW117480   1.005   0.064   5.145 -0.5458  1.3725 -0.7618
 2006SOL    HW217481   1.096   0.167   5.089 -2.3118 -0.1405  0.0376
 2007SOL     OW17482   0.509   1.139   9.897 -0.0612  0.7684 -0.0071
 2007SOL    HW117483   0.549   1.207   9.842 -1.5591  1.5001 -0.1953
 2007SOL    HW217484   0.583   1.118   9.953  0.8829  2.4671 -0.6155
 2008SOL     OW17485   3.633   1.363  12.798 -0.4400 -0.1466 -0.6370
 2008SOL    HW117486   3.578   1.440  12.814 -0.1325 -0.1696  0.5720
 2008SOL    HW217487   3.619   1.315  12.880 -1.4152  0.6814 -0.3184
 2009SOL     OW17488   2.320   1.777   8.116  0.0505 -0.3291 -0.1154
 2009SOL    HW117489   2.388   1.714   8.090  0.1678 -0.2556  0.0089
 2009SOL    HW217490   2.320   1.820   8.031 -2.7709 -0.2321 -0.0359
 2010SOL     OW17491   4.489   3.070   2.061 -0.0884  0.8898 -0.7470
 2010SOL    HW117492   4.410   3.017   2.051  0.8407 -0.3492 -1.4632
 2010SOL    HW217493   4.564   3.013   2.046 -0.8071 -0.2073 -0.1239
 2011SOL     OW17494   2.847   1.287   8.336 -0.7976  0.6405 -0.3765
 2011SOL    HW117495   2.849   1.192   8.344  3.3594  0.9375  1.9926
 2011SOL    HW217496   2.752   1.293   8.334 -0.6850  2.0804 -1.3688
 2012SOL     OW17497   3.055   1.727   5.186 -0.5932  0.2357 -0.3485
 2012SOL    HW117498   3.042   1.819   5.162  2.7516  0.7749 -0.1145
 2012SOL    HW217499   2.986   1.681   5.139 -0.8223  1.0708 -0.8225
 2013SOL     OW17500   0.623   4.469   3.841 -0.7133  0.0376 -0.0457
 2013SOL    HW117501   0.530   4.463   3.864 -0.4378 -2.2413  0.5004
 2013SOL    HW217502   0.669   4.469   3.925  1.4190 -0.8557 -1.2393
 2014SOL     OW17503   0.628   1.973  16.061  0.1004 -0.1916 -0.1988
 2014SOL    HW117504   0.544   1.935  16.088 -0.0766 -0.7434 -1.5051
 2014SOL    HW217505   0.679   1.892  16.059  1.4819  0.6589  0.6715
 2015SOL     OW17506   0.519   3.110   7.188  0.2921 -0.0699  0.7305
 2015SOL    HW117507   0.434   3.140   7.154  1.0912  2.0886  0.6522
 2015SOL    HW217508   0.562   3.195   7.191  0.5182 -0.1199 -1.2095
 2016SOL     OW17509   4.429   0.605   7.391  0.3951  0.0562  0.1892
 2016SOL    HW117510   4.449   0.534   7.330 -0.4371  0.4234 -0.4986
 2016SOL    HW217511   4.346   0.575   7.427 -1.0206  0.3380 -2.8131
 2017SOL     OW17512   4.524   2.456   6.204 -0.2126 -0.1110 -0.4219
 2017SOL    HW117513   4.457   2.432   6.139  0.0058 -1.7724 -0.0524
 2017SOL    HW217514   4.510   2.550   6.195 -2.9098 -0.3647  1.0516
 2018SOL     OW17515   2.477   4.628   5.903 -0.0669 -0.7901 -0.1916
 2018SOL    HW117516   2.553   4.686   5.901 -0.0589 -0.7606  0.8881
 2018SOL    HW217517   2.501   4.569   5.974 -0.9454 -2.1535 -1.0068
 2019SOL     OW17518   2.905   2.641   4.964  0.4003 -0.0040 -0.6316
 2019SOL    HW117519   2.967   2.571   4.988 -0.5283 -1.7433 -3.2447
 2019SOL    HW217520   2.836   2.604   4.908 -1.4485 -0.7092  2.1029
 2020SOL     OW17521   1.968   4.412  12.648 -0.7405  0.1505  0.1401
 2020SOL    HW117522   2.041   4.358  12.617 -0.8523 -0.3183  0.6804
 2020SOL    HW217523   1.915   4.345  12.691  0.9112 -0.0355  1.8745
 2021SOL     OW17524   0.902   2.139   4.300  0.3997  0.1396 -0.2344
 2021SOL    HW117525   0.910   2.184   4.384  0.9514  0.2581 -0.3542
 2021SOL    HW217526   0.891   2.052   4.339 -0.4976  1.1900  1.8480
 2022SOL     OW17527   1.402   1.926  17.684  1.1021  0.1481  0.1017
 2022SOL    HW117528   1.488   1.902  17.651 -0.7735 -2.9105 -2.5539
 2022SOL    HW217529   1.344   1.901  17.612 -0.5695  0.8392  1.1935
 2023SOL     OW17530   3.408   4.297   7.042 -0.2099 -0.6376 -0.5212
 2023SOL    HW117531   3.395   4.233   7.111 -0.6231 -0.9965 -0.9279
 2023SOL    HW217532   3.450   4.367   7.092 -0.5416 -1.5366  0.9855
 2024SOL     OW17533   4.325   2.835   5.369 -0.2437  0.7514 -0.2700
 2024SOL    HW117534   4.394   2.874   5.316 -0.7481  0.5173 -1.0983
 2024SOL    HW217535   4.364   2.748   5.377  0.6180  1.3257  1.6262
 2025SOL     OW17536   4.452   1.153   4.443 -0.4046  0.2134  0.1298
 2025SOL    HW117537   4.504   1.170   4.364  2.0706 -0.4258  1.6056
 2025SOL    HW217538   4.437   1.059   4.444 -0.5355  0.2334  0.0406
 2026SOL     OW17539   1.406   2.303   3.160  0.7315  0.1325  0.5110
 2026SOL    HW117540   1.317   2.306   3.196  0.8558  0.1218  0.8180
 2026SOL    HW217541   1.440   2.376   3.212 -0.4837 -0.1097  1.6468
 2027SOL     OW17542   1.065   1.651   0.365  0.3572 -0.7380  0.2096
 2027SOL    HW117543   0.999   1.715   0.337  0.0237 -1.9873 -1.8889
 2027SOL    HW217544   1.132   1.702   0.411  1.4765 -0.4583 -1.7318
 2028SOL     OW17545   2.933   3.180   2.833 -0.1972 -0.0925 -0.0034
 2028SOL    HW117546   2.855   3.142   2.793  0.9126 -0.7409 -1.5848
 2028SOL    HW217547   2.968   3.220   2.753 -0.0963  0.0926  0.1316
 2029SOL     OW17548   4.458   3.007  12.577 -0.0314 -0.3859 -0.1590
 2029SOL    HW117549   4.450   3.003  12.672  3.3207  1.8481  0.2182
 2029SOL    HW217550   4.366   3.031  12.564 -0.1185 -1.3355 -1.2853
 2030SOL     OW17551   4.388   1.262   9.453 -0.4710  0.1289  0.1195
 2030SOL    HW117552   4.445   1.254   9.530 -1.1525 -0.4427  0.5621
 2030SOL    HW217553   4.399   1.176   9.411 -1.2964  0.6296 -1.0978
 2031SOL     OW17554   4.281   2.827   8.226  0.0306 -0.4030  0.0258
 2031SOL    HW117555   4.241   2.745   8.196 -1.0990  0.1335  0.0723
 2031SOL    HW217556   4.206   2.886   8.218  2.1075  2.2055  0.0678
 2032SOL     OW17557   3.893   1.249  12.790  0.6060  0.1120 -0.2987
 2032SOL    HW117558   3.797   1.258  12.793  0.5598  0.0030 -1.6422
 2032SOL    HW217559   3.925   1.301  12.865  0.1153 -0.9446  0.6426
 2033SOL     OW17560   1.966   0.673  13.659  0.2845 -0.0060 -0.3075
 2033SOL    HW117561   1.976   0.742  13.725 -2.9337 -0.1363  0.3219
 2033SOL    HW217562   2.029   0.715  13.601  1.6812 -1.7647 -0.0307
 2034SOL     OW17563   4.478   3.329   5.342  0.7147 -0.0942 -0.4216
 2034SOL    HW117564   4.385   3.346   5.354  0.4270 -1.3023 -0.8822
 2034SOL    HW217565   4.493   3.343   5.248 -1.5315 -0.1539 -0.7893
 2035SOL     OW17566   1.550   3.635  12.243  0.3253  0.1662 -0.0695
 2035SOL    HW117567   1.459   3.656  12.267  0.4879 -1.2699  1.8244
 2035SOL    HW217568   1.545   3.545  12.212 -1.7095  0.9930 -2.1779
 2036SOL     OW17569   1.833   2.664  13.938  0.4361 -0.1591 -0.0430
 2036SOL    HW117570   1.746   2.629  13.960 -0.3873  1.1138 -1.3231
 2036SOL    HW217571   1.884   2.584  13.948  1.4261  0.4693 -0.1084
 2037SOL     OW17572   4.147   1.944  11.598 -0.0347 -0.0705 -0.0444
 2037SOL    HW117573   4.063   1.923  11.638  0.7394 -0.3591  1.4406
 2037SOL    HW217574   4.183   1.991  11.673 -2.4997  0.4301  0.8405
 2038SOL     OW17575   1.360   0.311   2.682  0.5546 -0.1347 -0.5695
 2038SOL    HW117576   1.420   0.385   2.682 -0.6908  0.8930 -1.1241
 2038SOL    HW217577   1.274   0.353   2.679  0.9087  0.5392 -1.2784
 2039SOL     OW17578   3.984   4.629  12.348 -0.1909  0.4499  0.3644
 2039SOL    HW117579   3.928   4.556  12.373  1.9095 -1.2426  0.0728
 2039SOL    HW217580   4.069   4.589  12.367 -0.1460 -0.4651 -1.6805
 2040SOL     OW17581   2.835   2.375   3.350 -1.1276  0.4176  0.6764
 2040SOL    HW117582   2.892   2.441   3.311  0.1462  0.5998  2.8710
 2040SOL    HW217583   2.874   2.299   3.305  0.5571  1.3867  0.4879
 2041SOL     OW17584   1.255   1.124   4.067 -0.3440  0.2326 -0.1221
 2041SOL    HW117585   1.313   1.147   3.993  1.4191  1.5037  1.6469
 2041SOL    HW217586   1.209   1.061   4.012 -0.2662  1.2151 -1.3142
 2042SOL     OW17587   1.261   3.942  11.096  0.2822 -0.2752  0.2514
 2042SOL    HW117588   1.191   3.958  11.033 -0.8254 -0.9346  1.3032
 2042SOL    HW217589   1.223   3.973  11.178  0.0543  0.0872  0.0100
 2043SOL     OW17590   3.696   1.637  12.078 -0.1620 -0.2824  0.3418
 2043SOL    HW117591   3.647   1.586  12.142 -0.4285 -1.5224 -0.8549
 2043SOL    HW217592   3.788   1.636  12.103  0.2746 -2.1288 -1.4090
 2044SOL     OW17593   0.248   0.494   8.309 -0.3774  0.2231 -1.0828
 2044SOL    HW117594   0.306   0.423   8.283 -0.5538 -0.0106 -0.8326
 2044SOL    HW217595   0.214   0.442   8.381 -0.8151 -1.7157 -2.7003
 2045SOL     OW17596   3.734   1.899   8.238  0.2496 -0.1981 -0.0980
 2045SOL    HW117597   3.781   1.850   8.170 -0.9062  0.3585 -1.2868
 2045SOL    HW217598   3.771   1.986   8.225  2.9716 -1.1107  1.5003
 2046SOL     OW17599   2.557   0.671   4.441  0.5048 -0.2596 -0.5190
 2046SOL    HW117600   2.521   0.633   4.361  1.6653 -0.5420 -0.9080
 2046SOL    HW217601   2.650   0.650   4.434  0.0207 -2.3846 -0.5348
 2047SOL     OW17602   2.365   3.373  14.910  0.2805 -0.3020 -0.0010
 2047SOL    HW117603   2.410   3.292  14.890 -0.3059 -1.1841  2.1861
 2047SOL    HW217604   2.322   3.388  14.826 -0.5031  1.0591  0.6246
 2048SOL     OW17605   0.374   3.150   3.059 -0.2190  0.2475  0.2952
 2048SOL    HW117606   0.296   3.113   3.101 -2.1497  2.1882 -1.5545
 2048SOL    HW217607   0.443   3.125   3.120  0.7961  2.1296 -0.0844
 2049SOL     OW17608   1.214   3.479   1.856 -0.1913  0.0761 -0.1290
 2049SOL    HW117609   1.148   3.547   1.864 -0.1879  0.2074 -1.2916
 2049SOL    HW217610   1.180   3.430   1.781 -0.6469  0.5822 -0.2456
 2050SOL     OW17611   0.800   1.346   6.491 -0.3924  0.4650  0.1188
 2050SOL    HW117612   0.710   1.313   6.487 -0.2683  0.4610 -2.2697
 2050SOL    HW217613   0.831   1.300   6.570  0.2888  0.1778 -0.3220
 2051SOL     OW17614   3.237   4.222   5.800  0.1061 -0.1579 -0.6333
 2051SOL    HW117615   3.195   4.143   5.766 -0.4628 -0.1327  0.0144
 2051SOL    HW217616   3.300   4.238   5.730  1.7010  0.6916  1.0033
 2052SOL     OW17617   0.446   0.328   0.618 -0.2438  0.0082  0.2741
 2052SOL    HW117618   0.421   0.238   0.599 -1.0584 -0.1413  2.0239
 2052SOL    HW217619   0.431   0.365   0.532  2.6334  1.4081  0.3565
 2053SOL     OW17620   0.111   2.412   2.972  0.0044 -0.3176  0.1035
 2053SOL    HW117621   0.184   2.457   3.013  0.5832 -0.5852 -0.6291
 2053SOL    HW217622   0.136   2.320   2.960  0.6174  0.0668 -1.5317
 2054SOL     OW17623   1.071   0.862   8.753 -0.0483 -0.2593 -0.1972
 2054SOL    HW117624   1.072   0.876   8.847 -0.9627 -0.4376 -0.1648
 2054SOL    HW217625   1.020   0.781   8.748 -0.7855  0.1517  0.6334
 2055SOL     OW17626   1.586   2.758  10.580  0.4759  0.0744  0.0084
 2055SOL    HW117627   1.508   2.807  10.607 -0.0700 -1.0092  0.4130
 2055SOL    HW217628   1.606   2.797  10.495  0.0398 -1.9353 -1.0163
 2056SOL     OW17629   3.748   2.024   7.236  0.3602  0.1637 -0.7750
 2056SOL    HW117630   3.691   2.101   7.236 -1.4553 -1.2093  0.9094
 2056SOL    HW217631   3.712   1.973   7.308  0.7539  1.7192  0.5365
 2057SOL     OW17632   2.726   3.191   9.185  0.0778 -0.1716  0.2731
 2057SOL    HW117633   2.658   3.136   9.146 -1.8899  4.0109 -2.3050
 2057SOL    HW217634   2.707   3.164   9.275  1.3322  0.2567  0.6609
 2058SOL     OW17635   3.378   1.619  10.274  0.1297  0.6887 -0.3053
 2058SOL    HW117636   3.438   1.693  10.276 -0.4724  1.1823 -0.6684
 2058SOL    HW217637   3.435   1.549  10.306  0.1685  0.8944  0.0731
 2059SOL     OW17638   1.745   3.863   7.227  0.2671  0.1652 -0.2318
 2059SOL    HW117639   1.717   3.952   7.204 -2.1267 -0.1822  1.4071
 2059SOL    HW217640   1.739   3.819   7.142  0.8755  2.2797 -1.3797
 2060SOL     OW17641   3.336   2.305   4.325 -0.5917  0.2989 -0.5036
 2060SOL    HW117642   3.362   2.363   4.253  1.9676 -0.0655  0.1155
 2060SOL    HW217643   3.268   2.360   4.365 -0.3310  0.1073  0.1989
 2061SOL     OW17644   0.669   4.148   6.364 -0.1209 -0.3171  0.5019
 2061SOL    HW117645   0.756   4.111   6.381 -0.1041 -0.4594  0.1147
 2061SOL    HW217646   0.616   4.071   6.381 -1.1031  0.6029  1.5811
 2062SOL     OW17647   0.420   1.512   8.145  0.5015 -0.7422 -0.1621
 2062SOL    HW117648   0.464   1.485   8.064 -1.6240 -0.0002 -1.5792
 2062SOL    HW217649   0.496   1.516   8.202  0.4886  2.1996 -0.3591
 2063SOL     OW17650   1.994   0.003  13.526 -0.5255 -0.4487  0.4802
 2063SOL    HW117651   1.961   4.638  13.516 -1.0810 -0.3223  1.1248
 2063SOL    HW217652   2.080   0.001  13.484 -0.8776  0.2636 -0.2605
 2064SOL     OW17653   2.025   4.164   8.293 -0.4239 -0.2252 -0.9490
 2064SOL    HW117654   1.998   4.111   8.367 -1.8720 -0.6581 -1.7782
 2064SOL    HW217655   2.007   4.107   8.219  0.0646  0.5241 -1.6548
 2065SOL     OW17656   3.757   2.635  17.423 -0.3058 -0.7075  0.4486
 2065SOL    HW117657   3.849   2.657  17.437  0.3811 -1.8431 -2.3761
 2065SOL    HW217658   3.770   2.555  17.372 -1.0447 -2.2075  2.6182
 2066SOL     OW17659   2.442   0.899  13.632  0.2339  0.1356  0.0843
 2066SOL    HW117660   2.526   0.884  13.675 -0.4683  0.3366  1.5270
 2066SOL    HW217661   2.422   0.992  13.642 -1.0898 -0.2952  1.3734
 2067SOL     OW17662   4.468   4.095   5.907 -0.3221 -0.4537 -0.1560
 2067SOL    HW117663   4.532   4.026   5.923  0.9512  0.3141 -1.9012
 2067SOL    HW217664   4.425   4.108   5.992 -0.5698  0.5730 -0.4348
 2068SOL     OW17665   1.892   0.793   0.388  0.3657 -0.2279 -0.2288
 2068SOL    HW117666   1.966   0.753   0.343  0.3853  2.3988 -2.5054
 2068SOL    HW217667   1.925   0.796   0.478  0.8005 -1.1316 -0.3527
 2069SOL     OW17668   3.955   4.550  12.065 -0.0987 -0.6078 -0.3454
 2069SOL    HW117669   3.873   4.516  12.101 -0.8624  1.2371 -0.3370
 2069SOL    HW217670   4.010   4.474  12.086 -1.2406 -1.6250 -1.0796
 2070SOL     OW17671   1.910   3.771   4.090  0.5804  0.3391 -0.7658
 2070SOL    HW117672   1.845   3.708   4.120  1.7641 -0.9365 -0.8795
 2070SOL    HW217673   1.936   3.745   4.001  0.0751 -1.5670 -0.3649
 2071SOL     OW17674   3.221   4.110   4.068  0.0835 -0.0176  0.0263
 2071SOL    HW117675   3.246   4.049   3.999  1.0893 -1.2515  1.4941
 2071SOL    HW217676   3.302   4.160   4.065 -1.3742  2.2155 -1.8597
 2072SOL     OW17677   2.266   0.914  12.566  0.3307  0.3180  0.4358
 2072SOL    HW117678   2.218   0.995  12.550 -1.2502 -0.8544 -0.8421
 2072SOL    HW217679   2.211   0.845  12.527  3.3063 -1.1155 -1.2680
 2073SOL     OW17680   1.904   1.217  17.448  0.3747  0.7768  0.1781
 2073SOL    HW117681   1.934   1.308  17.445  0.2453  0.7935 -0.6295
 2073SOL    HW217682   1.908   1.203  17.543  1.0096  2.9432  0.4721
 2074SOL     OW17683   1.696   3.027   4.448 -0.0200  0.2148  0.1504
 2074SOL    HW117684   1.638   3.096   4.480  1.2738  1.8189 -0.9377
 2074SOL    HW217685   1.781   3.044   4.488 -0.7308  0.1362  1.7086
 2075SOL     OW17686   1.477   1.360   9.592  0.0719  0.2795  0.4354
 2075SOL    HW117687   1.456   1.449   9.562  2.2456  0.2552 -1.1689
 2075SOL    HW217688   1.571   1.363   9.574  0.0032  0.2626  0.0747
 2076SOL     OW17689   0.201   3.331   4.289  0.4345 -0.0416  0.2809
 2076SOL    HW117690   0.176   3.355   4.200  0.2715  0.3675  0.4370
 2076SOL    HW217691   0.270   3.394   4.309  1.7063 -1.6112  0.8050
 2077SOL     OW17692   1.020   2.461   5.595  0.0259 -0.0428 -0.0872
 2077SOL    HW117693   1.102   2.427   5.559  0.1338 -1.0716  1.1484
 2077SOL    HW217694   1.017   2.437   5.687  0.5676  3.2078  0.8069
 2078SOL     OW17695   0.757   0.529   5.698  0.2445  0.5433  0.0118
 2078SOL    HW117696   0.764   0.565   5.786 -1.1789  0.1226  0.3037
 2078SOL    HW217697   0.732   0.603   5.642 -0.2872  0.6277  0.3569
 2079SOL     OW17698   1.477   1.284  15.273 -0.2616  0.5233 -0.1600
 2079SOL    HW117699   1.426   1.365  15.282  1.6881  1.9958 -2.5490
 2079SOL    HW217700   1.413   1.216  15.296 -1.6253  0.7398 -3.2836
 2080SOL     OW17701   4.598   4.209   6.283 -0.0102  0.2676  0.0317
 2080SOL    HW117702   4.605   4.270   6.356 -0.8778  1.1061 -0.5842
 2080SOL    HW217703   4.688   4.177   6.284 -0.3283 -0.5793  0.8239
 2081SOL     OW17704   4.355   1.881   6.948  0.4483  0.0317 -0.6222
 2081SOL    HW117705   4.313   1.964   6.971 -2.8949 -1.9018  0.3186
 2081SOL    HW217706   4.445   1.910   6.937  0.4378  0.3578  0.1359
 2082SOL     OW17707   0.440   4.202  10.669  0.5544 -0.3119  0.1761
 2082SOL    HW117708   0.472   4.239  10.751  0.3244 -2.6050  1.2878
 2082SOL    HW217709   0.461   4.110  10.683 -1.1974 -0.4560  1.7281
 2083SOL     OW17710   4.000   0.456   3.681 -0.7368  0.0226 -0.2088
 2083SOL    HW117711   4.008   0.469   3.587 -0.0600  0.2055 -0.1226
 2083SOL    HW217712   4.064   0.522   3.707 -0.9315 -0.2797  1.0589
 2084SOL     OW17713   0.398   0.583   7.933 -0.6052 -0.2714 -0.2323
 2084SOL    HW117714   0.436   0.644   7.869  0.6285 -2.1760 -1.3232
 2084SOL    HW217715   0.335   0.635   7.983 -0.9508 -0.7369 -0.1935
 2085SOL     OW17716   3.690   1.306   0.006  0.1754  0.5780  0.7123
 2085SOL    HW117717   3.772   1.345  17.678 -0.8192  1.8749 -0.2924
 2085SOL    HW217718   3.624   1.372  17.688  2.1350  1.6454 -2.1981
 2086SOL     OW17719   1.015   2.508  16.663  0.1507  0.2441  0.0712
 2086SOL    HW117720   1.087   2.448  16.680  0.1444  0.1273 -0.3047
 2086SOL    HW217721   1.026   2.532  16.571  0.5549 -1.0004 -0.1929
 2087SOL     OW17722   1.581   0.879   4.951  0.0721 -0.2412  0.3388
 2087SOL    HW117723   1.620   0.881   4.864 -0.9442  3.1661 -0.0195
 2087SOL    HW217724   1.653   0.891   5.013 -0.4032 -0.1064  0.8727
 2088SOL     OW17725   3.753   0.713  13.478  0.6477  0.0923  0.5772
 2088SOL    HW117726   3.780   0.706  13.569 -0.3366 -1.0110  0.7963
 2088SOL    HW217727   3.781   0.800  13.449 -0.3163  0.0505 -0.4922
 2089SOL     OW17728   0.129   2.328   3.553 -0.1297 -0.2293  0.5080
 2089SOL    HW117729   0.191   2.258   3.573  0.2392 -0.1667 -0.4208
 2089SOL    HW217730   0.052   2.274   3.534  0.5705 -1.3149  0.7480
 2090SOL     OW17731   4.379   1.918   5.587  0.6010 -0.1408 -0.1970
 2090SOL    HW117732   4.298   1.912   5.638  2.6869 -1.3375  2.9288
 2090SOL    HW217733   4.384   1.826   5.561  0.0630 -0.5511  1.1740
 2091SOL     OW17734   4.166   1.583   4.047 -0.3523  0.0362 -0.3929
 2091SOL    HW117735   4.166   1.505   3.992 -1.3192  0.5921 -1.1715
 2091SOL    HW217736   4.246   1.576   4.099  0.7904 -2.4959 -2.5142
 2092SOL     OW17737   2.728   2.397   9.146 -0.4603 -1.2627  0.3187
 2092SOL    HW117738   2.763   2.470   9.197  1.3891 -2.8208  1.2542
 2092SOL    HW217739   2.646   2.434   9.113 -0.8907  1.9616  4.9351
 2093SOL     OW17740   4.023   2.216   3.163 -0.2152 -0.3617 -0.2114
 2093SOL    HW117741   4.087   2.158   3.204 -0.3305 -1.9561 -2.2791
 2093SOL    HW217742   3.945   2.161   3.168 -1.7232  1.9659  2.3483
 2094SOL     OW17743   3.768   0.652   9.919 -0.3510  0.1442 -0.1819
 2094SOL    HW117744   3.708   0.649   9.844 -0.4185 -0.5069 -0.1068
 2094SOL    HW217745   3.792   0.744   9.920 -0.5034  0.1614  2.4946
 2095SOL     OW17746   3.176   1.215   0.757  0.1215  0.3983  0.0989
 2095SOL    HW117747   3.268   1.211   0.730  0.5542  1.2873  1.4640
 2095SOL    HW217748   3.155   1.304   0.732 -0.7768  0.3253  0.5857
 2096SOL     OW17749   2.993   2.718   2.736 -0.3439  0.2934 -0.4042
 2096SOL    HW117750   2.932   2.664   2.785 -1.4791 -1.4499 -3.7150
 2096SOL    HW217751   3.000   2.676   2.650  0.6064 -2.9321  1.2376
 2097SOL     OW17752   2.321   0.681   6.850 -0.6254 -0.3185 -0.7262
 2097SOL    HW117753   2.325   0.691   6.755 -0.7258 -2.3612 -0.9349
 2097SOL    HW217754   2.407   0.642   6.863 -0.5352  0.7476  1.8369
 2098SOL     OW17755   3.033   0.843   5.694  0.4375  0.3636 -0.2516
 2098SOL    HW117756   3.053   0.921   5.746 -3.7586  1.1442  0.1250
 2098SOL    HW217757   3.092   0.786   5.745  1.2198  1.0323 -0.3995
 2099SOL     OW17758   4.572   0.184  15.242 -0.2862 -0.0469 -0.2385
 2099SOL    HW117759   4.633   0.248  15.205 -1.1504  1.8361  1.5780
 2099SOL    HW217760   4.548   0.141  15.160  0.8477  0.5722 -0.8900
 2100SOL     OW17761   2.144   3.756   6.492  0.6275  0.4714 -0.2502
 2100SOL    HW117762   2.181   3.675   6.456  0.9265  1.1761 -1.5084
 2100SOL    HW217763   2.166   3.811   6.417 -0.8758  0.5108 -0.6774
 2101SOL     OW17764   1.296   0.557  14.088  0.0139  1.0343  0.5543
 2101SOL    HW117765   1.299   0.487  14.022  3.0181 -0.9248  2.7622
 2101SOL    HW217766   1.214   0.536  14.132 -0.0575  0.5371  0.1953
 2102SOL     OW17767   1.722   0.998   6.707  0.0246 -0.2335  0.2998
 2102SOL    HW117768   1.692   0.907   6.701  1.9957 -0.8355 -0.2105
 2102SOL    HW217769   1.743   1.026   6.618 -0.1263  0.2119  0.4078
 2103SOL     OW17770   0.048   1.858   5.976  0.5958 -0.3656 -0.7070
 2103SOL    HW117771   0.101   1.837   6.053  1.5064  1.5868 -0.8048
 2103SOL    HW217772   0.110   1.826   5.911  1.3910 -0.3483  0.0387
 2104SOL     OW17773   2.881   0.725   2.369 -0.2446 -0.2491  0.2220
 2104SOL    HW117774   2.903   0.806   2.323 -1.3057  0.0764  0.2949
 2104SOL    HW217775   2.962   0.684   2.399 -0.2429  0.2518  0.8849
 2105SOL     OW17776   1.905   3.452   2.934 -0.3211  0.6952 -0.4939
 2105SOL    HW117777   1.891   3.399   3.012  1.3076  2.7217  1.1549
 2105SOL    HW217778   1.817   3.484   2.914 -1.5841 -2.1289  0.4459
 2106SOL     OW17779   2.324   1.166   8.922  0.1084  0.2420  0.0139
 2106SOL    HW117780   2.409   1.186   8.960  0.7146  0.2451 -1.3232
 2106SOL    HW217781   2.281   1.243   8.958 -1.0558 -1.5498  2.4396
 2107SOL     OW17782   3.061   4.413   0.303  0.9816 -0.3083  0.4922
 2107SOL    HW117783   3.153   4.408   0.327  0.6863 -1.2921  1.4257
 2107SOL    HW217784   3.057   4.326   0.264  2.5026 -0.6462  1.0926
 2108SOL     OW17785   4.371   2.012   6.107 -0.5321 -0.1690  0.3752
 2108SOL    HW117786   4.404   2.045   6.023  0.0385 -0.7024  0.3959
 2108SOL    HW217787   4.326   1.936   6.070  0.7448 -0.6616 -0.1588
 2109SOL     OW17788   4.652   1.664  10.173  0.3403 -0.6122 -0.8012
 2109SOL    HW117789   4.628   1.720  10.099  2.2590  1.1601 -0.0841
 2109SOL    HW217790   0.015   1.690  10.197  0.6157  0.3249 -2.8224
 2110SOL     OW17791   0.596   2.340   6.948 -0.0497 -0.2542 -0.1433
 2110SOL    HW117792   0.553   2.421   6.973 -0.8292 -0.4691 -0.8030
 2110SOL    HW217793   0.683   2.336   6.989 -0.7025 -0.7403  1.2154
 2111SOL     OW17794   0.611   2.944   8.115  0.0915 -0.2047  0.3448
 2111SOL    HW117795   0.545   2.900   8.062  0.8854 -0.1956 -0.6295
 2111SOL    HW217796   0.688   2.931   8.061 -0.5588 -0.0555 -0.6190
 2112SOL     OW17797   1.656   1.335   6.752 -0.0298 -0.1560  0.0012
 2112SOL    HW117798   1.569   1.354   6.786  0.1712  0.5551  0.1174
 2112SOL    HW217799   1.639   1.289   6.669  0.3473  0.8850 -0.6496
 2113SOL     OW17800   1.232   2.698   2.487 -0.1745 -0.2146 -0.1341
 2113SOL    HW117801   1.209   2.696   2.394  1.9799  0.3243 -0.6623
 2113SOL    HW217802   1.145   2.696   2.527  1.7609 -0.4526  3.9736
 2114SOL     OW17803   1.771   1.825   5.114 -0.3359  0.3468 -0.1067
 2114SOL    HW117804   1.747   1.791   5.200  2.6121  0.9008  0.9606
 2114SOL    HW217805   1.716   1.773   5.056  1.4790 -1.5372 -0.1594
 2115SOL     OW17806   4.137   4.163  11.045  0.1393 -0.4112  0.3393
 2115SOL    HW117807   4.062   4.105  11.030 -0.2112 -0.0400  0.6365
 2115SOL    HW217808   4.105   4.243  11.088  0.4220 -0.8643  1.3690
 2116SOL     OW17809   2.195   4.159   9.282  0.5589  0.2676  0.3025
 2116SOL    HW117810   2.114   4.156   9.231  0.0201 -0.1115  1.1896
 2116SOL    HW217811   2.179   4.244   9.324 -0.3829  1.5632 -2.6341
 2117SOL     OW17812   2.250   1.371   1.344 -0.0070  0.1657 -0.3382
 2117SOL    HW117813   2.270   1.299   1.284  1.3442 -1.5932  2.1807
 2117SOL    HW217814   2.158   1.349   1.360  0.5626 -0.0961  2.6152
 2118SOL     OW17815   3.122   4.144   8.217  0.2788  0.4770 -0.0622
 2118SOL    HW117816   3.076   4.226   8.235 -1.2796 -0.9096  2.2449
 2118SOL    HW217817   3.196   4.186   8.172 -0.9990  2.6364 -0.1398
 2119SOL     OW17818   4.450   2.943  13.893  0.2668 -0.2254 -0.3748
 2119SOL    HW117819   4.467   3.019  13.949  0.2671  0.1732 -0.9163
 2119SOL    HW217820   4.532   2.935  13.844  0.9185  0.4481  0.5936
 2120SOL     OW17821   4.222   0.494   4.928  0.4849  0.0512  0.0429
 2120SOL    HW117822   4.132   0.507   4.897  0.6020 -0.5046 -0.5142
 2120SOL    HW217823   4.202   0.429   4.996  0.4676 -0.1839 -0.1878
 2121SOL     OW17824   3.235   2.176  13.043  0.3966 -0.4884  0.4438
 2121SOL    HW117825   3.168   2.196  13.108 -1.0478 -2.8001 -0.3081
 2121SOL    HW217826   3.188   2.114  12.986  0.9611 -0.1066 -0.4308
 2122SOL     OW17827   0.932   0.316   2.623 -0.0419 -0.3359 -0.2979
 2122SOL    HW117828   0.874   0.274   2.687 -0.2524  0.9312  0.3419
 2122SOL    HW217829   0.933   0.406   2.656  0.1979 -0.0343 -1.1204
 2123SOL     OW17830   0.724   2.042   7.600  0.5395 -0.1178 -0.2115
 2123SOL    HW117831   0.784   1.972   7.627  0.6361  0.2392  0.5143
 2123SOL    HW217832   0.713   2.089   7.683  1.2217 -1.5259  0.6950
 2124SOL     OW17833   4.336   0.288   6.807  0.2466  0.2702 -0.1378
 2124SOL    HW117834   4.363   0.368   6.761 -1.9405  1.2616  0.3105
 2124SOL    HW217835   4.307   0.236   6.732  0.7279  1.6198 -1.2623
 2125SOL     OW17836   0.101   4.221   7.755 -0.0561 -0.3599  0.2889
 2125SOL    HW117837   0.084   4.213   7.661 -0.3575 -1.5636  0.4567
 2125SOL    HW217838   0.013   4.208   7.788  0.2526  0.4835  1.4587
 2126SOL     OW17839   3.913   2.178   6.320  0.3983 -0.4427  0.1709
 2126SOL    HW117840   3.956   2.260   6.344  0.1009 -0.0403 -0.6609
 2126SOL    HW217841   3.976   2.109   6.340 -1.5659 -2.8567 -1.9846
 2127SOL     OW17842   1.578   2.032   2.466 -0.4037 -0.2485 -0.1959
 2127SOL    HW117843   1.623   1.949   2.449  0.4139  0.3793 -1.0568
 2127SOL    HW217844   1.629   2.074   2.534  1.3818 -1.9735 -0.4547
 2128SOL     OW17845   2.336   3.188   7.453  0.6401 -0.4540 -0.5658
 2128SOL    HW117846   2.431   3.185   7.463  0.6024  1.0370  0.1980
 2128SOL    HW217847   2.323   3.138   7.373 -0.8726  0.3390 -0.8124
 2129SOL     OW17848   2.253   3.538   4.247 -0.2748  0.4863  0.1206
 2129SOL    HW117849   2.192   3.530   4.320  1.1833 -0.0425  1.2957
 2129SOL    HW217850   2.278   3.627   4.268 -0.0549  0.5208 -0.2734
 2130SOL     OW17851   0.531   2.071   7.374 -0.2759  0.7531 -0.5551
 2130SOL    HW117852   0.610   2.045   7.421 -0.3487  0.5702 -0.5346
 2130SOL    HW217853   0.531   2.158   7.415  0.8288 -0.0361  1.1371
 2131SOL     OW17854   2.116   3.690   8.042 -0.5700  0.2203 -0.5909
 2131SOL    HW117855   2.023   3.673   8.029 -0.2461 -1.6572 -0.5277
 2131SOL    HW217856   2.143   3.694   7.950 -1.4576 -1.4777 -0.9232
 2132SOL     OW17857   0.435   1.876   8.033  0.1589 -0.5417 -0.0691
 2132SOL    HW117858   0.528   1.856   8.043  0.0580 -0.0327  1.9642
 2132SOL    HW217859   0.401   1.819   7.965 -0.7829  0.5037 -0.4683
 2133SOL     OW17860   0.766   3.328   9.091 -0.0813 -0.1590  0.0050
 2133SOL    HW117861   0.737   3.320   9.001 -1.7611 -0.2323  0.5663
 2133SOL    HW217862   0.689   3.368   9.131 -0.4123 -1.9614  1.1942
 2134SOL     OW17863   3.261   3.996   0.378  0.0369  0.1565  0.3433
 2134SOL    HW117864   3.350   4.029   0.373  0.4175 -0.9238 -0.0190
 2134SOL    HW217865   3.213   4.075   0.355 -2.0819 -0.9602  0.8889
 2135SOL     OW17866   1.956   3.227   1.562 -0.5186 -0.0980 -0.1355
 2135SOL    HW117867   1.918   3.177   1.489  0.6877 -1.9079  0.4645
 2135SOL    HW217868   1.921   3.314   1.542  0.6543  1.0340  2.9036
 2136SOL     OW17869   2.889   3.850   3.103  0.5344 -0.0153  0.0898
 2136SOL    HW117870   2.904   3.873   3.011  0.3841 -0.2348  0.0130
 2136SOL    HW217871   2.909   3.757   3.106 -0.0084 -0.1565 -0.7320
 2137SOL     OW17872   0.683   4.213   5.888 -0.1621  0.2772  0.3418
 2137SOL    HW117873   0.651   4.158   5.959  0.5314 -0.3457  0.1581
 2137SOL    HW217874   0.711   4.154   5.819 -1.9229  0.6009 -0.6627
 2138SOL     OW17875   1.942   4.528   6.609 -0.0860 -0.0208  0.0763
 2138SOL    HW117876   2.037   4.516   6.606 -0.1951 -0.7506 -0.6095
 2138SOL    HW217877   1.920   4.506   6.518 -0.3368  1.0323 -0.1193
 2139SOL     OW17878   2.662   1.889  16.789  0.1401 -0.5390 -0.2207
 2139SOL    HW117879   2.719   1.821  16.824  0.5206 -0.2538 -0.2805
 2139SOL    HW217880   2.613   1.921  16.865  0.4523  1.6685 -0.9389
 2140SOL     OW17881   0.437   4.229  12.226  0.3011  0.3623  0.0140
 2140SOL    HW117882   0.510   4.223  12.288 -0.4600 -1.9829  0.6752
 2140SOL    HW217883   0.439   4.321  12.200  1.6092  0.3682  0.1432
 2141SOL     OW17884   0.476   2.152   9.397  0.1670  0.4895 -0.0005
 2141SOL    HW117885   0.439   2.201   9.323  0.5988 -0.2329 -0.6950
 2141SOL    HW217886   0.403   2.094   9.415  1.0619 -0.6037  0.1045
 2142SOL     OW17887   3.516   3.682   9.321  0.5172 -0.1997 -0.6221
 2142SOL    HW117888   3.505   3.619   9.393 -0.6928  2.6219  1.6529
 2142SOL    HW217889   3.531   3.771   9.351 -2.1465 -0.7113  2.2761
 2143SOL     OW17890   4.165   0.689   2.687  0.5125 -0.6350 -0.4551
 2143SOL    HW117891   4.137   0.779   2.701  1.6551 -0.0787 -1.7406
 2143SOL    HW217892   4.080   0.644   2.684  0.7672 -1.0074 -2.0864
 2144SOL     OW17893   1.050   3.742   8.118  0.2401  0.0955  0.3538
 2144SOL    HW117894   1.122   3.760   8.058  0.4551  0.0051  0.5866
 2144SOL    HW217895   1.034   3.649   8.103  0.5754 -0.2286  2.0020
 2145SOL     OW17896   4.516   3.302   3.345 -0.8962  0.3147 -0.1829
 2145SOL    HW117897   4.603   3.326   3.312 -0.5878 -1.1349 -0.4287
 2145SOL    HW217898   4.445   3.334   3.289  0.7136 -0.2425 -2.5384
 2146SOL     OW17899   2.153   3.028  15.578 -0.2858 -0.2663 -0.0638
 2146SOL    HW117900   2.091   3.078  15.524  0.6265 -0.3967 -1.2350
 2146SOL    HW217901   2.175   3.092  15.646  0.5629 -2.9338  2.1576
 2147SOL     OW17902   3.878   3.151   5.651 -0.1398 -0.4982  0.5032
 2147SOL    HW117903   3.864   3.084   5.718 -0.2939 -3.1987 -2.2534
 2147SOL    HW217904   3.906   3.098   5.576 -1.8177 -1.2788  0.4197
 2148SOL     OW17905   0.268   3.607   2.196  0.7934  0.2725  0.0780
 2148SOL    HW117906   0.267   3.511   2.188 -1.8515  0.2619  0.5255
 2148SOL    HW217907   0.188   3.616   2.248  0.2207  1.4329 -1.0111
 2149SOL     OW17908   3.292   3.940   8.388  0.4500  0.0016 -0.1427
 2149SOL    HW117909   3.252   4.009   8.334  2.0250  1.3272  0.3910
 2149SOL    HW217910   3.263   3.956   8.477  2.5413 -0.2727  0.5769
 2150SOL     OW17911   3.604   2.815   2.406 -0.2481 -0.3054  0.0239
 2150SOL    HW117912   3.608   2.719   2.400 -2.2144 -0.6166  3.7507
 2150SOL    HW217913   3.562   2.837   2.323  2.2636  0.4868 -1.0543
 2151SOL     OW17914   3.568   3.077   5.571  0.2783 -0.0534 -0.2114
 2151SOL    HW117915   3.487   3.111   5.611  0.9445 -0.5972  1.5896
 2151SOL    HW217916   3.608   3.059   5.656 -0.4319 -0.4190  0.0456
 2152SOL     OW17917   2.608   1.787   9.190 -0.3928 -0.1330  0.3590
 2152SOL    HW117918   2.690   1.833   9.170 -1.0501  0.7517 -0.2731
 2152SOL    HW217919   2.542   1.856   9.188  1.4640  1.6183 -1.3194
 2153SOL     OW17920   1.740   3.956   5.838  0.5834  0.1270  0.2710
 2153SOL    HW117921   1.801   4.029   5.845  2.8069 -1.6381 -0.7592
 2153SOL    HW217922   1.754   3.934   5.745 -1.3925 -0.2594  0.0620
 2154SOL     OW17923   4.110   4.704   7.596  0.5215 -0.4690  0.3232
 2154SOL    HW117924   4.037   4.660   7.640 -0.9484  1.2893 -0.3385
 2154SOL    HW217925   4.109   0.063   7.643 -2.0233  0.7503 -1.8856
 2155SOL     OW17926   0.069   1.981  16.256  0.2825  0.9466 -0.0479
 2155SOL    HW117927   0.006   2.041  16.218  0.4769 -0.2919 -2.3375
 2155SOL    HW217928   0.094   2.042  16.326 -1.1171  0.8073  0.5629
 2156SOL     OW17929   2.644   3.873   1.259  0.2794  0.5563  0.2481
 2156SOL    HW117930   2.667   3.896   1.349  2.6290  2.6105 -0.8810
 2156SOL    HW217931   2.728   3.848   1.219  1.0242  1.3006  1.3494
 2157SOL     OW17932   4.329   4.658   3.423  0.0353 -0.5910 -0.4499
 2157SOL    HW117933   4.273   4.581   3.435  0.6905 -1.2685 -1.7688
 2157SOL    HW217934   4.285   4.689   3.344  0.6269 -0.7768 -0.8493
 2158SOL     OW17935   3.989   1.982   3.524 -1.0495 -0.1808 -0.2233
 2158SOL    HW117936   3.993   1.909   3.586 -0.8545 -0.6857 -0.8296
 2158SOL    HW217937   3.971   2.058   3.580  1.4502  0.5589 -0.3761
 2159SOL     OW17938   0.877   0.305   9.152 -0.0293  0.1573 -0.2373
 2159SOL    HW117939   0.843   0.283   9.238 -1.4213 -2.1182 -1.3644
 2159SOL    HW217940   0.970   0.284   9.164  0.4909  1.1093 -2.6514
 2160SOL     OW17941   4.070   3.458  13.087  0.1484 -0.3970 -0.3409
 2160SOL    HW117942   4.095   3.386  13.030 -1.8864 -1.8028  0.5322
 2160SOL    HW217943   4.003   3.421  13.145  0.6230  1.6331  1.4929
 2161SOL     OW17944   1.367   3.041   7.200  0.2834 -0.2683  0.0590
 2161SOL    HW117945   1.413   3.088   7.270  1.1477 -0.7115 -0.2067
 2161SOL    HW217946   1.284   3.087   7.208 -0.2629 -1.1580 -0.3957
 2162SOL     OW17947   0.574   4.612   5.614  0.0539  0.5335  0.5037
 2162SOL    HW117948   0.487   4.650   5.621 -0.5255 -1.1029  2.0503
 2162SOL    HW217949   0.567   4.551   5.540  0.3882  0.6976  0.3347
 2163SOL     OW17950   0.303   0.735   2.885 -0.5318  0.0534  0.1119
 2163SOL    HW117951   0.333   0.719   2.974 -0.1950 -0.1822 -0.0449
 2163SOL    HW217952   0.384   0.763   2.842 -0.9949  1.2541  0.0199
 2164SOL     OW17953   1.810   2.692   2.114  0.3159  0.0940 -0.0610
 2164SOL    HW117954   1.731   2.744   2.125 -0.6559 -1.2580 -0.6302
 2164SOL    HW217955   1.760   2.611   2.103 -0.3029  0.3336  0.9752
 2165SOL     OW17956   1.138   1.153   6.811 -0.6593 -0.2563 -0.0242
 2165SOL    HW117957   1.168   1.189   6.895 -0.3381 -2.0593  0.6341
 2165SOL    HW217958   1.201   1.082   6.801 -0.7239 -0.2235 -0.6936
 2166SOL     OW17959   2.444   1.099   5.977  0.5905 -0.4420  0.4975
 2166SOL    HW117960   2.365   1.071   5.931  0.9250 -1.9497  0.8082
 2166SOL    HW217961   2.472   1.010   6.000 -3.2356 -1.8650 -0.2585
 2167SOL     OW17962   1.883   3.488   1.503 -0.4447 -0.0321 -0.0614
 2167SOL    HW117963   1.962   3.541   1.491 -1.4532  1.5232  0.1188
 2167SOL    HW217964   1.811   3.552   1.502 -0.9206 -0.5587  0.6614
 2168SOL     OW17965   3.002   2.446   0.956  0.2873  0.2630  0.0950
 2168SOL    HW117966   2.963   2.359   0.964  2.5345 -0.6438  1.1661
 2168SOL    HW217967   3.013   2.457   0.862 -2.1180 -0.0580 -0.2119
 2169SOL     OW17968   3.297   2.019  11.890  0.0063  0.1415  0.0150
 2169SOL    HW117969   3.341   1.985  11.967  0.2041  1.7673  0.6111
 2169SOL    HW217970   3.348   1.975  11.822  1.1211  0.8100  0.4259
 2170SOL     OW17971   0.798   1.103   2.810  0.3006  0.3384 -0.4067
 2170SOL    HW117972   0.804   1.156   2.730  2.2225  4.0163  2.1485
 2170SOL    HW217973   0.705   1.119   2.825 -0.2757 -1.3336 -2.2156
 2171SOL     OW17974   2.095   2.202  10.305 -0.0415  0.2314 -0.0880
 2171SOL    HW117975   2.178   2.250  10.307 -0.2667  0.6675 -1.8493
 2171SOL    HW217976   2.065   2.199  10.396 -0.3155 -1.1562 -0.2266
 2172SOL     OW17977   1.290   2.364   4.765 -0.1506 -0.1235  0.3482
 2172SOL    HW117978   1.274   2.370   4.671  0.6186 -1.9090  0.1113
 2172SOL    HW217979   1.216   2.412   4.802 -0.8100 -0.3239 -0.7096
 2173SOL     OW17980   4.582   0.237   4.324 -0.6247  0.3224 -0.0129
 2173SOL    HW117981   4.655   0.193   4.280 -0.1990  2.4650 -1.4296
 2173SOL    HW217982   4.557   0.302   4.258 -0.4090 -0.1041 -0.5055
 2174SOL     OW17983   2.690   2.131   3.570  0.3581  0.3513  0.3951
 2174SOL    HW117984   2.754   2.094   3.510 -0.8311  2.0255 -1.9367
 2174SOL    HW217985   2.656   2.062   3.626  1.0803  0.0582  0.4686
 2175SOL     OW17986   0.087   3.130   5.611  0.0009  0.1922  0.3130
 2175SOL    HW117987   0.148   3.202   5.623  1.2328 -0.5683 -1.4845
 2175SOL    HW217988   0.127   3.067   5.551 -0.3152 -0.2284  0.5468
 2176SOL     OW17989   4.136   2.412   4.529  0.4900  0.2633  0.2920
 2176SOL    HW117990   4.074   2.426   4.601 -2.3013  0.0244 -2.0260
 2176SOL    HW217991   4.098   2.468   4.461 -0.3848  0.7210  1.1443
 2177SOL     OW17992   3.292   1.603   3.064  0.3044 -0.0298 -0.0075
 2177SOL    HW117993   3.304   1.508   3.055  0.7304  0.2044 -1.9262
 2177SOL    HW217994   3.267   1.640   2.980 -1.7269  0.5016  0.8328
 2178SOL     OW17995   2.043   3.845   7.659 -0.4249  0.1874  0.6693
 2178SOL    HW117996   2.047   3.868   7.566  0.6141  0.3453  0.7441
 2178SOL    HW217997   2.131   3.875   7.684 -0.6759  0.8625  0.7568
 2179SOL     OW17998   2.436   1.328   7.448  0.5648 -0.1363 -0.1431
 2179SOL    HW117999   2.483   1.310   7.529  0.3248  1.4813  0.3578
 2179SOL    HW218000   2.404   1.242   7.421 -1.0234  0.6349 -0.6920
 2180SOL     OW18001   2.567   4.097   4.235  0.5018  0.3924 -0.0768
 2180SOL    HW118002   2.515   4.027   4.195  0.6972  0.4829 -0.4896
 2180SOL    HW218003   2.596   4.145   4.158  0.7837 -2.3154 -1.6518
 2181SOL     OW18004   1.102   1.912   4.080  0.4797 -0.2496  0.0773
 2181SOL    HW118005   1.024   1.856   4.073  1.0853 -0.9432 -1.1522
 2181SOL    HW218006   1.115   1.937   4.171 -0.2716 -1.1475  0.4373
 2182SOL     OW18007   3.041   2.498   4.050  0.1119  0.2363  0.2540
 2182SOL    HW118008   3.103   2.433   4.016 -1.6399 -0.4383 -1.6890
 2182SOL    HW218009   3.077   2.579   4.014  0.1654 -0.4172 -1.1475
 2183SOL     OW18010   1.789   1.426   5.625  0.2791 -0.3261 -0.2449
 2183SOL    HW118011   1.824   1.377   5.699 -1.3655 -0.6408  0.3224
 2183SOL    HW218012   1.759   1.358   5.564  1.1767 -1.3383  0.4351
 2184SOL     OW18013   3.223   1.138   2.484 -0.9249  0.0747 -0.7313
 2184SOL    HW118014   3.317   1.129   2.472 -1.1636 -0.3810 -2.2270
 2184SOL    HW218015   3.179   1.155   2.401 -0.8910  0.5598 -0.6506
 2185SOL     OW18016   0.346   1.909   9.192  0.3145  0.3556 -0.3926
 2185SOL    HW118017   0.319   1.995   9.160  0.2474  0.9729  1.3100
 2185SOL    HW218018   0.320   1.919   9.284  1.7085 -0.0686  0.0482
 2186SOL     OW18019   4.285   0.763   9.332 -0.7826 -0.4788 -0.6390
 2186SOL    HW118020   4.338   0.743   9.409 -1.2943  0.0087 -0.1556
 2186SOL    HW218021   4.307   0.856   9.331 -1.0338 -0.4362 -1.7387
 2187SOL     OW18022   3.723   2.501   3.283 -0.3676  0.0083  0.3125
 2187SOL    HW118023   3.769   2.537   3.359 -0.0597 -1.2073  0.7065
 2187SOL    HW218024   3.806   2.484   3.239 -0.4354  1.5867 -0.4179
 2188SOL     OW18025   3.835   1.967   4.302 -0.1616  0.5651 -0.1206
 2188SOL    HW118026   3.751   2.005   4.326 -0.5630 -2.2710  2.8824
 2188SOL    HW218027   3.887   2.047   4.312 -1.8588  1.8664 -1.5890
 2189SOL     OW18028   3.105   2.145   1.269  0.2273  0.2196  0.8461
 2189SOL    HW118029   3.052   2.067   1.286  1.9728 -1.1947 -0.2417
 2189SOL    HW218030   3.049   2.222   1.255 -0.0841 -0.5444 -1.9935
 2190SOL     OW18031   2.414   2.379   1.755 -0.8437  0.3126 -0.2006
 2190SOL    HW118032   2.387   2.421   1.836  1.2729  0.3152  0.5111
 2190SOL    HW218033   2.356   2.417   1.689  0.6035  0.7998 -1.2050
 2191SOL     OW18034   3.787   0.067   8.170  0.2253 -0.4513 -0.3050
 2191SOL    HW118035   3.796   0.104   8.082 -0.7097  0.9227  0.1790
 2191SOL    HW218036   3.702   0.026   8.156 -0.2453  0.1267  0.8983
 2192SOL     OW18037   3.153   3.970   5.472  0.3120  0.0303 -0.5145
 2192SOL    HW118038   3.124   4.052   5.511 -2.3483 -0.7217 -0.8649
 2192SOL    HW218039   3.204   4.001   5.398 -1.9828  1.6071 -1.4485
 2193SOL     OW18040   2.642   4.242  13.409 -0.5641  0.4594 -0.0039
 2193SOL    HW118041   2.610   4.205  13.327  1.4716 -0.3572 -0.4230
 2193SOL    HW218042   2.580   4.306  13.444 -1.6382 -1.1039  0.9070
 2194SOL     OW18043   1.348   1.151  11.183  0.3517  0.4671  0.2019
 2194SOL    HW118044   1.315   1.201  11.258 -1.3533 -0.2168 -0.1114
 2194SOL    HW218045   1.280   1.084  11.181  0.5870  0.2631 -1.2556
 2195SOL     OW18046   2.634   0.563   2.319  0.8413  0.0723  0.5278
 2195SOL    HW118047   2.697   0.628   2.348 -0.0078  1.0868  0.1089
 2195SOL    HW218048   2.660   0.540   2.230  0.4287  0.7428  0.2329
 2196SOL     OW18049   2.266   2.303   3.267 -0.4443 -0.0658 -0.2907
 2196SOL    HW118050   2.360   2.298   3.286 -0.0331  0.0894 -2.3150
 2196SOL    HW218051   2.279   2.330   3.176  1.8493  0.2748  0.1385
 2197SOL     OW18052   2.100   2.315  12.685 -0.3975 -0.4793 -0.4296
 2197SOL    HW118053   2.038   2.243  12.696 -0.1724 -0.3205  1.8351
 2197SOL    HW218054   2.181   2.283  12.727 -0.2315  0.5787  0.0524
 2198SOL     OW18055   3.758   2.508  15.007  0.0990  0.4754  0.6608
 2198SOL    HW118056   3.767   2.597  15.041 -1.6683  0.8622  0.1556
 2198SOL    HW218057   3.849   2.481  14.996 -0.6916 -1.7106 -0.6120
 2199SOL     OW18058   1.530   1.278   0.880  0.6637 -0.1781  0.0354
 2199SOL    HW118059   1.613   1.287   0.834  1.7446 -1.8346  1.5987
 2199SOL    HW218060   1.516   1.358   0.930  1.2565  0.5112 -0.9108
 2200SOL     OW18061   1.053   4.039   5.473  0.6744 -0.1161 -0.1255
 2200SOL    HW118062   1.090   4.101   5.410  2.3218 -1.9505 -0.9556
 2200SOL    HW218063   0.961   4.049   5.448  0.7580 -0.7109 -0.6584
 2201SOL     OW18064   4.350   2.644  17.139 -0.1329 -0.4072 -0.2091
 2201SOL    HW118065   4.331   2.738  17.148 -0.7789 -0.7048  1.5146
 2201SOL    HW218066   4.305   2.618  17.219 -0.6031  2.3265  0.4342
 2202SOL     OW18067   3.177   3.161   3.275 -0.1735  0.0382  0.4379
 2202SOL    HW118068   3.254   3.124   3.232 -1.6595 -3.9100  1.2368
 2202SOL    HW218069   3.143   3.212   3.201  1.7372  1.4518  0.5407
 2203SOL     OW18070   0.097   2.244  14.593 -0.2933 -0.0457  1.0191
 2203SOL    HW118071   0.142   2.160  14.590 -0.7768 -0.3111  1.2852
 2203SOL    HW218072   0.170   2.305  14.610 -0.1772  0.0155  0.2890
 2204SOL     OW18073   0.886   4.056   7.126 -0.2397 -0.0729 -0.1828
 2204SOL    HW118074   0.892   4.082   7.034 -1.3720 -0.4733 -0.3747
 2204SOL    HW218075   0.819   4.120   7.150  0.2194  0.8876 -1.4745
 2205SOL     OW18076   2.157   1.232   2.100  0.5816  0.4808 -0.4399
 2205SOL    HW118077   2.236   1.182   2.123 -0.6280 -1.5968 -0.8636
 2205SOL    HW218078   2.176   1.252   2.008 -1.0442  2.6031 -0.3092
 2206SOL     OW18079   3.473   2.627   7.820 -0.0381  0.1379  0.1126
 2206SOL    HW118080   3.535   2.676   7.873  1.4364 -1.6319  0.0023
 2206SOL    HW218081   3.460   2.541   7.861 -1.1376 -0.4762 -1.4781
 2207SOL     OW18082   4.654   4.333   6.500 -0.0290  0.1813  0.3180
 2207SOL    HW118083   4.622   4.288   6.578 -1.8426 -0.2189 -0.6755
 2207SOL    HW218084   0.021   4.321   6.525 -0.1163 -0.9759  0.0676
 2208SOL     OW18085   0.949   3.359   3.713 -0.3770 -0.1148 -0.2416
 2208SOL    HW118086   0.865   3.327   3.680 -0.0745 -1.0073 -0.1178
 2208SOL    HW218087   0.976   3.290   3.773  0.4448  0.7487  0.3933
 2209SOL     OW18088   3.805   2.268  15.625  0.0681  0.3026  0.5227
 2209SOL    HW118089   3.812   2.180  15.588 -4.2537  0.1068  0.0758
 2209SOL    HW218090   3.805   2.317  15.543  0.4157 -2.0763 -0.8871
 2210SOL     OW18091   4.662   2.613  13.824  0.7830  0.1793  0.0739
 2210SOL    HW118092   0.031   2.619  13.806  0.4237  1.5661 -1.3750
 2210SOL    HW218093   4.627   2.677  13.762  1.4694 -0.1778 -0.6862
 2211SOL     OW18094   0.455   1.805   3.362 -0.0375 -0.2926 -0.4448
 2211SOL    HW118095   0.408   1.722   3.354  1.1602 -0.8130 -1.9937
 2211SOL    HW218096   0.494   1.797   3.450 -1.2246  2.7575  0.3543
 2212SOL     OW18097   3.089   0.770   3.731 -0.1434 -0.2890  0.0055
 2212SOL    HW118098   3.184   0.773   3.743 -0.4347 -1.6438  2.5575
 2212SOL    HW218099   3.077   0.711   3.656  2.4494  0.3295 -0.8900
 2213SOL     OW18100   3.722   1.855   3.277  0.3702  0.1288 -0.0693
 2213SOL    HW118101   3.741   1.791   3.345 -0.0809  1.3850  1.2487
 2213SOL    HW218102   3.657   1.814   3.220  0.1329 -0.5958  0.7285
 2214SOL     OW18103   2.956   0.385   9.532  0.2972 -0.5387 -0.8349
 2214SOL    HW118104   2.900   0.460   9.555 -0.7048 -1.8080  0.8983
 2214SOL    HW218105   2.971   0.343   9.616  1.1181  0.9303 -0.2486
 2215SOL     OW18106   3.797   0.312  15.902 -0.7056 -0.7760  0.0435
 2215SOL    HW118107   3.892   0.301  15.890 -0.4855  0.8168  0.3160
 2215SOL    HW218108   3.807   0.382  15.967 -0.3136 -0.5063 -0.3037
 2216SOL     OW18109   3.268   0.121   4.115  0.6282  0.0620 -0.1302
 2216SOL    HW118110   3.249   0.063   4.042  2.0440  0.2845 -0.6757
 2216SOL    HW218111   3.217   0.199   4.090  0.0338 -0.5298 -0.7533
 2217SOL     OW18112   2.927   2.879   3.843 -0.7488 -0.0821 -0.3382
 2217SOL    HW118113   2.958   2.903   3.756 -1.0068 -2.1170 -0.9932
 2217SOL    HW218114   2.898   2.965   3.874 -0.0514  0.1154 -0.2420
 2218SOL     OW18115   3.533   1.314  10.377 -0.0732 -0.4957 -0.2057
 2218SOL    HW118116   3.605   1.272  10.425  1.0757  0.0222 -1.4599
 2218SOL    HW218117   3.489   1.238  10.339 -2.2127  0.1367  1.0226
 2219SOL     OW18118   3.976   1.024   6.189 -0.1369  0.0790  0.3064
 2219SOL    HW118119   3.955   1.016   6.283  0.3073 -1.8702  0.2292
 2219SOL    HW218120   4.056   1.077   6.190 -0.0696 -0.0066 -3.4796
 2220SOL     OW18121   0.367   4.364   5.706  0.3306  0.0622 -0.1380
 2220SOL    HW118122   0.391   4.455   5.721 -0.2884  0.7759 -3.4689
 2220SOL    HW218123   0.350   4.340   5.798  0.5123 -1.1614 -0.4261
 2221SOL     OW18124   0.335   0.928   4.873 -0.2627  0.2110  0.1496
 2221SOL    HW118125   0.336   0.883   4.789 -0.2078 -0.7076  0.6450
 2221SOL    HW218126   0.421   0.967   4.893  0.1641  0.2787 -1.7854
 2222SOL     OW18127   2.192   4.674   9.449 -0.1520  0.3824  0.3058
 2222SOL    HW118128   2.223   4.664   9.539  1.5970 -1.8066 -0.5484
 2222SOL    HW218129   2.274   4.696   9.406  0.1711 -1.3113  0.0682
 2223SOL     OW18130   1.045   0.043  13.774  0.7297 -0.1374 -0.2555
 2223SOL    HW118131   0.977   0.066  13.711  1.3898  0.4137 -0.7699
 2223SOL    HW218132   1.043   0.118  13.835 -1.1252 -2.1942  2.2175
 2224SOL     OW18133   0.146   1.863   8.137  0.2101  0.2371 -0.5119
 2224SOL    HW118134   0.171   1.873   8.046 -1.1048  0.4868 -0.8486
 2224SOL    HW218135   0.062   1.818   8.127 -0.3538  0.7064  1.8640
 2225SOL     OW18136   2.039   0.621  10.529  0.1924  0.3376  0.6003
 2225SOL    HW118137   2.063   0.650  10.440 -3.2731  1.3605 -0.0091
 2225SOL    HW218138   2.127   0.599  10.560  1.0194  0.6130 -1.5363
 2226SOL     OW18139   2.907   4.700   5.778 -0.4003 -0.0327  0.3050
 2226SOL    HW118140   2.900   4.719   5.684  2.3242 -0.4027  0.0289
 2226SOL    HW218141   2.940   4.610   5.786 -1.3850 -0.4930 -0.7714
 2227SOL     OW18142   2.687   1.636   4.790 -0.3069 -0.4142  0.4814
 2227SOL    HW118143   2.634   1.715   4.794 -1.4913 -1.3130  2.8369
 2227SOL    HW218144   2.753   1.648   4.723  1.2294 -0.0743  2.0635
 2228SOL     OW18145   1.474   0.924   1.480 -0.2550  0.3075 -0.1519
 2228SOL    HW118146   1.510   1.011   1.465  1.6017 -1.0681 -3.7751
 2228SOL    HW218147   1.480   0.923   1.576  1.3218  0.5252 -0.2404
 2229SOL     OW18148   2.496   1.537   0.464  0.3141 -0.0561 -0.2233
 2229SOL    HW118149   2.490   1.443   0.446  0.3517 -0.3126  1.1007
 2229SOL    HW218150   2.407   1.557   0.494  0.0846 -0.3798 -0.6934
 2230SOL     OW18151   3.652   2.000   9.745  0.5716 -0.7609 -0.2267
 2230SOL    HW118152   3.717   1.970   9.681  0.0037 -1.8876 -0.2765
 2230SOL    HW218153   3.721   2.052   9.786 -1.3042  0.1087  1.8400
 2231SOL     OW18154   0.370   4.286  13.115 -0.3310 -0.4955  0.4927
 2231SOL    HW118155   0.329   4.250  13.037  0.8844  1.9424 -1.2564
 2231SOL    HW218156   0.459   4.289  13.080 -0.2606 -3.3164  0.3560
 2232SOL     OW18157   1.948   3.125   7.143  0.3525 -0.2126  0.2255
 2232SOL    HW118158   1.944   3.206   7.092 -1.1006  0.5884  1.6129
 2232SOL    HW218159   1.921   3.063   7.075  1.5120 -0.2416 -0.2075
 2233SOL     OW18160   0.559   1.241   6.533 -0.0444  0.7183  0.0243
 2233SOL    HW118161   0.551   1.243   6.628 -1.3835  1.8889 -0.1048
 2233SOL    HW218162   0.469   1.216   6.510 -0.2264  0.2129  1.2835
 2234SOL     OW18163   2.741   3.855   6.287 -0.0843  0.4104 -0.1293
 2234SOL    HW118164   2.735   3.813   6.373  0.8249 -0.5207 -0.5374
 2234SOL    HW218165   2.748   3.777   6.233 -2.1125  0.6147 -0.7131
 2235SOL     OW18166   3.908   2.825   2.966  0.4189  1.0164 -0.2126
 2235SOL    HW118167   3.849   2.892   3.001  0.9749  1.5313 -0.2696
 2235SOL    HW218168   3.946   2.790   3.046 -1.0770 -0.4892 -0.1471
 2236SOL     OW18169   0.807   2.980   2.129 -0.6749  0.1314 -0.0258
 2236SOL    HW118170   0.845   3.008   2.213  0.7659 -0.3532 -0.5087
 2236SOL    HW218171   0.881   2.935   2.088  0.1094  0.5219  0.9330
 2237SOL     OW18172   2.275   4.286   5.409  0.6502  0.2858 -0.2915
 2237SOL    HW118173   2.276   4.375   5.373  0.0688  0.7080  0.7084
 2237SOL    HW218174   2.369   4.289   5.426  0.5046 -0.7229  0.6881
 2238SOL     OW18175   1.373   4.330   2.710 -0.2565  0.1456 -0.0747
 2238SOL    HW118176   1.346   4.390   2.640  1.5136  0.0869 -0.8145
 2238SOL    HW218177   1.393   4.395   2.778  0.6351 -0.2894  0.0788
 2239SOL     OW18178   3.650   2.098   4.940 -0.2623 -0.1193  0.0754
 2239SOL    HW118179   3.679   2.062   4.856  0.2348 -0.3983  0.3673
 2239SOL    HW218180   3.558   2.079   4.920 -0.1381 -0.4550 -0.1836
 2240SOL     OW18181   3.718   2.393   7.901 -0.0015  0.4219 -0.1349
 2240SOL    HW118182   3.623   2.385   7.917 -0.3737  0.5935 -2.3366
 2240SOL    HW218183   3.732   2.485   7.919 -0.1188 -0.0636  2.4473
 2241SOL     OW18184   0.577   3.251   1.165 -0.3214 -0.1884  0.2374
 2241SOL    HW118185   0.606   3.296   1.244  2.6233 -0.6643 -0.5588
 2241SOL    HW218186   0.564   3.162   1.199 -1.8012 -0.4592 -1.0204
 2242SOL     OW18187   1.311   2.478  11.829 -0.8539  0.0474  0.7110
 2242SOL    HW118188   1.299   2.466  11.735  1.0719  1.6313  0.2659
 2242SOL    HW218189   1.314   2.384  11.845  1.2274  0.1820  1.0557
 2243SOL     OW18190   3.494   0.478  17.341  0.6844 -0.6299 -0.0414
 2243SOL    HW118191   3.552   0.498  17.414  0.7385 -1.8661  0.2565
 2243SOL    HW218192   3.412   0.455  17.385  0.3307 -1.5833 -1.1872
 2244SOL     OW18193   0.582   3.726   6.935  0.0320  0.5409  0.6273
 2244SOL    HW118194   0.668   3.687   6.921 -0.3292  0.0152 -0.1430
 2244SOL    HW218195   0.524   3.660   6.897  1.8685 -0.6132 -0.1553
 2245SOL     OW18196   0.378   2.796   9.009  0.3416 -0.1473  0.3751
 2245SOL    HW118197   0.449   2.739   9.036  1.4933  0.3649 -1.5758
 2245SOL    HW218198   0.321   2.776   9.083  0.8427 -1.1205  0.5006
 2246SOL     OW18199   2.731   1.017  13.289 -0.0855 -0.3381 -0.2479
 2246SOL    HW118200   2.715   1.013  13.383  0.4586  0.1235 -0.1332
 2246SOL    HW218201   2.639   1.017  13.264  0.1906  0.0134 -1.2649
 2247SOL     OW18202   0.097   1.784  16.770 -0.0047  0.6799  0.1518
 2247SOL    HW118203   0.133   1.814  16.854 -0.2281  3.1946 -0.6469
 2247SOL    HW218204   0.142   1.844  16.710  0.8721  0.7196  0.8482
 2248SOL     OW18205   0.814   0.914   5.980  0.3182  0.2574 -0.3002
 2248SOL    HW118206   0.881   0.935   6.045  0.4291  0.9763 -0.6477
 2248SOL    HW218207   0.747   0.981   5.999  1.9163  2.0566 -1.0822
 2249SOL     OW18208   1.336   2.277   6.346 -0.3570  0.0138 -0.1442
 2249SOL    HW118209   1.384   2.195   6.344 -1.5186 -0.6815  0.6715
 2249SOL    HW218210   1.267   2.244   6.403  1.3476 -0.7120  1.5053
 2250SOL     OW18211   1.302   2.003   2.821  0.5594  0.2092 -0.1712
 2250SOL    HW118212   1.395   1.989   2.801  0.5017  1.2083 -1.0956
 2250SOL    HW218213   1.270   1.913   2.817  0.4025  0.2176  0.9009
 2251SOL     OW18214   1.828   1.735  17.085 -0.1608  0.0323  0.1117
 2251SOL    HW118215   1.744   1.769  17.116  0.2178 -0.7312  1.9668
 2251SOL    HW218216   1.804   1.642  17.087  2.9910 -0.7467  1.8154
 2252SOL     OW18217   1.320   2.123  12.822 -0.3181 -0.5703  0.3926
 2252SOL    HW118218   1.233   2.142  12.857 -1.0837  1.4054 -2.5371
 2252SOL    HW218219   1.298   2.069  12.745 -0.2073  0.2802 -0.2398
 2253SOL     OW18220   1.676   2.418   4.100 -0.2812 -1.0654  0.1916
 2253SOL    HW118221   1.637   2.394   4.184  0.1147 -1.8466  0.1574
 2253SOL    HW218222   1.718   2.334   4.081  0.9873  0.2837 -2.8672
 2254SOL     OW18223   4.331   2.104   6.368  0.0896 -0.5907  0.2606
 2254SOL    HW118224   4.377   2.182   6.339 -1.1990 -0.1731 -0.6431
 2254SOL    HW218225   4.291   2.075   6.286  0.1023  1.3215 -0.3987
 2255SOL     OW18226   1.019   3.806   9.061  0.4044 -0.0206 -0.1705
 2255SOL    HW118227   1.077   3.742   9.018 -0.8402 -1.2594 -0.0343
 2255SOL    HW218228   1.062   3.890   9.046 -0.3544  0.5818  1.0345
 2256SOL     OW18229   0.463   0.195   6.222 -0.1804 -0.6072  0.0652
 2256SOL    HW118230   0.450   0.276   6.172 -3.2486 -1.2373 -0.1394
 2256SOL    HW218231   0.556   0.176   6.205 -0.2618 -0.4945 -0.4851
 2257SOL     OW18232   0.546   1.086   2.599 -0.4849 -0.5705 -0.6061
 2257SOL    HW118233   0.490   1.109   2.673  2.3558  0.2989  1.2634
 2257SOL    HW218234   0.544   1.167   2.549 -2.1118  1.5914  2.9775
 2258SOL     OW18235   2.484   0.724  10.774  0.3089 -0.3346  0.2438
 2258SOL    HW118236   2.514   0.802  10.820 -0.2055 -0.5964  1.0388
 2258SOL    HW218237   2.505   0.656  10.838 -1.3076 -0.5457  0.5518
 2259SOL     OW18238   2.512   2.708   6.582 -0.1005 -0.1446  0.0839
 2259SOL    HW118239   2.507   2.617   6.612 -0.3389 -0.0544  0.3192
 2259SOL    HW218240   2.591   2.750   6.618  0.3493  0.4137 -1.5549
 2260SOL     OW18241   0.478   1.836   9.528 -0.3301 -0.2184  0.3344
 2260SOL    HW118242   0.428   1.754   9.529  2.5288 -1.9945 -1.5417
 2260SOL    HW218243   0.406   1.894   9.504 -1.6700 -1.6571  0.9300
 2261SOL     OW18244   3.520   4.388   1.519 -0.0742  0.5154  0.0411
 2261SOL    HW118245   3.498   4.477   1.546 -1.4987  0.1008  0.2136
 2261SOL    HW218246   3.506   4.384   1.425 -1.2252  2.6156  0.1321
 2262SOL     OW18247   3.949   3.865   6.371 -0.3706 -0.2682 -0.0763
 2262SOL    HW118248   3.993   3.938   6.328 -0.7649 -0.0689 -0.1465
 2262SOL    HW218249   3.881   3.845   6.306  0.2673  0.6045 -1.0060
 2263SOL     OW18250   3.624   4.479  12.603  0.1807 -0.2542 -0.1679
 2263SOL    HW118251   3.635   4.471  12.509  1.1009 -2.1676  0.1105
 2263SOL    HW218252   3.666   4.560  12.632 -0.3792  0.9960 -2.8469
 2264SOL     OW18253   3.184   2.240   3.951 -0.6699  0.6739 -0.3373
 2264SOL    HW118254   3.148   2.163   3.995  0.9276  0.5331  0.7203
 2264SOL    HW218255   3.272   2.246   3.988 -0.9798 -3.1946  0.9844
 2265SOL     OW18256   3.660   0.693   6.482  0.1956 -0.0454  0.2426
 2265SOL    HW118257   3.628   0.606   6.508 -1.5779  0.4759 -0.2169
 2265SOL    HW218258   3.697   0.666   6.398  3.7947  0.7049  1.5689
 2266SOL     OW18259   4.271   0.965  16.905  0.0717 -0.4310  0.6288
 2266SOL    HW118260   4.225   0.882  16.898 -2.0577  0.9368 -1.6002
 2266SOL    HW218261   4.207   1.012  16.958  0.0085  0.1967  0.0015
 2267SOL     OW18262   2.273   3.294   2.422  0.9428  0.0613  0.1374
 2267SOL    HW118263   2.364   3.264   2.415  0.6054 -0.3694 -2.3731
 2267SOL    HW218264   2.269   3.323   2.513  0.2753  1.5824 -0.3738
 2268SOL     OW18265   4.027   3.298   9.351 -0.4884  0.1959  0.0689
 2268SOL    HW118266   4.008   3.258   9.436 -1.3696 -0.3233 -0.3682
 2268SOL    HW218267   3.958   3.255   9.300  0.1172 -1.8722  0.9738
 2269SOL     OW18268   1.779   3.167   0.788 -0.0492 -0.3165 -0.5132
 2269SOL    HW118269   1.823   3.091   0.827  1.6717  1.3117  0.7216
 2269SOL    HW218270   1.789   3.234   0.856  1.4317 -0.7601 -0.2926
 2270SOL     OW18271   1.159   0.888   0.509  0.0699  0.0163  0.0170
 2270SOL    HW118272   1.253   0.878   0.526  0.3894  1.5673 -0.9147
 2270SOL    HW218273   1.142   0.832   0.434  2.8938  1.9997 -2.0877
 2271SOL     OW18274   4.401   3.839  10.028  0.1682 -0.2653  0.2680
 2271SOL    HW118275   4.309   3.843  10.002  1.2107 -2.7468 -3.7443
 2271SOL    HW218276   4.400   3.829  10.123 -1.4081 -3.0886 -0.0431
 2272SOL     OW18277   1.337   1.493   4.592 -0.0600  0.0906  0.8993
 2272SOL    HW118278   1.384   1.434   4.533 -0.4867  0.5452  0.1037
 2272SOL    HW218279   1.409   1.533   4.641 -0.0307 -0.6866  1.4910
 2273SOL     OW18280   2.439   2.586  13.150  0.1485  0.0726  0.6203
 2273SOL    HW118281   2.497   2.512  13.167 -0.3001 -0.3441  0.3437
 2273SOL    HW218282   2.367   2.544  13.102 -0.3083 -0.2722  1.5976
 2274SOL     OW18283   3.694   4.058  15.461  0.8131  0.2626  0.4108
 2274SOL    HW118284   3.685   4.135  15.517 -0.0077 -0.9926  1.9947
 2274SOL    HW218285   3.670   3.985  15.518  1.5400  1.7891  2.6726
 2275SOL     OW18286   4.612   1.412  11.848 -0.6280  0.0740 -0.3118
 2275SOL    HW118287   4.520   1.419  11.873 -0.2739  0.1892  0.9413
 2275SOL    HW218288   4.609   1.439  11.756  1.9552 -1.4033 -0.8180
 2276SOL     OW18289   4.169   3.879  15.550  0.0311 -0.3497  0.2155
 2276SOL    HW118290   4.254   3.921  15.563  0.9897 -2.2494  0.0714
 2276SOL    HW218291   4.149   3.919  15.465 -0.3027 -1.6864 -0.3357
 2277SOL     OW18292   3.353   3.601   0.036 -0.0646  0.0117  0.6170
 2277SOL    HW118293   3.433   3.557   0.008 -0.4973 -0.7866  0.6382
 2277SOL    HW218294   3.291   3.580  17.668 -1.2186  1.5458  1.1781
 2278SOL     OW18295   1.104   4.037   7.382  0.3681 -0.2669  0.5707
 2278SOL    HW118296   1.039   4.012   7.317  0.5611 -0.5912  0.5016
 2278SOL    HW218297   1.076   4.127   7.399 -1.5172 -1.0500  1.4982
 2279SOL     OW18298   1.368   3.398   9.052  0.1242  0.7516  0.2278
 2279SOL    HW118299   1.343   3.308   9.071 -2.1375  1.0615 -1.2413
 2279SOL    HW218300   1.279   3.425   9.029 -1.1636 -2.6885  1.2449
 2280SOL     OW18301   0.888   2.180   5.178  0.4763  0.4331  0.2036
 2280SOL    HW118302   0.861   2.129   5.102 -1.6060 -0.2399  1.3838
 2280SOL    HW218303   0.828   2.140   5.242 -1.2068  2.6469  0.0227
 2281SOL     OW18304   4.163   3.224  12.930  0.6784  0.0457 -0.4207
 2281SOL    HW118305   4.232   3.173  12.889 -1.5303 -2.2775 -1.2766
 2281SOL    HW218306   4.158   3.175  13.012 -0.3340  1.5732  0.4556
 2282SOL     OW18307   1.820   0.021   4.978  0.3504 -0.0237  0.4356
 2282SOL    HW118308   1.756   0.070   5.029 -1.1547 -1.2297 -0.2841
 2282SOL    HW218309   1.820   0.078   4.902 -0.6106 -1.8499 -0.9446
 2283SOL     OW18310   3.899   0.124   4.609  0.4080 -0.4192  0.1253
 2283SOL    HW118311   3.837   0.133   4.537  0.4356 -0.4201  0.1012
 2283SOL    HW218312   3.847   0.135   4.688  0.7573 -1.6755  0.5261
 2284SOL     OW18313   3.002   1.707  15.463  0.2809  0.9114  0.0556
 2284SOL    HW118314   2.997   1.613  15.477 -0.5308  0.8707 -0.5470
 2284SOL    HW218315   3.086   1.724  15.506 -0.3938  0.5164  1.5252
 2285SOL     OW18316   1.531   4.438  16.960 -0.2979 -0.1039 -0.0816
 2285SOL    HW118317   1.504   4.390  16.882  0.1188  1.0151 -0.9050
 2285SOL    HW218318   1.504   4.525  16.933 -2.7274 -0.9139 -0.2380
 2286SOL     OW18319   2.447   3.659   3.600  0.4714  0.1806 -0.2409
 2286SOL    HW118320   2.371   3.605   3.625 -0.3195  0.8804 -1.1328
 2286SOL    HW218321   2.515   3.600   3.570 -0.1601 -1.5207  1.6644
 2287SOL     OW18322   0.545   0.683  16.486  0.3568  1.1093  0.4420
 2287SOL    HW118323   0.457   0.653  16.510  1.1402 -1.4000  0.2372
 2287SOL    HW218324   0.506   0.760  16.445  0.7310 -0.5122 -2.9628
 2288SOL     OW18325   0.536   0.252  10.981  0.1091  0.4361 -0.5947
 2288SOL    HW118326   0.520   0.319  10.914  3.4590 -0.4689 -2.2845
 2288SOL    HW218327   0.490   0.294  11.054  0.8253  2.9797 -1.6095
 2289SOL     OW18328   1.760   3.282   3.737 -0.2656 -0.3744  0.0680
 2289SOL    HW118329   1.756   3.343   3.811  0.5769 -1.9637  1.4254
 2289SOL    HW218330   1.820   3.216   3.770  0.4404  0.2017 -0.0581
 2290SOL     OW18331   2.706   0.519   9.602  0.2256 -0.8110 -0.1068
 2290SOL    HW118332   2.654   0.441   9.619 -0.0083 -0.4174  0.9941
 2290SOL    HW218333   2.703   0.526   9.507  1.4614  0.4809 -0.0564
 2291SOL     OW18334   3.875   2.209   1.489 -0.4525  0.2283 -0.0491
 2291SOL    HW118335   3.883   2.123   1.448 -1.7737  0.7134 -1.3167
 2291SOL    HW218336   3.782   2.210   1.510 -0.3920 -0.2842  0.2455
 2292SOL     OW18337   1.819   2.411   6.156  0.7910  0.1383 -0.0524
 2292SOL    HW118338   1.738   2.444   6.195  0.9144  1.0302 -0.5469
 2292SOL    HW218339   1.840   2.342   6.219 -0.8159 -2.8020 -2.7239
 2293SOL     OW18340   2.502   2.715  15.553  0.5372 -0.3140  0.6178
 2293SOL    HW118341   2.417   2.706  15.510  0.4928  0.9207  0.4620
 2293SOL    HW218342   2.504   2.808  15.575  1.3827 -0.6317  1.9281
 2294SOL     OW18343   4.660   1.296   5.432 -0.3661 -0.1680  0.0316
 2294SOL    HW118344   4.694   1.289   5.343  0.5914 -0.6605  0.4292
 2294SOL    HW218345   4.573   1.330   5.410 -0.6132 -0.7407  0.1392
 2295SOL     OW18346   2.561   3.151  14.834 -0.1664  0.3252 -0.1389
 2295SOL    HW118347   2.511   3.076  14.801  1.0810 -0.8721  0.6823
 2295SOL    HW218348   2.652   3.123  14.841 -0.0802  1.1609  2.0342
 2296SOL     OW18349   3.758   0.280   2.091  0.5306  0.3548 -0.6180
 2296SOL    HW118350   3.687   0.274   2.156  1.4986 -0.1022  0.3881
 2296SOL    HW218351   3.713   0.352   2.047 -1.4094  0.3525  1.3499
 2297SOL     OW18352   4.144   1.012   9.068  0.1401  0.4263  0.3901
 2297SOL    HW118353   4.151   1.061   8.986  0.3357 -2.0346 -1.0334
 2297SOL    HW218354   4.144   0.920   9.045  0.4536  0.1192  1.6263
 2298SOL     OW18355   2.570   3.629  12.738  0.0493  0.2342 -0.1190
 2298SOL    HW118356   2.540   3.712  12.700  4.6560  1.9557 -0.0286
 2298SOL    HW218357   2.585   3.643  12.832  0.4929  0.0113 -0.1540
 2299SOL     OW18358   3.244   0.543  11.943  0.0259  0.2362  0.0723
 2299SOL    HW118359   3.196   0.510  12.020 -0.6557 -0.5462 -0.6867
 2299SOL    HW218360   3.170   0.588  11.902  0.5189  0.0739 -0.9724
 2300SOL     OW18361   4.027   2.939  11.906 -0.3029 -0.1801  0.4714
 2300SOL    HW118362   3.960   3.003  11.930 -0.0128  0.7106 -1.0710
 2300SOL    HW218363   4.074   2.928  11.989  2.4228 -0.8538 -1.1670
 2301SOL     OW18364   2.741   2.565   3.063 -0.2844 -0.3374  0.3602
 2301SOL    HW118365   2.748   2.657   3.088 -1.7230  0.9548 -4.0755
 2301SOL    HW218366   2.816   2.530   3.112  0.4494 -0.1602 -0.6318
 2302SOL     OW18367   2.281   1.718   5.173  0.1400 -0.2498  0.4203
 2302SOL    HW118368   2.300   1.631   5.137 -0.3812  0.3057 -1.1725
 2302SOL    HW218369   2.272   1.695   5.266  0.2126  1.3034  0.8111
 2303SOL     OW18370   0.575   3.584  10.948  0.4260  0.1257 -0.5053
 2303SOL    HW118371   0.595   3.498  10.985  0.7197  0.7922  0.8956
 2303SOL    HW218372   0.521   3.556  10.874  0.5378 -0.2748 -0.4345
 2304SOL     OW18373   2.161   0.386  14.731  0.3008  0.4603  0.3346
 2304SOL    HW118374   2.115   0.439  14.796  0.9803  1.8879 -0.3587
 2304SOL    HW218375   2.108   0.363  14.654  0.4040 -2.5503  1.1434
 2305SOL     OW18376   0.505   3.224   7.494 -0.3518 -0.1471 -0.0220
 2305SOL    HW118377   0.489   3.316   7.471 -0.6567 -0.3976 -0.8345
 2305SOL    HW218378   0.517   3.230   7.588  1.6973  1.3570 -0.3834
 2306SOL     OW18379   2.672   0.693  12.606 -0.2934 -0.3660  0.0582
 2306SOL    HW118380   2.625   0.768  12.571  2.7491  1.2145 -0.6796
 2306SOL    HW218381   2.673   0.634  12.530  0.1473  1.2710 -1.2305
 2307SOL     OW18382   0.800   4.450   8.634 -0.6901 -0.0774 -0.1383
 2307SOL    HW118383   0.724   4.403   8.600 -1.9536  1.1634  0.9428
 2307SOL    HW218384   0.847   4.375   8.669  0.6973  1.2116  0.7339
 2308SOL     OW18385   2.674   3.689   7.589 -0.3805  0.0309 -0.1393
 2308SOL    HW118386   2.634   3.738   7.517  1.0884  3.0689  1.1101
 2308SOL    HW218387   2.604   3.693   7.654 -0.2178 -2.1947  0.1593
 2309SOL     OW18388   1.120   0.107  12.736  0.1379 -0.5990 -0.0106
 2309SOL    HW118389   1.136   0.066  12.821  0.9212 -2.2810 -0.9710
 2309SOL    HW218390   1.025   0.116  12.740  0.0472 -1.4896 -0.0982
 2310SOL     OW18391   1.231   2.637   6.503 -0.6536  0.0788 -0.0543
 2310SOL    HW118392   1.175   2.679   6.438 -0.8870 -2.0362 -1.2175
 2310SOL    HW218393   1.294   2.708   6.514 -0.1046 -0.4037 -0.0506
 2311SOL     OW18394   3.638   0.631   9.689  0.2001  0.5955  0.1952
 2311SOL    HW118395   3.583   0.583   9.628 -0.1582  1.3586 -0.0738
 2311SOL    HW218396   3.640   0.719   9.651 -0.6781 -0.4775 -2.2773
 2312SOL     OW18397   0.025   0.940   3.641 -0.0185  0.4164 -0.2079
 2312SOL    HW118398   4.656   0.923   3.654  0.6920 -2.2839  1.4469
 2312SOL    HW218399   0.018   0.978   3.553 -0.6269  2.9412  0.9265
 2313SOL     OW18400   2.318   4.522  14.978 -0.8573  0.2174 -0.5703
 2313SOL    HW118401   2.412   4.503  14.975 -0.7342  0.6965  0.0139
 2313SOL    HW218402   2.287   4.455  14.918 -0.4959  0.3309 -0.8817
 2314SOL     OW18403   1.896   3.818   5.600  0.2334  0.3069  0.5043
 2314SOL    HW118404   1.955   3.830   5.674 -2.2127  1.0057  2.3263
 2314SOL    HW218405   1.934   3.889   5.547  0.7622 -0.2590  0.1146
 2315SOL     OW18406   1.207   0.557   4.429 -0.0056  0.2300  0.0924
 2315SOL    HW118407   1.180   0.500   4.500  1.1614 -0.7481 -0.2566
 2315SOL    HW218408   1.302   0.568   4.430 -0.1653  1.1972  3.4108
 2316SOL     OW18409   2.810   3.207   5.088 -0.5163 -0.7997 -0.2967
 2316SOL    HW118410   2.810   3.116   5.059 -0.8351 -1.2479  1.1401
 2316SOL    HW218411   2.787   3.245   5.003  2.2810  1.1579 -0.2018
 2317SOL     OW18412   3.151   1.402   3.336  0.7143 -0.2391  0.0099
 2317SOL    HW118413   3.200   1.472   3.379  2.2607  0.0839 -2.2779
 2317SOL    HW218414   3.058   1.407   3.356  0.3574  1.4454 -2.0717
 2318SOL     OW18415   1.019   0.806   7.702 -0.1519 -0.0042 -0.6330
 2318SOL    HW118416   0.948   0.821   7.640 -1.0590 -0.1457  0.3604
 2318SOL    HW218417   0.994   0.871   7.768  0.4890  0.8084 -1.1841
 2319SOL     OW18418   1.664   1.443   0.252 -0.3398  0.8924  0.3145
 2319SOL    HW118419   1.691   1.400   0.333  0.3819 -0.5195 -0.6860
 2319SOL    HW218420   1.701   1.530   0.270  0.5028  1.0074 -1.9554
 2320SOL     OW18421   0.507   0.231   1.171  0.0441  0.4913  0.6113
 2320SOL    HW118422   0.572   0.288   1.130  0.0662  1.6884  2.3056
 2320SOL    HW218423   0.475   0.274   1.251  2.1751  1.0826  1.1473
 2321SOL     OW18424   4.035   1.491   8.872 -0.3931  0.5423 -0.2800
 2321SOL    HW118425   4.025   1.510   8.965 -0.9498  1.9321 -0.6129
 2321SOL    HW218426   4.002   1.401   8.878 -0.3130  0.5596  0.3940
 2322SOL     OW18427   1.832   4.477   1.496 -0.0166 -0.0032  0.1988
 2322SOL    HW118428   1.751   4.429   1.483  0.4733 -0.1800 -2.2544
 2322SOL    HW218429   1.888   4.418   1.445  1.1027  0.6632  0.6626
 2323SOL     OW18430   3.168   3.692   8.340  0.3751  0.3688 -0.7417
 2323SOL    HW118431   3.237   3.756   8.354 -1.2420  1.8596  0.4804
 2323SOL    HW218432   3.092   3.746   8.319 -1.1818 -1.0765  1.0674
 2324SOL     OW18433   0.964   4.695   4.253 -0.5014 -0.3895  0.4036
 2324SOL    HW118434   0.957   0.062   4.279 -0.4267 -0.9581  2.4799
 2324SOL    HW218435   0.903   4.672   4.323 -2.3536  4.4795  0.3281
 2325SOL     OW18436   3.345   1.140   4.513 -0.7379 -0.7054  0.0801
 2325SOL    HW118437   3.425   1.159   4.563 -1.3214 -1.7501  1.4142
 2325SOL    HW218438   3.369   1.070   4.452 -1.1224  0.3217 -1.2298
 2326SOL     OW18439   4.284   4.138   3.160  0.6692  0.2646 -1.0019
 2326SOL    HW118440   4.221   4.072   3.132  1.7608 -2.5000  3.0675
 2326SOL    HW218441   4.369   4.096   3.149  0.4735 -0.7733  1.5737
 2327SOL     OW18442   0.558   1.518  12.664  0.4711 -0.1151  0.3096
 2327SOL    HW118443   0.563   1.483  12.575 -0.7225 -1.6727  0.8500
 2327SOL    HW218444   0.487   1.462  12.697 -0.0370  0.2021 -0.2433
 2328SOL     OW18445   3.415   1.598   6.282 -0.4021  0.3484 -0.2862
 2328SOL    HW118446   3.472   1.570   6.210  1.5549 -1.1108  1.8412
 2328SOL    HW218447   3.326   1.581   6.253 -0.0197 -2.7641  0.4102
 2329SOL     OW18448   1.631   2.866   0.537  0.5583 -0.4714  0.1683
 2329SOL    HW118449   1.575   2.827   0.470 -0.2147  0.6707  0.1439
 2329SOL    HW218450   1.657   2.792   0.592 -0.3717 -0.6347  0.3834
 2330SOL     OW18451   3.249   1.476  15.404  0.2797  0.5544  0.6934
 2330SOL    HW118452   3.242   1.495  15.498 -0.4292 -0.5426  0.8537
 2330SOL    HW218453   3.224   1.385  15.392  0.1733  0.4027  1.9963
 2331SOL     OW18454   3.684   2.644   5.345 -0.8074 -0.3034 -0.3429
 2331SOL    HW118455   3.632   2.604   5.415 -0.0454 -0.9201 -0.1298
 2331SOL    HW218456   3.707   2.725   5.391  0.6354 -2.2717  2.3957
 2332SOL     OW18457   4.173   3.415   6.617  0.2985 -0.1758  0.1919
 2332SOL    HW118458   4.175   3.508   6.637  3.0179 -0.4862  1.2795
 2332SOL    HW218459   4.079   3.416   6.635  0.0894 -0.1793 -0.8652
 2333SOL     OW18460   1.370   2.581   9.662  0.4875  0.3572 -0.2608
 2333SOL    HW118461   1.377   2.637   9.740 -0.6916  1.6115 -1.0694
 2333SOL    HW218462   1.461   2.553   9.667  0.1825 -0.5512  0.2567
 2334SOL     OW18463   3.221   2.874  12.391  0.0579 -0.0307 -0.1039
 2334SOL    HW118464   3.254   2.812  12.456  0.9782 -0.5140 -1.0491
 2334SOL    HW218465   3.296   2.882  12.332  0.8567  2.8358  1.2328
 2335SOL     OW18466   2.048   3.940   4.890  0.0781  0.4294 -0.2039
 2335SOL    HW118467   2.102   3.955   4.812  0.7999  0.2744  0.2591
 2335SOL    HW218468   1.988   3.882   4.844 -1.3727  1.0241  0.9312
 2336SOL     OW18469   2.783   3.252   9.754  0.5365 -0.1361  0.0307
 2336SOL    HW118470   2.779   3.345   9.777 -0.6105 -0.4279  0.9761
 2336SOL    HW218471   2.786   3.239   9.659 -0.0118  0.5607 -0.0805
 2337SOL     OW18472   0.959   1.944   0.439  0.7922 -0.0857 -0.6126
 2337SOL    HW118473   0.891   1.930   0.373 -1.5995  2.4802  1.3286
 2337SOL    HW218474   0.917   1.986   0.514 -1.0548 -0.5426 -1.4015
 2338SOL     OW18475   0.347   4.717   6.554  0.1922  0.3463  0.4794
 2338SOL    HW118476   0.381   0.009   6.642  2.4028  0.8527 -0.4881
 2338SOL    HW218477   0.326   0.080   6.526  0.4352  0.5835  1.0486
 2339SOL     OW18478   1.196   4.207   4.704  0.2246  0.1285 -0.1570
 2339SOL    HW118479   1.200   4.301   4.724 -0.3534  0.1736 -0.2540
 2339SOL    HW218480   1.114   4.174   4.741 -0.6829  0.6644 -1.6643
 2340SOL     OW18481   2.493   3.643   0.423 -0.1790  0.0726  0.0172
 2340SOL    HW118482   2.484   3.653   0.328  2.0208 -0.6138 -0.2525
 2340SOL    HW218483   2.438   3.710   0.464 -2.9955  0.3278 -4.1908
 2341SOL     OW18484   0.400   0.879  16.383  0.0557  0.2408 -0.3347
 2341SOL    HW118485   0.414   0.891  16.289 -0.5591 -1.4503 -0.6357
 2341SOL    HW218486   0.327   0.936  16.403 -0.4261 -0.3149 -0.5199
 2342SOL     OW18487   4.114   1.437  16.111 -0.5061 -0.3068  0.4061
 2342SOL    HW118488   4.065   1.517  16.093 -1.8598 -1.6620 -2.0616
 2342SOL    HW218489   4.072   1.404  16.190  0.1459 -0.7078  0.5884
 2343SOL     OW18490   3.428   0.141   4.414  0.1359  0.3385  0.1121
 2343SOL    HW118491   3.431   0.053   4.450 -0.9680  0.6527  0.9875
 2343SOL    HW218492   3.346   0.138   4.365  0.9092 -0.3550 -1.1343
 2344SOL     OW18493   3.775   2.874  17.239 -0.1932 -0.1837  0.3133
 2344SOL    HW118494   3.861   2.878  17.281 -1.1396 -2.7083  2.4649
 2344SOL    HW218495   3.718   2.895  17.312  2.0473  0.9472  1.7679
 2345SOL     OW18496   3.114   2.407   4.630 -0.6306  0.1804 -0.2900
 2345SOL    HW118497   3.184   2.473   4.626 -0.1021 -0.4088 -0.7401
 2345SOL    HW218498   3.170   2.329   4.628 -1.0046 -0.0747 -0.9415
 2346SOL     OW18499   1.233   1.123  15.301 -0.0143 -0.0857 -0.9601
 2346SOL    HW118500   1.247   1.053  15.237  0.5801 -0.7576 -0.0953
 2346SOL    HW218501   1.183   1.083  15.372  0.2832  1.5477  0.1506
 2347SOL     OW18502   4.289   4.397   5.411 -0.2766  0.2122  0.1010
 2347SOL    HW118503   4.229   4.323   5.425 -0.2427  0.3125  0.7450
 2347SOL    HW218504   4.238   4.473   5.384 -0.7840  0.2261  1.1008
 2348SOL     OW18505   2.910   2.201   6.178 -0.1359  0.3620 -0.2473
 2348SOL    HW118506   2.940   2.111   6.165 -0.4983  0.1442  0.4398
 2348SOL    HW218507   2.882   2.216   6.087  0.4946 -1.2877 -0.7187
 2349SOL     OW18508   3.772   2.532  15.777 -0.1701 -0.4456 -0.0862
 2349SOL    HW118509   3.737   2.578  15.701  0.7531 -0.0716 -0.2825
 2349SOL    HW218510   3.818   2.604  15.820 -2.5429  0.7457  0.4577
 2350SOL     OW18511   0.507   4.314   6.170 -0.1973  0.1779  0.5425
 2350SOL    HW118512   0.481   4.383   6.231 -0.9843  0.8254 -0.5334
 2350SOL    HW218513   0.580   4.278   6.221  0.1350 -0.4345 -0.3724
 2351SOL     OW18514   3.698   0.129   3.175 -0.2044  0.0302  0.0487
 2351SOL    HW118515   3.673   0.037   3.170  1.4050 -0.3640 -0.5556
 2351SOL    HW218516   3.709   0.145   3.269 -2.3162 -2.3690  0.7287
 2352SOL     OW18517   3.607   2.729   6.351 -0.2510  0.0385 -0.9167
 2352SOL    HW118518   3.672   2.778   6.401 -0.3874 -0.6950 -0.0181
 2352SOL    HW218519   3.585   2.801   6.292  0.1817  1.3154  0.4589
 2353SOL     OW18520   3.401   1.371   2.934  0.6571  0.4589  0.2902
 2353SOL    HW118521   3.427   1.441   2.874  0.4108  1.0491  0.8740
 2353SOL    HW218522   3.425   1.291   2.888  1.3536  1.1224 -0.4969
 2354SOL     OW18523   2.630   1.307  15.314 -0.7961 -0.3194 -0.1319
 2354SOL    HW118524   2.709   1.344  15.275 -1.1720  1.2329  0.6078
 2354SOL    HW218525   2.564   1.375  15.308 -3.0407 -2.6479 -1.8284
 2355SOL     OW18526   4.361   3.324  16.595 -0.2363  1.0777  0.4218
 2355SOL    HW118527   4.282   3.270  16.585  0.1418  0.5191  0.4679
 2355SOL    HW218528   4.395   3.299  16.509  0.1125  2.0745  0.2721
 2356SOL     OW18529   0.818   3.019   3.157  0.0147  0.3009 -0.3389
 2356SOL    HW118530   0.872   3.003   3.234 -2.7447  1.1545  1.7847
 2356SOL    HW218531   0.849   2.950   3.099  1.1201  1.4671 -1.1301
 2357SOL     OW18532   1.557   3.714  13.621 -0.3626 -0.3366 -0.1237
 2357SOL    HW118533   1.627   3.739  13.681 -1.4282  1.9280  0.1951
 2357SOL    HW218534   1.546   3.619  13.626 -0.0876 -0.2970  1.2169
 2358SOL     OW18535   3.761   3.747  14.353 -0.1966  0.0475  0.3115
 2358SOL    HW118536   3.717   3.781  14.431 -0.0226 -2.4173  1.4676
 2358SOL    HW218537   3.753   3.823  14.295 -2.2044  0.1672  0.7248
 2359SOL     OW18538   0.328   4.625   5.000  0.2600 -0.0580 -0.2805
 2359SOL    HW118539   0.245   4.673   4.993 -1.0042 -1.8955  2.0684
 2359SOL    HW218540   0.309   4.563   5.070 -2.3946  1.1640  0.0845
 2360SOL     OW18541   4.721   2.064  13.518  0.2934 -0.5505  0.1660
 2360SOL    HW118542   4.689   2.088  13.431 -0.0221 -0.1150  0.4019
 2360SOL    HW218543   4.645   2.020  13.557 -0.4820 -0.4995 -1.2945
 2361SOL     OW18544   1.092   3.651   2.141  0.1740  0.2086  0.7014
 2361SOL    HW118545   1.061   3.683   2.056 -1.2928 -1.4023  0.6226
 2361SOL    HW218546   1.086   3.738   2.179  1.2698  0.5164  0.1552
 2362SOL     OW18547   2.033   0.500  12.556  0.2548 -0.2476  0.4835
 2362SOL    HW118548   1.961   0.443  12.582 -1.6910  1.5392 -0.9704
 2362SOL    HW218549   2.072   0.498  12.643  0.6228  1.7340  0.3735
 2363SOL     OW18550   4.387   4.042  15.567 -0.2712 -0.1906 -0.4652
 2363SOL    HW118551   4.462   4.096  15.545  0.5966 -1.1104  0.2480
 2363SOL    HW218552   4.377   4.058  15.660 -1.2408  2.3654 -1.0159
 2364SOL     OW18553   3.407   0.950   4.348 -0.3511  0.4615  0.2179
 2364SOL    HW118554   3.319   0.932   4.315 -0.7679  3.8631 -0.4467
 2364SOL    HW218555   3.453   0.877   4.304  0.7751  0.2868  1.6917
 2365SOL     OW18556   1.466   4.014   4.286  0.5679 -0.3170 -0.0728
 2365SOL    HW118557   1.426   4.013   4.373  0.8339  0.0772  0.0549
 2365SOL    HW218558   1.535   4.079   4.301  1.2727 -1.1056  0.1228
 2366SOL     OW18559   0.422   3.829  14.693 -0.2968 -0.3756 -0.3256
 2366SOL    HW118560   0.431   3.851  14.786 -2.5611  0.5140 -0.3318
 2366SOL    HW218561   0.421   3.911  14.643  0.9073  0.7439  1.4815
 2367SOL     OW18562   2.577   1.297   6.388  0.1967  0.2527  0.7337
 2367SOL    HW118563   2.544   1.314   6.300  0.8317  2.5845  0.9416
 2367SOL    HW218564   2.669   1.275   6.375 -0.7041 -3.9451  1.4581
 2368SOL     OW18565   3.765   2.678   2.776  0.6581  0.3126  0.3839
 2368SOL    HW118566   3.682   2.660   2.821  0.6046  1.0396  0.5671
 2368SOL    HW218567   3.814   2.728   2.841 -1.2049  1.4273  0.9236
 2369SOL     OW18568   4.454   3.434   8.050 -0.3240 -0.0887  0.0736
 2369SOL    HW118569   4.488   3.522   8.029  1.5657 -0.8008  0.1549
 2369SOL    HW218570   4.524   3.405   8.109 -0.5216  0.7645  0.7403
 2370SOL     OW18571   0.935   1.563   8.055  0.0824  1.3806 -0.1293
 2370SOL    HW118572   0.908   1.642   8.008 -3.0224 -0.0217 -0.7006
 2370SOL    HW218573   1.015   1.527   8.018 -0.3618  2.2337 -1.9395
 2371SOL     OW18574   2.587   3.927   1.791  0.5804  0.4494  0.0055
 2371SOL    HW118575   2.502   3.962   1.762 -0.3911 -0.0772  2.2425
 2371SOL    HW218576   2.642   3.946   1.715  0.0097 -0.5667 -0.6569
 2372SOL     OW18577   0.444   1.561   4.706  0.7331  0.0056  0.0273
 2372SOL    HW118578   0.350   1.577   4.695  0.6107  0.3614  1.5600
 2372SOL    HW218579   0.470   1.514   4.627 -1.1393 -0.7647 -0.1285
 2373SOL     OW18580   4.415   2.566  15.613 -0.5555  0.0476  0.3580
 2373SOL    HW118581   4.371   2.591  15.532 -0.5321 -0.4941  0.1792
 2373SOL    HW218582   4.425   2.471  15.610  1.6863  0.3275 -0.7349
 2374SOL     OW18583   2.087   4.560   3.569 -0.9596 -0.1941 -0.2872
 2374SOL    HW118584   2.103   4.544   3.662 -1.2456 -0.5857 -0.3064
 2374SOL    HW218585   2.159   4.505   3.537 -0.0668  1.7037 -1.5326
 2375SOL     OW18586   3.242   1.903   3.393 -0.6324 -0.4829 -0.2796
 2375SOL    HW118587   3.318   1.960   3.405 -0.9472 -0.2044  0.3763
 2375SOL    HW218588   3.202   1.910   3.480  0.0930  1.1430 -0.0770
 2376SOL     OW18589   2.717   2.216   3.854  0.6143  0.1105  0.3585
 2376SOL    HW118590   2.736   2.215   3.761  0.1357 -1.5206  0.2822
 2376SOL    HW218591   2.747   2.131   3.886  2.5417  1.0280  1.0243
 2377SOL     OW18592   0.846   4.701  16.941 -0.3468  0.5860 -0.2985
 2377SOL    HW118593   0.757   4.709  16.906 -0.4909  1.3100  0.2356
 2377SOL    HW218594   0.860   0.061  16.982  1.1030  0.1146  0.1721
 2378SOL     OW18595   1.102   2.475   6.241  0.4252 -0.2432  0.2440
 2378SOL    HW118596   1.138   2.476   6.152 -0.3047  0.5703 -0.0393
 2378SOL    HW218597   1.142   2.396   6.277 -1.4993 -1.6037 -0.6011
 2379SOL     OW18598   2.808   3.043  13.867  0.5802  0.8012 -0.2827
 2379SOL    HW118599   2.895   3.059  13.905  1.0556  0.5355 -1.2521
 2379SOL    HW218600   2.819   3.053  13.773  1.2707 -0.5194 -0.3458
 2380SOL     OW18601   0.634   0.387   8.687 -0.2450  0.0637 -0.4766
 2380SOL    HW118602   0.678   0.385   8.772 -0.7519 -1.3328 -0.2620
 2380SOL    HW218603   0.545   0.418   8.704 -0.4955 -1.8884  1.7019
 2381SOL     OW18604   4.580   3.071   9.534 -0.1257 -0.1300  0.5854
 2381SOL    HW118605   4.630   3.114   9.603 -0.1963  0.8238  0.0401
 2381SOL    HW218606   4.574   2.986   9.578 -0.8279 -0.6157 -0.4638
 2382SOL     OW18607   0.882   3.091   4.917 -0.0157 -0.0913  0.1035
 2382SOL    HW118608   0.924   3.019   4.965  1.1559  2.2444  2.5928
 2382SOL    HW218609   0.965   3.127   4.886  0.9312  0.5444  3.3804
 2383SOL     OW18610   2.353   4.427   4.398  0.4126 -0.1702  0.5738
 2383SOL    HW118611   2.438   4.467   4.382 -1.0254  3.3006  1.4146
 2383SOL    HW218612   2.304   4.461   4.323 -0.5118 -1.6909  0.4969
 2384SOL     OW18613   0.976   4.371   5.004  0.1886 -0.3986 -0.6180
 2384SOL    HW118614   0.987   4.408   5.091  0.7199 -2.0919  0.0520
 2384SOL    HW218615   1.035   4.423   4.950  0.0134  2.3870  1.9055
 2385SOL     OW18616   0.308   2.867   3.401  0.7477 -0.2471 -0.4156
 2385SOL    HW118617   0.395   2.891   3.432 -0.4070  1.9964  1.0835
 2385SOL    HW218618   0.257   2.849   3.480 -0.1738  2.6232 -0.3363
 2386SOL     OW18619   1.530   0.743   2.099  0.0079 -0.1973  0.3265
 2386SOL    HW118620   1.517   0.720   2.007  1.8592 -2.5917  0.6659
 2386SOL    HW218621   1.589   0.818   2.099  0.8060 -0.8312 -0.8513
 2387SOL     OW18622   0.126   3.191   6.339 -0.6914 -0.4999 -0.0330
 2387SOL    HW118623   0.187   3.257   6.369  1.3709 -2.8447  0.9230
 2387SOL    HW218624   0.100   3.228   6.255  1.9187  0.7003 -0.3035
 2388SOL     OW18625   2.761   1.912  17.290  0.5056  0.0505  0.8249
 2388SOL    HW118626   2.791   2.000  17.265  1.9424 -0.4194  0.8914
 2388SOL    HW218627   2.671   1.938  17.308  0.4892 -1.9232  3.5127
 2389SOL     OW18628   3.112   4.087   7.038  0.3215  0.5813  0.0800
 2389SOL    HW118629   3.159   4.004   7.044 -0.1613  0.0435 -3.3446
 2389SOL    HW218630   3.107   4.110   7.130  0.5193 -0.4208  0.3438
 2390SOL     OW18631   0.875   4.495   9.081  0.1274  0.0723  0.1256
 2390SOL    HW118632   0.967   4.477   9.062  0.3936  0.9699  0.5942
 2390SOL    HW218633   0.884   4.583   9.118 -0.9855  0.0600  0.4242
 2391SOL     OW18634   1.077   3.253   2.996 -0.2598  0.9761 -0.0762
 2391SOL    HW118635   1.029   3.308   2.935 -0.4484  0.5654 -0.2954
 2391SOL    HW218636   1.028   3.249   3.078 -1.4240 -2.7820 -0.9663
 2392SOL     OW18637   3.160   0.922   4.217  0.1080 -0.1925  0.1708
 2392SOL    HW118638   3.099   0.854   4.246  0.8570  0.1751  2.5983
 2392SOL    HW218639   3.147   0.916   4.123  0.0293 -1.4078  0.2618
 2393SOL     OW18640   3.087   2.710   6.333 -0.5464 -0.2027  0.6129
 2393SOL    HW118641   3.017   2.646   6.350 -1.6019  0.8586  0.1924
 2393SOL    HW218642   3.146   2.654   6.283  1.1823  0.2764  2.1264
 2394SOL     OW18643   3.732   0.227  13.373  0.2706 -0.2445  0.7660
 2394SOL    HW118644   3.768   0.139  13.363  0.6343 -0.0270  0.1547
 2394SOL    HW218645   3.684   0.234  13.290  2.4953 -0.9481 -0.5806
 2395SOL     OW18646   2.352   3.241   3.278 -0.3089  0.5432 -0.2218
 2395SOL    HW118647   2.318   3.153   3.291 -0.2809  0.5589 -0.0360
 2395SOL    HW218648   2.287   3.271   3.215  0.3827  0.6051 -0.9085
 2396SOL     OW18649   0.097   0.558   2.148  0.3904 -0.0956 -0.2081
 2396SOL    HW118650   0.101   0.470   2.184  1.4482 -0.1307 -0.3861
 2396SOL    HW218651   0.189   0.576   2.124  0.6893 -0.5121  0.6456
 2397SOL     OW18652   3.021   3.967   6.182  0.0526  0.2974  0.1145
 2397SOL    HW118653   2.954   3.918   6.230  2.5886 -1.7940  1.4973
 2397SOL    HW218654   3.010   3.941   6.090  0.5491 -1.4955  0.5475
 2398SOL     OW18655   1.815   2.527   6.697  0.0077  0.4235  0.1593
 2398SOL    HW118656   1.748   2.552   6.760  0.7278  1.9444  0.3241
 2398SOL    HW218657   1.827   2.610   6.652  2.1039 -0.2323 -0.5001
 2399SOL     OW18658   2.521   0.108   0.940  0.0004  0.2336  0.0755
 2399SOL    HW118659   2.595   0.141   0.991 -1.6516  0.9554  1.9850
 2399SOL    HW218660   2.449   0.119   1.002  0.0705  1.7574 -0.1147
 2400SOL     OW18661   3.796   4.525  15.245  0.0361  0.5144 -0.1615
 2400SOL    HW118662   3.713   4.500  15.286 -0.4115  1.2478 -0.6188
 2400SOL    HW218663   3.828   4.448  15.198  1.3193  1.0158 -0.1083
 2401SOL     OW18664   1.120   1.700  11.244 -0.6373  0.0271 -0.1109
 2401SOL    HW118665   1.114   1.775  11.184  1.7229  0.2962 -0.0092
 2401SOL    HW218666   1.028   1.680  11.262  0.2586 -0.0506  4.2268
 2402SOL     OW18667   1.403   0.576   1.892 -0.3105 -0.3638  0.5232
 2402SOL    HW118668   1.313   0.546   1.892  0.2899 -2.2152 -2.5749
 2402SOL    HW218669   1.444   0.509   1.946  0.3558 -1.2092 -1.0282
 2403SOL     OW18670   0.080   1.615  17.025 -0.1943 -0.5517 -0.0346
 2403SOL    HW118671   0.075   1.698  17.073  0.1833 -3.1573  4.4724
 2403SOL    HW218672   0.165   1.631  16.983 -1.6800 -0.4787 -3.0247
 2404SOL     OW18673   1.353   2.744   8.653  0.2299 -0.0194 -0.1287
 2404SOL    HW118674   1.297   2.821   8.665 -1.3730 -1.4135  1.2945
 2404SOL    HW218675   1.425   2.788   8.608  0.5259 -1.4112 -0.9961
 2405SOL     OW18676   3.855   1.321   7.118  0.8223  0.2106 -0.1403
 2405SOL    HW118677   3.775   1.339   7.068  0.3539  1.7328  1.1655
 2405SOL    HW218678   3.918   1.392   7.109 -2.7193  3.3048 -0.2903
 2406SOL     OW18679   4.087   4.342   8.806 -0.1696  0.6168  0.0871
 2406SOL    HW118680   4.165   4.331   8.860  0.4158 -2.6193 -1.4203
 2406SOL    HW218681   4.130   4.359   8.722 -1.2417 -2.5556 -1.1284
 2407SOL     OW18682   2.204   4.274   7.273  0.5716 -0.6676 -0.0304
 2407SOL    HW118683   2.176   4.340   7.209  2.1038 -1.8800 -1.9654
 2407SOL    HW218684   2.138   4.273   7.342  0.8710 -1.6639  0.2347
 2408SOL     OW18685   3.343   2.329   8.166  0.4374 -0.1855 -0.6479
 2408SOL    HW118686   3.250   2.332   8.143  0.2941 -0.8847 -0.1566
 2408SOL    HW218687   3.340   2.395   8.236 -1.6646 -0.9691 -0.0119
 2409SOL     OW18688   3.841   2.007  12.472 -0.3244 -0.4179 -0.2204
 2409SOL    HW118689   3.891   2.035  12.549 -0.2047 -0.0200 -0.4408
 2409SOL    HW218690   3.913   1.961  12.428 -1.2848 -2.1844  0.0704
 2410SOL     OW18691   3.978   0.245  17.697  0.3016 -0.6771 -0.3057
 2410SOL    HW118692   4.045   0.176  17.695  0.0292 -0.9566  0.0644
 2410SOL    HW218693   3.967   0.270  17.606 -1.1776  0.1514  0.1105
 2411SOL     OW18694   1.949   3.481   1.986 -0.1230  0.0621  0.4270
 2411SOL    HW118695   1.912   3.413   1.930  0.6300 -0.5062  0.6083
 2411SOL    HW218696   1.871   3.504   2.035  0.1206  0.7240  0.5091
 2412SOL     OW18697   0.147   2.168  16.433  0.1171 -0.0746  0.2404
 2412SOL    HW118698   0.237   2.194  16.414 -0.4249 -0.3489 -2.7138
 2412SOL    HW218699   0.165   2.121  16.514  3.0718 -1.9205 -1.4605
 2413SOL     OW18700   1.598   1.611   0.489  0.7725 -0.7347  0.0719
 2413SOL    HW118701   1.635   1.695   0.460 -2.0019  0.3903 -0.2092
 2413SOL    HW218702   1.504   1.623   0.473  1.0023 -0.4567 -1.0794
 2414SOL     OW18703   2.382   2.997   4.362 -0.0718 -0.0928 -0.1242
 2414SOL    HW118704   2.391   3.004   4.457  0.0076 -0.9214 -0.0689
 2414SOL    HW218705   2.413   2.910   4.336 -0.6703 -0.4649  0.3785
 2415SOL     OW18706   0.894   0.366   3.055 -0.0113  0.3895 -0.3640
 2415SOL    HW118707   0.889   0.330   3.144  0.4220 -0.2794 -0.6155
 2415SOL    HW218708   0.984   0.399   3.047  0.0893  0.4267  0.8306
 2416SOL     OW18709   0.537   0.584   5.058 -0.0707  0.0758  0.4745
 2416SOL    HW118710   0.618   0.595   5.008  0.3516  0.2277  1.1775
 2416SOL    HW218711   0.471   0.608   4.994 -0.5279  1.1346  1.3223
 2417SOL     OW18712   2.640   2.881   7.582 -0.1848 -0.2251  0.0246
 2417SOL    HW118713   2.681   2.920   7.659  1.1168 -0.6643 -0.4314
 2417SOL    HW218714   2.649   2.790   7.609 -1.3411 -0.1246  0.7060
 2418SOL     OW18715   0.229   4.517   3.258  0.5583  0.2459 -0.2532
 2418SOL    HW118716   0.245   4.438   3.206 -2.1375 -1.1722  1.0682
 2418SOL    HW218717   0.194   4.570   3.187  1.6566 -0.3341 -1.2372
 2419SOL     OW18718   2.938   0.326   8.352 -0.4846  0.2620 -0.3520
 2419SOL    HW118719   2.995   0.402   8.364  0.1339 -0.6096  2.1500
 2419SOL    HW218720   2.909   0.355   8.265  0.1244 -0.2556 -0.7247
 2420SOL     OW18721   2.871   1.871  12.258 -0.0277 -0.3272  0.0175
 2420SOL    HW118722   2.903   1.793  12.302  1.5767  1.0821  1.3671
 2420SOL    HW218723   2.949   1.903  12.212 -0.7228  2.2710  0.6249
 2421SOL     OW18724   1.790   3.638   3.353  0.0226 -0.3246 -0.5093
 2421SOL    HW118725   1.834   3.599   3.429 -1.9788 -2.1568 -0.2937
 2421SOL    HW218726   1.719   3.674   3.406 -0.6327 -0.2003 -1.4732
 2422SOL     OW18727   2.759   1.363   8.623  0.0448 -0.4337  0.5524
 2422SOL    HW118728   2.746   1.446   8.576 -0.0731 -0.2374  0.9323
 2422SOL    HW218729   2.752   1.302   8.549 -1.5320 -0.3484  0.6487
 2423SOL     OW18730   2.269   2.099   8.254  0.0786  0.4083 -0.7148
 2423SOL    HW118731   2.280   2.106   8.159 -0.8356  2.1571 -0.6855
 2423SOL    HW218732   2.179   2.132   8.261  0.2316  0.6833 -0.0836
 2424SOL     OW18733   1.973   4.265   1.388 -0.2822 -0.0924 -0.5899
 2424SOL    HW118734   2.031   4.194   1.416  0.8203  1.1701  0.3559
 2424SOL    HW218735   1.961   4.237   1.298 -1.1799  1.2710 -0.8872
 2425SOL     OW18736   3.532   3.157   9.506  0.0987 -0.3689 -0.1363
 2425SOL    HW118737   3.525   3.073   9.462  0.4470 -0.7709  0.5744
 2425SOL    HW218738   3.453   3.153   9.559  1.2640  2.6094  1.8162
 2426SOL     OW18739   0.773   3.045  12.375 -0.2514 -0.1422  0.4341
 2426SOL    HW118740   0.767   3.140  12.385  1.7257  0.0600 -0.5004
 2426SOL    HW218741   0.691   3.022  12.331 -1.1665  0.7617  1.6620
 2427SOL     OW18742   2.621   3.951  17.048  0.4485 -0.4942 -0.3174
 2427SOL    HW118743   2.527   3.950  17.030 -0.1570 -1.5010  2.9303
 2427SOL    HW218744   2.635   3.890  17.120  2.4935  2.7076  2.0369
 2428SOL     OW18745   2.999   0.719   4.294  0.0413  0.2993  0.2228
 2428SOL    HW118746   3.013   0.650   4.359  1.7223  1.2675  0.8784
 2428SOL    HW218747   3.027   0.666   4.219 -1.4356 -1.9121  1.2184
 2429SOL     OW18748   0.668   3.405   6.023  0.3735 -0.3528  0.2497
 2429SOL    HW118749   0.656   3.471   6.091 -0.5040  0.0928 -0.3358
 2429SOL    HW218750   0.580   3.366   6.024 -0.9476  2.6716  2.1319
 2430SOL     OW18751   4.547   0.693   7.078 -0.7073  0.2175 -0.4940
 2430SOL    HW118752   4.628   0.653   7.111 -2.1150 -1.7669  0.5272
 2430SOL    HW218753   4.513   0.741   7.153  0.4760  0.5349 -0.1554
 2431SOL     OW18754   2.146   1.655   9.963  0.1384 -0.1195  0.5936
 2431SOL    HW118755   2.189   1.569   9.971 -0.3221 -0.3823  0.2535
 2431SOL    HW218756   2.092   1.644  10.041  0.4947 -0.0150  0.8550
 2432SOL     OW18757   0.444   3.416  13.955 -0.3407 -0.3922 -0.3952
 2432SOL    HW118758   0.407   3.372  13.879 -0.6734  0.4324 -0.7051
 2432SOL    HW218759   0.362   3.455  13.984  0.2322 -1.1505  2.2778
 2433SOL     OW18760   4.495   3.310   0.536  0.0945 -0.5751 -0.7577
 2433SOL    HW118761   4.452   3.264   0.609  2.1337 -1.8170 -0.3611
 2433SOL    HW218762   4.475   3.247   0.468  0.2873  1.0100 -2.2732
 2434SOL     OW18763   4.193   4.059   3.828 -0.4302 -0.4942 -0.7324
 2434SOL    HW118764   4.286   4.079   3.835 -0.5272 -0.1975 -0.2906
 2434SOL    HW218765   4.159   4.094   3.910  1.0670 -0.0259 -0.3151
 2435SOL     OW18766   3.604   3.412   7.757  0.3951 -0.4923  0.4355
 2435SOL    HW118767   3.509   3.423   7.762  0.5745 -0.2826  3.1060
 2435SOL    HW218768   3.627   3.399   7.849  0.6875 -0.8101  0.3182
 2436SOL     OW18769   0.983   0.053   9.474 -0.1798  0.3435  0.3839
 2436SOL    HW118770   1.025   0.006   9.546 -0.6572 -0.4647  0.1317
 2436SOL    HW218771   0.974   0.139   9.515  3.7344  0.3503  1.2205
 2437SOL     OW18772   1.776   2.678   0.232  0.0928 -0.8765 -0.0006
 2437SOL    HW118773   1.762   2.772   0.217  3.1571 -0.0540  2.3005
 2437SOL    HW218774   1.802   2.643   0.146  0.0990 -0.0599 -0.3301
 2438SOL     OW18775   0.304   0.502   4.697 -0.1746  0.1442  0.2458
 2438SOL    HW118776   0.353   0.580   4.723 -0.9160  1.0396 -1.0952
 2438SOL    HW218777   0.252   0.544   4.630 -0.4714 -1.1250 -0.3285
 2439SOL     OW18778   1.704   0.944   2.154 -0.1942 -0.1676  0.3447
 2439SOL    HW118779   1.762   1.020   2.149 -0.1842 -0.1408  0.8707
 2439SOL    HW218780   1.707   0.924   2.247  1.3274 -0.3436  0.2522
 2440SOL     OW18781   3.948   1.122   9.265 -0.1898 -0.1528 -0.0470
 2440SOL    HW118782   3.878   1.142   9.203 -1.2296 -0.5520  0.9931
 2440SOL    HW218783   4.013   1.090   9.202  1.2203 -0.2648  1.4783
 2441SOL     OW18784   4.305   3.122   7.073  0.0220  0.1499  0.2475
 2441SOL    HW118785   4.261   3.147   6.992  1.9381  2.2967 -0.1122
 2441SOL    HW218786   4.237   3.081   7.126 -3.2225  3.7191 -1.1594
 2442SOL     OW18787   2.818   4.495  13.742 -0.1958 -0.2141 -0.8249
 2442SOL    HW118788   2.909   4.517  13.760 -0.6641  1.1051 -0.0186
 2442SOL    HW218789   2.815   4.406  13.706 -0.9960 -1.0545  1.3407
 2443SOL     OW18790   4.645   3.317   8.683  0.4416  0.0665 -0.3383
 2443SOL    HW118791   4.577   3.276   8.736 -0.9902  1.6755 -0.9424
 2443SOL    HW218792   4.640   3.270   8.600 -0.5303  0.5377 -0.5462
 2444SOL     OW18793   3.444   1.531   2.745  0.3839  0.1918  0.0483
 2444SOL    HW118794   3.427   1.623   2.723  0.4505  0.4434  1.0784
 2444SOL    HW218795   3.370   1.497   2.694  0.2710 -0.3110  0.5524
 2445SOL     OW18796   0.172   3.665   0.724 -0.1239 -0.3498 -0.0240
 2445SOL    HW118797   0.168   3.703   0.636 -4.4627  0.4839  0.5724
 2445SOL    HW218798   0.265   3.642   0.730 -0.3406 -1.0896  0.4972
 2446SOL     OW18799   3.203   0.290   3.155 -0.2356 -0.2931 -0.3591
 2446SOL    HW118800   3.116   0.322   3.176 -0.0947  0.0406 -0.2807
 2446SOL    HW218801   3.246   0.375   3.142  2.1100 -1.7150 -1.8986
 2447SOL     OW18802   2.520   3.115  11.787  0.3198 -0.1193  0.2339
 2447SOL    HW118803   2.573   3.145  11.861  2.5851 -0.1051 -1.4047
 2447SOL    HW218804   2.586   3.114  11.718  0.7394  2.0357  0.6146
 2448SOL     OW18805   1.942   4.607  17.283  0.3163  0.4064 -0.6036
 2448SOL    HW118806   1.942   4.659  17.364 -0.4643 -1.7563  0.7871
 2448SOL    HW218807   1.926   4.519  17.319  2.8514  0.3343  0.3658
 2449SOL     OW18808   0.177   1.544   1.273  0.2757 -0.1589  0.0149
 2449SOL    HW118809   0.234   1.470   1.255 -0.8296 -0.5536 -1.8404
 2449SOL    HW218810   0.124   1.503   1.341 -2.5074  2.4173 -0.5579
 2450SOL     OW18811   1.428   4.679   5.458 -0.5223  0.0753  0.8447
 2450SOL    HW118812   1.450   0.024   5.520 -0.7676  0.2258  0.7648
 2450SOL    HW218813   1.366   4.724   5.400  0.8732  0.5301 -0.2885
 2451SOL     OW18814   1.684   1.529  12.040 -0.3454 -0.0902  0.4438
 2451SOL    HW118815   1.685   1.615  11.998  0.4002 -0.1602  0.3074
 2451SOL    HW218816   1.724   1.554  12.124  2.1657 -2.3290 -0.0767
 2452SOL     OW18817   3.202   2.460   1.170 -0.0627 -0.3264  0.1220
 2452SOL    HW118818   3.282   2.456   1.119 -0.9345  3.2728 -1.5637
 2452SOL    HW218819   3.140   2.449   1.098 -0.2905 -2.3710  0.6395
 2453SOL     OW18820   1.782   3.130  15.428  0.5091  0.3425 -0.1633
 2453SOL    HW118821   1.733   3.188  15.486  2.0730  0.9553  0.5441
 2453SOL    HW218822   1.707   3.073  15.413 -0.2371  1.0713  0.8018
 2454SOL     OW18823   4.477   3.195   8.890  0.2335  0.4188  0.0425
 2454SOL    HW118824   4.535   3.141   8.943 -0.0720  1.0551  1.0383
 2454SOL    HW218825   4.447   3.260   8.954 -0.0799 -0.1126  0.4363
 2455SOL     OW18826   2.149   4.200   6.793 -0.0039  0.4294 -0.5098
 2455SOL    HW118827   2.219   4.152   6.836 -1.7482 -1.8794 -0.2265
 2455SOL    HW218828   2.188   4.224   6.709  0.4962 -2.1197 -1.0241
 2456SOL     OW18829   2.514   1.956   3.700  0.0315  0.3960  0.3330
 2456SOL    HW118830   2.529   1.861   3.710  0.8172  0.2548 -2.3307
 2456SOL    HW218831   2.463   1.976   3.779 -0.6456 -1.0691  0.2753
 2457SOL     OW18832   2.198   2.829   6.948 -0.0120 -0.1328  0.4247
 2457SOL    HW118833   2.282   2.849   6.907  1.4239 -0.2930  3.2757
 2457SOL    HW218834   2.215   2.742   6.985 -0.2243 -0.3296  0.0605
 2458SOL     OW18835   1.265   4.623  14.545  0.0600 -0.0218 -0.3035
 2458SOL    HW118836   1.209   4.662  14.478 -0.3332 -0.1607 -0.0565
 2458SOL    HW218837   1.338   4.628  14.483 -1.4834  2.4111 -1.9255
 2459SOL     OW18838   4.249   0.052   1.750 -0.4492  0.1045  0.0312
 2459SOL    HW118839   4.308   0.127   1.751  0.0531 -0.2476 -2.9364
 2459SOL    HW218840   4.306   4.720   1.698  0.7121  0.9430  0.3901
 2460SOL     OW18841   0.063   1.904   5.107  0.0733  0.4827 -0.1755
 2460SOL    HW118842   0.045   1.952   5.026  1.0520  0.1676 -0.5786
 2460SOL    HW218843   4.706   1.921   5.154 -0.7224  0.3005 -1.4787
 2461SOL     OW18844   2.188   0.973   6.675  0.6060 -0.5039  0.7810
 2461SOL    HW118845   2.119   0.930   6.624 -1.2412  1.7055  1.3843
 2461SOL    HW218846   2.253   0.982   6.605 -0.5154 -1.8799 -0.4549
 2462SOL     OW18847   0.065   3.668   2.399 -0.5317 -0.4469  0.1918
 2462SOL    HW118848   4.715   3.640   2.346 -1.2416 -1.4782  1.7374
 2462SOL    HW218849   0.042   3.651   2.490  0.4709 -0.2460  0.4816
 2463SOL     OW18850   2.247   2.250   2.005  0.3587 -0.1127  0.2673
 2463SOL    HW118851   2.215   2.162   2.023  0.5515 -0.1201  0.5866
 2463SOL    HW218852   2.290   2.226   1.923 -2.1015  2.4974 -1.8035
 2464SOL     OW18853   1.851   0.254   0.621  0.0707 -0.2332 -0.0078
 2464SOL    HW118854   1.903   0.332   0.638  1.1430 -1.2820  1.4805
 2464SOL    HW218855   1.768   0.298   0.641  1.8068  1.8914  2.5064
 2465SOL     OW18856   1.381   4.078  15.820 -0.3041 -0.1893 -0.0808
 2465SOL    HW118857   1.415   4.167  15.822 -2.7285  0.6719  1.9876
 2465SOL    HW218858   1.352   4.056  15.731  0.6975 -1.9649  0.0338
 2466SOL     OW18859   4.238   3.288   3.551 -0.5363  0.0424  0.2386
 2466SOL    HW118860   4.153   3.255   3.522  0.6110 -3.0852  0.4448
 2466SOL    HW218861   4.244   3.230   3.627 -0.8355  0.4460  0.5709
 2467SOL     OW18862   1.214   3.386  16.101 -0.2707 -0.1965 -0.6609
 2467SOL    HW118863   1.167   3.437  16.168 -1.2978 -0.7070 -0.9917
 2467SOL    HW218864   1.143   3.324  16.082 -0.8711 -0.4856  2.4444
 2468SOL     OW18865   3.407   2.744   5.301 -0.7620 -0.5590  0.0583
 2468SOL    HW118866   3.452   2.668   5.264 -0.5273  0.8944 -2.6067
 2468SOL    HW218867   3.467   2.794   5.356 -0.2640  0.2297 -1.2049
 2469SOL     OW18868   4.345   3.208   9.498  0.0225 -0.6329 -0.0105
 2469SOL    HW118869   4.332   3.301   9.516  0.0529 -0.5305 -0.5080
 2469SOL    HW218870   4.435   3.186   9.524 -0.1794 -1.7345 -0.2627
 2470SOL     OW18871   3.828   1.783   7.852 -0.7388 -0.4442 -0.1460
 2470SOL    HW118872   3.909   1.815   7.813  0.7237 -0.4815  2.8829
 2470SOL    HW218873   3.858   1.731   7.927 -2.0003  0.9748  1.3255
 2471SOL     OW18874   2.842   0.051   2.337  0.0630  0.0908 -0.2940
 2471SOL    HW118875   2.754   0.087   2.325 -0.6754 -1.9372 -0.9789
 2471SOL    HW218876   2.864   0.048   2.244  0.5590 -1.1308 -0.1431
 2472SOL     OW18877   0.583   4.066   9.441 -0.2884  0.5035 -0.1972
 2472SOL    HW118878   0.495   4.034   9.461  1.7589 -1.8643  5.0125
 2472SOL    HW218879   0.590   4.073   9.345  1.8331 -2.6279 -0.2408
 2473SOL     OW18880   2.445   1.237   2.917 -0.2263  0.2918  1.0655
 2473SOL    HW118881   2.438   1.158   2.971 -1.9622 -1.1621 -1.3105
 2473SOL    HW218882   2.488   1.299   2.977  1.5746 -0.5062  0.5941
 2474SOL     OW18883   0.571   3.929  14.913 -0.6634  0.2510 -0.1548
 2474SOL    HW118884   0.663   3.910  14.932 -0.8968 -0.0532  0.6845
 2474SOL    HW218885   0.558   3.996  14.981 -1.5274  0.8267 -0.8862
 2475SOL     OW18886   3.923   2.092   7.021  0.4352  0.3708  0.2447
 2475SOL    HW118887   3.846   2.072   7.075 -0.8781  2.9308 -0.6467
 2475SOL    HW218888   3.932   2.185   7.045 -1.1933 -0.0704  2.6434
 2476SOL     OW18889   2.525   0.814   8.684 -0.3177  0.2788  0.0971
 2476SOL    HW118890   2.567   0.883   8.735  0.5088  0.9877 -1.5292
 2476SOL    HW218891   2.433   0.839   8.691  0.0382  1.2001  1.5443
 2477SOL     OW18892   0.020   4.508   5.455 -0.0511 -0.4877 -0.4372
 2477SOL    HW118893   4.717   4.475   5.370 -0.8600  2.2834 -1.2316
 2477SOL    HW218894   4.666   4.498   5.508 -0.5106  2.2779 -0.6226
 2478SOL     OW18895   0.028   3.166   4.536 -0.1216  0.3347  0.0813
 2478SOL    HW118896   0.073   3.244   4.566  0.3268  0.6052 -1.2653
 2478SOL    HW218897   4.667   3.195   4.566 -0.6638  0.4479 -1.5373
 2479SOL     OW18898   0.888   4.004   4.521  0.6466 -0.0486  0.4080
 2479SOL    HW118899   0.970   4.040   4.489  0.1327  1.0768  0.3672
 2479SOL    HW218900   0.895   4.014   4.616  1.5328  2.0676  0.1234
 2480SOL     OW18901   3.496   1.642   8.916 -0.3094 -0.3417 -0.2850
 2480SOL    HW118902   3.546   1.665   8.837  1.0994 -1.3559  0.3017
 2480SOL    HW218903   3.404   1.662   8.901 -0.5859 -0.0002  1.8480
 2481SOL     OW18904   1.278   1.878   6.822 -0.1121  0.7068  0.0303
 2481SOL    HW118905   1.268   1.962   6.779  0.2183  0.1884 -1.0713
 2481SOL    HW218906   1.308   1.903   6.909 -0.1595 -1.6950  0.7490
 2482SOL     OW18907   2.033   3.760   6.746  1.4816  0.1284  0.8697
 2482SOL    HW118908   2.109   3.719   6.786  0.5024 -0.8676  1.7157
 2482SOL    HW218909   2.060   3.762   6.654  0.2674  1.3872  0.5330
 2483SOL     OW18910   2.611   2.770   4.360  0.1834  0.8340  0.6815
 2483SOL    HW118911   2.644   2.680   4.361 -0.9851  0.3821 -1.5759
 2483SOL    HW218912   2.523   2.751   4.392  0.4338 -0.9438  0.3110
 2484SOL     OW18913   2.746   3.819  16.815  0.2043  0.5534  0.8900
 2484SOL    HW118914   2.832   3.858  16.826  0.6074 -0.7367  2.2991
 2484SOL    HW218915   2.688   3.888  16.848  0.6882  1.4062 -0.0765
 2485SOL     OW18916   2.320   0.744   7.335  0.1529 -0.0989 -0.1596
 2485SOL    HW118917   2.292   0.809   7.271 -0.0061 -0.0114 -0.0021
 2485SOL    HW218918   2.248   0.690   7.304 -0.7879  2.2939 -2.1548
 2486SOL     OW18919   4.024   1.551   2.043  0.2536 -0.8451  0.2823
 2486SOL    HW118920   4.100   1.494   2.059  0.5697 -0.1703  1.2014
 2486SOL    HW218921   3.952   1.501   2.082  0.5305 -2.6250 -1.4599
 2487SOL     OW18922   0.502   0.707   2.291  0.5195 -0.2462 -0.2254
 2487SOL    HW118923   0.515   0.684   2.199 -0.5379 -0.3377 -0.3491
 2487SOL    HW218924   0.593   0.715   2.320 -0.0052  0.1551  1.3065
 2488SOL     OW18925   2.138   0.127  11.369 -0.4073 -0.1768  0.1185
 2488SOL    HW118926   2.192   0.158  11.442  1.7231 -1.6897 -0.8003
 2488SOL    HW218927   2.098   0.051  11.411  1.2173 -1.8829 -1.4406
 2489SOL     OW18928   0.376   0.681   2.558 -0.3359 -0.1773 -0.1062
 2489SOL    HW118929   0.386   0.674   2.463 -3.8923 -0.7090 -0.4250
 2489SOL    HW218930   0.290   0.720   2.570 -0.5204 -0.3438 -0.8748
 2490SOL     OW18931   0.373   1.720   6.713  0.0859  1.3850 -0.1985
 2490SOL    HW118932   0.280   1.727   6.733  0.1659 -0.5543  0.8312
 2490SOL    HW218933   0.409   1.766   6.788 -0.5782  2.2140 -0.3913
 2491SOL     OW18934   1.504   1.722   4.966  0.3084 -0.2750  0.7521
 2491SOL    HW118935   1.410   1.703   4.968  0.4550 -1.1516 -0.1644
 2491SOL    HW218936   1.515   1.817   4.960  2.7253 -0.7294 -2.1191
 2492SOL     OW18937   1.157   0.604   2.142  0.6696  0.5082  0.1135
 2492SOL    HW118938   1.179   0.541   2.073  2.7125 -0.1267  1.3353
 2492SOL    HW218939   1.236   0.597   2.196  0.8424  1.7505  0.0215
 2493SOL     OW18940   1.211   3.659   8.899  0.1731  0.4785  0.2474
 2493SOL    HW118941   1.175   3.596   8.837 -1.1158  1.4073  0.0590
 2493SOL    HW218942   1.254   3.722   8.842  0.6481  0.2434  0.3467
 2494SOL     OW18943   3.025   0.638   3.506  0.2962 -0.1634 -0.0736
 2494SOL    HW118944   3.032   0.542   3.502 -0.4951 -0.3039  1.7054
 2494SOL    HW218945   2.970   0.655   3.430 -0.0569 -0.2151  0.1701
 2495SOL     OW18946   3.121   4.512   5.778  0.9877  0.7018 -0.3590
 2495SOL    HW118947   3.215   4.530   5.785  0.7010  2.1636 -0.2150
 2495SOL    HW218948   3.115   4.422   5.808  1.9815  1.2185  1.4118
 2496SOL     OW18949   0.131   3.350  10.566  0.1547 -0.6830  0.5464
 2496SOL    HW118950   0.219   3.354  10.530  0.7064 -1.2077  1.8429
 2496SOL    HW218951   0.089   3.369  10.482 -0.5718 -2.6966  0.4519
 2497SOL     OW18952   3.378   1.088  16.706 -0.1266  0.5486  0.3170
 2497SOL    HW118953   3.311   1.156  16.714 -1.6151 -0.7559 -1.1395
 2497SOL    HW218954   3.330   1.020  16.755 -1.7091 -0.8244 -3.1438
 2498SOL     OW18955   4.364   2.651  13.635 -0.5764  0.2731 -0.1228
 2498SOL    HW118956   4.369   2.672  13.729  0.8677  1.2573 -0.4127
 2498SOL    HW218957   4.286   2.596  13.630 -0.4748  0.0529  0.6321
 2499SOL     OW18958   2.053   3.751   3.311 -0.7594 -0.0952 -0.3180
 2499SOL    HW118959   2.021   3.826   3.261  1.1421  0.2541 -1.0416
 2499SOL    HW218960   1.971   3.702   3.309  0.3503 -1.9294 -0.6254
 2500SOL     OW18961   0.415   4.024   0.335 -0.2685 -0.0613  0.0446
 2500SOL    HW118962   0.468   3.948   0.360 -2.2258 -1.6336 -0.6299
 2500SOL    HW218963   0.453   4.035   0.248  0.4020  2.1974  0.6223
 2501SOL     OW18964   3.152   3.881   2.377 -0.1211 -0.3003  0.9873
 2501SOL    HW118965   3.140   3.831   2.296 -0.8791 -1.3096  1.7150
 2501SOL    HW218966   3.242   3.851   2.392  0.1197  0.6377  1.3531
 2502SOL     OW18967   1.979   4.640   9.155  0.7599 -0.7575  0.3954
 2502SOL    HW118968   2.031   4.685   9.221  2.4646 -0.0889 -1.3854
 2502SOL    HW218969   1.908   4.602   9.207 -0.0722  0.2287 -0.0064
 2503SOL     OW18970   1.234   1.820   9.491  0.5064  0.2021  0.1107
 2503SOL    HW118971   1.220   1.909   9.460  0.0840 -0.4235 -1.5068
 2503SOL    HW218972   1.146   1.786   9.474  0.6707 -1.4720  2.5582
 2504SOL     OW18973   3.862   1.366   4.586  0.0847  0.2452 -0.3375
 2504SOL    HW118974   3.933   1.345   4.646 -0.3394 -0.0962  0.0439
 2504SOL    HW218975   3.839   1.278   4.556 -1.6022  0.2299  1.0006
 2505SOL     OW18976   1.053   1.382  10.107  0.2208  0.1934  0.1882
 2505SOL    HW118977   1.076   1.392  10.014  0.5562 -0.6572  0.1775
 2505SOL    HW218978   1.106   1.304  10.126 -1.6800 -1.2754 -0.5206
 2506SOL     OW18979   2.077   1.322   7.297 -0.1161 -0.1392 -0.6622
 2506SOL    HW118980   2.150   1.353   7.243  0.7805  0.0303  0.6500
 2506SOL    HW218981   2.045   1.409   7.322  0.2920 -0.8046  2.2382
 2507SOL     OW18982   1.132   2.353   7.700  0.0202 -0.5858 -0.1658
 2507SOL    HW118983   1.088   2.349   7.785 -0.3864 -0.1448 -0.3540
 2507SOL    HW218984   1.054   2.347   7.645 -1.6902 -0.0380  2.1904
 2508SOL     OW18985   4.325   2.339   3.990 -0.8350 -0.8290 -0.1065
 2508SOL    HW118986   4.351   2.416   4.041 -0.9590 -0.3338 -0.7898
 2508SOL    HW218987   4.412   2.325   3.953 -0.2272  0.3563  0.8624
 2509SOL     OW18988   1.833   1.125   4.274  0.6817 -0.1372 -0.4481
 2509SOL    HW118989   1.798   1.042   4.306  1.3997 -0.4111 -0.3710
 2509SOL    HW218990   1.756   1.157   4.227  0.7856  0.0242 -0.5056
 2510SOL     OW18991   0.104   0.632   9.418  0.3049 -0.3466 -0.2101
 2510SOL    HW118992   0.024   0.648   9.366 -0.1034  0.0312  0.5263
 2510SOL    HW218993   0.065   0.654   9.503  0.4029 -1.0826  0.0210
 2511SOL     OW18994   4.420   3.823   6.851  0.1160  0.2652  0.8976
 2511SOL    HW118995   4.370   3.835   6.932 -0.7169 -1.8314  0.6856
 2511SOL    HW218996   4.430   3.916   6.829 -1.1474  0.9303  3.1198
 2512SOL     OW18997   4.151   2.978   5.520  0.0837  0.0862  0.2637
 2512SOL    HW118998   4.089   2.982   5.447  0.2053  1.7151  0.2599
 2512SOL    HW218999   4.224   2.930   5.481 -1.3943 -1.2495 -0.8452
 2513SOL     OW19000   1.053   2.519  11.996  0.2619  0.5084 -0.9614
 2513SOL    HW119001   1.040   2.614  11.998  1.1086  0.5383  2.0258
 2513SOL    HW219002   1.148   2.508  11.998 -0.0006 -1.2882  0.9952
 2514SOL     OW19003   0.396   3.570   8.766  0.2782  0.7785 -0.7018
 2514SOL    HW119004   0.336   3.498   8.785  0.6609  0.4313 -0.8051
 2514SOL    HW219005   0.359   3.637   8.823 -0.2171  1.8324 -2.2717
 2515SOL     OW19006   1.281   1.865  14.822 -0.4233  0.4022  0.1811
 2515SOL    HW119007   1.239   1.779  14.817  2.3712 -1.1408  3.0182
 2515SOL    HW219008   1.307   1.872  14.914  0.2193  2.7228 -0.1671
 2516SOL     OW19009   2.159   1.514  16.399  0.2896 -0.4285 -0.0418
 2516SOL    HW119010   2.150   1.606  16.424  1.3574 -0.8790  2.0260
 2516SOL    HW219011   2.241   1.485  16.438 -0.1747 -2.4865 -0.5892
 2517SOL     OW19012   0.196   3.136   3.379 -0.1756 -0.5768 -0.7105
 2517SOL    HW119013   0.228   3.049   3.354 -2.8909 -1.5611 -0.7496
 2517SOL    HW219014   0.109   3.123   3.418  0.7863 -2.2352  0.9519
 2518SOL     OW19015   2.916   1.554   6.662  0.1303 -0.6123  0.0949
 2518SOL    HW119016   2.828   1.591   6.670 -0.2448 -1.6282  0.7240
 2518SOL    HW219017   2.917   1.490   6.734 -1.9722  0.3783  1.0143
 2519SOL     OW19018   2.430   4.603   2.681 -0.3484  0.8374  0.0400
 2519SOL    HW119019   2.475   4.652   2.612 -0.0779 -1.6925 -1.5813
 2519SOL    HW219020   2.340   4.599   2.648 -1.3233 -2.6455  3.1381
 2520SOL     OW19021   4.688   0.061   8.282 -0.1032 -0.4239 -0.4388
 2520SOL    HW119022   4.668   0.153   8.264 -1.7791 -0.5308  0.8743
 2520SOL    HW219023   4.613   0.034   8.334  1.0155 -0.9362  0.9075
 2521SOL     OW19024   4.588   2.625   5.821  0.6105  0.2825  0.2586
 2521SOL    HW119025   4.568   2.635   5.914 -0.2922 -0.8059  0.1826
 2521SOL    HW219026   4.630   2.709   5.805  0.8931  0.2657  0.9100
 2522SOL     OW19027   3.391   2.292   2.678 -0.2010  0.0386 -0.4484
 2522SOL    HW119028   3.317   2.305   2.618 -0.8076 -0.6472  0.1352
 2522SOL    HW219029   3.415   2.381   2.703  1.0188 -0.2110 -0.7534
 2523SOL     OW19030   1.132   4.374   8.416  0.2854 -0.2090 -0.5337
 2523SOL    HW119031   1.226   4.363   8.400  0.0215 -0.4172 -1.9846
 2523SOL    HW219032   1.124   4.467   8.437  0.8359 -0.7089  1.8944
 2524SOL     OW19033   3.249   1.178   8.574  0.1610  0.2149 -0.1830
 2524SOL    HW119034   3.332   1.190   8.528 -0.8471 -1.8571 -2.5330
 2524SOL    HW219035   3.202   1.255   8.544 -2.5663 -0.7974  1.5564
 2525SOL     OW19036   3.305   3.654   7.253  0.3648 -0.1336 -0.4776
 2525SOL    HW119037   3.309   3.607   7.336 -0.9474 -1.3403 -1.0957
 2525SOL    HW219038   3.363   3.605   7.194  0.1033  0.5383 -1.2973
 2526SOL     OW19039   4.210   2.523   6.726  0.2707 -0.1384  0.2684
 2526SOL    HW119040   4.152   2.599   6.722  0.7826  0.2549  0.3669
 2526SOL    HW219041   4.276   2.553   6.788  0.9720 -1.1541  0.0094
 2527SOL     OW19042   3.826   1.779   2.921 -0.0945  0.5465 -0.7631
 2527SOL    HW119043   3.768   1.855   2.923 -0.7963  0.0369 -1.8769
 2527SOL    HW219044   3.907   1.822   2.951  0.6082 -0.9593 -0.4643
 2528SOL     OW19045   1.545   2.140   0.134 -0.1230 -0.5766 -0.8371
 2528SOL    HW119046   1.633   2.106   0.115  1.0935  2.5472 -0.8267
 2528SOL    HW219047   1.491   2.111   0.060 -1.8304 -0.2042  0.2622
 2529SOL     OW19048   0.925   2.916  17.383 -0.8955 -0.3514  0.3248
 2529SOL    HW119049   0.969   2.835  17.409  0.3489 -0.3443 -1.7751
 2529SOL    HW219050   0.832   2.898  17.391 -1.0843 -0.6885 -2.8569
 2530SOL     OW19051   3.836   1.915   5.843 -0.1454  0.1448 -0.3081
 2530SOL    HW119052   3.758   1.895   5.789  0.0219  0.3383 -0.6208
 2530SOL    HW219053   3.804   1.885   5.928 -1.2020 -0.1800 -0.8162
 2531SOL     OW19054   1.326   1.179   0.738  0.1023  0.0792 -0.2379
 2531SOL    HW119055   1.395   1.211   0.797 -1.2436  1.5444  0.5291
 2531SOL    HW219056   1.363   1.195   0.652  0.8269 -0.7781 -0.0840
 2532SOL     OW19057   4.269   1.649   9.125  0.0093  0.3039 -0.2071
 2532SOL    HW119058   4.305   1.616   9.208  0.0828 -0.1865 -0.4339
 2532SOL    HW219059   4.306   1.582   9.068  0.7886  0.0545  0.6025
 2533SOL     OW19060   0.237   0.950   5.301  0.5436  0.4284 -0.2779
 2533SOL    HW119061   0.209   0.869   5.342 -0.0948 -0.0135 -1.5807
 2533SOL    HW219062   0.234   1.011   5.375 -1.4248 -0.8408  0.6542
 2534SOL     OW19063   1.129   2.637   4.240  0.1362  0.0670  0.5065
 2534SOL    HW119064   1.042   2.677   4.235 -0.3627 -1.1533 -0.4480
 2534SOL    HW219065   1.121   2.574   4.169 -2.1762 -2.3640  2.9085
 2535SOL     OW19066   2.198   3.538   6.330  0.2230  0.0031 -0.2342
 2535SOL    HW119067   2.202   3.607   6.264  1.8600  1.6514  1.6009
 2535SOL    HW219068   2.289   3.520   6.353 -0.7109 -0.0812  3.4116
 2536SOL     OW19069   3.376   4.636   2.335  0.5826  0.5530 -0.0593
 2536SOL    HW119070   3.416   4.642   2.248  0.5671  3.5884  0.1556
 2536SOL    HW219071   3.346   4.545   2.342  0.9301  0.4343 -0.0909
 2537SOL     OW19072   1.811   3.929  12.586  0.5887 -0.0503 -0.0906
 2537SOL    HW119073   1.881   3.889  12.535  1.8216  1.7569  0.1931
 2537SOL    HW219074   1.831   4.022  12.591  3.5360 -0.7088  0.3683
 2538SOL     OW19075   0.341   0.817   9.566  0.0360  0.2484  0.3505
 2538SOL    HW119076   0.281   0.760   9.613 -2.0393  1.4376 -0.8603
 2538SOL    HW219077   0.350   0.875   9.642  0.3387  1.0953 -0.3205
 2539SOL     OW19078   1.563   3.987   9.243  0.2957  0.0431  0.5544
 2539SOL    HW119079   1.572   4.082   9.246  1.2772 -0.0252 -0.1286
 2539SOL    HW219080   1.526   3.978   9.155  2.2084 -1.9567 -0.0362
 2540SOL     OW19081   0.938   1.782  14.899  0.4235 -0.7076  0.3591
 2540SOL    HW119082   1.003   1.725  14.860  2.1864  2.7077 -1.6914
 2540SOL    HW219083   0.925   1.747  14.988  0.1646 -2.1742 -0.2610
 2541SOL     OW19084   2.073   0.714   3.092  0.2703 -0.0803  0.2568
 2541SOL    HW119085   2.107   0.625   3.078  0.4933 -0.0562  0.6256
 2541SOL    HW219086   1.994   0.710   3.039  0.3911 -2.4326  0.2671
 2542SOL     OW19087   3.962   0.096  12.163 -0.3126  0.5124 -0.3364
 2542SOL    HW119088   3.996   0.057  12.244  0.4361 -0.1833 -0.9753
 2542SOL    HW219089   3.935   0.012  12.125 -0.0008 -0.1039  0.7930
 2543SOL     OW19090   1.134   2.598   8.931  0.4943 -0.1003  0.0363
 2543SOL    HW119091   1.127   2.606   8.836 -0.4689 -2.6067 -0.1171
 2543SOL    HW219092   1.108   2.506   8.935  1.5276 -0.1931  3.8790
 2544SOL     OW19093   3.300   3.583   3.348  0.1555 -0.7890 -0.5154
 2544SOL    HW119094   3.287   3.678   3.344  1.2974 -0.6956 -2.1552
 2544SOL    HW219095   3.213   3.547   3.330 -0.6867  0.9511  0.0282
 2545SOL     OW19096   3.171   4.524   9.174  0.1311  0.1959  0.3059
 2545SOL    HW119097   3.242   4.544   9.235  1.9287  0.0747 -1.7700
 2545SOL    HW219098   3.185   4.575   9.094 -0.6896 -0.4322 -0.2459
 2546SOL     OW19099   2.682   4.439   4.193 -0.1191  0.4175 -0.3186
 2546SOL    HW119100   2.665   4.444   4.099  0.1944  0.6531 -0.3645
 2546SOL    HW219101   2.740   4.363   4.196 -0.2608  0.3793  1.5007
 2547SOL     OW19102   3.989   1.284  11.750  0.5697  0.2732 -0.2745
 2547SOL    HW119103   3.919   1.346  11.772 -1.5151 -2.7495  1.6662
 2547SOL    HW219104   3.994   1.298  11.656 -0.2384  1.8855 -0.0650
 2548SOL     OW19105   4.038   1.932   2.894  0.5459  0.4412  0.8358
 2548SOL    HW119106   3.993   2.006   2.853  1.1584 -0.3995 -1.3807
 2548SOL    HW219107   4.080   1.915   2.809 -2.9464  0.8694 -0.9712
 2549SOL     OW19108   0.363   3.962  15.278  0.1637 -0.3309 -0.2918
 2549SOL    HW119109   0.342   3.896  15.345 -1.8424 -1.0167 -1.5986
 2549SOL    HW219110   0.347   3.911  15.199 -0.2753  0.6204 -0.8016
 2550SOL     OW19111   1.445   2.705   7.045 -0.2860 -0.1138 -0.0028
 2550SOL    HW119112   1.437   2.642   7.117 -1.7937 -1.2191 -1.1278
 2550SOL    HW219113   1.398   2.663   6.974 -0.7203  0.5675 -0.1166
 2551SOL     OW19114   1.945   1.338   4.415  0.4173 -0.0808 -0.5446
 2551SOL    HW119115   2.032   1.309   4.443  0.5993  1.7639  0.8130
 2551SOL    HW219116   1.911   1.262   4.369  1.9594 -1.2336  0.2305
 2552SOL     OW19117   4.351   2.402   0.232 -0.4006  0.1248 -0.3032
 2552SOL    HW119118   4.271   2.386   0.282  0.4790 -0.2597  0.9785
 2552SOL    HW219119   4.326   2.470   0.169  0.3212  0.0054 -0.7211
 2553SOL     OW19120   2.060   3.311   8.470  0.0732  0.1940  0.2759
 2553SOL    HW119121   1.966   3.331   8.472 -0.1854 -1.1677  1.1188
 2553SOL    HW219122   2.097   3.388   8.513 -0.4494  0.1612  0.7781
 2554SOL     OW19123   1.294   1.455  15.457  0.3428 -0.6473 -0.0491
 2554SOL    HW119124   1.214   1.466  15.405 -1.5086 -4.3945  1.9793
 2554SOL    HW219125   1.263   1.393  15.523 -0.5784  0.8487  0.9261
 2555SOL     OW19126   1.589   3.619   8.157  0.2648 -0.7527 -0.2755
 2555SOL    HW119127   1.634   3.546   8.199 -0.6818 -1.1052  0.1278
 2555SOL    HW219128   1.628   3.703   8.183 -1.2685 -0.5168  1.3519
 2556SOL     OW19129   3.884   1.970   1.359 -0.3960 -0.1810  0.3607
 2556SOL    HW119130   3.945   1.899   1.338 -0.3100 -0.6194  2.1025
 2556SOL    HW219131   3.830   1.952   1.282  1.6607  1.1828 -1.4211
 2557SOL     OW19132   4.633   2.179   5.137 -0.3111  0.2667  0.1598
 2557SOL    HW119133   4.584   2.260   5.124 -1.1883 -0.2316  0.3302
 2557SOL    HW219134   4.598   2.152   5.222  1.3915 -1.3462  0.3351
 2558SOL     OW19135   0.574   3.730   7.755 -0.2438  0.5703  0.5563
 2558SOL    HW119136   0.516   3.790   7.709  0.0475  0.3262 -0.1209
 2558SOL    HW219137   0.540   3.760   7.840 -1.0782  1.5790 -0.1346
 2559SOL     OW19138   0.708   0.848  12.703  0.3608 -0.9488 -0.0669
 2559SOL    HW119139   0.753   0.766  12.726 -1.1228 -1.8352 -0.3740
 2559SOL    HW219140   0.750   0.875  12.622  1.6379 -1.6467  0.3394
 2560SOL     OW19141   4.417   3.074   6.323 -0.0468  0.6534 -0.7662
 2560SOL    HW119142   4.324   3.087   6.302  0.5443  0.2418 -3.6566
 2560SOL    HW219143   4.405   2.990   6.369  1.8407  0.7277 -0.1444
 2561SOL     OW19144   1.332   2.481   7.175  0.4230  0.7234  0.5862
 2561SOL    HW119145   1.292   2.399   7.204 -0.6611  0.6371 -1.1572
 2561SOL    HW219146   1.423   2.450   7.171  0.8643  2.2864 -1.3632
 2562SOL     OW19147   0.866   1.384   2.939  0.2937 -0.1840 -0.8294
 2562SOL    HW119148   0.804   1.335   2.885 -0.4121  0.6583 -0.7935
 2562SOL    HW219149   0.936   1.404   2.877  0.0305 -0.0853 -1.0940
 2563SOL     OW19150   2.402   4.206   3.769  0.4638 -0.1701 -0.5292
 2563SOL    HW119151   2.397   4.192   3.674 -1.7665  3.0878 -0.9198
 2563SOL    HW219152   2.389   4.119   3.805 -2.8745  0.9383  0.9354
 2564SOL     OW19153   2.749   4.564   8.470 -0.4538 -0.5767  0.0717
 2564SOL    HW119154   2.822   4.618   8.499  1.0387 -2.7060  0.2407
 2564SOL    HW219155   2.682   4.633   8.473  0.1450  0.0378 -0.7095
 2565SOL     OW19156   0.110   3.749   0.470  0.2419  0.0444 -0.4145
 2565SOL    HW119157   0.018   3.726   0.485  0.5069 -0.7328  0.0608
 2565SOL    HW219158   0.113   3.754   0.375 -0.7945  0.6498 -0.4064
 2566SOL     OW19159   3.827   0.543   3.873 -0.9532 -0.0102 -0.4201
 2566SOL    HW119160   3.880   0.517   3.797  0.0400  1.5089 -0.2460
 2566SOL    HW219161   3.829   0.638   3.856 -1.2738  0.2200  0.8476
 2567SOL     OW19162   2.938   2.536  14.816  0.2724 -0.9026  0.1050
 2567SOL    HW119163   2.847   2.504  14.816  1.0357 -3.0635  0.3979
 2567SOL    HW219164   2.979   2.462  14.861  0.8779 -0.7377 -0.1770
 2568SOL     OW19165   1.754   1.559  13.911 -0.5991 -0.0581 -0.0814
 2568SOL    HW119166   1.819   1.583  13.845  0.4611  1.3415  1.4687
 2568SOL    HW219167   1.811   1.507  13.967  1.9634  1.4151 -1.3192
 2569SOL     OW19168   3.755   1.246   6.175  0.3485  0.6805 -0.1008
 2569SOL    HW119169   3.803   1.164   6.169 -0.5076  0.2964 -1.7081
 2569SOL    HW219170   3.828   1.301   6.146  0.0780  1.5611  0.8802
 2570SOL     OW19171   4.276   3.472   9.261  0.1170 -0.0223 -0.3871
 2570SOL    HW119172   4.325   3.526   9.323 -2.0957  0.3603  1.0208
 2570SOL    HW219173   4.229   3.425   9.330 -0.4376 -2.9850 -2.7720
 2571SOL     OW19174   2.999   2.400   6.352  0.3202 -0.0651  0.5391
 2571SOL    HW119175   2.989   2.333   6.285 -1.9020 -0.1525  0.9539
 2571SOL    HW219176   3.019   2.345   6.427 -1.3330 -0.6703  0.5427
 2572SOL     OW19177   0.737   3.723   6.263 -0.4661 -0.3671  0.5730
 2572SOL    HW119178   0.780   3.809   6.266  0.0035 -0.5743 -0.0715
 2572SOL    HW219179   0.764   3.694   6.176 -1.3258  2.1306 -0.5068
 2573SOL     OW19180   2.167   3.238   3.564 -0.0465  0.5554 -0.2829
 2573SOL    HW119181   2.103   3.175   3.529  0.6477 -0.1660 -0.2545
 2573SOL    HW219182   2.239   3.218   3.504 -0.0764 -0.7180  0.1177
 2574SOL     OW19183   2.967   1.737   2.277  0.2658  0.0805 -0.6675
 2574SOL    HW119184   2.907   1.670   2.245 -1.6120  1.0129  0.9762
 2574SOL    HW219185   2.914   1.817   2.278  0.0323 -0.0821 -0.4069
 2575SOL     OW19186   2.774   2.985   4.635  0.1811 -0.1564 -0.0791
 2575SOL    HW119187   2.744   3.016   4.549  1.7523  1.2294 -0.1251
 2575SOL    HW219188   2.836   2.918   4.606  0.6871  0.0498  0.5274
 2576SOL     OW19189   1.497   0.820   1.237 -0.5537  0.0520 -0.2444
 2576SOL    HW119190   1.513   0.842   1.329  0.0334  2.2930 -0.8647
 2576SOL    HW219191   1.582   0.787   1.208 -0.7731 -0.1153 -0.6954
 2577SOL     OW19192   0.460   0.418   4.456  0.3477  0.6085  0.0475
 2577SOL    HW119193   0.503   0.498   4.486  0.0712  0.3706  1.0715
 2577SOL    HW219194   0.366   0.432   4.460  0.5511  1.3038  2.7479
 2578SOL     OW19195   1.819   0.490   2.420  0.3893  0.1625 -0.1627
 2578SOL    HW119196   1.874   0.421   2.382 -1.4757 -0.2104 -2.2043
 2578SOL    HW219197   1.866   0.497   2.503  1.9862 -1.7099 -0.9020
 2579SOL     OW19198   0.079   0.141   4.170  0.2062  0.0860  0.2845
 2579SOL    HW119199   0.122   0.141   4.255  1.2917 -1.3274 -0.2645
 2579SOL    HW219200   0.117   0.221   4.132 -0.9190 -0.3256 -1.7217
 2580SOL     OW19201   1.107   0.684  13.030 -0.1524  0.0070 -0.6318
 2580SOL    HW119202   1.112   0.602  12.982  1.1401  0.3217 -1.0240
 2580SOL    HW219203   1.181   0.734  12.995 -0.7122  0.8674 -0.5908
 2581SOL     OW19204   1.789   1.917   3.725  0.2047 -0.9129 -0.2027
 2581SOL    HW119205   1.839   1.844   3.689  0.2288 -2.2121  2.4718
 2581SOL    HW219206   1.855   1.985   3.729 -3.2837  2.7166 -4.2609
 2582SOL     OW19207   1.577   0.260   6.175  0.1453 -0.1322  0.2688
 2582SOL    HW119208   1.632   0.320   6.124 -2.0227  2.0568  0.4754
 2582SOL    HW219209   1.647   0.210   6.217 -0.0419 -0.0667  0.6555
 2583SOL     OW19210   3.285   3.354   3.886 -0.3347  0.6132 -0.5256
 2583SOL    HW119211   3.337   3.433   3.876  1.0378 -0.4559 -1.8230
 2583SOL    HW219212   3.207   3.372   3.833 -2.0787 -4.0467  0.4360
 2584SOL     OW19213   3.774   3.404   2.321 -0.6361 -0.2476 -0.6017
 2584SOL    HW119214   3.789   3.383   2.229  0.4530  0.5545 -0.6183
 2584SOL    HW219215   3.759   3.324   2.371  3.7469 -0.2071  0.7559
 2585SOL     OW19216   4.189   0.622   3.754 -0.3094 -0.4854 -0.3820
 2585SOL    HW119217   4.262   0.625   3.693  0.9125 -0.7096  1.0762
 2585SOL    HW219218   4.184   0.713   3.781 -2.1348  0.0801 -2.6117
 2586SOL     OW19219   4.070   2.871   6.366  0.1414 -0.3747  0.5196
 2586SOL    HW119220   4.145   2.813   6.349 -1.1540 -2.2169  1.0472
 2586SOL    HW219221   4.075   2.934   6.294  0.3068 -0.4698  0.4458
 2587SOL     OW19222   0.126   3.502  13.658 -0.7272  0.4488 -0.1619
 2587SOL    HW119223   0.152   3.589  13.690 -1.1824  0.3631  0.4382
 2587SOL    HW219224   0.122   3.519  13.564 -1.4062  0.8968 -0.0475
 2588SOL     OW19225   0.955   0.472   5.422  0.9063  0.0362 -0.3514
 2588SOL    HW119226   0.877   0.437   5.379 -1.3526  2.4581  1.8508
 2588SOL    HW219227   0.915   0.546   5.468 -1.5029 -0.9051 -0.9181
 2589SOL     OW19228   0.079   3.863   6.814  0.4600 -0.1437 -0.6203
 2589SOL    HW119229   0.145   3.925   6.782 -0.2663  1.1318  0.3979
 2589SOL    HW219230   0.068   3.806   6.737  0.1272 -0.8409 -0.0540
 2590SOL     OW19231   2.961   2.853  12.307 -0.2278  0.1469  0.9531
 2590SOL    HW119232   3.040   2.872  12.357  1.0582  0.8254 -1.3147
 2590SOL    HW219233   2.931   2.943  12.294 -1.3339 -0.5222 -1.0920
 2591SOL     OW19234   3.054   1.415   7.439  0.7475  0.4909  0.4888
 2591SOL    HW119235   3.123   1.411   7.372  0.4194 -1.1611  0.2541
 2591SOL    HW219236   3.066   1.507   7.465 -0.1715  1.3588 -2.0637
 2592SOL     OW19237   3.442   1.893   9.575 -0.3717  0.1960 -0.5913
 2592SOL    HW119238   3.488   1.962   9.623 -0.4763  0.7218 -1.2476
 2592SOL    HW219239   3.437   1.819   9.635  0.2505  2.1693  1.8914
 2593SOL     OW19240   2.372   1.418  14.362  0.1332  0.2173  0.0543
 2593SOL    HW119241   2.317   1.393  14.436 -1.5581  0.0325 -1.2514
 2593SOL    HW219242   2.353   1.352  14.295  0.4405 -0.8575  1.0348
 2594SOL     OW19243   2.255   2.692   8.629 -0.6746 -0.4767  0.3436
 2594SOL    HW119244   2.165   2.668   8.651 -1.1009  1.4804  0.7283
 2594SOL    HW219245   2.282   2.607   8.592 -0.1542 -0.0712 -0.1994
 2595SOL     OW19246   1.218   1.408  10.853 -0.5853 -0.4117  0.3516
 2595SOL    HW119247   1.179   1.492  10.829  1.0408  0.4023  0.5312
 2595SOL    HW219248   1.281   1.431  10.922  1.2329  0.4335 -1.5745
 2596SOL     OW19249   3.358   4.641  11.407 -0.3070  0.4158  0.4903
 2596SOL    HW119250   3.289   4.675  11.351 -1.1024 -0.7533  0.7521
 2596SOL    HW219251   3.377   4.554  11.371 -0.9450  0.1958  0.6837
 2597SOL     OW19252   1.891   0.170   1.793 -0.0587 -0.1716  0.6759
 2597SOL    HW119253   1.979   0.180   1.829  0.1318 -0.2881  0.2377
 2597SOL    HW219254   1.902   0.234   1.723  1.4197 -1.2379 -0.0535
 2598SOL     OW19255   2.062   0.460  10.826  0.2087 -0.1377 -0.3618
 2598SOL    HW119256   2.070   0.368  10.805 -2.3450 -0.0940 -1.5144
 2598SOL    HW219257   2.105   0.495  10.748 -1.6716  2.4319 -0.2678
 2599SOL     OW19258   4.524   2.878   4.627 -0.0251 -0.2562 -0.7307
 2599SOL    HW119259   4.459   2.914   4.567  0.1193 -1.2572 -1.4720
 2599SOL    HW219260   4.598   2.866   4.568 -0.9923 -1.8538 -1.5949
 2600SOL     OW19261   3.013   3.608   3.035 -0.2713  0.3873 -0.6313
 2600SOL    HW119262   3.015   3.581   2.943  3.1725 -0.7826 -0.2249
 2600SOL    HW219263   3.088   3.668   3.031 -0.4663  0.6021 -1.0223
 2601SOL     OW19264   1.679   4.163   1.764  0.6136 -0.4489 -0.6947
 2601SOL    HW119265   1.723   4.078   1.759  0.6157 -0.4684 -0.3361
 2601SOL    HW219266   1.753   4.223   1.757  1.7018 -1.8211 -1.1261
 2602SOL     OW19267   0.833   2.571   7.576 -0.8944 -0.1112  0.0056
 2602SOL    HW119268   0.832   2.476   7.576 -0.6930 -0.1027 -1.1414
 2602SOL    HW219269   0.772   2.593   7.647 -0.2718  1.3549  0.0824
 2603SOL     OW19270   2.537   1.563   7.995  0.3788 -0.3627 -0.3612
 2603SOL    HW119271   2.560   1.591   7.906  3.8257  0.7290  0.8931
 2603SOL    HW219272   2.612   1.602   8.040  0.1229  0.7730 -0.9173
 2604SOL     OW19273   0.504   0.825   2.724 -0.4325 -0.3127 -0.4975
 2604SOL    HW119274   0.499   0.908   2.677  2.2467 -0.3698 -0.8730
 2604SOL    HW219275   0.455   0.769   2.664 -0.8606  0.8264 -1.2175
 2605SOL     OW19276   3.469   3.369   9.301 -0.6309 -0.3572  0.4969
 2605SOL    HW119277   3.482   3.344   9.393  0.3916  0.5183  0.6023
 2605SOL    HW219278   3.409   3.298   9.280  2.0929 -2.2747 -0.7726
 2606SOL     OW19279   3.389   2.241   0.781 -0.1583  0.0287 -0.0473
 2606SOL    HW119280   3.450   2.167   0.787  0.2851  0.3070 -1.0547
 2606SOL    HW219281   3.304   2.198   0.776 -0.8576  1.4823 -0.4888
 2607SOL     OW19282   0.547   2.409   8.805  0.3160  0.0142 -0.0605
 2607SOL    HW119283   0.557   2.329   8.754 -0.1369  0.0593 -0.2166
 2607SOL    HW219284   0.452   2.413   8.795  0.1430  1.8624  2.1844
 2608SOL     OW19285   1.022   2.097  17.699 -0.1862 -0.2837 -0.4646
 2608SOL    HW119286   1.050   2.125   0.085  1.4274 -0.5847 -0.8715
 2608SOL    HW219287   0.972   2.021   0.025 -0.0554 -0.2868 -0.2352
 2609SOL     OW19288   0.949   3.374   9.594  0.0782 -0.5193 -0.0926
 2609SOL    HW119289   0.974   3.396   9.505 -0.5177 -1.1822 -0.4270
 2609SOL    HW219290   0.854   3.366   9.581 -0.0790  1.4885 -0.0802
 2610SOL     OW19291   2.033   3.905  17.101 -0.2665 -0.2305  0.3003
 2610SOL    HW119292   2.081   3.978  17.140  1.4829 -1.6682  0.8539
 2610SOL    HW219293   1.977   3.936  17.030  0.0839 -1.4748 -0.5267
 2611SOL     OW19294   2.248   0.998   3.315 -0.0302  0.4771  0.5359
 2611SOL    HW119295   2.196   0.948   3.378  2.6204  0.8949  3.0441
 2611SOL    HW219296   2.307   1.055   3.365  0.2039  0.1767  0.6021
 2612SOL     OW19297   3.204   0.692   0.009  0.1069  0.3477  0.2152
 2612SOL    HW119298   3.142   0.757  17.678  1.1365  2.5652  2.6267
 2612SOL    HW219299   3.206   0.712   0.103  1.9497 -1.4944  0.5760
 2613SOL     OW19300   4.073   3.926   8.867  0.2298 -0.1589  0.1020
 2613SOL    HW119301   4.040   3.863   8.932 -0.8031  0.3815  0.1133
 2613SOL    HW219302   4.011   3.999   8.875 -0.9492 -1.0742 -0.6096
 2614SOL     OW19303   2.161   0.835  13.025 -0.2782 -0.0537 -0.0960
 2614SOL    HW119304   2.129   0.838  12.935 -0.9235 -2.1767  0.0547
 2614SOL    HW219305   2.250   0.868  13.012 -0.4762  1.5297  2.6004
 2615SOL     OW19306   2.738   1.122   3.502  0.1385  0.3808  1.0051
 2615SOL    HW119307   2.813   1.067   3.522 -0.1065 -0.0876  0.6251
 2615SOL    HW219308   2.670   1.059   3.526  2.4038 -2.0340  1.0121
 2616SOL     OW19309   0.600   4.483   5.347  0.0879  0.5263  0.1168
 2616SOL    HW119310   0.574   4.442   5.264 -0.7810 -0.7158  0.9843
 2616SOL    HW219311   0.683   4.438   5.361  1.8086  2.9379 -2.4906
 2617SOL     OW19312   1.783   4.462  17.116  0.3520 -0.1905  0.0099
 2617SOL    HW119313   1.813   4.544  17.156  1.8724 -0.2754 -0.9386
 2617SOL    HW219314   1.720   4.438  17.183 -1.0231  1.4623 -0.6573
 2618SOL     OW19315   4.357   3.667   4.649 -0.6282  0.0661  0.2280
 2618SOL    HW119316   4.406   3.591   4.620 -0.7158 -0.6163  1.8559
 2618SOL    HW219317   4.266   3.637   4.654 -1.2524  1.3167 -3.3730
 2619SOL     OW19318   1.043   2.111   2.724 -0.2617  0.3315 -0.5278
 2619SOL    HW119319   1.132   2.077   2.736 -0.2556  0.6972  0.4845
 2619SOL    HW219320   1.047   2.145   2.635  1.7598  0.0284 -0.5568
 2620SOL     OW19321   3.045   0.085   6.140  0.0409 -0.2398  0.6039
 2620SOL    HW119322   3.112   0.019   6.151 -2.0905 -2.3486  0.9465
 2620SOL    HW219323   2.982   0.031   6.092 -0.7858 -0.1836  1.6068
 2621SOL     OW19324   3.030   2.641   3.485  0.2793 -0.4818 -0.4588
 2621SOL    HW119325   3.001   2.588   3.559  0.3251 -0.3089 -0.3186
 2621SOL    HW219326   3.031   2.729   3.523 -1.7785 -0.1940 -1.0613
 2622SOL     OW19327   2.542   1.215   9.078  0.2854  0.1724  0.3168
 2622SOL    HW119328   2.605   1.168   9.024  0.1236  0.6586 -0.2935
 2622SOL    HW219329   2.587   1.293   9.108  0.8341  0.6406 -1.7035
 2623SOL     OW19330   3.600   1.232   4.634 -0.1447 -0.1397  0.6521
 2623SOL    HW119331   3.661   1.303   4.654  0.4090 -0.5573  0.4778
 2623SOL    HW219332   3.608   1.172   4.709  1.0171  0.2189  0.8241
 2624SOL     OW19333   2.726   3.750  13.978 -1.0657 -0.2725 -0.4585
 2624SOL    HW119334   2.756   3.677  14.033 -0.8578  0.3796  0.2916
 2624SOL    HW219335   2.633   3.752  13.997 -1.2385  1.5020 -1.4831
 2625SOL     OW19336   2.125   0.272   4.507 -0.2157 -0.0609  0.5028
 2625SOL    HW119337   2.057   0.338   4.493  0.2508  0.5286  0.9963
 2625SOL    HW219338   2.081   0.187   4.517 -3.9869  1.7152 -0.8339
 2626SOL     OW19339   1.077   0.447  12.887 -0.1716  0.0113 -0.2220
 2626SOL    HW119340   1.167   0.442  12.854 -0.0718  0.7883 -0.0831
 2626SOL    HW219341   1.029   0.399  12.820  1.6094 -0.6524 -1.0299
 2627SOL     OW19342   1.374   3.502   4.152 -0.1373  1.0176 -0.2276
 2627SOL    HW119343   1.376   3.407   4.139 -0.8575  1.0675 -0.6684
 2627SOL    HW219344   1.414   3.508   4.238 -2.0013  0.6293  0.6613
 2628SOL     OW19345   2.451   4.690   2.013  0.4589  0.1100  0.8275
 2628SOL    HW119346   2.498   0.041   1.979 -2.4281  1.5010 -0.0378
 2628SOL    HW219347   2.512   4.624   1.979  0.8265  1.1866 -0.6327
 2629SOL     OW19348   1.890   3.035   5.290 -0.2751  0.6369 -0.2593
 2629SOL    HW119349   1.873   3.005   5.201  1.6126 -1.1955  0.0006
 2629SOL    HW219350   1.804   3.020   5.330 -0.2380  3.1377  0.7813
 2630SOL     OW19351   1.438   3.118   6.030  0.3149 -0.1220  0.6043
 2630SOL    HW119352   1.449   3.024   6.041  2.6598 -0.0339 -0.9334
 2630SOL    HW219353   1.387   3.144   6.106  0.8254 -1.2455  1.3358
 2631SOL     OW19354   2.857   4.667   6.882 -0.2140 -0.0982 -0.6747
 2631SOL    HW119355   2.779   4.618   6.907  0.3414  0.7052  2.6690
 2631SOL    HW219356   2.868   4.625   6.797  0.8968 -0.2576 -0.4583
 2632SOL     OW19357   2.990   2.718   4.650  0.1508 -0.5788 -0.1957
 2632SOL    HW119358   2.989   2.622   4.646 -1.7160 -0.5796  0.5188
 2632SOL    HW219359   2.995   2.730   4.744 -1.1723  1.0263 -0.3515
 2633SOL     OW19360   1.380   3.245  11.913 -0.3113  0.2848  0.1638
 2633SOL    HW119361   1.375   3.149  11.907  0.4176  0.2704 -0.1244
 2633SOL    HW219362   1.473   3.259  11.896 -0.3358  1.6769  1.1786
 2634SOL     OW19363   3.038   1.145   4.980  0.3222 -0.3644 -0.7162
 2634SOL    HW119364   3.059   1.214   5.043 -3.4400 -1.3828  1.6284
 2634SOL    HW219365   2.956   1.187   4.956  1.7304  2.6937 -0.1661
 2635SOL     OW19366   0.906   0.450   3.731 -0.3967  0.4326 -0.1034
 2635SOL    HW119367   0.824   0.479   3.692 -0.9594 -1.5976 -0.4041
 2635SOL    HW219368   0.967   0.463   3.658 -0.8433  1.5388 -0.2754
 2636SOL     OW19369   0.649   0.618   4.569 -0.3903  0.3857  0.2391
 2636SOL    HW119370   0.641   0.698   4.517 -0.6788 -0.9552 -1.7799
 2636SOL    HW219371   0.731   0.624   4.616  1.7987 -0.1212 -3.5178
 2637SOL     OW19372   4.577   2.588  13.456  0.2577 -0.3897 -0.0770
 2637SOL    HW119373   4.527   2.613  13.534  2.0918  0.4343  0.8477
 2637SOL    HW219374   4.600   2.497  13.472 -0.5402 -0.9806 -2.4127
 2638SOL     OW19375   2.072   0.686  11.517 -0.1260  0.2691 -0.2614
 2638SOL    HW119376   2.132   0.636  11.572 -0.0758  0.2786 -0.3069
 2638SOL    HW219377   2.097   0.662  11.428  1.9819  0.7368  0.1888
 2639SOL     OW19378   3.122   1.176   5.420  0.4716 -0.2580 -0.0541
 2639SOL    HW119379   3.057   1.164   5.488 -0.2256  0.0037 -0.6708
 2639SOL    HW219380   3.163   1.258   5.449  1.0983 -0.7742  0.5009
 2640SOL     OW19381   1.510   3.685  16.738 -0.5429  0.1248 -0.1303
 2640SOL    HW119382   1.529   3.622  16.669  0.8589 -1.5616  1.7925
 2640SOL    HW219383   1.542   3.635  16.813 -2.8578 -2.0897 -0.6182
 2641SOL     OW19384   1.563   3.305   0.659 -0.2099 -0.3862 -0.2029
 2641SOL    HW119385   1.651   3.279   0.685  0.3418 -0.4073 -2.0583
 2641SOL    HW219386   1.571   3.397   0.632 -1.3469 -0.7532 -1.7819
 2642SOL     OW19387   3.635   2.896  13.053  0.2123 -0.3129 -0.0160
 2642SOL    HW119388   3.691   2.974  13.058 -0.9643  0.4876  0.6397
 2642SOL    HW219389   3.575   2.926  13.121  1.3842  1.1387  0.3821
 2643SOL     OW19390   2.673   4.418   2.792 -0.6281  0.0695 -0.0333
 2643SOL    HW119391   2.645   4.336   2.750  0.2209 -0.6549  0.7986
 2643SOL    HW219392   2.597   4.468   2.763  0.5150  2.5496  1.3222
 2644SOL     OW19393   2.138   2.513  13.449 -0.1687  0.1949  0.2684
 2644SOL    HW119394   2.192   2.550  13.519  1.1428  1.4305 -1.4116
 2644SOL    HW219395   2.092   2.595  13.429 -0.5602 -0.2668 -0.7105
 2645SOL     OW19396   1.444   4.682   8.525  0.2847  0.0504 -0.1026
 2645SOL    HW119397   1.376   4.695   8.591 -1.0184  0.0046 -1.4238
 2645SOL    HW219398   1.506   4.638   8.582 -0.4450  0.1970  0.8030
 2646SOL     OW19399   0.116   0.641   0.079  0.2827 -0.5200  0.1581
 2646SOL    HW119400   0.022   0.658   0.085  0.1729  0.4610 -4.1343
 2646SOL    HW219401   0.146   0.673   0.164  0.9959 -0.9060  0.0510
 2647SOL     OW19402   3.861   4.231   3.734  0.2417 -0.0297 -0.0220
 2647SOL    HW119403   3.775   4.248   3.772  0.1554 -0.0692 -0.2021
 2647SOL    HW219404   3.909   4.311   3.759 -0.6873  0.3764  0.4481
 2648SOL     OW19405   2.481   3.902   8.436 -0.2418  0.3977  0.5720
 2648SOL    HW119406   2.483   3.830   8.500  1.7379 -0.6388 -0.6750
 2648SOL    HW219407   2.423   3.862   8.371  1.6613  0.4115 -1.1401
 2649SOL     OW19408   1.963   0.693   0.645 -0.7544 -0.2226  0.3274
 2649SOL    HW119409   1.992   0.603   0.663 -0.1255 -0.1507 -0.3276
 2649SOL    HW219410   2.025   0.750   0.690 -0.1817  1.8015 -3.0013
 2650SOL     OW19411   1.281   1.774   0.471 -0.0906 -0.2795  0.1275
 2650SOL    HW119412   1.248   1.830   0.541  1.1223 -0.1728  0.6111
 2650SOL    HW219413   1.317   1.831   0.404  1.0268 -0.2131  0.7773
 2651SOL     OW19414   2.227   2.557   1.922 -0.4796  0.2036 -0.0480
 2651SOL    HW119415   2.137   2.587   1.909 -0.8181 -0.7852  0.0176
 2651SOL    HW219416   2.226   2.545   2.017 -0.4223 -0.7920 -0.1762
 2652SOL     OW19417   3.031   1.981   5.096  0.3299  0.4604 -0.0319
 2652SOL    HW119418   3.052   1.996   5.003 -1.8494  2.3022 -0.2300
 2652SOL    HW219419   2.939   2.006   5.090 -0.2656 -1.4924  1.1784
 2653SOL     OW19420   2.343   3.057   0.877  0.1213 -0.5413  0.0014
 2653SOL    HW119421   2.404   3.076   0.806 -0.3008 -0.5594 -0.3719
 2653SOL    HW219422   2.257   3.052   0.835 -0.6920 -0.5947  1.6744
 2654SOL     OW19423   0.756   3.839   1.489 -0.3510  0.3690 -0.0664
 2654SOL    HW119424   0.820   3.889   1.438  0.2712 -1.2576 -0.8939
 2654SOL    HW219425   0.687   3.904   1.504 -0.4229  0.2633  0.0659
 2655SOL     OW19426   3.775   2.544   3.567 -0.5755  0.3882  0.0927
 2655SOL    HW119427   3.693   2.591   3.553  0.0856  1.1412 -1.2939
 2655SOL    HW219428   3.830   2.606   3.616  2.1383 -3.3825  1.8040
 2656SOL     OW19429   0.108   1.662   7.631 -0.9808  0.0549 -0.3783
 2656SOL    HW119430   0.151   1.583   7.664  2.3840  2.5137  1.2159
 2656SOL    HW219431   0.015   1.654   7.650 -1.4909 -0.8105 -3.2902
 2657SOL     OW19432   4.459   4.234   4.252 -0.8215  0.1259  0.0385
 2657SOL    HW119433   4.436   4.298   4.320  0.5945  2.0704 -1.2918
 2657SOL    HW219434   4.441   4.280   4.169 -2.0965 -0.1781  0.1493
 2658SOL     OW19435   4.349   0.900   5.421 -0.4231  0.3937 -0.2905
 2658SOL    HW119436   4.300   0.980   5.403  1.0891  1.8277  1.9064
 2658SOL    HW219437   4.423   0.917   5.363 -0.6893  1.5963 -0.2658
 2659SOL     OW19438   0.593   2.908   7.004  0.2962  0.4160  0.1374
 2659SOL    HW119439   0.569   2.979   7.064 -1.0258 -0.2104  0.3558
 2659SOL    HW219440   0.587   2.829   7.059 -0.7322 -0.2831 -0.9867
 2660SOL     OW19441   3.593   3.410  11.413  0.0795  0.0438  0.3319
 2660SOL    HW119442   3.643   3.461  11.477 -0.4273 -0.8885  1.4719
 2660SOL    HW219443   3.628   3.322  11.430 -2.5205 -0.6393  2.2522
 2661SOL     OW19444   1.776   2.072   7.333  0.0697 -0.5344 -0.3706
 2661SOL    HW119445   1.690   2.045   7.366  0.9472  0.6303  2.8687
 2661SOL    HW219446   1.780   2.004   7.266 -0.6055 -1.8467  0.9195
 2662SOL     OW19447   1.128   4.010   3.634  0.1298 -0.8658 -0.3698
 2662SOL    HW119448   1.145   3.924   3.673 -3.0405 -0.9071  0.8872
 2662SOL    HW219449   1.165   3.999   3.546  2.7086 -1.9771  0.8448
 2663SOL     OW19450   1.080   0.389   6.133 -0.2822 -0.0939 -0.3663
 2663SOL    HW119451   1.111   0.299   6.123  1.7923  0.5840 -0.0256
 2663SOL    HW219452   1.013   0.387   6.064  1.1812  0.1501 -1.8081
 2664SOL     OW19453   3.238   2.890   9.937 -0.1755  0.8886 -0.4114
 2664SOL    HW119454   3.252   2.985   9.940 -0.5374  0.9077  0.4506
 2664SOL    HW219455   3.246   2.871  10.030  0.1141  2.6195 -0.0912
 2665SOL     OW19456   3.417   3.516   6.059 -0.0251 -0.3551  0.5206
 2665SOL    HW119457   3.469   3.596   6.059  0.3467 -0.6001  0.6329
 2665SOL    HW219458   3.494   3.462   6.042 -1.3588 -1.9040 -0.6167
 2666SOL     OW19459   3.522   4.010  13.310 -0.2270  0.6376 -0.2063
 2666SOL    HW119460   3.452   4.030  13.248 -0.4515  2.6023  0.6688
 2666SOL    HW219461   3.466   3.996  13.386  1.8759 -0.3683  1.1535
 2667SOL     OW19462   1.865   2.383   4.983 -0.2493  0.1762  0.2822
 2667SOL    HW119463   1.832   2.473   4.991  0.0554  0.4299 -1.2529
 2667SOL    HW219464   1.808   2.337   5.044  0.1004 -3.7120 -2.2969
 2668SOL     OW19465   0.218   1.319   9.829 -0.2151 -0.1069 -0.2071
 2668SOL    HW119466   0.213   1.297   9.922 -1.5400  0.1792 -0.2025
 2668SOL    HW219467   0.302   1.364   9.829 -0.7381  0.9076  1.3399
 2669SOL     OW19468   3.712   1.293   5.817 -0.8199  0.4635 -0.2416
 2669SOL    HW119469   3.689   1.200   5.822  1.7996 -0.2043 -0.8478
 2669SOL    HW219470   3.739   1.307   5.908 -0.2328  0.0744 -0.3548
 2670SOL     OW19471   2.929   3.540   8.279  0.3224 -0.3985  0.0623
 2670SOL    HW119472   2.941   3.583   8.364  0.0173 -0.2070  0.0045
 2670SOL    HW219473   2.978   3.459   8.299 -0.0513 -1.3709 -3.0360
 2671SOL     OW19474   0.473   4.125   7.136 -0.3408  0.1555 -0.6360
 2671SOL    HW119475   0.474   4.030   7.151  1.4598  0.0633 -1.3255
 2671SOL    HW219476   0.387   4.158   7.159 -0.9032 -1.1877 -0.8075
 2672SOL     OW19477   2.510   1.591   1.587  0.0145 -0.0325  0.1324
 2672SOL    HW119478   2.501   1.666   1.528 -1.4846 -0.6682 -0.4461
 2672SOL    HW219479   2.603   1.566   1.589  0.3614  1.3851  1.7907
 2673SOL     OW19480   0.408   2.193   5.068 -0.0037  0.2341 -0.2045
 2673SOL    HW119481   0.316   2.190   5.093 -0.0726 -0.9919 -0.6311
 2673SOL    HW219482   0.436   2.103   5.057  1.8626  0.6700  1.0362
 2674SOL     OW19483   1.792   3.980   6.608 -0.5212  0.6673  0.3564
 2674SOL    HW119484   1.768   3.950   6.520 -2.1241 -0.5109  1.2025
 2674SOL    HW219485   1.852   4.051   6.584  1.5809 -1.1962  0.1957
 2675SOL     OW19486   0.925   3.174   5.717 -0.0041 -0.2278 -0.0663
 2675SOL    HW119487   0.999   3.115   5.728 -0.0839 -0.4191 -0.5808
 2675SOL    HW219488   0.886   3.169   5.805  1.0357 -1.0335  0.3423
 2676SOL     OW19489   3.411   3.413  11.987  0.0484 -0.2609  0.5158
 2676SOL    HW119490   3.367   3.466  12.053  1.5621  2.3222 -0.5353
 2676SOL    HW219491   3.354   3.337  11.977  0.1032 -0.3760  1.1021
 2677SOL     OW19492   0.632   0.580   6.910 -0.1296 -0.0061 -0.1507
 2677SOL    HW119493   0.677   0.603   6.991  0.6842  0.3493 -0.7014
 2677SOL    HW219494   0.614   0.668   6.876  0.3364  0.3092  0.4249
 2678SOL     OW19495   1.618   4.608  15.872  0.4286  0.2709  0.5010
 2678SOL    HW119496   1.704   4.586  15.838 -0.4730 -0.8307 -1.0624
 2678SOL    HW219497   1.620   4.703  15.862  0.1243 -0.0320 -2.4233
 2679SOL     OW19498   1.460   2.657  11.170  0.4337  0.4381  0.2790
 2679SOL    HW119499   1.443   2.568  11.138  0.6360  0.7278 -0.6459
 2679SOL    HW219500   1.374   2.697  11.153 -0.4204 -1.9672 -1.1675
 2680SOL     OW19501   1.708   1.137   7.100 -0.2686  0.1220 -0.4759
 2680SOL    HW119502   1.755   1.120   7.018 -1.1393  1.6918 -1.2927
 2680SOL    HW219503   1.749   1.084   7.169  1.3233  0.0458 -1.4854
 2681SOL     OW19504   1.153   1.818  11.729  0.0930 -0.6570  0.1822
 2681SOL    HW119505   1.166   1.820  11.634 -2.4418  0.0077 -0.1488
 2681SOL    HW219506   1.146   1.912  11.745  0.3537 -0.4937 -0.6305
 2682SOL     OW19507   0.588   0.442  10.501 -0.1659  0.3446  0.0244
 2682SOL    HW119508   0.528   0.464  10.572  0.2429 -0.2123  0.5376
 2682SOL    HW219509   0.658   0.503  10.524 -1.6472  1.9091  0.4313
 2683SOL     OW19510   4.533   2.179  15.785  0.3404 -0.0997  0.1573
 2683SOL    HW119511   4.476   2.103  15.798 -3.2028  2.2483 -1.7119
 2683SOL    HW219512   4.497   2.219  15.706 -0.4755  0.7953  0.9679
 2684SOL     OW19513   2.358   1.275   7.943 -0.5949  0.3858 -0.0533
 2684SOL    HW119514   2.370   1.335   8.016  2.4060 -1.9901  1.4124
 2684SOL    HW219515   2.317   1.195   7.978 -2.8573  0.3367 -2.7544
 2685SOL     OW19516   1.816   1.282   0.821  0.4994 -0.1329  0.7320
 2685SOL    HW119517   1.910   1.289   0.833  0.8210 -0.7073 -1.3214
 2685SOL    HW219518   1.782   1.371   0.835 -0.1412 -0.1393 -0.7793
 2686SOL     OW19519   4.349   2.511   8.696  0.1481  0.0143 -0.4754
 2686SOL    HW119520   4.404   2.462   8.757 -0.2984 -0.7466 -0.6828
 2686SOL    HW219521   4.320   2.444   8.634 -1.9523  0.8302 -0.3660
 2687SOL     OW19522   3.181   1.958  17.337  0.3454 -0.4444  0.8378
 2687SOL    HW119523   3.246   1.949  17.267 -0.0769  0.3329  0.3459
 2687SOL    HW219524   3.203   2.047  17.364  0.2818 -0.4444  0.8893
 2688SOL     OW19525   3.722   3.861   6.212  0.0569  0.8373  0.1840
 2688SOL    HW119526   3.685   3.807   6.141  0.3510 -1.2861  1.6350
 2688SOL    HW219527   3.663   3.934   6.229 -0.4339  0.6626 -0.7195
 2689SOL     OW19528   0.543   3.946  11.120  0.1944 -0.5130 -0.0188
 2689SOL    HW119529   0.485   4.002  11.171  0.6305  0.8930 -1.0674
 2689SOL    HW219530   0.528   3.859  11.157 -1.4436 -0.8260 -1.4409
 2690SOL     OW19531   0.775   4.046   4.784  0.8329  0.2244  0.1754
 2690SOL    HW119532   0.852   4.070   4.836  0.0860 -0.0999  1.4120
 2690SOL    HW219533   0.712   4.083   4.846  0.9852  1.6656 -0.5231
 2691SOL     OW19534   4.049   3.551   5.664  0.0420 -0.1298  0.0897
 2691SOL    HW119535   4.000   3.474   5.694 -1.0871  0.1222 -1.0772
 2691SOL    HW219536   4.051   3.603   5.745  0.6182 -1.1930  0.7517
 2692SOL     OW19537   2.033   2.796   0.658  0.1253 -0.4829 -0.3415
 2692SOL    HW119538   2.012   2.811   0.750 -1.5565  1.2429 -1.0117
 2692SOL    HW219539   1.987   2.874   0.627 -1.9965 -1.7062 -0.2752
 2693SOL     OW19540   1.674   0.821   0.968  0.2159  0.2876  0.3238
 2693SOL    HW119541   1.695   0.805   0.876 -0.3664 -0.5359  0.3411
 2693SOL    HW219542   1.657   0.915   0.974  0.5190  0.3268  0.6162
 2694SOL     OW19543   0.340   0.590   5.472 -0.1340 -0.0639  0.0099
 2694SOL    HW119544   0.300   0.553   5.394  0.5238  2.1802 -1.3963
 2694SOL    HW219545   0.433   0.582   5.450 -0.1434 -1.9037  0.6701
 2695SOL     OW19546   1.759   2.468   7.413 -0.2541 -0.5577  0.5699
 2695SOL    HW119547   1.670   2.437   7.399 -0.0254 -0.5840 -0.8244
 2695SOL    HW219548   1.748   2.498   7.503 -1.6037 -0.3761  0.3346
 2696SOL     OW19549   3.759   0.003   2.570 -0.3997 -0.1912  0.7257
 2696SOL    HW119550   3.758   0.099   2.568 -1.4158 -0.2135  0.1849
 2696SOL    HW219551   3.740   4.717   2.477  0.0719 -0.1128  0.6194
 2697SOL     OW19552   4.120   0.123  10.362 -0.0332  0.3359 -0.3579
 2697SOL    HW119553   4.060   0.165  10.300  2.2527  2.2243 -1.2944
 2697SOL    HW219554   4.052   0.060  10.385  1.3639 -1.0758 -0.1215
 2698SOL     OW19555   2.441   3.574   7.729 -0.7010 -0.2479 -0.7064
 2698SOL    HW119556   2.347   3.580   7.748 -0.0237  2.2661  1.7676
 2698SOL    HW219557   2.470   3.554   7.818 -2.0955 -0.4281 -0.2976
 2699SOL     OW19558   2.907   3.036  15.526  0.3123 -0.2642 -0.2654
 2699SOL    HW119559   2.947   3.042  15.613  2.7636  1.2619 -1.4703
 2699SOL    HW219560   2.860   2.956  15.548  0.2635 -0.2225 -0.2180
 2700SOL     OW19561   1.650   0.134  12.212 -0.3789 -0.7605  0.4123
 2700SOL    HW119562   1.652   0.209  12.271 -1.5261 -0.3757 -0.0513
 2700SOL    HW219563   1.644   0.062  12.275 -0.9286 -0.5830  0.5630
 2701SOL     OW19564   3.080   0.308   4.025  0.2668  0.4347  0.2159
 2701SOL    HW119565   3.016   0.262   4.081  1.6462  0.7295  2.0383
 2701SOL    HW219566   3.028   0.337   3.950  0.6405  0.7652  0.0858
 2702SOL     OW19567   3.998   2.413   5.974 -0.2234  0.0332 -0.9428
 2702SOL    HW119568   3.987   2.321   5.996  2.3697 -0.2089 -0.6599
 2702SOL    HW219569   3.972   2.412   5.882  1.0205 -1.5252 -1.2817
 2703SOL     OW19570   1.866   4.487   3.412 -0.0896  0.0888  0.0004
 2703SOL    HW119571   1.947   4.465   3.460  1.5047  0.5668 -2.4590
 2703SOL    HW219572   1.814   4.515   3.488 -0.8572 -2.6060  0.4695
 2704SOL     OW19573   0.023   3.633   7.560 -0.1679 -0.4326 -0.1508
 2704SOL    HW119574   0.066   3.687   7.626 -2.4141  1.5286 -0.2780
 2704SOL    HW219575   4.658   3.667   7.561  0.9443  2.4745  0.0023
 2705SOL     OW19576   1.204   1.187   5.266  0.0193  0.1717  0.4077
 2705SOL    HW119577   1.250   1.210   5.347  0.6016 -2.1114  0.7265
 2705SOL    HW219578   1.112   1.182   5.293 -0.0882 -1.7919 -0.3056
 2706SOL     OW19579   3.056   3.230  13.287  0.0747 -0.4368 -0.2939
 2706SOL    HW119580   3.030   3.268  13.203  0.3448  1.3460  0.4396
 2706SOL    HW219581   3.036   3.138  13.270  0.3756 -0.5010 -0.2881
 2707SOL     OW19582   3.498   1.079  13.497  0.7468  0.2481  0.1472
 2707SOL    HW119583   3.495   1.069  13.592  1.4853  2.2700  0.3821
 2707SOL    HW219584   3.591   1.066  13.475  0.3790 -0.4354 -0.9802
 2708SOL     OW19585   0.762   0.248   2.837 -0.6001  0.5193  0.2242
 2708SOL    HW119586   0.748   0.166   2.883  0.0780 -1.1776 -2.5946
 2708SOL    HW219587   0.801   0.295   2.911 -0.5380  1.4113 -0.3731
 2709SOL     OW19588   2.790   3.537  17.171  0.1247 -0.3159 -0.2368
 2709SOL    HW119589   2.772   3.472  17.238  3.1180 -0.2678  0.6048
 2709SOL    HW219590   2.884   3.548  17.184 -0.2729  2.7909  0.0575
 2710SOL     OW19591   1.641   0.486   7.991 -0.1849 -0.4553  0.0744
 2710SOL    HW119592   1.644   0.529   7.906  0.3095 -0.0577  0.2942
 2710SOL    HW219593   1.624   0.397   7.960  0.6550 -0.2627 -0.9275
 2711SOL     OW19594   1.432   3.835   2.036  0.4396  0.2578  0.1442
 2711SOL    HW119595   1.373   3.905   2.062  1.2522  1.4951 -1.3843
 2711SOL    HW219596   1.374   3.797   1.970 -0.0097  1.8493 -0.3620
 2712SOL     OW19597   0.350   3.439   5.363 -0.3470 -0.0829 -0.3518
 2712SOL    HW119598   0.417   3.422   5.430  2.1114  1.0111 -2.5437
 2712SOL    HW219599   0.268   3.427   5.412 -0.5008 -2.9300 -1.3049
 2713SOL     OW19600   1.397   2.447   6.138  0.0266 -0.4373  0.2587
 2713SOL    HW119601   1.386   2.387   6.212 -1.3644  1.1483  1.3246
 2713SOL    HW219602   1.411   2.527   6.187 -0.1494 -0.0630 -0.3043
 2714SOL     OW19603   3.083   2.955   8.182  0.2486 -0.9961 -0.0915
 2714SOL    HW119604   3.150   2.888   8.195  1.4206 -0.3616 -2.8328
 2714SOL    HW219605   3.079   2.997   8.269  1.7856 -0.1501 -0.4307
 2715SOL     OW19606   3.755   0.608   4.144  0.0779 -0.2193 -0.4047
 2715SOL    HW119607   3.780   0.534   4.199 -3.0560  0.7808  2.3870
 2715SOL    HW219608   3.758   0.565   4.059 -1.6845  1.1475 -1.1718
 2716SOL     OW19609   1.531   2.713   3.884 -0.3772  0.3570 -0.6419
 2716SOL    HW119610   1.446   2.708   3.841 -2.3927 -0.6040  3.5324
 2716SOL    HW219611   1.565   2.796   3.850 -1.2195  0.8725 -0.2285
 2717SOL     OW19612   3.099   2.569   8.890 -0.2578 -0.1938 -0.0387
 2717SOL    HW119613   3.064   2.483   8.868  1.9134 -1.3604  1.0406
 2717SOL    HW219614   3.140   2.544   8.973 -2.3100  0.0545  1.0500
 2718SOL     OW19615   4.575   2.016   2.498  0.3613 -0.1877  0.0477
 2718SOL    HW119616   4.530   2.057   2.572 -1.7624 -0.4487 -1.0954
 2718SOL    HW219617   4.505   1.958   2.468  0.6073 -1.0476  1.1265
 2719SOL     OW19618   4.560   1.808   6.177 -0.3544 -0.4566 -0.3188
 2719SOL    HW119619   4.496   1.878   6.161 -0.7315 -1.2098 -2.0362
 2719SOL    HW219620   4.629   1.835   6.117  1.2933 -0.4479  1.5864
 2720SOL     OW19621   4.052   4.617  15.125 -0.1501 -0.5044 -0.2948
 2720SOL    HW119622   4.002   4.573  15.194  1.2007  0.7539  1.4923
 2720SOL    HW219623   3.983   4.640  15.062  0.0632  0.3333 -0.2253
 2721SOL     OW19624   4.717   4.138  16.714 -0.1192 -0.3566  0.4887
 2721SOL    HW119625   0.063   4.141  16.650  0.1745  1.2621  0.8925
 2721SOL    HW219626   4.663   4.070  16.675  3.1654 -2.0611 -1.0976
 2722SOL     OW19627   2.771   0.093   7.470 -0.1241 -0.1503  0.0672
 2722SOL    HW119628   2.757   0.091   7.375 -0.9179  0.3201  0.1726
 2722SOL    HW219629   2.769   0.001   7.495 -0.2879 -0.2326 -0.2519
 2723SOL     OW19630   0.534   0.825   5.655 -0.4238  0.1514  0.3611
 2723SOL    HW119631   0.482   0.763   5.604 -0.2190  0.4243 -0.1728
 2723SOL    HW219632   0.481   0.827   5.735  0.0864  0.0563  0.7062
 2724SOL     OW19633   0.992   4.650  11.012  0.5748  0.5719 -0.0709
 2724SOL    HW119634   1.030   4.710  10.948  2.0867  1.9248  2.1253
 2724SOL    HW219635   1.019   4.567  10.971 -0.3676 -0.2644  0.9840
 2725SOL     OW19636   4.193   2.762  12.356  0.9272  0.0526 -0.0732
 2725SOL    HW119637   4.272   2.711  12.337  1.0042 -0.6649  2.0858
 2725SOL    HW219638   4.183   2.809  12.274  0.7782  0.6286  0.2704
 2726SOL     OW19639   0.158   0.086   2.440  0.2735 -0.0194  0.1315
 2726SOL    HW119640   0.094   0.150   2.407  0.0175  0.3836  1.3981
 2726SOL    HW219641   0.141   0.018   2.375 -1.0133 -0.7622  1.2312
 2727SOL     OW19642   0.853   2.735   0.408 -0.7934 -0.0585 -0.0612
 2727SOL    HW119643   0.778   2.676   0.418 -1.3423  0.6254 -0.1385
 2727SOL    HW219644   0.840   2.802   0.475  0.4954 -0.3245  0.4648
 2728SOL     OW19645   3.440   0.827  14.088 -0.4125 -0.2846 -0.0055
 2728SOL    HW119646   3.481   0.837  14.002 -0.2688  2.0666  0.3383
 2728SOL    HW219647   3.472   0.901  14.140 -1.3104 -0.4184  0.7260
 2729SOL     OW19648   1.938   0.777   4.475  0.4293  0.3546  0.0371
 2729SOL    HW119649   1.972   0.854   4.522  0.6911 -0.4234  1.1372
 2729SOL    HW219650   2.003   0.776   4.404  0.0725 -0.0019 -0.2774
 2730SOL     OW19651   2.963   1.806   8.792 -0.3922 -0.0859 -0.1657
 2730SOL    HW119652   2.959   1.814   8.697  0.3602  2.3906  0.0201
 2730SOL    HW219653   2.948   1.892   8.831 -0.6940 -0.0577 -0.3501
 2731SOL     OW19654   3.607   0.370   6.221 -0.4466  0.2988 -0.0070
 2731SOL    HW119655   3.581   0.278   6.223  2.2858 -0.4723 -0.0837
 2731SOL    HW219656   3.695   0.360   6.258 -0.0349  0.6576 -0.8901
 2732SOL     OW19657   0.625   4.157   9.128 -0.2773 -0.8449 -0.1252
 2732SOL    HW119658   0.574   4.173   9.049 -0.2899  0.0723  0.0718
 2732SOL    HW219659   0.666   4.072   9.110  1.5109  0.0853 -0.4932
 2733SOL     OW19660   4.416   3.803   6.152 -0.4101  0.0321 -0.7676
 2733SOL    HW119661   4.434   3.770   6.064  0.0499 -0.1534 -0.6005
 2733SOL    HW219662   4.355   3.734   6.178 -0.8404  0.3205 -1.0065
 2734SOL     OW19663   2.760   2.307   4.637 -0.0510  0.1017  0.3592
 2734SOL    HW119664   2.682   2.318   4.583  0.8231  1.2253 -0.6897
 2734SOL    HW219665   2.746   2.388   4.685  4.5139  0.5545  0.9931
 2735SOL     OW19666   0.558   3.920   1.770 -0.2902 -0.5370 -0.0605
 2735SOL    HW119667   0.509   3.970   1.835 -0.1615 -1.6874  0.9172
 2735SOL    HW219668   0.556   3.993   1.709  3.0984  0.2502  0.7505
 2736SOL     OW19669   4.698   3.970   0.006 -0.4601  0.3168  0.2705
 2736SOL    HW119670   4.604   3.963   0.017 -0.4718  0.7959  0.4944
 2736SOL    HW219671   4.711   4.055  17.664 -1.3263  0.3118  0.0105
 2737SOL     OW19672   1.489   1.082   5.740  0.1215 -0.7588 -0.4307
 2737SOL    HW119673   1.550   1.148   5.773  1.0126 -1.7076 -0.1901
 2737SOL    HW219674   1.516   1.067   5.650 -2.0250 -0.3250 -1.1560
 2738SOL     OW19675   0.400   3.098   9.037  0.9856  0.3739  0.6593
 2738SOL    HW119676   0.413   3.012   8.998 -3.5278  0.0922 -0.2677
 2738SOL    HW219677   0.386   3.072   9.128  1.2604 -0.2236  0.5342
 2739SOL     OW19678   0.318   1.780   5.241  0.3521 -0.4164  0.0207
 2739SOL    HW119679   0.395   1.823   5.204 -0.1880 -0.2657 -0.9297
 2739SOL    HW219680   0.302   1.717   5.170  1.9582 -0.2149 -0.5027
 2740SOL     OW19681   4.557   4.248   7.757  0.0459  0.0280  0.2106
 2740SOL    HW119682   4.500   4.254   7.681 -0.5907  0.6198  0.7407
 2740SOL    HW219683   4.523   4.313   7.818  2.6491 -0.4098  2.1214
 2741SOL     OW19684   2.319   3.193   9.264  0.2914 -0.4239 -0.5658
 2741SOL    HW119685   2.369   3.236   9.333  0.2193 -0.6322 -0.3842
 2741SOL    HW219686   2.281   3.272   9.225 -0.1957 -0.0063  0.7706
 2742SOL     OW19687   2.099   1.843   1.599  0.5665 -0.2881  0.2436
 2742SOL    HW119688   2.032   1.844   1.530  0.4240 -0.6028  0.3778
 2742SOL    HW219689   2.071   1.758   1.634  1.1489 -1.1780 -1.4214
 2743SOL     OW19690   3.590   0.837   9.251 -0.2637  0.0008  0.1055
 2743SOL    HW119691   3.657   0.820   9.184 -0.8065 -1.1350 -0.1464
 2743SOL    HW219692   3.528   0.896   9.208 -0.6282  1.5706  2.8160
 2744SOL     OW19693   0.565   0.556   2.057  0.6634 -0.0914 -0.0951
 2744SOL    HW119694   0.538   0.480   2.108  0.8571 -0.6298 -0.7999
 2744SOL    HW219695   0.616   0.525   1.982  2.1193  1.4344  0.2592
 2745SOL     OW19696   0.842   1.158   5.347  0.5835  0.5838  0.2009
 2745SOL    HW119697   0.856   1.141   5.254  0.3444  3.4045 -0.3658
 2745SOL    HW219698   0.764   1.213   5.341  0.8232  0.8533 -0.5578
 2746SOL     OW19699   1.601   3.999   7.558 -0.2956 -0.4874 -0.0002
 2746SOL    HW119700   1.568   4.080   7.597 -0.3605 -0.5784  0.1322
 2746SOL    HW219701   1.533   3.981   7.493  0.6406 -2.7029 -0.3888
 2747SOL     OW19702   0.551   3.093   1.585 -0.1647  0.2474  0.4909
 2747SOL    HW119703   0.500   3.031   1.637  1.5984 -1.1672  0.5353
 2747SOL    HW219704   0.599   3.142   1.652 -0.5514 -1.7691  2.2534
 2748SOL     OW19705   0.800   3.945   9.164 -0.2822 -0.4364 -0.4656
 2748SOL    HW119706   0.871   3.968   9.224  2.3970 -3.2462 -2.5692
 2748SOL    HW219707   0.845   3.883   9.107 -1.3909 -2.7772  1.2100
 2749SOL     OW19708   1.871   2.083   9.487 -0.1616  0.3973  0.5670
 2749SOL    HW119709   1.873   2.053   9.578  1.7656 -0.7209  0.1600
 2749SOL    HW219710   1.870   2.178   9.493  0.7843  0.4906 -0.8792
 2750SOL     OW19711   3.809   0.388   5.648  0.3124  0.5723  0.2694
 2750SOL    HW119712   3.863   0.356   5.721  0.3256 -0.2844 -0.1196
 2750SOL    HW219713   3.869   0.450   5.607  0.5994 -0.5984 -1.0504
 2751SOL     OW19714   1.310   0.175  15.764  0.0988  0.2398  0.4086
 2751SOL    HW119715   1.399   0.138  15.767  0.6220  1.6062  1.4962
 2751SOL    HW219716   1.259   0.094  15.765 -1.3360  1.1243 -1.2204
 2752SOL     OW19717   3.965   0.767   4.041  0.0720  0.8072  0.5492
 2752SOL    HW119718   3.962   0.801   4.131  0.6022  1.0370  0.4770
 2752SOL    HW219719   3.872   0.778   4.022  0.3934 -1.2677 -2.1929
 2753SOL     OW19720   1.256   0.949   3.844 -0.0349  0.8120  0.0662
 2753SOL    HW119721   1.178   0.928   3.792  1.3700 -2.5265 -0.6895
 2753SOL    HW219722   1.323   0.919   3.783  1.0158 -0.0263  1.6431
 2754SOL     OW19723   1.058   3.986   2.672 -0.0419  0.0290 -0.6368
 2754SOL    HW119724   1.016   4.070   2.689  1.4870  0.2245  2.1445
 2754SOL    HW219725   1.065   3.951   2.761 -0.9175  1.2665 -0.0786
 2755SOL     OW19726   3.308   0.423   3.896 -0.2924 -0.2273  0.2222
 2755SOL    HW119727   3.288   0.329   3.901 -0.4438 -0.2121 -0.1563
 2755SOL    HW219728   3.304   0.435   3.801 -2.7540  0.1954  0.3718
 2756SOL     OW19729   2.645   3.891   5.371 -0.3341  0.2882  0.0816
 2756SOL    HW119730   2.616   3.799   5.377 -1.1460  0.5542  0.2470
 2756SOL    HW219731   2.654   3.887   5.275  1.9959 -0.4717  0.3228
 2757SOL     OW19732   0.889   0.890  16.802  0.0190  0.2227 -0.6657
 2757SOL    HW119733   0.862   0.965  16.854 -2.2068 -0.1274 -1.2904
 2757SOL    HW219734   0.807   0.850  16.773  0.9268  0.3943 -3.4469
 2758SOL     OW19735   2.427   2.363   3.538 -0.3305  0.7219 -0.4609
 2758SOL    HW119736   2.468   2.400   3.616  3.0427 -1.2926 -1.2798
 2758SOL    HW219737   2.508   2.338   3.493 -2.5282 -3.5419 -2.0479
 2759SOL     OW19738   1.938   1.190   8.654  0.4458  0.9982  0.1531
 2759SOL    HW119739   2.012   1.247   8.672  2.3325 -1.1903 -0.5978
 2759SOL    HW219740   1.939   1.129   8.728  0.1239  0.5013 -0.2477
 2760SOL     OW19741   2.747   1.223   5.004  0.0500  0.4865 -0.0762
 2760SOL    HW119742   2.729   1.150   5.063 -3.0061  0.6428 -0.8076
 2760SOL    HW219743   2.677   1.285   5.024  0.0630  1.3794 -2.6989
 2761SOL     OW19744   2.876   3.292   1.262 -0.3652  0.2498  0.3736
 2761SOL    HW119745   2.860   3.329   1.349  1.6334  1.1128  0.3710
 2761SOL    HW219746   2.808   3.320   1.201 -0.5018  1.6309  1.1700
 2762SOL     OW19747   1.151   2.126   2.149 -0.1803 -0.5098 -0.0750
 2762SOL    HW119748   1.239   2.102   2.179  0.3210  2.2361  0.6643
 2762SOL    HW219749   1.121   2.043   2.110  0.7918 -2.0493  2.4451
 2763SOL     OW19750   2.839   3.614  10.980 -0.0536  0.2617 -0.8569
 2763SOL    HW119751   2.754   3.586  11.013 -1.1690  1.4617 -2.7129
 2763SOL    HW219752   2.847   3.706  11.005 -0.4829 -0.0931  0.5800
 2764SOL     OW19753   2.121   3.422   8.213 -0.1300  0.0502  0.5864
 2764SOL    HW119754   2.121   3.473   8.132  3.8887  0.2002  0.6830
 2764SOL    HW219755   2.192   3.456   8.266 -0.8513  0.1485  1.4831
 2765SOL     OW19756   3.641   0.087  11.491  0.5598 -0.3058 -0.6675
 2765SOL    HW119757   3.582   0.090  11.415  0.2875  1.2553 -0.4100
 2765SOL    HW219758   3.576   0.132  11.546 -0.2376 -1.1330 -0.9302
 2766SOL     OW19759   1.664   0.749  15.517 -0.5283 -0.1704 -0.0110
 2766SOL    HW119760   1.595   0.786  15.462 -1.0640  0.2446  0.9583
 2766SOL    HW219761   1.671   0.828  15.570  0.3535 -1.3404  1.5901
 2767SOL     OW19762   3.822   2.834   6.470  0.3594 -0.2899  0.6025
 2767SOL    HW119763   3.914   2.813   6.454 -0.0371 -3.3561  2.4548
 2767SOL    HW219764   3.816   2.923   6.505 -1.0590 -0.3022  0.3830
 2768SOL     OW19765   2.956   0.318   4.729 -0.5535 -0.0237  0.1842
 2768SOL    HW119766   2.909   0.354   4.654  0.1235 -0.5601 -0.4880
 2768SOL    HW219767   3.005   0.248   4.688 -1.2684  1.8981 -3.9583
 2769SOL     OW19768   0.420   0.234   2.490  0.3255 -0.2454  0.0877
 2769SOL    HW119769   0.342   0.180   2.479  0.2752  0.0289 -0.9057
 2769SOL    HW219770   0.499   0.182   2.505 -0.2307 -1.7637 -2.2072
 2770SOL     OW19771   0.706   3.793   2.689 -0.4502 -0.2173  0.4940
 2770SOL    HW119772   0.669   3.812   2.603  1.5411 -0.4938 -0.4426
 2770SOL    HW219773   0.796   3.766   2.667  0.4054  1.6058  1.7752
 2771SOL     OW19774   2.039   0.512  15.254  0.3923  0.3890 -0.2939
 2771SOL    HW119775   1.947   0.510  15.280  0.4796 -1.1872 -0.1097
 2771SOL    HW219776   2.035   0.428  15.208 -0.2313  1.1741 -1.6700
 2772SOL     OW19777   2.029   1.362  12.796 -0.0754 -0.3995 -0.5783
 2772SOL    HW119778   1.938   1.353  12.766  0.0640 -0.6113 -0.9317
 2772SOL    HW219779   2.013   1.426  12.865  0.0367 -2.0100  0.9400
 2773SOL     OW19780   1.693   0.646  13.555 -0.5075 -0.1711 -0.5441
 2773SOL    HW119781   1.787   0.661  13.553 -0.6283  0.3344 -3.0929
 2773SOL    HW219782   1.689   0.552  13.538 -3.3845 -0.4783  1.8723
 2774SOL     OW19783   1.533   4.020   0.441 -0.0548 -0.1294  0.0532
 2774SOL    HW119784   1.461   4.028   0.503  0.6703 -0.1912  0.8983
 2774SOL    HW219785   1.600   3.974   0.491 -1.3190  0.2164  2.0593
 2775SOL     OW19786   1.459   1.234   0.517 -0.1068 -0.2080  0.1917
 2775SOL    HW119787   1.429   1.299   0.454 -1.5053  0.2071  1.2782
 2775SOL    HW219788   1.536   1.282   0.548 -0.9014  1.4487 -0.4317
 2776SOL     OW19789   2.553   3.520   3.238  0.1112  0.1431  0.3583
 2776SOL    HW119790   2.458   3.525   3.229  0.3820 -0.2028 -2.6772
 2776SOL    HW219791   2.545   3.479   3.324 -1.1810  0.7838  0.5308
 2777SOL     OW19792   1.371   2.709   0.964  0.0330  0.1535 -0.1091
 2777SOL    HW119793   1.363   2.779   0.900  0.7364  2.1080  1.9169
 2777SOL    HW219794   1.348   2.756   1.044 -2.2370 -0.2818 -0.5153
 2778SOL     OW19795   2.554   0.363  15.698  0.0905  0.1001 -0.3068
 2778SOL    HW119796   2.477   0.397  15.653  0.6312  1.9053  0.1092
 2778SOL    HW219797   2.528   0.324  15.781  1.2158 -2.6939 -1.2686
 2779SOL     OW19798   1.833   2.162   0.287  0.1601 -0.7542 -0.3055
 2779SOL    HW119799   1.795   2.245   0.260 -0.3124  0.1911  3.1665
 2779SOL    HW219800   1.919   2.197   0.266  1.4251 -3.0504  1.0596
 2780SOL     OW19801   4.604   2.650   7.601  0.0779 -0.1085  0.2045
 2780SOL    HW119802   4.637   2.584   7.662  4.7848  1.8705 -0.2179
 2780SOL    HW219803   4.581   2.594   7.527 -1.6183 -0.2368  0.8245
 2781SOL     OW19804   2.488   1.622  11.088 -0.0319 -0.0906  0.2138
 2781SOL    HW119805   2.430   1.557  11.048 -0.9466  0.3235  0.8577
 2781SOL    HW219806   2.529   1.565  11.153  2.3503 -0.7711 -1.8889
 2782SOL     OW19807   0.167   1.949  13.892 -0.0677  0.2258 -0.2610
 2782SOL    HW119808   0.198   1.882  13.832  1.8207  0.2209  0.7234
 2782SOL    HW219809   0.236   1.954  13.958 -0.6035  0.7066  0.2668
 2783SOL     OW19810   3.878   1.066   3.320  0.1903  0.1021  0.2552
 2783SOL    HW119811   3.791   1.036   3.295  0.3564 -1.5590  1.6860
 2783SOL    HW219812   3.922   0.981   3.320  0.9056  0.4686  0.2257
 2784SOL     OW19813   0.716   3.731   3.176 -0.3186 -0.2475  0.4196
 2784SOL    HW119814   0.701   3.706   3.084 -1.2857 -1.8072  0.9899
 2784SOL    HW219815   0.639   3.787   3.185  0.1993  0.4667  0.4182
 2785SOL     OW19816   4.565   2.531  16.936 -0.5138  0.5247  0.3357
 2785SOL    HW119817   4.524   2.579  17.008  0.2713  1.6037  0.0569
 2785SOL    HW219818   4.533   2.590  16.868  1.2487 -0.1468 -1.0848
 2786SOL     OW19819   0.761   3.704  11.316  0.0427  0.1519  0.2846
 2786SOL    HW119820   0.685   3.758  11.296  1.0025  1.3092 -0.1998
 2786SOL    HW219821   0.798   3.696  11.229  1.4582  2.2773  0.7028
 2787SOL     OW19822   1.798   4.430  16.641  0.0585 -0.4894  0.1840
 2787SOL    HW119823   1.797   4.521  16.671 -2.2135 -0.6549  0.6632
 2787SOL    HW219824   1.754   4.445  16.558 -1.4190  1.0779  1.2450
 2788SOL     OW19825   0.498   3.261   6.295  0.3200  0.8473 -0.3508
 2788SOL    HW119826   0.560   3.202   6.340  0.3215  1.1177  0.0039
 2788SOL    HW219827   0.564   3.329   6.288  1.0915  0.4100  2.4855
 2789SOL     OW19828   2.673   3.766  17.217  0.2281 -0.1038 -0.3481
 2789SOL    HW119829   2.599   3.731  17.267  0.9569 -1.6238 -0.3213
 2789SOL    HW219830   2.720   3.690  17.183  2.7472  1.4872 -0.3940
 2790SOL     OW19831   2.277   3.614   3.224 -0.1631  0.0846 -0.1446
 2790SOL    HW119832   2.205   3.671   3.249 -0.3913 -0.0407 -0.5136
 2790SOL    HW219833   2.229   3.534   3.241  0.8976 -0.7076 -0.8481
 2791SOL     OW19834   1.612   4.493   7.731  0.3768 -0.2987 -0.1827
 2791SOL    HW119835   1.613   4.455   7.819  1.4111  1.8149  0.7356
 2791SOL    HW219836   1.581   4.580   7.757  0.3957 -1.4221  3.6402
 2792SOL     OW19837   1.663   3.066  10.770 -0.2467  0.0997 -0.0379
 2792SOL    HW119838   1.666   3.022  10.685 -2.8774  0.1058 -0.1301
 2792SOL    HW219839   1.754   3.070  10.799 -0.2557  0.2303 -0.0295
 2793SOL     OW19840   2.719   2.998   2.746 -0.4763  0.2155  0.1046
 2793SOL    HW119841   2.737   3.055   2.671 -0.0745  1.0482  0.8351
 2793SOL    HW219842   2.661   2.930   2.712 -1.0719  0.5544  0.4374
 2794SOL     OW19843   1.238   0.647   6.785  0.7107 -0.1830 -0.2418
 2794SOL    HW119844   1.144   0.633   6.776  0.4087  1.4188  0.3921
 2794SOL    HW219845   1.273   0.597   6.712  1.9378  1.7982 -0.9718
 2795SOL     OW19846   2.947   0.658  10.156 -0.4539 -0.5931 -0.0824
 2795SOL    HW119847   2.942   0.752  10.134 -0.9221 -0.7422 -0.6035
 2795SOL    HW219848   2.885   0.642  10.227  0.8906 -2.0832  0.7467
 2796SOL     OW19849   2.085   2.654   2.862  0.0950 -0.3450  0.2378
 2796SOL    HW119850   2.014   2.652   2.798 -1.5485 -1.5468  2.0883
 2796SOL    HW219851   2.127   2.736   2.833  0.4219 -0.7345 -0.3864
 2797SOL     OW19852   0.406   0.406   2.986 -0.4773  0.2284  0.0476
 2797SOL    HW119853   0.350   0.332   2.964 -1.0303  1.3255 -2.2442
 2797SOL    HW219854   0.431   0.439   2.899 -0.5147  0.6920  0.2108
 2798SOL     OW19855   0.548   1.465   2.055  0.4496 -0.0475 -0.9261
 2798SOL    HW119856   0.619   1.516   2.016 -0.1964  0.7397 -1.0609
 2798SOL    HW219857   0.565   1.493   2.145 -0.8095 -2.4144  0.0720
 2799SOL     OW19858   3.725   2.482   7.301  0.1716 -0.2053 -0.2964
 2799SOL    HW119859   3.782   2.434   7.241  0.7742  0.4003 -0.2062
 2799SOL    HW219860   3.793   2.535   7.343 -0.8277  0.3571  0.5822
 2800SOL     OW19861   0.048   2.063   4.161  0.4390 -0.2222 -0.6689
 2800SOL    HW119862   4.684   2.055   4.193  1.1891  0.9978  1.7356
 2800SOL    HW219863   0.038   2.043   4.068  0.8625 -2.5112 -0.2254
 2801SOL     OW19864   0.228   4.037   3.202  0.1499 -0.2873 -0.4456
 2801SOL    HW119865   0.244   3.997   3.116  1.1586 -0.7537 -0.0463
 2801SOL    HW219866   0.307   4.040   3.256  0.6894  0.4282 -1.2637
 2802SOL     OW19867   1.245   0.256   9.844  0.4967 -0.5117  0.1278
 2802SOL    HW119868   1.303   0.182   9.826  1.3928  0.0808  0.5802
 2802SOL    HW219869   1.224   0.235   9.935 -0.7835 -1.2774 -0.3406
 2803SOL     OW19870   4.706   1.561   8.422  0.1447  0.8782  0.4299
 2803SOL    HW119871   0.055   1.551   8.362  0.0719  2.5430  0.0464
 2803SOL    HW219872   4.703   1.651   8.456 -0.9639  0.6049  1.0666
 2804SOL     OW19873   4.322   4.332  15.991  0.3186  0.6313 -0.1254
 2804SOL    HW119874   4.232   4.312  16.016 -0.1899 -0.4107 -2.8256
 2804SOL    HW219875   4.312   4.427  16.002  1.2321  0.6691  0.3842
 2805SOL     OW19876   4.011   4.410   3.909  0.2299 -0.3077  0.3560
 2805SOL    HW119877   4.052   4.326   3.932  1.1196  0.5603  1.8966
 2805SOL    HW219878   4.087   4.467   3.900  0.5165 -0.8920 -0.9142
 2806SOL     OW19879   3.947   1.634   8.472 -0.6631 -0.5722 -0.0513
 2806SOL    HW119880   3.989   1.683   8.401 -3.0401 -1.6851 -2.2158
 2806SOL    HW219881   3.949   1.695   8.546 -0.6573  1.1046 -1.4216
 2807SOL     OW19882   1.447   2.842   6.026  0.1337 -0.8592 -0.3082
 2807SOL    HW119883   1.444   2.795   6.109  2.1113 -0.0168  0.2372
 2807SOL    HW219884   1.539   2.835   6.000  0.7188 -0.6022  1.7232
 2808SOL     OW19885   2.134   2.222   8.048  0.5417 -0.1273 -0.1878
 2808SOL    HW119886   2.044   2.248   8.029  0.1200 -0.5644  1.2138
 2808SOL    HW219887   2.149   2.300   8.101 -1.4165 -1.5766  2.4918
 2809SOL     OW19888   0.566   3.746   7.415  0.0302 -0.1022  0.1889
 2809SOL    HW119889   0.475   3.754   7.443  0.3310  0.9665  0.8686
 2809SOL    HW219890   0.558   3.760   7.321 -0.6584 -0.1486  0.2392
 2810SOL     OW19891   3.367   2.510   8.408  0.6831  0.4680  0.4019
 2810SOL    HW119892   3.437   2.488   8.469  0.7514  1.0309  0.5241
 2810SOL    HW219893   3.300   2.541   8.468  1.0207  0.5399  0.7439
 2811SOL     OW19894   3.343   4.333  13.291 -0.6971  0.3580  0.0428
 2811SOL    HW119895   3.336   4.242  13.262 -1.4349  0.9801 -1.7480
 2811SOL    HW219896   3.404   4.330  13.365  0.8394  0.5716 -1.2266
 2812SOL     OW19897   3.160   1.117   6.293 -0.3216  0.5203 -0.0677
 2812SOL    HW119898   3.127   1.033   6.324 -2.6858  1.9599  1.3282
 2812SOL    HW219899   3.190   1.163   6.371  1.4045  0.5763 -0.7603
 2813SOL     OW19900   1.518   2.871   4.748  0.2587  0.4865  0.3215
 2813SOL    HW119901   1.510   2.775   4.753  1.0439  0.2650 -2.3103
 2813SOL    HW219902   1.427   2.889   4.726 -0.3977 -1.1908  1.6735
 2814SOL     OW19903   1.387   1.172  14.071  0.2355 -0.1828  0.3741
 2814SOL    HW119904   1.362   1.146  14.159  0.8204 -1.4249  0.1645
 2814SOL    HW219905   1.337   1.252  14.054  1.2710  0.3769 -0.1001
 2815SOL     OW19906   4.189   2.648  14.097  0.1853 -0.0468  0.0388
 2815SOL    HW119907   4.122   2.667  14.031 -1.0503 -2.3716  0.6400
 2815SOL    HW219908   4.253   2.609  14.037  0.1472  1.8058 -1.2311
 2816SOL     OW19909   2.696   1.406  14.504  0.6514  0.2061  0.8073
 2816SOL    HW119910   2.686   1.397  14.409 -1.0275  1.8580  0.8260
 2816SOL    HW219911   2.669   1.498  14.515 -2.2601 -0.7379  1.4593
 2817SOL     OW19912   3.285   1.665  11.830  0.1336 -0.4252 -0.4469
 2817SOL    HW119913   3.225   1.645  11.902  0.8598 -1.6924 -0.2000
 2817SOL    HW219914   3.350   1.726  11.864 -2.5953  1.1575  1.9959
 2818SOL     OW19915   1.611   3.423  13.098  0.7118  0.3353  0.2239
 2818SOL    HW119916   1.608   3.393  13.007 -2.1694  0.6627  0.2045
 2818SOL    HW219917   1.648   3.511  13.085  0.6213  0.4736  0.8894
 2819SOL     OW19918   4.582   3.705   9.904 -0.0256 -0.3396  0.0380
 2819SOL    HW119919   4.527   3.758   9.962 -0.1793  0.0522 -0.4671
 2819SOL    HW219920   4.573   3.764   9.829  0.3765  0.3992  0.5730
 2820SOL     OW19921   1.172   3.956   3.342 -0.3612  0.2289  0.0075
 2820SOL    HW119922   1.107   3.896   3.306 -0.9528  2.1717 -2.1234
 2820SOL    HW219923   1.217   3.981   3.261  1.6916 -1.0792  0.7394
 2821SOL     OW19924   2.064   1.845   6.812 -0.5342  0.5383  0.5201
 2821SOL    HW119925   2.113   1.786   6.755 -0.9048 -1.7980  2.6413
 2821SOL    HW219926   2.087   1.790   6.887 -1.3684 -1.5971 -0.8188
 2822SOL     OW19927   4.524   0.022   5.317 -0.5739  0.4608  0.6262
 2822SOL    HW119928   4.514   4.657   5.348 -0.8622 -0.3934 -1.9438
 2822SOL    HW219929   4.521   0.068   5.401 -1.8030  0.2893  0.6701
 2823SOL     OW19930   1.283   1.211   2.260  0.0432  0.5147  0.6398
 2823SOL    HW119931   1.327   1.170   2.334 -1.1854  0.2976  1.2561
 2823SOL    HW219932   1.198   1.223   2.303  0.3209  0.1065  1.2960
 2824SOL     OW19933   1.496   0.001  17.604 -0.6729  0.3840 -0.2097
 2824SOL    HW119934   1.578   4.687  17.572 -0.0405  2.8604 -1.6508
 2824SOL    HW219935   1.463   4.654  17.657  1.1139 -0.4255 -0.1958
 2825SOL     OW19936   3.953   3.020   5.996  0.2456  0.1074  0.0492
 2825SOL    HW119937   4.000   3.083   5.941 -1.5809  1.7140  0.3186
 2825SOL    HW219938   4.002   2.939   5.989 -0.4840 -0.3463  0.2516
 2826SOL     OW19939   0.984   3.417   5.260 -0.5013  0.0786 -0.1391
 2826SOL    HW119940   1.059   3.393   5.315 -0.5537 -0.9599 -0.5415
 2826SOL    HW219941   0.916   3.373   5.310 -1.4302  0.2902 -1.2373
 2827SOL     OW19942   0.153   2.680   2.811  0.1509  0.6196  0.4721
 2827SOL    HW119943   0.176   2.736   2.885 -1.9321 -1.3669  2.6121
 2827SOL    HW219944   0.223   2.704   2.751  0.6619 -0.2371  0.7223
 2828SOL     OW19945   4.691   1.288   6.609  0.2486 -0.1030 -0.0382
 2828SOL    HW119946   4.661   1.379   6.606 -1.4981 -0.6105  2.0491
 2828SOL    HW219947   4.693   1.273   6.515 -0.7300 -0.0178 -0.0685
 2829SOL     OW19948   2.704   0.263  13.876 -0.6520  0.0543 -0.6320
 2829SOL    HW119949   2.709   0.178  13.834  0.8675 -0.6081  0.8577
 2829SOL    HW219950   2.741   0.312  13.803  1.2274  0.6466  0.6895
 2830SOL     OW19951   3.350   2.559   3.186 -0.0782 -0.3171 -0.0568
 2830SOL    HW119952   3.315   2.483   3.139  0.4523 -1.6243  1.6738
 2830SOL    HW219953   3.272   2.614   3.179  0.5048  0.5336  0.2405
 2831SOL     OW19954   0.445   3.991   2.641 -0.6349  0.1546 -0.1035
 2831SOL    HW119955   0.395   3.920   2.601 -0.9713 -0.5081  1.5002
 2831SOL    HW219956   0.485   4.035   2.565  0.6858  0.5164  0.7980
 2832SOL     OW19957   2.811   0.990   7.141  0.1998  0.2919 -0.1568
 2832SOL    HW119958   2.818   0.905   7.098 -0.2660  0.2795 -0.2097
 2832SOL    HW219959   2.897   1.025   7.119 -0.0483  0.1513 -1.3542
 2833SOL     OW19960   4.665   3.316   2.205  0.1812 -0.4227  0.5250
 2833SOL    HW119961   4.589   3.258   2.195 -0.6579  0.6966  0.2933
 2833SOL    HW219962   4.699   3.320   2.116 -1.7659  0.2550 -0.2011
 2834SOL     OW19963   2.461   2.148   1.250  0.3351 -0.0265  0.2138
 2834SOL    HW119964   2.537   2.147   1.193 -0.0982  0.8408 -0.3779
 2834SOL    HW219965   2.393   2.130   1.185  0.0302  0.2846  0.4469
 2835SOL     OW19966   1.742   0.044   6.010 -0.5098 -0.0640  0.1233
 2835SOL    HW119967   1.669   4.707   6.003  0.6411 -1.3011 -0.9073
 2835SOL    HW219968   1.799   4.713   6.062 -0.7492  1.4931  2.0760
 2836SOL     OW19969   3.422   3.552   2.621  0.2350 -0.5471 -0.4088
 2836SOL    HW119970   3.352   3.528   2.681  1.3034 -0.2320  0.9534
 2836SOL    HW219971   3.463   3.467   2.605 -1.6171 -1.3594 -0.8477
 2837SOL     OW19972   0.819   2.015   1.450 -0.0818 -0.0864 -0.6528
 2837SOL    HW119973   0.781   1.928   1.441 -3.0524  1.1527  0.1528
 2837SOL    HW219974   0.870   2.007   1.531 -1.0861  0.0726 -0.0051
 2838SOL     OW19975   2.091   2.878   1.768  0.1203  0.2365  0.0731
 2838SOL    HW119976   2.023   2.932   1.727  0.9805  1.1453 -0.1616
 2838SOL    HW219977   2.041   2.799   1.788  1.0231 -0.3513  0.0337
 2839SOL     OW19978   1.874   1.849   1.429  0.2611 -0.4246  0.3675
 2839SOL    HW119979   1.801   1.795   1.459  1.7398 -3.6970 -1.8477
 2839SOL    HW219980   1.834   1.935   1.435  0.5396 -0.2581 -0.1714
 2840SOL     OW19981   0.246   0.412   7.674 -0.5843 -0.3613 -0.0024
 2840SOL    HW119982   0.230   0.504   7.652 -0.9922 -0.3859  0.1856
 2840SOL    HW219983   0.280   0.369   7.595  0.6454  0.1876  0.2358
 2841SOL     OW19984   1.020   1.963  13.940 -0.1193  0.1448  0.2899
 2841SOL    HW119985   0.927   1.971  13.923 -0.0014  0.0698 -0.3771
 2841SOL    HW219986   1.042   1.892  13.880  1.3559  1.7811 -1.1025
 2842SOL     OW19987   3.943   3.976  10.997 -0.2368  0.0999 -0.0037
 2842SOL    HW119988   3.863   4.000  10.951 -0.8227  0.3378  1.1375
 2842SOL    HW219989   3.973   3.913  10.931 -1.8450 -0.1923 -0.4519
 2843SOL     OW19990   0.204   4.547   9.324  0.4297 -0.0944  0.5241
 2843SOL    HW119991   0.275   4.485   9.340  1.4162  1.4235  2.0497
 2843SOL    HW219992   0.135   4.516   9.383  0.7157  0.5082  1.1802
 2844SOL     OW19993   0.666   4.495  14.484  0.5051 -0.2142 -0.1839
 2844SOL    HW119994   0.658   4.546  14.564 -1.2927 -0.7850 -0.0074
 2844SOL    HW219995   0.604   4.544  14.429  0.3331 -0.2913 -0.0587
 2845SOL     OW19996   0.287   4.202  12.847 -0.1947 -0.0621  0.3042
 2845SOL    HW119997   0.196   4.187  12.874 -0.4624  0.4469 -0.3348
 2845SOL    HW219998   0.275   4.176  12.756 -1.1562  2.6778 -0.3540
 2846SOL     OW19999   2.873   0.934   4.430 -0.2042 -0.3426  0.7692
 2846SOL    HW120000   2.807   0.894   4.486 -0.8504 -0.1793  0.1183
 2846SOL    HW220001   2.885   0.868   4.362  1.2355  0.3089  0.3846
 2847SOL     OW20002   2.175   1.739  11.554  0.4816  0.4915  0.1813
 2847SOL    HW120003   2.264   1.728  11.587  0.7622 -2.0499 -1.4488
 2847SOL    HW220004   2.173   1.663  11.496 -0.4507  2.4131 -2.3095
 2848SOL     OW20005   2.062   2.392   2.147 -0.3170 -0.3060  0.0869
 2848SOL    HW120006   2.109   2.334   2.087  0.1685 -0.3741  0.5252
 2848SOL    HW220007   1.973   2.371   2.117 -0.3376  0.8740 -0.6506
 2849SOL     OW20008   1.759   0.173   5.769 -0.5777 -1.2148 -0.2413
 2849SOL    HW120009   1.785   0.264   5.783 -0.3663 -1.2958 -0.1187
 2849SOL    HW220010   1.752   0.129   5.854  3.2935 -0.7232  0.3252
 2850SOL     OW20011   3.124   2.831   1.622  0.5923  0.2026  0.4148
 2850SOL    HW120012   3.044   2.779   1.624  2.3233 -2.4400  0.9094
 2850SOL    HW220013   3.134   2.846   1.528 -1.0323  0.5526  0.3033
 2851SOL     OW20014   1.708   4.670   3.853 -0.2939 -0.4196 -0.0076
 2851SOL    HW120015   1.673   0.028   3.822  2.0029  1.1359  1.5353
 2851SOL    HW220016   1.729   4.627   3.770  1.1631 -0.1319  0.2110
 2852SOL     OW20017   2.650   0.697   6.535  0.2245 -0.3601  0.7288
 2852SOL    HW120018   2.705   0.655   6.468 -0.9612 -1.0722  0.2062
 2852SOL    HW220019   2.629   0.775   6.485  1.1614  0.3521  1.4306
 2853SOL     OW20020   2.856   2.843   8.479  0.1639 -0.1306  0.3350
 2853SOL    HW120021   2.921   2.831   8.549  0.4349 -1.6269 -0.1829
 2853SOL    HW220022   2.865   2.934   8.449  0.2925  0.0849  1.0227
 2854SOL     OW20023   3.483   2.893   4.045 -0.3247  0.3953 -0.5136
 2854SOL    HW120024   3.545   2.950   4.091 -0.5569 -1.2931  1.8411
 2854SOL    HW220025   3.429   2.952   3.992  0.8025  2.5394  0.7222
 2855SOL     OW20026   1.046   1.198   6.040 -0.0620  0.2091  0.1557
 2855SOL    HW120027   1.069   1.111   6.073 -0.6662 -0.1423 -0.3414
 2855SOL    HW220028   1.108   1.201   5.968 -2.8761  1.0424 -2.2445
 2856SOL     OW20029   1.344   3.501   6.834 -0.0346  0.0573  0.0497
 2856SOL    HW120030   1.380   3.586   6.859 -1.3179  1.3724 -2.5452
 2856SOL    HW220031   1.429   3.457   6.828  0.5846  1.1582  0.8396
 2857SOL     OW20032   2.760   1.581   8.455 -0.0771 -0.6973  0.2607
 2857SOL    HW120033   2.842   1.629   8.452  0.3967 -1.5925 -1.2176
 2857SOL    HW220034   2.740   1.576   8.361  0.7503  0.8255  0.0180
 2858SOL     OW20035   0.109   2.956   7.978  0.2911  0.1392  0.1410
 2858SOL    HW120036   0.106   2.982   7.886 -1.1891 -0.7617 -0.0776
 2858SOL    HW220037   0.061   3.023   8.028 -0.3188 -0.0884 -0.1320
 2859SOL     OW20038   0.217   0.339   5.967  0.2303  0.0729  0.1343
 2859SOL    HW120039   0.214   0.348   5.871 -2.2679 -0.3658  0.1681
 2859SOL    HW220040   0.296   0.286   5.977  1.9805  2.3467 -1.4040
 2860SOL     OW20041   4.408   1.974  13.797 -0.0672 -0.7564 -0.6282
 2860SOL    HW120042   4.489   1.972  13.848 -1.1450  1.6362  1.1811
 2860SOL    HW220043   4.349   2.013  13.861  0.0739 -2.4022  0.5079
 2861SOL     OW20044   2.675   0.628  15.320 -0.2093  0.1656  0.1861
 2861SOL    HW120045   2.662   0.703  15.262  1.2100  1.8513  2.0847
 2861SOL    HW220046   2.753   0.588  15.281 -2.0515 -2.1883 -1.1508
 2862SOL     OW20047   1.051   1.598  10.796 -0.4124  0.0510 -0.1583
 2862SOL    HW120048   0.995   1.557  10.730 -1.0174  0.9956 -0.2343
 2862SOL    HW220049   1.075   1.671  10.738 -0.5729  1.1915  1.2134
 2863SOL     OW20050   0.756   3.701   8.950  0.2691 -0.0168 -0.0034
 2863SOL    HW120051   0.690   3.639   8.982 -2.0729  2.4056 -0.1655
 2863SOL    HW220052   0.777   3.673   8.860 -0.2635 -1.0097  0.1723
 2864SOL     OW20053   4.526   1.187   9.669  0.5462  0.7492  1.2305
 2864SOL    HW120054   4.603   1.133   9.688 -0.2821 -0.1559  1.9996
 2864SOL    HW220055   4.478   1.200   9.751 -2.1896  1.6174 -0.5133
 2865SOL     OW20056   2.917   4.523   3.333 -0.0947 -0.5364 -0.0682
 2865SOL    HW120057   2.897   4.574   3.411 -2.5590 -0.7793 -0.5266
 2865SOL    HW220058   2.904   4.434   3.366 -0.4265 -0.0089  1.2235
 2866SOL     OW20059   2.789   1.568   3.886 -0.0305  0.2809  0.2538
 2866SOL    HW120060   2.811   1.596   3.974  0.1747  0.1662  0.2380
 2866SOL    HW220061   2.876   1.571   3.848  0.3984 -4.1441  0.9124
 2867SOL     OW20062   3.142   3.904  10.413  0.4460  0.3700  0.3579
 2867SOL    HW120063   3.235   3.893  10.393 -0.1875 -0.7095 -2.0920
 2867SOL    HW220064   3.139   3.835  10.480  0.7083  0.0537  0.0465
 2868SOL     OW20065   1.391   4.710  13.437 -0.3332  0.0372 -0.3082
 2868SOL    HW120066   1.327   4.714  13.365 -0.0073 -2.4384 -0.7384
 2868SOL    HW220067   1.350   4.653  13.502  0.5700 -1.1024 -0.7540
 2869SOL     OW20068   4.070   1.796   8.265  0.2332 -0.4245 -0.0673
 2869SOL    HW120069   4.100   1.835   8.346 -1.5702  2.4814 -0.8130
 2869SOL    HW220070   4.136   1.831   8.205 -0.5135  1.4274  0.2028
 2870SOL     OW20071   0.873   1.281   2.608 -0.3198  0.3446  0.2159
 2870SOL    HW120072   0.900   1.214   2.547 -3.1647  0.0156 -0.6545
 2870SOL    HW220073   0.828   1.347   2.556 -0.2202  0.1129 -0.1588
 2871SOL     OW20074   4.202   1.662   6.941  0.0958  0.6852  0.2270
 2871SOL    HW120075   4.133   1.719   6.908  0.6532  1.7868  0.9322
 2871SOL    HW220076   4.259   1.732   6.975  1.5433 -0.8177  0.9111
 2872SOL     OW20077   1.936   4.503  10.868  0.0348 -0.1526 -0.4159
 2872SOL    HW120078   2.029   4.511  10.887  0.1295  0.8616 -1.2938
 2872SOL    HW220079   1.898   4.553  10.940  1.2913  0.9016 -0.4902
 2873SOL     OW20080   3.350   0.541  15.485  0.0562  0.6095  0.2424
 2873SOL    HW120081   3.283   0.602  15.515 -0.4425  0.3271 -0.2952
 2873SOL    HW220082   3.425   0.599  15.499  0.0762  0.5073  0.5556
 2874SOL     OW20083   2.650   4.100   3.516 -0.1686 -0.3976 -0.2762
 2874SOL    HW120084   2.577   4.056   3.473 -0.3598  1.5240 -1.9626
 2874SOL    HW220085   2.710   4.027   3.533  0.1264 -0.8284 -3.0037
 2875SOL     OW20086   3.583   1.972  11.701  0.1981  0.3263 -0.3405
 2875SOL    HW120087   3.530   1.909  11.750  2.9521 -0.8965  1.0849
 2875SOL    HW220088   3.546   1.961  11.613 -3.1198  0.2714  1.0700
 2876SOL     OW20089   2.734   0.505   2.066 -0.0677 -0.5949 -0.0308
 2876SOL    HW120090   2.782   0.424   2.082  0.8945 -0.0953 -0.3762
 2876SOL    HW220091   2.675   0.476   1.997 -3.1207 -1.8935  3.0863
 2877SOL     OW20092   0.386   4.642  15.652  0.2426 -0.6335  0.3529
 2877SOL    HW120093   0.432   4.664  15.733 -1.6905 -2.6626  1.9941
 2877SOL    HW220094   0.450   4.582  15.613  0.4602  0.2503 -0.6585
 2878SOL     OW20095   4.315   2.553   3.159  0.4644  0.3401 -0.2307
 2878SOL    HW120096   4.327   2.648   3.164  2.5949 -0.1095  2.7061
 2878SOL    HW220097   4.362   2.529   3.079  2.0528  0.5071  0.6659
 2879SOL     OW20098   1.168   2.908   0.623  0.5409  0.3513 -0.1849
 2879SOL    HW120099   1.247   2.961   0.612 -0.2288  1.0324 -2.4431
 2879SOL    HW220100   1.141   2.943   0.708 -0.4961 -0.0479 -0.3536
 2880SOL     OW20101   0.014   1.432   5.871 -0.0766  0.2576  0.8734
 2880SOL    HW120102   0.037   1.488   5.945  1.2642  1.5267 -0.4979
 2880SOL    HW220103   4.664   1.388   5.908  0.4080 -1.1997  0.1359
 2881SOL     OW20104   0.619   0.211  12.159  0.2158  0.4895  0.0267
 2881SOL    HW120105   0.614   0.307  12.161  0.4997  0.5222 -0.8621
 2881SOL    HW220106   0.555   0.188  12.092 -0.1743 -0.3045  0.6888
 2882SOL     OW20107   4.418   2.847   5.715 -0.4458  0.3417 -0.6529
 2882SOL    HW120108   4.433   2.894   5.634 -0.1655  1.3589 -0.0131
 2882SOL    HW220109   4.499   2.862   5.764 -1.5514 -0.3268  1.4117
 2883SOL     OW20110   3.514   4.254   7.759 -0.4940  0.2357 -0.4290
 2883SOL    HW120111   3.522   4.167   7.722  2.6863  0.5096 -0.3599
 2883SOL    HW220112   3.418   4.258   7.758 -0.5585 -1.1093  1.2029
 2884SOL     OW20113   2.326   2.364  15.477  0.3911 -0.3749  0.0907
 2884SOL    HW120114   2.355   2.386  15.566  3.3596 -1.9359 -0.4729
 2884SOL    HW220115   2.257   2.302  15.501 -0.4869  1.0127  1.1541
 2885SOL     OW20116   1.995   2.305   3.340 -0.2327 -0.7165  0.4737
 2885SOL    HW120117   2.002   2.325   3.434 -2.7014  0.7044  0.3579
 2885SOL    HW220118   2.085   2.281   3.317  0.3756  1.3590  0.6622
 2886SOL     OW20119   4.670   0.701   7.488 -0.2136  0.3337 -0.2834
 2886SOL    HW120120   4.588   0.664   7.454 -1.8033  2.0164  1.7503
 2886SOL    HW220121   4.651   0.731   7.577  1.0050 -0.3525  0.2067
 2887SOL     OW20122   0.640   3.199  15.433  0.5458  0.1006  0.1054
 2887SOL    HW120123   0.650   3.257  15.357 -1.7310 -0.4033 -0.5897
 2887SOL    HW220124   0.645   3.254  15.511  0.5394  0.9360 -0.4840
 2888SOL     OW20125   3.382   2.798   3.745 -0.1260 -0.7684  0.0696
 2888SOL    HW120126   3.323   2.864   3.782  0.1407  0.1007 -1.0583
 2888SOL    HW220127   3.339   2.775   3.663 -3.3290  0.0344  1.5248
 2889SOL     OW20128   4.576   4.628   7.127 -0.1560  0.1039 -0.2520
 2889SOL    HW120129   4.648   4.686   7.151 -0.1496 -0.6014  1.4128
 2889SOL    HW220130   4.506   4.682   7.163  0.6442  0.5890  0.5865
 2890SOL     OW20131   1.419   0.979   7.386  0.0087 -0.0074  0.0397
 2890SOL    HW120132   1.349   0.950   7.444 -0.3096 -1.0190 -0.8257
 2890SOL    HW220133   1.477   1.026   7.445 -0.1244  1.7751 -1.2422
 2891SOL     OW20134   2.164   1.200   4.485  0.4079 -0.2940  0.2063
 2891SOL    HW120135   2.238   1.248   4.446  0.3761 -0.2073  0.2537
 2891SOL    HW220136   2.166   1.118   4.436 -1.9087 -0.4323  0.3560
 2892SOL     OW20137   3.589   1.745   1.306  0.4773 -0.0116  0.2598
 2892SOL    HW120138   3.502   1.743   1.266  0.3499  1.0969  0.4824
 2892SOL    HW220139   3.588   1.813   1.373 -2.7557  0.6626 -0.4559
 2893SOL     OW20140   4.047   2.466  15.427 -0.5359  0.3683 -0.5800
 2893SOL    HW120141   3.954   2.472  15.448 -0.7940 -1.5924 -1.1157
 2893SOL    HW220142   4.050   2.372  15.409  0.1930  0.1077  0.8891
 2894SOL     OW20143   3.331   3.524  10.437  0.3190  0.4249  0.4601
 2894SOL    HW120144   3.358   3.497  10.526 -1.3326 -2.2406  0.1642
 2894SOL    HW220145   3.266   3.592  10.455 -0.0674 -0.1989  1.4421
 2895SOL     OW20146   4.322   0.875  16.626  0.0068 -0.0691 -0.4234
 2895SOL    HW120147   4.403   0.912  16.662 -0.4362 -0.2131  0.7143
 2895SOL    HW220148   4.260   0.872  16.699  0.6607 -0.6496  0.1084
 2896SOL     OW20149   3.082   3.351   7.266 -0.3549  0.4418 -0.0166
 2896SOL    HW120150   3.147   3.383   7.204 -0.4615 -0.3177 -0.5198
 2896SOL    HW220151   3.087   3.409   7.342 -0.0753  2.1041 -1.2917
 2897SOL     OW20152   0.439   2.983   4.253 -0.2755 -0.2806 -0.0429
 2897SOL    HW120153   0.349   3.015   4.266  0.1819 -0.6250  3.7805
 2897SOL    HW220154   0.458   2.956   4.342 -0.5721 -1.9937 -0.4964
 2898SOL     OW20155   0.521   0.432   3.325 -0.2737 -0.3264  0.4871
 2898SOL    HW120156   0.578   0.356   3.333 -0.4527 -0.6529 -1.4250
 2898SOL    HW220157   0.571   0.484   3.262  1.3704 -1.2281  1.0466
 2899SOL     OW20158   2.634   3.609   5.393  0.0480 -0.0496 -0.1640
 2899SOL    HW120159   2.698   3.538   5.402 -1.6518 -1.6430 -0.5670
 2899SOL    HW220160   2.552   3.573   5.427  0.4215 -0.3292  0.4329
 2900SOL     OW20161   1.661   0.213   7.637  0.2403 -0.4087 -0.1479
 2900SOL    HW120162   1.719   0.175   7.571  0.1054  0.3051 -0.6798
 2900SOL    HW220163   1.687   0.303   7.617  1.9630 -0.6239  1.1606
 2901SOL     OW20164   1.089   0.847   7.041 -0.4635  0.5306  0.9478
 2901SOL    HW120165   1.165   0.880   6.992 -0.1242 -0.5745  0.7196
 2901SOL    HW220166   1.025   0.828   6.973 -0.9365  1.3421  1.1701
 2902SOL     OW20167   4.207   3.899   4.212 -0.0024 -0.4488 -0.1081
 2902SOL    HW120168   4.183   3.975   4.266 -1.0494 -1.1439  0.3988
 2902SOL    HW220169   4.120   3.860   4.212  0.0920 -0.6737  0.4852
 2903SOL     OW20170   2.440   4.499   7.345  0.4498  0.4492  0.1615
 2903SOL    HW120171   2.410   4.409   7.350  0.3763  0.5634  1.7612
 2903SOL    HW220172   2.436   4.525   7.437  1.0397 -0.9526  0.5758
 2904SOL     OW20173   0.842   2.810   3.003  0.7334  0.0858  0.4284
 2904SOL    HW120174   0.891   2.755   3.065 -1.0973 -1.6796  0.3159
 2904SOL    HW220175   0.839   2.750   2.928 -0.4141 -1.1878  1.4908
 2905SOL     OW20176   2.251   2.293   7.308  0.3119 -0.0252 -0.4208
 2905SOL    HW120177   2.233   2.277   7.216  1.4193 -0.0258 -0.6386
 2905SOL    HW220178   2.167   2.332   7.330 -0.5312 -3.1846  1.8835
 2906SOL     OW20179   1.233   0.927  10.309  0.4226 -0.3751  0.7445
 2906SOL    HW120180   1.328   0.929  10.293  0.4531 -1.4976  0.7636
 2906SOL    HW220181   1.231   0.893  10.398  1.4255  0.1888  0.9824
 2907SOL     OW20182   4.203   1.982   5.333 -0.0863 -0.3781  0.3516
 2907SOL    HW120183   4.294   1.988   5.364 -0.8590 -1.5261  2.8103
 2907SOL    HW220184   4.211   2.034   5.253 -1.1599  2.1313  1.8539
 2908SOL     OW20185   3.733   3.767   8.965 -0.0828  0.3854 -0.1557
 2908SOL    HW120186   3.712   3.677   8.942 -0.5475  0.3902  0.2427
 2908SOL    HW220187   3.733   3.749   9.059  1.5745  0.4326 -0.1529
 2909SOL     OW20188   2.648   2.034   0.238  0.2785  0.8070  0.0809
 2909SOL    HW120189   2.594   2.112   0.227  2.1221  1.8975 -1.0791
 2909SOL    HW220190   2.703   2.057   0.313 -1.0810  1.6359  0.8422
 2910SOL     OW20191   4.368   0.554   8.825  0.0664 -0.0278  0.0264
 2910SOL    HW120192   4.387   0.572   8.917 -1.1580  0.5040  0.1729
 2910SOL    HW220193   4.364   0.642   8.788  2.7184  0.4815  0.9086
 2911SOL     OW20194   3.653   4.365   4.155  0.0050 -0.1220 -0.0889
 2911SOL    HW120195   3.721   4.313   4.198 -1.0415 -1.8250 -0.5301
 2911SOL    HW220196   3.701   4.407   4.084 -0.5662 -0.5943 -0.7549
 2912SOL     OW20197   1.901   1.674   3.632 -0.3794  0.1774  0.3928
 2912SOL    HW120198   1.993   1.698   3.627 -0.5686  0.8423  0.2044
 2912SOL    HW220199   1.867   1.714   3.552  0.5276  2.3453  1.1069
 2913SOL     OW20200   3.053   1.424   8.181 -0.1030  0.3103 -0.2711
 2913SOL    HW120201   2.988   1.361   8.213  0.5367 -0.5047 -0.5753
 2913SOL    HW220202   3.125   1.367   8.153 -0.0756  0.5922 -0.7747
 2914SOL     OW20203   0.783   2.642   8.506 -0.3412 -0.3369  0.6737
 2914SOL    HW120204   0.728   2.668   8.581  0.9434  3.8550  0.1521
 2914SOL    HW220205   0.745   2.557   8.484 -0.6303 -0.0501  0.0580
 2915SOL     OW20206   4.292   4.011   0.418  0.5295  0.2136  0.1842
 2915SOL    HW120207   4.311   3.950   0.347  2.2065  0.5012  0.3950
 2915SOL    HW220208   4.380   4.048   0.427  1.2349 -1.8150  1.4391
 2916SOL     OW20209   1.098   2.154  10.459 -0.5596 -0.6000  0.0828
 2916SOL    HW120210   1.146   2.237  10.456 -1.3879 -0.1396 -0.4963
 2916SOL    HW220211   1.167   2.106  10.504 -0.6048  0.9849  1.8608
 2917SOL     OW20212   3.444   0.689   2.744  0.9921  0.0419 -0.4388
 2917SOL    HW120213   3.490   0.703   2.826 -0.5757 -0.4078  0.5178
 2917SOL    HW220214   3.402   0.603   2.747  0.6665  0.1749 -1.1518
 2918SOL     OW20215   1.529   4.368   4.567  0.3957  0.0152 -0.0868
 2918SOL    HW120216   1.558   4.377   4.658 -2.0843 -0.2793  0.7161
 2918SOL    HW220217   1.598   4.403   4.510  0.5237  1.6899  1.0960
 2919SOL     OW20218   3.896   3.619  11.330  0.6171 -0.5613 -0.2557
 2919SOL    HW120219   3.887   3.714  11.331  1.6915 -0.4618  0.0402
 2919SOL    HW220220   3.927   3.610  11.241  0.3284  0.0733 -0.4189
 2920SOL     OW20221   0.931   1.516   2.388 -0.4381  0.1985 -0.1952
 2920SOL    HW120222   0.895   1.472   2.311  2.5905 -1.5640 -0.5887
 2920SOL    HW220223   0.858   1.528   2.449 -0.9189 -0.4244 -0.6422
 2921SOL     OW20224   1.882   0.289   3.935  0.8280 -0.1170  0.0521
 2921SOL    HW120225   1.931   0.316   3.858  0.6628 -0.1815 -0.0765
 2921SOL    HW220226   1.801   0.247   3.906 -0.7025  0.3508  3.6306
 2922SOL     OW20227   3.119   3.764   3.736 -0.7568 -0.3404  0.5548
 2922SOL    HW120228   3.059   3.691   3.720  0.3100 -1.1105  0.0722
 2922SOL    HW220229   3.127   3.798   3.648  2.5610  2.2274  1.8686
 2923SOL     OW20230   2.999   2.462  16.993  0.3253  0.2078 -0.2998
 2923SOL    HW120231   3.041   2.548  16.989 -0.3082  0.5134 -0.3767
 2923SOL    HW220232   3.034   2.426  16.911 -0.9670  1.0220 -1.2114
 2924SOL     OW20233   4.638   1.844  14.168 -0.1740 -0.2151  0.0877
 2924SOL    HW120234   4.665   1.847  14.259  1.4890  0.3438 -0.4314
 2924SOL    HW220235   4.686   1.775  14.122 -1.3051  0.4081 -2.0634
 2925SOL     OW20236   2.703   2.501   6.437 -0.1608 -0.2792  0.2470
 2925SOL    HW120237   2.693   2.475   6.345  2.2223  1.9027 -0.6028
 2925SOL    HW220238   2.719   2.595   6.430  0.2830 -0.2830  1.2658
 2926SOL     OW20239   1.246   3.371   0.649 -0.1290  0.1933 -0.6680
 2926SOL    HW120240   1.321   3.324   0.612  0.1174 -0.9014  1.2221
 2926SOL    HW220241   1.237   3.446   0.590  0.9983 -0.4287 -1.6357
 2927SOL     OW20242   3.762   0.059   7.894  0.2615 -0.3200 -0.0914
 2927SOL    HW120243   3.838   0.014   7.858  0.0190 -0.3922 -0.5178
 2927SOL    HW220244   3.690   0.017   7.846  1.1730  0.1175 -1.8465
 2928SOL     OW20245   4.382   2.454   2.476 -0.3145  0.5238 -0.2313
 2928SOL    HW120246   4.435   2.499   2.411 -2.0262  1.8821 -0.6840
 2928SOL    HW220247   4.438   2.393   2.525  1.9052  3.0097  0.3521
 2929SOL     OW20248   0.045   2.193   7.479  0.2962 -0.3964  0.3911
 2929SOL    HW120249   0.124   2.182   7.426  0.8889 -0.4869  1.3018
 2929SOL    HW220250   0.040   2.105   7.517 -0.1835  0.5628  2.5028
 2930SOL     OW20251   0.711   4.520   8.062  0.3521  0.3993  1.1087
 2930SOL    HW120252   0.631   4.504   8.012 -0.1052  0.8716  1.6828
 2930SOL    HW220253   0.682   4.489   8.148  1.7013  3.3409  2.6302
 2931SOL     OW20254   4.277   1.827   2.699 -0.0816 -0.4124 -0.1494
 2931SOL    HW120255   4.364   1.802   2.730  0.3883  1.8412  0.3217
 2931SOL    HW220256   4.223   1.755   2.733 -0.1331  0.7684  2.2605
 2932SOL     OW20257   2.354   0.284   3.124  0.0855  0.2274  0.1895
 2932SOL    HW120258   2.309   0.336   3.191  1.7014  0.8973  0.7518
 2932SOL    HW220259   2.437   0.272   3.170  0.6232 -2.3828 -1.4815
 2933SOL     OW20260   0.501   2.854  12.774 -0.1404 -0.2599 -0.0772
 2933SOL    HW120261   0.498   2.827  12.866 -0.5525 -1.6395 -0.5025
 2933SOL    HW220262   0.585   2.898  12.764  0.3659 -1.3173 -0.4085
 2934SOL     OW20263   3.398   3.902   4.239 -0.7865  0.6906 -0.0728
 2934SOL    HW120264   3.396   3.836   4.169 -0.0726  0.5629  0.0281
 2934SOL    HW220265   3.343   3.970   4.200 -2.8626 -0.0185  1.6581
 2935SOL     OW20266   0.277   4.330   0.022  0.0173  0.2817  0.1424
 2935SOL    HW120267   0.295   4.317  17.631 -1.3004  0.7628 -0.1847
 2935SOL    HW220268   0.192   4.286   0.030  1.1149 -1.9711 -0.5486
 2936SOL     OW20269   1.662   0.798   5.983 -0.0408 -0.3147  0.1040
 2936SOL    HW120270   1.729   0.836   5.926  1.8177 -1.3055  1.6480
 2936SOL    HW220271   1.589   0.797   5.921 -0.0190  0.2463  0.0708
 2937SOL     OW20272   4.552   4.202   0.924 -0.0215 -0.5934 -0.3819
 2937SOL    HW120273   4.526   4.288   0.956  0.7698  0.4145 -2.4452
 2937SOL    HW220274   4.563   4.166   1.012 -2.8425  0.6056  0.4649
 2938SOL     OW20275   1.243   2.366   3.935  0.1008  0.5868 -0.0199
 2938SOL    HW120276   1.266   2.402   3.849  0.5030  0.2233 -0.0676
 2938SOL    HW220277   1.291   2.424   3.994  0.4025  0.2596  0.0588
 2939SOL     OW20278   0.510   1.985   2.767  0.1894  0.2038  0.1334
 2939SOL    HW120279   0.454   2.047   2.721  2.3419  0.6592 -1.9134
 2939SOL    HW220280   0.497   2.017   2.856 -2.1448 -0.8305  0.1548
 2940SOL     OW20281   2.739   2.484  17.563 -0.1289 -0.4666 -0.2187
 2940SOL    HW120282   2.709   2.394  17.555  1.3324 -1.0393  0.7382
 2940SOL    HW220283   2.826   2.467  17.526 -1.6191 -1.3612 -3.2357
 2941SOL     OW20284   1.070   2.209   2.449  0.1498  0.2234 -0.5830
 2941SOL    HW120285   1.160   2.182   2.466  0.3955  0.4591 -1.5188
 2941SOL    HW220286   1.074   2.208   2.353  4.4360  1.3757 -0.4074
 2942SOL     OW20287   0.332   3.373   8.988  0.3642  0.1090  0.8563
 2942SOL    HW120288   0.368   3.285   8.993  0.2614  0.0999  1.4168
 2942SOL    HW220289   0.240   3.356   8.967  0.4701 -0.0985  0.5545
 2943SOL     OW20290   1.665   3.405  11.065  0.1027  0.5121 -0.2596
 2943SOL    HW120291   1.579   3.370  11.087 -0.1758  0.3727 -1.5804
 2943SOL    HW220292   1.654   3.500  11.066 -0.4170  0.4453  0.5907
 2944SOL     OW20293   2.811   2.677  12.561 -0.0383 -0.4116  0.7134
 2944SOL    HW120294   2.829   2.695  12.468 -2.5818  1.6238  0.5980
 2944SOL    HW220295   2.740   2.613  12.562 -0.2918 -0.1058  2.1251
 2945SOL     OW20296   0.265   0.252   7.178 -0.5169  0.1992  0.3927
 2945SOL    HW120297   0.353   0.219   7.164 -0.2098  1.1032  0.2371
 2945SOL    HW220298   0.278   0.344   7.155 -0.0418 -0.4913 -2.0875
 2946SOL     OW20299   1.860   2.316   6.511  0.0339 -0.9464 -0.1919
 2946SOL    HW120300   1.796   2.249   6.535 -1.6808  1.9515  3.2377
 2946SOL    HW220301   1.855   2.382   6.579 -0.9209 -2.1332  0.8948
 2947SOL     OW20302   0.182   0.575   9.997  0.0854  0.6406 -0.2382
 2947SOL    HW120303   0.111   0.606  10.054  1.7931  1.1668  1.6257
 2947SOL    HW220304   0.204   0.494  10.043 -1.5552  1.2395  1.6263
 2948SOL     OW20305   1.302   3.411   2.590  0.3913  0.1477 -0.3203
 2948SOL    HW120306   1.363   3.483   2.599  0.6684 -0.3682  2.0618
 2948SOL    HW220307   1.287   3.389   2.682 -0.2377  0.3550 -0.3707
 2949SOL     OW20308   0.562   3.043   3.715 -0.1806  0.3870  0.0337
 2949SOL    HW120309   0.619   3.099   3.768  0.1463  1.6463 -1.6420
 2949SOL    HW220310   0.493   3.102   3.684 -0.6745  0.0309  0.4614
 2950SOL     OW20311   0.234   2.535   8.555 -0.5816  0.5513 -0.4031
 2950SOL    HW120312   0.142   2.553   8.536  0.0797  1.2801 -2.8388
 2950SOL    HW220313   0.244   2.598   8.626 -2.4589 -0.8266  1.1012
 2951SOL     OW20314   4.064   4.088   0.842  0.1877  0.3338 -0.5115
 2951SOL    HW120315   4.095   4.013   0.892 -2.5212 -1.6179 -1.7529
 2951SOL    HW220316   4.110   4.088   0.758 -2.6081 -1.7665 -2.0751
 2952SOL     OW20317   2.932   3.104   2.405  0.1119  0.0599 -0.2873
 2952SOL    HW120318   2.889   3.062   2.331  0.4212  1.1728 -1.0879
 2952SOL    HW220319   2.938   3.026   2.461 -1.0012  0.0175 -0.2229
 2953SOL     OW20320   3.522   3.808   3.592 -0.6402  0.2530 -0.0502
 2953SOL    HW120321   3.484   3.879   3.540  1.4460 -0.0173 -1.9240
 2953SOL    HW220322   3.566   3.764   3.520  0.9694  1.9785 -0.1380
 2954SOL     OW20323   0.960   2.557   1.873 -0.4399 -0.2216  1.2208
 2954SOL    HW120324   0.966   2.496   1.799 -1.3143  2.5097 -1.1234
 2954SOL    HW220325   0.987   2.489   1.935  3.0458 -1.5632 -1.7794
 2955SOL     OW20326   4.401   4.254  14.096 -0.3008 -0.3576  0.3120
 2955SOL    HW120327   4.405   4.166  14.133 -3.2910 -0.1294  1.1531
 2955SOL    HW220328   4.315   4.281  14.129  0.0078  0.1771  0.6664
 2956SOL     OW20329   4.602   4.322   2.536  0.0854 -0.2050  0.2994
 2956SOL    HW120330   4.619   4.338   2.444 -1.8826 -0.1722 -0.0567
 2956SOL    HW220331   4.672   4.260   2.556  2.2560  2.6417  1.6106
 2957SOL     OW20332   2.169   4.108  16.712 -0.2734 -0.3563  0.3764
 2957SOL    HW120333   2.178   4.199  16.737 -1.3520 -0.7688  2.2811
 2957SOL    HW220334   2.259   4.078  16.721  0.4516  2.0393  0.8447
 2958SOL     OW20335   4.104   3.666   3.244  0.4800 -0.2338 -0.2658
 2958SOL    HW120336   4.029   3.650   3.187  0.1481  2.8868 -0.7596
 2958SOL    HW220337   4.170   3.616   3.197  0.0066 -1.3283  0.2575
 2959SOL     OW20338   4.152   2.980  13.926  0.5356 -0.5663  0.3116
 2959SOL    HW120339   4.242   2.975  13.896  0.6490  2.2691  0.1732
 2959SOL    HW220340   4.130   3.073  13.917 -1.0112 -0.9550  0.0734
 2960SOL     OW20341   3.021   4.161  13.392  0.2624  0.4245 -0.2766
 2960SOL    HW120342   3.043   4.070  13.411 -3.1827 -0.2632  0.5228
 2960SOL    HW220343   2.962   4.175  13.466  0.4627  0.4323 -0.1202
 2961SOL     OW20344   4.218   2.802   4.275 -0.0296 -0.2214  0.3148
 2961SOL    HW120345   4.247   2.871   4.215  1.4805 -0.8555  0.3203
 2961SOL    HW220346   4.302   2.784   4.318  0.2387  1.4241  0.4741
 2962SOL     OW20347   4.645   2.914   3.102  0.0834 -0.0510 -0.0334
 2962SOL    HW120348   4.684   2.827   3.111  0.1830  0.1020  0.9745
 2962SOL    HW220349   4.620   2.912   3.009  0.1545 -0.7697 -0.0396
 2963SOL     OW20350   1.518   0.128   4.671 -0.2602  0.7123 -0.0543
 2963SOL    HW120351   1.465   0.155   4.746  0.6379 -0.5883  1.0677
 2963SOL    HW220352   1.458   0.085   4.610  0.0247 -1.7407  1.3726
 2964SOL     OW20353   3.091   0.035   9.833  0.1254 -0.5430  0.3688
 2964SOL    HW120354   3.143   4.703   9.776  0.9532 -0.0055  0.5937
 2964SOL    HW220355   3.077   4.700   9.906  0.7917 -0.1862  0.7970
 2965SOL     OW20356   4.636   1.872   0.418  0.6394  0.0105 -0.5087
 2965SOL    HW120357   4.553   1.879   0.464  0.0732 -0.9158 -1.3884
 2965SOL    HW220358   4.615   1.798   0.360  1.0351 -0.7377  0.3009
 2966SOL     OW20359   2.593   3.948   5.881  0.3470  0.0348  0.4964
 2966SOL    HW120360   2.569   4.037   5.855 -2.6113 -1.5582 -2.2565
 2966SOL    HW220361   2.555   3.900   5.808 -1.7693  1.3664  0.7082
 2967SOL     OW20362   2.281   4.561  10.137  0.0940  0.6447 -0.0616
 2967SOL    HW120363   2.295   4.468  10.122  2.6392  0.8305  1.0936
 2967SOL    HW220364   2.200   4.574  10.087  0.0718 -1.5846 -0.5997
 2968SOL     OW20365   1.472   1.108   9.466  0.0152  0.3573  0.0622
 2968SOL    HW120366   1.455   1.197   9.495  0.1020  0.4604 -0.1980
 2968SOL    HW220367   1.465   1.062   9.549 -2.6864  0.1935 -0.2645
 2969SOL     OW20368   1.333   1.514  11.202 -0.0577  0.1268  0.3504
 2969SOL    HW120369   1.260   1.576  11.208  0.6594  0.8920  1.0136
 2969SOL    HW220370   1.315   1.467  11.283 -1.5730  0.9998  0.5119
 2970SOL     OW20371   1.703   1.957   8.544 -0.5961  0.2815 -0.0197
 2970SOL    HW120372   1.685   1.872   8.504  1.2377 -1.0118  1.9338
 2970SOL    HW220373   1.714   1.923   8.633  4.8839 -0.1414 -0.8730
 2971SOL     OW20374   0.316   1.335   5.914  0.1485 -0.1468  0.1956
 2971SOL    HW120375   0.304   1.241   5.923  0.0062 -0.3950 -2.4190
 2971SOL    HW220376   0.291   1.334   5.821  0.4547 -1.4377  0.1367
 2972SOL     OW20377   3.529   1.300  12.500 -0.8285  0.2084  0.5655
 2972SOL    HW120378   3.543   1.218  12.546 -1.7717 -1.4115 -2.0411
 2972SOL    HW220379   3.564   1.367  12.559  0.2208  0.0152  0.1593
 2973SOL     OW20380   4.358   1.026   9.285 -0.4536 -0.2016  0.1853
 2973SOL    HW120381   4.274   1.021   9.239 -0.2271 -1.7262 -0.0763
 2973SOL    HW220382   4.416   1.031   9.209  1.0570  0.1557  1.3742
 2974SOL     OW20383   1.416   4.179   6.443 -0.1811 -0.2299  0.4082
 2974SOL    HW120384   1.360   4.241   6.491  1.8793  2.1959 -0.3010
 2974SOL    HW220385   1.502   4.215   6.463 -0.4456  0.7276 -0.1625
 2975SOL     OW20386   2.507   2.148   7.715  0.1079 -0.6893 -0.6926
 2975SOL    HW120387   2.477   2.071   7.666 -0.3497  0.1415 -1.7120
 2975SOL    HW220388   2.418   2.179   7.736  0.6864 -1.5626  3.1062
 2976SOL     OW20389   3.603   2.927   8.474  0.3739  0.0104 -0.1155
 2976SOL    HW120390   3.594   3.022   8.466 -0.5096  0.3240  4.0926
 2976SOL    HW220391   3.509   2.915   8.488  0.1296  2.1079  0.0926
 2977SOL     OW20392   3.288   3.117  13.880  0.4860 -0.3961  0.2558
 2977SOL    HW120393   3.363   3.176  13.891  0.6473 -0.8297  1.4082
 2977SOL    HW220394   3.304   3.082  13.792 -1.4332  0.4507 -0.4191
 2978SOL     OW20395   3.277   3.827  13.455  0.3763 -0.3714 -0.3989
 2978SOL    HW120396   3.186   3.850  13.477  1.0970 -0.5392  2.7119
 2978SOL    HW220397   3.253   3.734  13.448 -1.5286  0.0481  0.4069
 2979SOL     OW20398   1.088   0.834   1.236  0.1178  0.7023  0.6291
 2979SOL    HW120399   0.997   0.807   1.226  0.5805 -0.1554 -1.1098
 2979SOL    HW220400   1.095   0.901   1.168  0.3029 -0.1810 -0.2211
 2980SOL     OW20401   3.201   0.741   8.232  0.0598  0.4638 -0.4854
 2980SOL    HW120402   3.129   0.801   8.214 -0.3044 -0.9791 -3.9036
 2980SOL    HW220403   3.253   0.752   8.152 -0.8331 -3.1389 -1.5541
 2981SOL     OW20404   0.535   3.885   6.719 -0.0446 -0.0503 -0.1093
 2981SOL    HW120405   0.561   3.851   6.805 -2.8037 -1.1644  0.2820
 2981SOL    HW220406   0.591   3.836   6.660 -1.9198 -0.1034 -1.8383
 2982SOL     OW20407   4.286   3.016   8.496  0.1914  0.3055  0.2738
 2982SOL    HW120408   4.300   2.999   8.589  3.6172 -2.3233 -0.7513
 2982SOL    HW220409   4.239   2.941   8.461  1.2921 -0.4341  0.3889
 2983SOL     OW20410   1.167   2.266   3.224 -0.0300 -0.1571  0.2234
 2983SOL    HW120411   1.094   2.310   3.268 -1.3879 -2.5187  0.3497
 2983SOL    HW220412   1.116   2.206   3.169 -0.3234  2.4900 -2.3670
 2984SOL     OW20413   1.246   3.999  11.544  0.1563 -0.2421 -0.1689
 2984SOL    HW120414   1.191   4.057  11.596  0.7930 -0.8392  1.1788
 2984SOL    HW220415   1.217   3.916  11.584 -1.3262 -0.3569 -1.4788
 2985SOL     OW20416   0.078   3.142   3.051 -0.2998 -0.3867 -0.1869
 2985SOL    HW120417   0.044   3.053   3.044  0.0083 -0.7289  2.7074
 2985SOL    HW220418   0.005   3.194   3.018 -0.4295  0.6726  1.7513
 2986SOL     OW20419   3.346   1.206   6.834 -0.1116  0.0218 -0.7675
 2986SOL    HW120420   3.313   1.277   6.890 -0.7343 -1.3597  0.6087
 2986SOL    HW220421   3.271   1.172   6.785 -1.7505  2.1729  0.2410
 2987SOL     OW20422   2.761   0.568   3.942 -0.4706  0.1255  0.2280
 2987SOL    HW120423   2.691   0.506   3.962  1.3172 -2.7320 -2.3311
 2987SOL    HW220424   2.815   0.507   3.891 -0.6297 -1.6846  2.2282
 2988SOL     OW20425   1.542   3.209   1.567 -0.2124  0.2869 -0.5136
 2988SOL    HW120426   1.554   3.264   1.645 -2.5980  2.2560 -1.5731
 2988SOL    HW220427   1.630   3.186   1.536  0.3992  1.0124  0.6484
 2989SOL     OW20428   0.305   4.565   2.142 -0.1251 -0.7526 -0.7504
 2989SOL    HW120429   0.386   4.516   2.126  0.2394  0.2600 -1.9502
 2989SOL    HW220430   0.333   4.638   2.087 -0.6400 -0.3539 -0.4880
 2990SOL     OW20431   1.212   2.112   6.695  0.3138 -0.4101 -0.1663
 2990SOL    HW120432   1.262   2.193   6.686  1.5900 -1.1050  0.6548
 2990SOL    HW220433   1.155   2.127   6.619 -0.4367 -0.2954  0.4138
 2991SOL     OW20434   2.557   3.019   9.048 -0.5693  0.0712 -0.4322
 2991SOL    HW120435   2.578   3.028   8.956  0.0250 -1.0151 -0.4027
 2991SOL    HW220436   2.487   2.954   9.051  1.2191 -1.8849 -1.5063
 2992SOL     OW20437   0.014   4.125  12.943  0.0922 -0.1596  0.3485
 2992SOL    HW120438   4.683   4.088  13.012 -1.0148 -0.2334 -0.5938
 2992SOL    HW220439   0.002   4.058  12.876 -1.0486  0.3002  0.1056
 2993SOL     OW20440   0.979   3.975   8.233 -0.2662 -0.3013  0.4772
 2993SOL    HW120441   1.023   3.904   8.185  0.4151  1.0074 -0.8622
 2993SOL    HW220442   0.996   3.948   8.323 -1.5519  0.7362  1.0238
 2994SOL     OW20443   3.674   1.158  11.869 -0.1462  0.4576 -0.1555
 2994SOL    HW120444   3.656   1.247  11.836 -0.6552  1.0495  1.7162
 2994SOL    HW220445   3.586   1.127  11.889 -0.4433 -0.1477 -2.3197
 2995SOL     OW20446   3.287   2.096   1.602 -0.3657 -0.6603  0.1215
 2995SOL    HW120447   3.255   2.137   1.683 -0.9720  1.3016 -1.1071
 2995SOL    HW220448   3.291   2.174   1.547 -0.9392 -2.2527 -2.1705
 2996SOL     OW20449   3.988   2.794  17.443 -0.1404  0.4472 -0.5803
 2996SOL    HW120450   4.070   2.794  17.395 -0.1583  1.3074 -0.6225
 2996SOL    HW220451   4.010   2.840  17.524 -2.5812  1.9208 -0.7438
 2997SOL     OW20452   4.531   1.626   1.068 -0.0292  0.0217  0.2233
 2997SOL    HW120453   4.533   1.644   1.162  1.2579 -2.8291  0.7255
 2997SOL    HW220454   4.538   1.710   1.023 -0.7085  0.8024  1.5629
 2998SOL     OW20455   3.820   4.301  11.056 -0.3962 -0.1881 -0.0195
 2998SOL    HW120456   3.746   4.361  11.049  0.3766  0.5898 -1.3430
 2998SOL    HW220457   3.788   4.226  11.006 -1.0733  0.9493 -1.2829
 2999SOL     OW20458   4.253   1.634  11.532  0.1729 -0.6632 -0.2914
 2999SOL    HW120459   4.168   1.622  11.491  0.0145  0.7368 -0.3623
 2999SOL    HW220460   4.295   1.699  11.476  0.9398 -1.4830 -0.6654
 3000SOL     OW20461   0.802   2.248  15.669  0.2442  0.3316  0.4647
 3000SOL    HW120462   0.881   2.291  15.702  0.8357 -0.2126 -0.2338
 3000SOL    HW220463   0.752   2.220  15.745 -1.8442  2.6861 -0.0235
 3001SOL     OW20464   4.387   4.291   8.425  0.1116  0.4061 -0.1782
 3001SOL    HW120465   4.425   4.319   8.342 -3.0537 -1.1470 -2.1834
 3001SOL    HW220466   4.293   4.285   8.410 -0.0672  0.3440  1.0038
 3002SOL     OW20467   4.405   3.755  10.278  0.2507  0.1548 -0.3776
 3002SOL    HW120468   4.310   3.758  10.289  0.6299  1.0886  2.7665
 3002SOL    HW220469   4.426   3.662  10.284  0.6150  0.2151 -0.7347
 3003SOL     OW20470   3.492   1.579   7.541  0.0311  0.1303 -0.0813
 3003SOL    HW120471   3.586   1.561   7.548 -0.3268 -1.8835 -0.5311
 3003SOL    HW220472   3.497   1.642   7.613  0.9561 -0.2999  0.2336
 3004SOL     OW20473   4.591   2.696   2.825 -0.1581 -0.2458  0.0536
 3004SOL    HW120474   4.682   2.672   2.843 -0.6818 -0.5345  2.2700
 3004SOL    HW220475   4.579   2.676   2.732  0.5586  0.1985 -0.1320
 3005SOL     OW20476   2.540   4.503   7.661  0.0428 -0.1585 -0.1973
 3005SOL    HW120477   2.445   4.494   7.653 -0.0231 -0.6708  1.1301
 3005SOL    HW220478   2.561   4.441   7.731  0.9253 -0.9095 -1.1356
 3006SOL     OW20479   3.830   3.323   0.969 -0.7363  0.5465 -0.5651
 3006SOL    HW120480   3.763   3.390   0.959 -0.7707  0.7694  1.2129
 3006SOL    HW220481   3.858   3.340   1.059 -3.2321  0.1400  0.2784
 3007SOL     OW20482   0.367   1.886   5.577 -0.3635  0.1040  0.1197
 3007SOL    HW120483   0.433   1.840   5.629  0.3269  2.2455  1.1307
 3007SOL    HW220484   0.372   1.845   5.490  1.0244  2.3526 -0.8674
 3008SOL     OW20485   4.525   2.399   9.049  0.1832  1.2516 -0.1442
 3008SOL    HW120486   4.538   2.475   9.105  1.2186  0.1594  1.1177
 3008SOL    HW220487   4.610   2.381   9.009 -0.0978  1.2160 -0.7252
 3009SOL     OW20488   0.870   1.143  16.906  0.0928 -0.1450  0.3797
 3009SOL    HW120489   0.959   1.174  16.919  0.3975 -1.1763  0.7362
 3009SOL    HW220490   0.843   1.198  16.832  0.0169 -0.4761  0.1586
 3010SOL     OW20491   0.815   0.106   8.884  0.6912  0.4610  0.2146
 3010SOL    HW120492   0.748   0.038   8.886 -0.1905  1.3287  0.1067
 3010SOL    HW220493   0.772   0.170   8.942  0.4986  0.7801 -0.2834
 3011SOL     OW20494   2.795   3.385   5.482  0.0670  0.3774  0.0957
 3011SOL    HW120495   2.739   3.327   5.431  0.9289  0.1146 -0.5657
 3011SOL    HW220496   2.877   3.359   5.439 -2.0587 -1.5032 -2.7793
 3012SOL     OW20497   2.292   0.510  15.100 -0.1150  0.1381 -0.0063
 3012SOL    HW120498   2.350   0.435  15.112 -0.1246  0.3114  1.1907
 3012SOL    HW220499   2.323   0.559  15.176 -0.5500  0.5299 -0.0793
 3013SOL     OW20500   3.503   3.667   5.283 -0.5842 -0.6282 -0.4239
 3013SOL    HW120501   3.413   3.636   5.272 -0.7297 -0.0978 -0.7219
 3013SOL    HW220502   3.528   3.661   5.375  0.7009  2.0992 -0.5917
 3014SOL     OW20503   4.674   3.915  12.750  0.5115  0.2561 -0.5394
 3014SOL    HW120504   4.645   3.879  12.834  0.6275  2.3189  0.3918
 3014SOL    HW220505   4.639   3.847  12.692 -0.3318  0.3818 -0.1863
 3015SOL     OW20506   3.226   3.159   9.957  0.6127 -0.3217 -0.3139
 3015SOL    HW120507   3.227   3.238   9.904  2.9824 -0.0161  0.1778
 3015SOL    HW220508   3.225   3.205  10.041  0.4270 -2.4670  0.8590
 3016SOL     OW20509   3.800   3.173   8.908  0.2984 -0.9075 -0.2618
 3016SOL    HW120510   3.879   3.218   8.938  0.9308 -1.9565 -0.3429
 3016SOL    HW220511   3.833   3.088   8.880 -1.1501 -1.3525 -0.6377
 3017SOL     OW20512   1.490   1.466   8.437 -0.2851 -0.0955 -0.0204
 3017SOL    HW120513   1.410   1.420   8.461  0.6643 -1.1473  1.1085
 3017SOL    HW220514   1.563   1.408   8.460 -0.2797 -0.6884 -1.5066
 3018SOL     OW20515   4.454   0.272   2.856  1.0567 -0.0990  0.7845
 3018SOL    HW120516   4.491   0.211   2.792  1.3181 -2.8691  3.6210
 3018SOL    HW220517   4.491   0.358   2.835  1.6710 -1.3595 -3.2192
 3019SOL     OW20518   1.075   4.044   4.222  0.3628 -0.3910  0.9917
 3019SOL    HW120519   1.011   4.042   4.150  0.1434 -1.0901  1.2065
 3019SOL    HW220520   1.122   3.962   4.204 -1.4832 -0.9452 -1.2915
 3020SOL     OW20521   1.547   1.613   3.940 -0.2345  0.6664 -0.5542
 3020SOL    HW120522   1.478   1.678   3.925 -1.4085 -0.4689 -0.1115
 3020SOL    HW220523   1.604   1.625   3.864 -0.7119 -0.5744 -1.1035
 3021SOL     OW20524   3.505   0.948  13.842 -0.8378 -0.4530 -0.4012
 3021SOL    HW120525   3.577   0.952  13.780 -2.5228 -0.4268 -2.3327
 3021SOL    HW220526   3.475   1.038  13.831 -0.8845 -0.2665  1.1621
 3022SOL     OW20527   3.313   3.930   9.894 -0.2227  0.2840 -0.0387
 3022SOL    HW120528   3.333   3.940   9.987 -0.2569 -0.1029  0.0111
 3022SOL    HW220529   3.385   3.979   9.855 -2.1976  3.5042  0.3263
 3023SOL     OW20530   2.108   1.304   4.970  0.2141 -0.2708 -0.1965
 3023SOL    HW120531   2.032   1.309   5.028  0.2973  0.7279 -0.1741
 3023SOL    HW220532   2.083   1.320   4.879  2.8111  1.8401 -0.5381
 3024SOL     OW20533   3.768   1.199   3.049  0.5086 -0.1183 -0.0306
 3024SOL    HW120534   3.773   1.173   2.957  1.1613  1.7041 -0.5077
 3024SOL    HW220535   3.857   1.197   3.083 -0.5854 -2.4784  2.6842
 3025SOL     OW20536   2.315   4.234   9.061 -0.1650 -0.0588  0.9200
 3025SOL    HW120537   2.321   4.234   9.156  0.2564 -0.4848  0.8969
 3025SOL    HW220538   2.280   4.322   9.052 -0.2640 -0.3403 -1.5770
 3026SOL     OW20539   3.950   2.468   0.120 -0.5290  0.0838  0.0413
 3026SOL    HW120540   3.925   2.547   0.072  2.7065  0.1007 -1.6176
 3026SOL    HW220541   3.865   2.426   0.132 -0.2907 -0.0950  1.0780
 3027SOL     OW20542   1.361   3.294   2.321  0.0508  0.6519 -0.8599
 3027SOL    HW120543   1.325   3.331   2.402 -1.1199  0.9046 -1.4936
 3027SOL    HW220544   1.312   3.355   2.265 -2.7434  1.1725  2.1141
 3028SOL     OW20545   3.713   0.167   4.415 -0.1319 -0.3685  0.4650
 3028SOL    HW120546   3.650   0.096   4.405  0.2272 -1.0025  2.6773
 3028SOL    HW220547   3.664   0.241   4.451  0.2011  0.7424 -1.3588
 3029SOL     OW20548   0.841   2.287   4.523 -0.1913 -0.0305  0.1653
 3029SOL    HW120549   0.754   2.324   4.539  0.6624  2.6900 -1.3342
 3029SOL    HW220550   0.900   2.362   4.531 -0.3119  0.2671 -1.7768
 3030SOL     OW20551   1.050   1.766   7.080 -0.0420  0.1489 -0.1450
 3030SOL    HW120552   1.049   1.685   7.029 -0.4269  0.8754 -1.2845
 3030SOL    HW220553   0.992   1.815   7.021 -0.3500 -2.0140 -1.6378
 3031SOL     OW20554   0.835   3.485  12.353  0.1532 -0.4733  0.0357
 3031SOL    HW120555   0.765   3.422  12.339  0.2999 -0.8277  0.9243
 3031SOL    HW220556   0.915   3.432  12.354  1.5738  1.7279  2.7286
 3032SOL     OW20557   4.653   4.724   3.685 -0.1859  0.1754  0.4934
 3032SOL    HW120558   4.569   4.705   3.728 -1.0604 -0.0721 -1.3243
 3032SOL    HW220559   4.654   4.652   3.621 -3.0558 -0.1768  0.8210
 3033SOL     OW20560   0.749   4.386   6.794  0.5509  0.7938 -0.0462
 3033SOL    HW120561   0.750   4.389   6.889  1.9023  0.5720 -0.0538
 3033SOL    HW220562   0.689   4.314   6.775  0.3733  0.7990  0.5071
 3034SOL     OW20563   0.376   4.068   2.345  0.2365 -0.0612  0.3784
 3034SOL    HW120564   0.397   3.977   2.328  0.7169  0.2662 -0.7525
 3034SOL    HW220565   0.352   4.099   2.257  0.8480 -0.1962  0.1697
 3035SOL     OW20566   3.692   1.694   5.995  0.5841  0.8497  0.1845
 3035SOL    HW120567   3.636   1.627   6.035  1.2950  0.5604  0.6994
 3035SOL    HW220568   3.684   1.678   5.901 -1.1272  2.0430  0.1342
 3036SOL     OW20569   2.859   3.693   8.540 -0.8916  0.1041 -0.5079
 3036SOL    HW120570   2.888   3.676   8.629 -2.6069  1.3164  0.2725
 3036SOL    HW220571   2.829   3.783   8.548 -0.2338  0.1118  1.8550
 3037SOL     OW20572   2.209   4.221  13.453 -0.1414 -0.1978  0.0089
 3037SOL    HW120573   2.300   4.253  13.454 -0.1378 -0.1558 -1.7335
 3037SOL    HW220574   2.190   4.140  13.501 -1.7072  0.7347  0.9588
 3038SOL     OW20575   3.947   2.206   4.342  0.2907  0.6610  0.6232
 3038SOL    HW120576   4.016   2.255   4.387  1.1162  0.7157 -0.6937
 3038SOL    HW220577   3.959   2.256   4.262  1.5119  1.3729  1.2542
 3039SOL     OW20578   4.082   1.475  14.405  0.3976  0.3229  0.5407
 3039SOL    HW120579   4.155   1.514  14.454  0.9867 -0.1265  0.0182
 3039SOL    HW220580   4.038   1.414  14.464 -0.0422 -2.0393 -2.2684
 3040SOL     OW20581   0.999   1.182   7.213  0.1981 -0.4208 -0.5559
 3040SOL    HW120582   0.910   1.202   7.243 -0.2939 -1.4725 -1.2804
 3040SOL    HW220583   1.024   1.135   7.293  1.7728  2.0198  0.3841
 3041SOL     OW20584   0.135   1.111   9.303  0.1644 -0.2344 -0.0722
 3041SOL    HW120585   0.132   1.016   9.292  2.7620 -0.1064 -1.8686
 3041SOL    HW220586   0.129   1.109   9.398  0.9770  0.2364 -0.0074
 3042SOL     OW20587   1.696   2.931   5.443 -0.2751 -0.6127 -0.3068
 3042SOL    HW120588   1.603   2.922   5.464  0.2933 -1.4531  1.9225
 3042SOL    HW220589   1.730   2.943   5.532  1.1020 -0.7485 -0.8004
 3043SOL     OW20590   3.321   4.515  10.295  0.1119 -0.5314 -0.4713
 3043SOL    HW120591   3.229   4.497  10.313 -0.3658  1.1803 -1.1672
 3043SOL    HW220592   3.324   4.580  10.225  2.5097 -1.8783 -1.6243
 3044SOL     OW20593   2.699   1.162   6.778  0.0878  0.1514 -0.5744
 3044SOL    HW120594   2.650   1.129   6.853 -1.8914  1.3680 -1.3346
 3044SOL    HW220595   2.627   1.199   6.727 -1.1563 -2.0103 -0.3702
 3045SOL     OW20596   2.352   3.073  16.744 -0.5869  0.2603  0.3782
 3045SOL    HW120597   2.352   3.165  16.769  0.1840 -0.4934  3.2524
 3045SOL    HW220598   2.434   3.053  16.697  0.9029  2.7172  1.9326
 3046SOL     OW20599   0.273   4.372   5.436  0.0824 -0.5402 -0.7083
 3046SOL    HW120600   0.181   4.388   5.454  0.6248 -0.3381  1.8501
 3046SOL    HW220601   0.310   4.376   5.524 -1.4396 -2.1365  0.0115
 3047SOL     OW20602   3.881   3.422   8.249  0.4202  0.2761 -0.1449
 3047SOL    HW120603   3.934   3.409   8.170  0.4061 -1.2121  0.0917
 3047SOL    HW220604   3.946   3.427   8.320  1.6540  0.3145 -1.2717
 3048SOL     OW20605   0.113   2.141   8.763  0.0524  0.1480  0.2356
 3048SOL    HW120606   0.045   2.103   8.709  0.6121 -1.5987  0.7432
 3048SOL    HW220607   0.161   2.067   8.801  0.2608  0.3057  0.2844
 3049SOL     OW20608   1.406   1.140   3.387 -0.0742 -0.2704 -0.2906
 3049SOL    HW120609   1.480   1.130   3.326 -1.6940 -0.8679 -2.1360
 3049SOL    HW220610   1.352   1.065   3.362 -1.3105  0.5255  0.0221
 3050SOL     OW20611   2.514   0.434  12.449 -0.2012 -0.2472  0.2021
 3050SOL    HW120612   2.498   0.443  12.543 -2.3072 -2.7204  0.0799
 3050SOL    HW220613   2.429   0.416  12.408 -0.5107  0.7383  0.4002
 3051SOL     OW20614   2.735   3.467   4.733  0.1062  0.2772  0.5916
 3051SOL    HW120615   2.689   3.388   4.763  0.6708  0.1361  1.1030
 3051SOL    HW220616   2.776   3.497   4.814  2.9484 -2.8952  0.3360
 3052SOL     OW20617   2.377   2.241   6.669 -0.5048  0.4654 -0.3420
 3052SOL    HW120618   2.353   2.175   6.604  0.2082  1.8130 -1.9771
 3052SOL    HW220619   2.362   2.314   6.609 -1.2357 -0.4190 -1.2462
 3053SOL     OW20620   4.588   0.193  13.301  0.3356 -0.3283 -0.0204
 3053SOL    HW120621   4.672   0.161  13.334  0.9176  1.6614  0.4174
 3053SOL    HW220622   4.560   0.122  13.243 -0.2407 -0.7683  0.7998
 3054SOL     OW20623   1.072   3.018   4.331  0.0782 -0.7594  0.0967
 3054SOL    HW120624   1.058   2.948   4.395 -0.0058 -0.2256  0.6615
 3054SOL    HW220625   0.996   3.010   4.273  1.5968 -0.5453 -1.9119
 3055SOL     OW20626   0.998   3.109  11.841  0.2803 -0.0029  0.5044
 3055SOL    HW120627   0.971   3.158  11.919 -0.7764  1.5056 -0.8168
 3055SOL    HW220628   0.925   3.047  11.846  1.4107 -1.5316 -1.9185
 3056SOL     OW20629   4.203   0.998   2.736 -0.2821 -0.0504 -0.8071
 3056SOL    HW120630   4.114   1.024   2.759 -1.1720 -1.6464 -2.4641
 3056SOL    HW220631   4.217   1.063   2.668  0.3731  0.8680  0.2148
 3057SOL     OW20632   0.360   3.662   5.191 -1.0327 -0.4019 -0.1763
 3057SOL    HW120633   0.367   3.583   5.244 -0.9096  0.4018  1.0021
 3057SOL    HW220634   0.347   3.722   5.264  2.5696 -0.3279  0.4130
 3058SOL     OW20635   3.959   3.509   6.778  0.0520  0.0999  0.6784
 3058SOL    HW120636   3.993   3.594   6.748 -0.5513 -0.0566 -0.4449
 3058SOL    HW220637   3.957   3.526   6.872 -2.5526 -1.2721  0.8560
 3059SOL     OW20638   2.484   2.607   1.203  0.1718 -0.4212  0.7159
 3059SOL    HW120639   2.389   2.599   1.191 -0.3453  2.0184  3.1359
 3059SOL    HW220640   2.526   2.588   1.119 -0.8783 -2.5544  0.6905
 3060SOL     OW20641   3.516   2.021   4.040  0.1510 -0.1771  0.8097
 3060SOL    HW120642   3.583   2.008   4.107  1.4666 -0.7053 -0.6082
 3060SOL    HW220643   3.433   2.027   4.086  0.3762  1.4694  0.9826
 3061SOL     OW20644   0.418   3.343   8.465 -0.1488  0.5475 -0.1923
 3061SOL    HW120645   0.481   3.271   8.460 -1.5421 -0.8095  1.7857
 3061SOL    HW220646   0.340   3.302   8.428 -0.0192 -0.3495  0.5360
 3062SOL     OW20647   0.233   0.692   8.530  0.5571  0.0168  0.0764
 3062SOL    HW120648   0.166   0.635   8.569 -0.5310  0.5724 -0.9746
 3062SOL    HW220649   0.222   0.664   8.439  0.4236  0.0367  0.0861
 3063SOL     OW20650   3.315   1.168   5.177  0.5694 -0.2115 -0.0665
 3063SOL    HW120651   3.269   1.199   5.255 -1.6485  1.2127 -1.9469
 3063SOL    HW220652   3.363   1.098   5.221 -1.1368 -0.0140  2.1469
 3064SOL     OW20653   3.398   4.216   2.772 -0.1883  0.2332 -0.3457
 3064SOL    HW120654   3.338   4.219   2.697 -1.2158 -3.2174  0.3259
 3064SOL    HW220655   3.336   4.191   2.840  0.0661 -2.0209 -0.9449
 3065SOL     OW20656   2.056   0.769  12.465 -0.3845 -0.1808 -0.2417
 3065SOL    HW120657   2.033   0.685  12.505  0.3037 -0.7695 -1.0655
 3065SOL    HW220658   1.992   0.831  12.498 -0.0867  0.0186 -0.0321
 3066SOL     OW20659   2.686   2.351  16.364  0.3624  0.0751  0.0084
 3066SOL    HW120660   2.693   2.400  16.446  1.4609 -1.3732  0.7854
 3066SOL    HW220661   2.684   2.416  16.294  0.9538  0.2655  0.1690
 3067SOL     OW20662   4.432   4.387   9.351 -0.7709  0.5121 -0.1668
 3067SOL    HW120663   4.348   4.354   9.383 -0.8393  1.0633  0.2165
 3067SOL    HW220664   4.492   4.321   9.385  0.1055 -0.7865 -4.1668
 3068SOL     OW20665   2.172   3.164  17.695  0.1405  0.0197 -0.3166
 3068SOL    HW120666   2.153   3.083  17.648 -1.0635  0.4481 -0.5716
 3068SOL    HW220667   2.104   3.228  17.670 -0.0242 -0.5169 -1.2427
 3069SOL     OW20668   0.013   0.428   2.994 -0.1554  0.4462 -0.2220
 3069SOL    HW120669   4.705   0.484   2.923 -2.0740  0.1771  0.4636
 3069SOL    HW220670   4.671   0.445   3.059 -0.9265  2.4780 -1.5420
 3070SOL     OW20671   2.014   0.760   8.228  0.2888  0.3463  0.1755
 3070SOL    HW120672   2.108   0.772   8.211  0.1126 -0.3914 -1.3000
 3070SOL    HW220673   2.011   0.673   8.267  2.3155 -0.5248 -1.6112
 3071SOL     OW20674   1.605   1.195   2.611  0.5646 -0.6917  0.1742
 3071SOL    HW120675   1.655   1.135   2.666  2.3871  0.6928  0.0251
 3071SOL    HW220676   1.665   1.266   2.590 -1.6220  0.4932 -2.1624
 3072SOL     OW20677   2.373   3.195  14.334  0.8001  0.0676  0.0579
 3072SOL    HW120678   2.440   3.263  14.338  0.3529  0.4517  1.0054
 3072SOL    HW220679   2.406   3.149  14.257  0.6710 -2.2968  1.4291
 3073SOL     OW20680   2.315   2.294  10.935  0.2629  0.0890  0.8787
 3073SOL    HW120681   2.308   2.241  11.014 -2.0714  0.2989  0.8073
 3073SOL    HW220682   2.264   2.239  10.875 -0.9718  3.2700 -1.0000
 3074SOL     OW20683   1.977   0.655   6.962  0.3345  0.3242  0.2132
 3074SOL    HW120684   1.904   0.631   7.019 -1.3754  0.9868 -1.6989
 3074SOL    HW220685   1.928   0.660   6.880 -0.8480 -1.6289  0.7846
 3075SOL     OW20686   2.363   3.365   0.075  0.2823  0.5568 -0.0284
 3075SOL    HW120687   2.358   3.395  17.686  0.6212 -0.3741 -0.3575
 3075SOL    HW220688   2.284   3.312   0.089  0.6652 -0.6304 -2.4203
 3076SOL     OW20689   2.703   2.186   7.403  0.0298 -0.3619  0.0225
 3076SOL    HW120690   2.709   2.147   7.316 -1.3576  0.3667 -0.3902
 3076SOL    HW220691   2.770   2.133   7.447  1.4838  0.1513 -1.5863
 3077SOL     OW20692   0.037   0.115   7.179 -0.1524 -0.0578  0.2350
 3077SOL    HW120693   0.070   0.072   7.257  0.7798  0.5217  0.1553
 3077SOL    HW220694   0.117   0.160   7.153  0.2995 -0.1638  1.4822
 3078SOL     OW20695   1.272   2.815   2.973 -0.1581 -0.4040 -0.1178
 3078SOL    HW120696   1.299   2.738   3.024 -1.3467  0.5588  2.0021
 3078SOL    HW220697   1.278   2.882   3.042  0.4757 -2.1346  1.5326
 3079SOL     OW20698   4.068   0.199   8.546  0.7625 -0.3719 -0.1600
 3079SOL    HW120699   4.132   0.254   8.592  1.2292  0.8682 -2.3089
 3079SOL    HW220700   4.008   0.167   8.614  2.7549 -1.5871  1.0561
 3080SOL     OW20701   2.198   0.815  13.535  0.7926 -0.0583  0.4250
 3080SOL    HW120702   2.289   0.814  13.565  0.3729 -0.2946  1.6823
 3080SOL    HW220703   2.159   0.860  13.610 -1.2969  1.1124 -1.3545
 3081SOL     OW20704   4.145   3.870   7.787  0.1747 -0.2079  0.1600
 3081SOL    HW120705   4.236   3.857   7.813  0.0220  0.8102  1.1964
 3081SOL    HW220706   4.108   3.897   7.871  1.1435 -0.1334  0.5650
 3082SOL     OW20707   2.263   2.605  13.663 -0.2026 -0.2061 -0.4326
 3082SOL    HW120708   2.202   2.621  13.735  2.7761 -0.5362  2.1486
 3082SOL    HW220709   2.346   2.622  13.707 -1.0185  1.2989  0.5760
 3083SOL     OW20710   1.123   2.733   0.354  0.1468 -0.0096  0.0906
 3083SOL    HW120711   1.116   2.646   0.314 -2.1113  0.7119 -1.0425
 3083SOL    HW220712   1.035   2.769   0.350 -0.0977 -0.5688  0.3679
 3084SOL     OW20713   0.382   0.492  13.353  0.1521 -0.2797  0.3078
 3084SOL    HW120714   0.408   0.576  13.315 -0.0443  0.0977  1.0007
 3084SOL    HW220715   0.292   0.517  13.377 -0.9007 -3.5129 -0.2811
 3085SOL     OW20716   0.215   2.802  17.443 -0.4042 -0.1640 -0.0123
 3085SOL    HW120717   0.147   2.868  17.453  0.7495  0.7884  1.5869
 3085SOL    HW220718   0.294   2.850  17.470 -0.8996  0.2244  0.7518
 3086SOL     OW20719   0.674   0.051  15.568 -0.4576 -0.2632  0.8010
 3086SOL    HW120720   0.638   4.687  15.569  0.3239 -0.5840  1.0618
 3086SOL    HW220721   0.718   0.046  15.653 -1.2045  0.7955  1.2390
 3087SOL     OW20722   1.289   2.196   7.249  0.1089 -0.1201 -0.0285
 3087SOL    HW120723   1.379   2.177   7.276  0.6851 -0.4057 -2.1552
 3087SOL    HW220724   1.286   2.168   7.158  2.9072  0.4626 -0.3083
 3088SOL     OW20725   4.698   0.991   7.593  0.5923 -0.1344 -0.3214
 3088SOL    HW120726   4.706   1.068   7.649  0.2501 -0.0952 -0.3275
 3088SOL    HW220727   4.636   0.937   7.642 -0.6049  2.1285  0.6583
 3089SOL     OW20728   0.891   4.690   3.383  0.3437  0.4147  0.1879
 3089SOL    HW120729   0.898   4.622   3.450  1.6957 -0.1196 -0.4959
 3089SOL    HW220730   0.938   0.039   3.421 -1.1644  0.9249  1.0474
 3090SOL     OW20731   0.733   1.455   6.933  0.1579  0.1317 -0.1299
 3090SOL    HW120732   0.699   1.504   6.858 -1.1969 -1.3905 -0.5135
 3090SOL    HW220733   0.644   1.455   6.968 -0.1924  0.6568 -1.0256
 3091SOL     OW20734   1.596   4.456  11.906 -0.1360 -0.0264  0.2427
 3091SOL    HW120735   1.674   4.482  11.955  0.8577 -1.0385 -0.7761
 3091SOL    HW220736   1.535   4.411  11.963 -1.1055 -0.7299 -1.3542
 3092SOL     OW20737   4.258   2.074   7.613  0.5671 -0.1575 -0.2054
 3092SOL    HW120738   4.338   2.075   7.560  1.9625  1.0290  1.9219
 3092SOL    HW220739   4.261   2.163   7.649  0.2213 -0.3935  0.4088
 3093SOL     OW20740   2.494   1.191  13.554  0.0810  0.2678  0.7719
 3093SOL    HW120741   2.584   1.160  13.565  0.1247  0.0572 -0.1653
 3093SOL    HW220742   2.478   1.180  13.460 -0.2964  0.5193  0.8059
 3094SOL     OW20743   0.853   0.502   1.232  0.3045 -0.2573 -0.3744
 3094SOL    HW120744   0.900   0.422   1.211 -1.3017 -1.7263  1.6666
 3094SOL    HW220745   0.798   0.496   1.153  0.5177 -0.8137 -0.4781
 3095SOL     OW20746   1.724   3.167  12.344  0.3238  0.0466 -0.1694
 3095SOL    HW120747   1.668   3.205  12.276 -1.1201 -0.5657  0.6888
 3095SOL    HW220748   1.672   3.184  12.423  0.8585 -1.5054  0.5165
 3096SOL     OW20749   2.176   0.364  16.935 -0.2594 -0.2236  0.2953
 3096SOL    HW120750   2.104   0.311  16.902 -0.9318  1.3266 -0.7663
 3096SOL    HW220751   2.211   0.312  17.007 -0.0930 -1.7792 -0.9113
 3097SOL     OW20752   0.148   3.303  14.109 -0.4782 -0.5291 -0.6109
 3097SOL    HW120753   0.060   3.310  14.146 -0.4032 -0.3691 -0.4664
 3097SOL    HW220754   0.183   3.391  14.115  1.4824 -1.2092 -2.0423
 3098SOL     OW20755   1.546   1.450   3.247 -0.7807 -0.0635 -0.4529
 3098SOL    HW120756   1.625   1.439   3.301 -2.3902 -0.3851  1.8315
 3098SOL    HW220757   1.478   1.440   3.314  0.5571  0.4241  0.9759
 3099SOL     OW20758   2.341   1.188   7.046  0.5466 -0.3926  0.6193
 3099SOL    HW120759   2.403   1.119   7.022  1.5286 -0.1807  2.5389
 3099SOL    HW220760   2.361   1.228   7.131  0.9975 -0.5673  0.5990
 3100SOL     OW20761   3.106   2.462   5.044  0.1271  0.0058 -0.0621
 3100SOL    HW120762   3.050   2.391   5.074 -0.0834  0.0586 -0.3265
 3100SOL    HW220763   3.153   2.404   4.983 -1.0304 -0.5830 -0.3869
 3101SOL     OW20764   2.532   2.100   2.385  0.2800 -0.4755  0.6282
 3101SOL    HW120765   2.519   2.006   2.369 -1.1379  0.0522 -1.3114
 3101SOL    HW220766   2.442   2.132   2.378  0.7744  0.5232 -1.1351
 3102SOL     OW20767   4.280   3.509  16.203 -0.1140 -0.0949 -0.4625
 3102SOL    HW120768   4.196   3.496  16.159 -0.9911 -1.7839  1.7049
 3102SOL    HW220769   4.292   3.604  16.197  0.6230 -0.1541  0.0235
 3103SOL     OW20770   4.564   0.002   6.019 -0.2193  0.0176  0.5810
 3103SOL    HW120771   4.526   4.691   5.939 -1.4783 -1.0524  1.6724
 3103SOL    HW220772   4.629   4.660   6.037 -0.6890 -0.0848  1.8353
 3104SOL     OW20773   3.690   0.672  17.259  0.8666 -0.1911  0.3875
 3104SOL    HW120774   3.711   0.631  17.175  2.7841 -0.3621  0.9527
 3104SOL    HW220775   3.600   0.645  17.277  1.0503 -2.6324 -2.2700
 3105SOL     OW20776   2.905   2.345   1.270 -0.6767 -0.2046 -0.4045
 3105SOL    HW120777   2.839   2.295   1.318  0.6653 -0.5888  1.0465
 3105SOL    HW220778   2.878   2.436   1.269  0.2168  0.0643 -0.2532
 3106SOL     OW20779   3.995   3.681   5.895  0.3026 -0.6789 -0.5589
 3106SOL    HW120780   3.970   3.653   5.983  0.9676  0.9031  0.1410
 3106SOL    HW220781   3.964   3.772   5.896 -1.1737 -1.1754 -1.1583
 3107SOL     OW20782   2.151   1.988  15.471  0.1545  0.3091  0.1584
 3107SOL    HW120783   2.125   1.951  15.386  0.5484 -0.9540  0.5883
 3107SOL    HW220784   2.128   2.078  15.450  0.1562  0.0090 -1.1657
 3108SOL     OW20785   2.281   3.177   8.298 -0.4826  0.2228  0.4683
 3108SOL    HW120786   2.208   3.198   8.356 -0.1803 -0.8787  1.2561
 3108SOL    HW220787   2.286   3.082   8.310  1.0951  0.0533 -1.5715
 3109SOL     OW20788   2.667   2.645  15.792  0.4158 -0.4639 -0.6448
 3109SOL    HW120789   2.753   2.633  15.751  1.4996  1.2274  1.0774
 3109SOL    HW220790   2.608   2.607  15.728 -1.6665  0.0298  0.9865
 3110SOL     OW20791   4.015   4.282   7.486 -0.1045  0.3145  0.0662
 3110SOL    HW120792   4.069   4.212   7.449  0.4655  0.4180  0.7033
 3110SOL    HW220793   3.999   4.334   7.407 -0.2684  0.8265  0.4383
 3111SOL     OW20794   2.111   1.275  14.235 -0.1310 -0.0592  0.6188
 3111SOL    HW120795   2.114   1.229  14.319 -0.3951 -2.7541 -0.8381
 3111SOL    HW220796   2.194   1.250  14.194 -0.5428  2.3300 -1.6743
 3112SOL     OW20797   0.979   0.370  10.037 -0.5694  0.0406  0.4827
 3112SOL    HW120798   1.067   0.334  10.050 -0.9679 -1.4305 -1.0401
 3112SOL    HW220799   0.925   0.316  10.095 -2.3613  2.7039  1.2965
 3113SOL     OW20800   3.432   0.730   5.707 -0.3705 -0.7351 -0.2018
 3113SOL    HW120801   3.523   0.739   5.734 -0.8118 -1.1369  1.4612
 3113SOL    HW220802   3.443   0.647   5.662  1.7338  0.2562 -1.4699
 3114SOL     OW20803   3.467   2.414  17.498  0.3744  0.0476 -0.2851
 3114SOL    HW120804   3.464   2.358  17.421 -0.2807 -0.0105 -0.2139
 3114SOL    HW220805   3.462   2.343  17.562  0.9086 -0.7241 -1.1054
 3115SOL     OW20806   1.615   1.631   1.207 -0.2588  0.6207 -0.1813
 3115SOL    HW120807   1.699   1.666   1.237 -0.2344  0.9070 -0.5800
 3115SOL    HW220808   1.561   1.655   1.283 -1.8055 -0.8521 -0.8241
 3116SOL     OW20809   0.259   4.198   4.706 -0.1018  0.2619 -0.1924
 3116SOL    HW120810   0.320   4.270   4.690  0.7886 -0.2153  1.0816
 3116SOL    HW220811   0.315   4.126   4.676 -2.0374 -1.7189  0.9644
 3117SOL     OW20812   2.340   1.804   7.819  0.3538 -0.0818  0.1056
 3117SOL    HW120813   2.281   1.878   7.836 -2.4994 -2.1920 -0.4871
 3117SOL    HW220814   2.388   1.848   7.749 -1.0010 -0.0429 -0.8167
 3118SOL     OW20815   0.701   2.180   2.597 -0.6229  0.4772 -0.1059
 3118SOL    HW120816   0.671   2.240   2.665  1.6077  0.5593  0.7821
 3118SOL    HW220817   0.752   2.235   2.537  2.1462  0.1453  2.0028
 3119SOL     OW20818   1.827   2.241   3.638  0.4656 -0.0736 -0.2969
 3119SOL    HW120819   1.755   2.232   3.701 -0.4764 -0.4013 -1.4220
 3119SOL    HW220820   1.789   2.220   3.553 -0.6789 -1.2562  0.5062
 3120SOL     OW20821   2.760   3.553  14.457  0.3757  0.0817  0.2636
 3120SOL    HW120822   2.821   3.530  14.527  2.1305  2.4071 -0.4839
 3120SOL    HW220823   2.682   3.551  14.513  1.4792  0.1772  1.7913
 3121SOL     OW20824   3.460   3.752   7.863 -0.0726 -0.3155 -0.2660
 3121SOL    HW120825   3.494   3.697   7.934  0.1865 -0.4759 -0.5187
 3121SOL    HW220826   3.415   3.686   7.811 -0.5235 -0.4274  0.2571
 3122SOL     OW20827   0.067   3.435   0.172 -0.1278  0.1597  0.5713
 3122SOL    HW120828   0.156   3.402   0.155 -0.1212  0.3177  0.2986
 3122SOL    HW220829   0.053   3.391   0.256 -0.1827 -2.1446 -0.6317
 3123SOL     OW20830   2.138   0.216  16.014 -0.2995  0.0392  0.3249
 3123SOL    HW120831   2.221   0.231  15.968 -0.3749 -1.8918 -0.4522
 3123SOL    HW220832   2.174   0.168  16.088 -1.4572 -0.8773  0.3028
 3124SOL     OW20833   1.180   1.898  11.006 -0.3437 -0.1954 -0.2487
 3124SOL    HW120834   1.235   1.821  10.996 -1.6437 -1.3332  1.3090
 3124SOL    HW220835   1.138   1.900  10.920  0.9230  2.3861 -0.8126
 3125SOL     OW20836   2.773   2.013   5.055 -0.4050 -0.2028  0.1874
 3125SOL    HW120837   2.679   2.015   5.073 -0.7167 -1.8847 -1.2401
 3125SOL    HW220838   2.766   1.971   4.969  3.7747  0.7623 -0.6421
 3126SOL     OW20839   3.630   2.711   4.863 -0.5256 -0.3935 -0.2951
 3126SOL    HW120840   3.707   2.722   4.918  0.3432 -1.4296 -1.3159
 3126SOL    HW220841   3.667   2.744   4.781  2.2963 -2.2210  0.2514
 3127SOL     OW20842   2.524   0.185   5.366  0.3344  0.1388  0.1049
 3127SOL    HW120843   2.566   0.270   5.361  1.6804 -0.5231 -0.0006
 3127SOL    HW220844   2.564   0.148   5.445 -0.5066 -1.3007 -0.1274
 3128SOL     OW20845   3.751   1.614   3.749  0.4385 -0.4702  0.2244
 3128SOL    HW120846   3.689   1.678   3.784  3.0188  2.3267 -0.2757
 3128SOL    HW220847   3.706   1.530   3.756  1.9337 -1.4593 -1.9652
 3129SOL     OW20848   0.654   2.562   0.418 -0.2697  0.3759 -0.2017
 3129SOL    HW120849   0.560   2.568   0.431 -0.3389  0.8273 -0.9219
 3129SOL    HW220850   0.676   2.472   0.441  0.2482  0.5087 -0.1533
 3130SOL     OW20851   1.406   2.244   9.018  0.6457  0.5548 -0.2250
 3130SOL    HW120852   1.472   2.310   8.995  0.3276  0.3487 -1.7335
 3130SOL    HW220853   1.340   2.301   9.057  1.4316  1.3032  0.0280
 3131SOL     OW20854   1.611   4.644   8.770 -0.4141  0.3620  0.1238
 3131SOL    HW120855   1.646   0.006   8.790 -2.0258  1.2258 -0.7784
 3131SOL    HW220856   1.662   4.595   8.834  3.0397  2.9875 -0.6195
 3132SOL     OW20857   2.877   4.678   0.988 -0.2568  0.4790 -0.4312
 3132SOL    HW120858   2.884   4.644   0.899 -0.5109  2.7290 -1.3105
 3132SOL    HW220859   2.961   4.723   1.000  0.7678 -1.0466 -1.8975
 3133SOL     OW20860   0.561   0.210  11.715 -0.0355  0.0324  0.2630
 3133SOL    HW120861   0.641   0.261  11.727 -0.0366  0.2249 -0.5803
 3133SOL    HW220862   0.567   0.203  11.620  0.1463  0.0358  0.2741
 3134SOL     OW20863   3.430   3.537  17.061 -0.1587 -0.1274  0.3175
 3134SOL    HW120864   3.491   3.542  17.134 -0.2432  0.0038  0.3794
 3134SOL    HW220865   3.365   3.478  17.099  0.4307 -0.7470  0.3412
 3135SOL     OW20866   1.055   0.710  16.539 -0.5228  0.0747 -0.6254
 3135SOL    HW120867   1.071   0.795  16.497 -3.0690  0.1496 -1.4452
 3135SOL    HW220868   0.960   0.705  16.526 -0.9922  0.4198  2.7561
 3136SOL     OW20869   2.137   2.768  15.671 -0.0280  0.3237  0.2897
 3136SOL    HW120870   2.192   2.763  15.593 -2.2705  0.3085 -1.3006
 3136SOL    HW220871   2.118   2.862  15.658 -2.5168 -0.3208 -0.8200
 3137SOL     OW20872   1.498   0.974   8.860 -0.7635 -0.0185 -0.0369
 3137SOL    HW120873   1.491   0.905   8.926 -0.6517  2.0005  2.0898
 3137SOL    HW220874   1.514   0.918   8.783 -3.4050 -3.7073  2.1052
 3138SOL     OW20875   0.205   1.995  14.567 -0.1927 -0.5026  0.2023
 3138SOL    HW120876   0.163   2.014  14.483 -1.5365  0.3613  1.0699
 3138SOL    HW220877   0.273   1.934  14.539 -1.7775 -1.7706 -0.8702
 3139SOL     OW20878   3.055   0.317   3.518 -0.2660  0.2118  0.0776
 3139SOL    HW120879   3.039   0.338   3.426  1.3397 -1.0076 -0.4750
 3139SOL    HW220880   3.026   0.226   3.514  2.9349 -0.7774 -0.2491
 3140SOL     OW20881   4.514   0.532   5.417 -0.2109 -0.1892 -0.3885
 3140SOL    HW120882   4.584   0.564   5.361 -0.9457 -0.6053 -1.5351
 3140SOL    HW220883   4.550   0.443   5.419 -0.9223 -0.4399  2.6029
 3141SOL     OW20884   2.973   3.925   8.897 -0.1580  1.1659 -0.1472
 3141SOL    HW120885   2.969   3.830   8.891  0.5187  1.1100  0.1964
 3141SOL    HW220886   2.889   3.947   8.936 -1.9005  1.2276 -3.9452
 3142SOL     OW20887   3.388   2.958   0.462 -0.3533  0.1492  0.4296
 3142SOL    HW120888   3.460   2.951   0.525  0.9893 -2.0832 -1.3245
 3142SOL    HW220889   3.436   2.987   0.384 -3.3701  3.3264 -0.2396
 3143SOL     OW20890   2.945   1.461   6.384  0.2164 -0.6886  0.2254
 3143SOL    HW120891   2.866   1.513   6.374  0.0026 -1.2989 -1.2807
 3143SOL    HW220892   2.947   1.460   6.480  0.8493 -2.6081  0.1989
 3144SOL     OW20893   3.309   3.209   4.731 -0.3053 -0.0985 -0.1508
 3144SOL    HW120894   3.351   3.124   4.715  1.3832  0.7290 -0.1210
 3144SOL    HW220895   3.220   3.187   4.758  0.7840 -0.8976  2.7795
 3145SOL     OW20896   0.985   2.966   4.062  0.0174 -0.0295 -0.2280
 3145SOL    HW120897   1.072   2.930   4.043  0.7099  1.3988  0.2567
 3145SOL    HW220898   0.941   2.893   4.106  1.6634 -0.2722  1.0051
 3146SOL     OW20899   0.723   1.129  10.067  0.3112  0.3335  0.0970
 3146SOL    HW120900   0.716   1.196  10.136 -1.1843  1.0275 -0.7246
 3146SOL    HW220901   0.813   1.149  10.040 -0.3431 -0.1570 -2.4511
 3147SOL     OW20902   3.623   0.478   3.495 -0.4355  0.0416  0.1138
 3147SOL    HW120903   3.702   0.499   3.445 -1.1740 -0.3831 -1.2263
 3147SOL    HW220904   3.572   0.445   3.421 -1.5611  1.8806  0.0915
 3148SOL     OW20905   1.814   4.107  17.396 -0.0529  0.2952  0.0069
 3148SOL    HW120906   1.773   4.020  17.392  3.7645 -1.4062 -2.1619
 3148SOL    HW220907   1.895   4.064  17.423 -0.0522 -0.2034 -0.7865
 3149SOL     OW20908   3.615   4.558   2.763  0.1551  0.2883  0.6081
 3149SOL    HW120909   3.645   4.505   2.837  1.0141  0.8472  0.6631
 3149SOL    HW220910   3.684   4.622   2.741 -1.5843  1.7326 -0.6034
 3150SOL     OW20911   0.982   3.680   3.966  0.9726  0.1529  0.5889
 3150SOL    HW120912   0.955   3.632   3.888  1.3871  0.1187  0.4671
 3150SOL    HW220913   0.966   3.772   3.945 -0.2535 -0.5543 -1.5296
 3151SOL     OW20914   1.923   4.389   7.859 -0.0498  0.0804 -0.2938
 3151SOL    HW120915   1.863   4.376   7.933  1.4926  1.5490  1.2065
 3151SOL    HW220916   1.969   4.463   7.898 -0.3325  1.1418 -1.9834
 3152SOL     OW20917   0.459   3.027   5.037 -0.5294 -0.5338  0.2533
 3152SOL    HW120918   0.364   3.036   5.042 -0.4189 -0.0243  1.3717
 3152SOL    HW220919   0.457   2.954   5.099 -2.0364 -0.3845  0.3879
 3153SOL     OW20920   4.710   0.171   5.864 -0.3143  0.3084 -0.8273
 3153SOL    HW120921   0.045   0.213   5.925  1.0929  0.8579 -2.5950
 3153SOL    HW220922   4.645   0.134   5.924  0.0142 -2.5629 -2.2361
 3154SOL     OW20923   2.334   0.589   3.981 -0.2745 -0.4412 -0.2379
 3154SOL    HW120924   2.278   0.512   3.974 -0.9110  0.0202 -0.2550
 3154SOL    HW220925   2.373   0.592   3.893 -0.4355  3.0791 -0.1983
 3155SOL     OW20926   1.035   1.084   3.357 -0.6423 -0.2910 -0.5470
 3155SOL    HW120927   0.989   1.033   3.425  0.9880 -0.2815  0.5641
 3155SOL    HW220928   1.002   1.040   3.279 -2.7841  1.4024 -0.5978
 3156SOL     OW20929   4.105   2.832   5.734 -0.1992  0.1343  0.1985
 3156SOL    HW120930   4.141   2.881   5.660  2.6213 -2.8645 -0.4049
 3156SOL    HW220931   4.189   2.796   5.763  1.3066  2.7641 -0.9005
 3157SOL     OW20932   1.871   2.320   9.258 -0.3525  0.1153  0.1473
 3157SOL    HW120933   1.917   2.299   9.340 -0.4103 -0.5705  0.0075
 3157SOL    HW220934   1.808   2.388   9.278  2.0499  2.5138 -0.3594
 3158SOL     OW20935   1.652   4.024  15.074  0.4666  0.3075 -0.8578
 3158SOL    HW120936   1.619   4.106  15.109  2.5891  0.6921  0.2448
 3158SOL    HW220937   1.747   4.036  15.080  0.7470 -0.7066 -3.2778
 3159SOL     OW20938   4.139   0.708   6.693 -0.2345  0.3663  0.2941
 3159SOL    HW120939   4.207   0.670   6.749 -2.2378 -2.5370  0.7381
 3159SOL    HW220940   4.192   0.719   6.614 -0.0277 -2.6385  0.0226
 3160SOL     OW20941   1.755   1.056   6.405 -0.2069 -0.2887 -0.3870
 3160SOL    HW120942   1.699   0.988   6.367  0.9971 -1.8332  0.6499
 3160SOL    HW220943   1.693   1.130   6.407 -1.1362 -1.1391  1.8296
 3161SOL     OW20944   1.769   0.157   2.043 -0.3286  0.0558 -0.2806
 3161SOL    HW120945   1.788   0.185   1.953 -0.6995  1.9190  0.2288
 3161SOL    HW220946   1.851   0.185   2.084  0.7186 -1.9036 -0.9973
 3162SOL     OW20947   1.897   2.030   4.336  0.9185  0.0680 -0.2736
 3162SOL    HW120948   1.816   2.060   4.378  0.5612 -0.9975 -0.2057
 3162SOL    HW220949   1.854   1.967   4.277  1.5311 -0.2503 -0.3802
 3163SOL     OW20950   0.805   1.296   3.209 -0.2235 -0.1729  0.1409
 3163SOL    HW120951   0.829   1.335   3.125  0.1972 -4.2423 -1.6260
 3163SOL    HW220952   0.896   1.294   3.240 -0.0797 -1.9137 -0.3953
 3164SOL     OW20953   2.693   2.982   5.887 -0.8051  0.4604 -0.2315
 3164SOL    HW120954   2.713   2.905   5.834 -2.5879  1.9895 -3.1080
 3164SOL    HW220955   2.615   2.953   5.934  0.4258 -0.2527  1.3704
 3165SOL     OW20956   1.823   3.542   5.648  0.0379  0.8750 -0.7858
 3165SOL    HW120957   1.829   3.542   5.552  1.3292  2.0883 -0.7066
 3165SOL    HW220958   1.833   3.635   5.667 -0.4044  0.5747  0.9406
 3166SOL     OW20959   4.679   1.950   7.584 -0.0147 -0.4837 -0.5165
 3166SOL    HW120960   4.632   2.011   7.641  0.8851  0.0690 -0.3741
 3166SOL    HW220961   4.659   1.866   7.624 -0.1930 -0.6154 -0.8789
 3167SOL     OW20962   2.429   3.742   2.718 -0.4272 -0.0893  0.5426
 3167SOL    HW120963   2.395   3.657   2.745  0.1010  0.1233  1.8590
 3167SOL    HW220964   2.514   3.746   2.760  0.4520 -0.8088 -1.1651
 3168SOL     OW20965   1.931   3.220   2.784 -0.5854  0.3416 -0.4001
 3168SOL    HW120966   1.855   3.224   2.725 -1.8251  2.8766  1.3761
 3168SOL    HW220967   1.929   3.307   2.824 -0.9385  0.4219 -0.5960
 3169SOL     OW20968   2.033   1.010   0.659  0.0854  0.2777  0.2140
 3169SOL    HW120969   2.016   0.955   0.735 -1.2167 -2.8200 -2.3100
 3169SOL    HW220970   2.127   1.002   0.646 -0.3319 -1.1352 -2.0040
 3170SOL     OW20971   1.776   3.455   7.923  0.0056 -0.4509 -0.3092
 3170SOL    HW120972   1.839   3.386   7.903  0.9787  0.5942 -0.9191
 3170SOL    HW220973   1.710   3.410   7.975 -0.2137  1.2941  0.9466
 3171SOL     OW20974   1.501   0.904   3.693  0.1981  0.6885 -0.2225
 3171SOL    HW120975   1.579   0.865   3.655 -0.5304 -1.5926  0.5947
 3171SOL    HW220976   1.530   0.988   3.727 -0.8137  0.1613  1.9177
 3172SOL     OW20977   2.957   1.980   3.087 -0.0510  0.6512  0.0430
 3172SOL    HW120978   3.005   1.933   3.019  0.6772  1.1896  0.1937
 3172SOL    HW220979   2.933   2.055   3.032 -1.1776  0.2192 -0.0540
 3173SOL     OW20980   2.229   3.348  14.663  0.3513 -0.1695 -0.1035
 3173SOL    HW120981   2.233   3.267  14.613  0.7940 -0.8034  0.9585
 3173SOL    HW220982   2.135   3.364  14.668 -0.1375 -2.5203 -1.8670
 3174SOL     OW20983   3.882   0.864  14.287 -0.1601  0.5999 -0.3953
 3174SOL    HW120984   3.934   0.909  14.220 -0.6237  3.5581  1.2418
 3174SOL    HW220985   3.867   0.927  14.357 -1.2454 -0.6945  0.5396
 3175SOL     OW20986   4.172   2.333   7.696 -0.1487  0.0861  0.0365
 3175SOL    HW120987   4.184   2.377   7.780  0.7265  1.1342 -0.6490
 3175SOL    HW220988   4.088   2.371   7.667  0.2274 -0.3495 -1.6103
 3176SOL     OW20989   2.480   3.494   8.031 -0.2905  0.4918  0.1388
 3176SOL    HW120990   2.480   3.588   8.050 -2.0010  0.3293  0.9645
 3176SOL    HW220991   2.477   3.450   8.116  1.2337 -1.3944 -0.7825
 3177SOL     OW20992   2.891   3.933   3.992  1.2765  0.0940  0.0367
 3177SOL    HW120993   2.862   3.942   4.083 -0.9330 -0.8966 -0.5659
 3177SOL    HW220994   2.823   3.873   3.963  1.1188  0.0939  0.4088
 3178SOL     OW20995   3.728   1.130   7.986 -0.0536 -0.3587  0.6013
 3178SOL    HW120996   3.669   1.154   8.058 -0.7480 -2.2223  0.6512
 3178SOL    HW220997   3.807   1.148   8.037 -1.0790  1.5257  1.5509
 3179SOL     OW20998   4.345   2.807   6.426  0.4403 -0.6341 -0.1078
 3179SOL    HW120999   4.402   2.789   6.501  0.2067 -1.4387 -0.1234
 3179SOL    HW221000   4.322   2.723   6.388 -0.2009  1.3102 -4.0762
 3180SOL     OW21001   2.120   4.494   3.855 -0.6264  0.1670 -0.3497
 3180SOL    HW121002   2.215   4.493   3.838 -0.7793 -4.1431 -0.9947
 3180SOL    HW221003   2.105   4.400   3.862  2.6590 -0.2306  1.1911
 3181SOL     OW21004   2.885   0.209   3.031 -0.3540  0.5195  0.2837
 3181SOL    HW121005   2.858   0.117   3.031 -0.6143  0.5962 -1.8819
 3181SOL    HW221006   2.814   0.254   2.985 -1.6072 -0.1385  1.5643
 3182SOL     OW21007   1.211   3.088   5.750  0.2728  0.0929 -0.1749
 3182SOL    HW121008   1.224   3.152   5.820  1.3498  1.4222 -1.5719
 3182SOL    HW221009   1.231   3.004   5.791 -1.4314 -0.6220 -0.8349
 3183SOL     OW21010   1.166   3.568   3.061  0.0519 -0.0055  0.5816
 3183SOL    HW121011   1.249   3.527   3.038 -0.0413 -0.4598  1.0643
 3183SOL    HW221012   1.101   3.519   3.010  0.7497  1.1292 -1.4216
 3184SOL     OW21013   0.696   4.282   7.130 -0.5231  0.3861 -0.2584
 3184SOL    HW121014   0.672   4.354   7.188  2.0702  2.9048 -2.3044
 3184SOL    HW221015   0.609   4.243   7.133 -0.5696  0.5455  0.4301
 3185SOL     OW21016   2.772   3.919   6.984  0.0362 -0.0482 -0.2876
 3185SOL    HW121017   2.809   4.007   6.976 -0.0676  0.0548  0.3173
 3185SOL    HW221018   2.679   3.939   6.991 -0.2077 -1.5533  0.8843
 3186SOL     OW21019   1.309   3.236   6.235  0.3135 -0.1848 -0.3815
 3186SOL    HW121020   1.235   3.261   6.180  0.7674 -0.8253 -1.2790
 3186SOL    HW221021   1.277   3.282   6.313 -0.9940 -1.7195 -0.0098
 3187SOL     OW21022   0.562   4.477   5.933  0.1078  0.1379  0.5533
 3187SOL    HW121023   0.558   4.404   5.995  1.2004 -1.3838 -1.2077
 3187SOL    HW221024   0.602   4.437   5.856 -1.3701  1.7157 -1.0440
 3188SOL     OW21025   0.539   3.298  11.161 -0.6321  0.6748  0.3534
 3188SOL    HW121026   0.452   3.270  11.134 -0.1307  1.4010 -2.0207
 3188SOL    HW221027   0.510   3.352  11.234 -2.2722  0.4128 -0.1007
 3189SOL     OW21028   3.545   4.373   9.317  0.9315  0.1719 -0.9145
 3189SOL    HW121029   3.619   4.428   9.293  1.0618  0.1790 -0.4936
 3189SOL    HW221030   3.525   4.337   9.230  2.6441 -0.3432 -1.0934
 3190SOL     OW21031   1.749   3.313   9.249  0.1141 -1.1907  0.5581
 3190SOL    HW121032   1.825   3.370   9.255 -2.2666  2.1163 -0.4640
 3190SOL    HW221033   1.685   3.381   9.267  0.5004 -0.7782  0.3754
 3191SOL     OW21034   3.485   2.307   4.641  0.1366  0.0879  0.0987
 3191SOL    HW121035   3.495   2.364   4.564 -0.4582  0.2431  0.1350
 3191SOL    HW221036   3.540   2.345   4.709 -1.0577  0.6000  0.7557
 3192SOL     OW21037   2.610   1.189   4.389 -0.2271  0.0436  0.0784
 3192SOL    HW121038   2.601   1.115   4.329 -0.9210  0.0934  0.1185
 3192SOL    HW221039   2.699   1.215   4.367  0.5287 -1.9449  0.8604
 3193SOL     OW21040   2.020   1.607   1.700  0.5239 -0.1245  0.0116
 3193SOL    HW121041   1.971   1.577   1.776  2.5887 -1.1254  0.9458
 3193SOL    HW221042   2.099   1.555   1.712 -0.2054 -1.4554 -0.9577
 3194SOL     OW21043   3.248   0.309   7.034 -0.3627 -1.2722 -0.1692
 3194SOL    HW121044   3.234   0.310   6.939 -1.5669  0.6125  0.0278
 3194SOL    HW221045   3.193   0.233   7.055 -1.1306 -0.3652  1.0695
 3195SOL     OW21046   2.319   1.976   3.931 -0.2940  0.3538 -0.5152
 3195SOL    HW121047   2.336   2.055   3.983  1.3899 -1.4062  1.5961
 3195SOL    HW221048   2.343   1.910   3.996  1.6037  1.5140 -0.0189
 3196SOL     OW21049   4.062   1.519  12.377  0.4025 -0.2417 -0.1054
 3196SOL    HW121050   4.072   1.605  12.418  3.4859 -0.1127 -1.1838
 3196SOL    HW221051   4.016   1.474  12.447  1.4335 -0.6211  0.3251
 3197SOL     OW21052   2.070   0.268   5.360 -0.5297  0.5096 -0.0639
 3197SOL    HW121053   2.129   0.270   5.435 -0.5706 -0.1099 -0.0150
 3197SOL    HW221054   2.003   0.218   5.407  0.0081 -0.2009 -0.0579
 3198SOL     OW21055   1.800   4.471   0.717  0.6501 -0.4717  0.5457
 3198SOL    HW121056   1.820   4.403   0.653  1.6886 -0.5783  0.9878
 3198SOL    HW221057   1.879   4.524   0.719 -0.3019  0.9358  0.2686
 3199SOL     OW21058   0.023   4.233   3.967  0.0138  0.2676  0.1765
 3199SOL    HW121059   4.707   4.299   4.023 -4.0814 -0.8303 -1.6114
 3199SOL    HW221060   0.003   4.268   3.880 -1.6942 -1.6391 -0.1779
 3200SOL     OW21061   1.988   2.578   5.978 -0.4906 -0.4524  0.0354
 3200SOL    HW121062   1.964   2.496   6.021  3.0643 -0.2490  2.4884
 3200SOL    HW221063   1.959   2.632   6.052 -0.8331 -0.6064  0.0135
 3201SOL     OW21064   3.463   2.485   3.407  0.1069 -0.4841  0.2506
 3201SOL    HW121065   3.554   2.492   3.379  0.0878  0.1786  0.3503
 3201SOL    HW221066   3.427   2.489   3.319 -2.0494 -1.2655  1.0939
 3202SOL     OW21067   0.971   1.789   9.384  0.0505 -0.0039 -0.3973
 3202SOL    HW121068   0.970   1.726   9.312 -2.8253  0.6899 -0.9705
 3202SOL    HW221069   0.892   1.754   9.423 -0.9905 -0.3452 -2.7985
 3203SOL     OW21070   0.315   0.793   4.261 -0.1500 -0.3399  0.3085
 3203SOL    HW121071   0.406   0.777   4.284 -0.2358 -0.5785  0.4923
 3203SOL    HW221072   0.315   0.887   4.247 -3.5605 -0.1674  1.3195
 3204SOL     OW21073   1.149   1.645  14.737  0.0429 -0.1850  0.7441
 3204SOL    HW121074   1.070   1.659  14.685  0.7304  1.1270  0.0587
 3204SOL    HW221075   1.201   1.575  14.696  0.4950  0.0973  0.8299
 3205SOL     OW21076   2.465   2.606   5.041  0.9966  0.2908  0.3221
 3205SOL    HW121077   2.440   2.518   5.014  1.8841  0.1087  0.0817
 3205SOL    HW221078   2.492   2.590   5.132 -0.4229  0.2903  0.7474
 3206SOL     OW21079   0.666   1.943   2.453  0.8549 -0.1688 -0.2100
 3206SOL    HW121080   0.681   1.890   2.531  2.7262 -1.3430 -1.3672
 3206SOL    HW221081   0.674   2.029   2.495  1.1541  0.8691 -2.3821
 3207SOL     OW21082   1.882   3.250  11.106  0.1910 -0.0515 -0.7163
 3207SOL    HW121083   1.933   3.233  11.028 -0.2318 -1.8522 -0.5923
 3207SOL    HW221084   1.806   3.300  11.076  0.3951  0.5857 -0.1747
 3208SOL     OW21085   0.992   0.959  15.442  0.2607 -0.2003 -0.7971
 3208SOL    HW121086   0.950   1.045  15.436  1.6256  0.5108 -0.2620
 3208SOL    HW221087   0.912   0.914  15.466 -0.4467 -0.0445 -2.8515
 3209SOL     OW21088   4.071   3.013   4.582 -0.0931  0.2581 -0.2893
 3209SOL    HW121089   4.103   3.072   4.513  1.2958 -1.8704 -1.4794
 3209SOL    HW221090   4.073   2.928   4.539  0.9111  1.8414 -3.3854
 3210SOL     OW21091   4.537   1.003   2.174  0.1058  0.3322 -0.2250
 3210SOL    HW121092   4.496   1.020   2.090  0.6735  1.9389 -0.1607
 3210SOL    HW221093   4.531   0.907   2.171 -3.1587  0.6286 -3.1726
 3211SOL     OW21094   3.489   2.650  12.789 -0.1908 -0.0309 -0.1088
 3211SOL    HW121095   3.576   2.609  12.793  0.2351  0.9398  0.8996
 3211SOL    HW221096   3.434   2.611  12.857 -0.4067  1.5715  0.6390
 3212SOL     OW21097   0.223   4.511   3.548 -0.3840  0.0545 -0.1536
 3212SOL    HW121098   0.194   4.540   3.461  0.8072  2.3269  0.2000
 3212SOL    HW221099   0.281   4.582   3.576  1.4936 -1.2558 -0.7643
 3213SOL     OW21100   1.729   2.085   5.212 -0.1357 -0.0954 -0.4258
 3213SOL    HW121101   1.750   2.012   5.154 -1.4634 -0.8803  0.0707
 3213SOL    HW221102   1.662   2.124   5.155  0.0712  1.2032  0.2281
 3214SOL     OW21103   2.518   3.833  15.182 -0.2736  0.6020 -0.0839
 3214SOL    HW121104   2.424   3.822  15.199 -0.5546  0.4445 -1.6838
 3214SOL    HW221105   2.506   3.810  15.090 -1.2559 -1.6374  0.6151
 3215SOL     OW21106   4.344   4.389   9.980 -0.4383  0.1350  0.2722
 3215SOL    HW121107   4.433   4.422   9.976 -0.8526  1.2547  0.3806
 3215SOL    HW221108   4.317   4.414  10.068 -0.2602 -1.9623  0.9395
 3216SOL     OW21109   1.266   0.061   5.791 -0.1529  0.7623 -0.1712
 3216SOL    HW121110   1.327   0.081   5.862  1.1815  0.0193 -1.1237
 3216SOL    HW221111   1.295   0.113   5.716  0.6355 -2.0329 -1.7921
 3217SOL     OW21112   0.856   1.880  17.420 -0.2891  1.0164  0.2361
 3217SOL    HW121113   0.784   1.857  17.361  0.3578  0.1987 -0.2346
 3217SOL    HW221114   0.926   1.818  17.398 -0.8248  0.2904  0.5728
 3218SOL     OW21115   2.945   1.875   7.448  0.0401 -0.3581 -0.6689
 3218SOL    HW121116   2.919   1.937   7.515  1.1159  0.4041 -0.9483
 3218SOL    HW221117   2.878   1.808   7.460 -0.3349 -0.1948 -1.8683
 3219SOL     OW21118   3.148   0.761   8.815 -0.2280  0.2920  0.1435
 3219SOL    HW121119   3.123   0.734   8.904 -0.6880 -0.1875 -0.1355
 3219SOL    HW221120   3.179   0.851   8.827  0.9351  0.0991 -1.4033
 3220SOL     OW21121   1.408   3.976   8.224 -0.6593  0.0389 -0.3640
 3220SOL    HW121122   1.498   4.004   8.205 -1.0889  2.6251  1.4288
 3220SOL    HW221123   1.367   4.061   8.204 -2.5060 -0.3930  1.5826
 3221SOL     OW21124   3.447   4.129   3.701  0.1177  0.0214  0.1347
 3221SOL    HW121125   3.477   4.106   3.613 -1.1184  0.1866 -0.3302
 3221SOL    HW221126   3.475   4.220   3.709 -1.4807  0.5918 -0.7523
 3222SOL     OW21127   3.346   0.300   4.710 -0.2902 -0.5269 -0.0919
 3222SOL    HW121128   3.290   0.375   4.691 -0.7773 -1.1153 -1.0178
 3222SOL    HW221129   3.275   0.236   4.717 -2.0608  1.5124  0.6613
 3223SOL     OW21130   0.609   4.022   4.354 -0.1203 -0.1654 -1.0846
 3223SOL    HW121131   0.692   3.978   4.343  1.2284  2.5116 -1.7076
 3223SOL    HW221132   0.586   4.019   4.261 -0.2803 -1.1251 -1.0087
 3224SOL     OW21133   0.038   1.185   8.469  0.2338 -0.0272  0.1213
 3224SOL    HW121134   0.096   1.158   8.398  0.2027 -1.2435  0.5528
 3224SOL    HW221135   4.707   1.237   8.413  0.0964  1.6857  1.8594
 3225SOL     OW21136   4.539   0.474   9.974  0.0622 -0.1959 -0.1178
 3225SOL    HW121137   4.603   0.538  10.008 -0.9690  0.7697 -0.0076
 3225SOL    HW221138   4.602   0.441   9.910 -0.5416  2.4197 -2.0500
 3226SOL     OW21139   2.023   2.036   4.040 -0.1280  0.7110 -0.4828
 3226SOL    HW121140   2.085   1.984   4.091 -0.9389 -1.4041 -1.6534
 3226SOL    HW221141   2.062   2.015   3.955  1.7254 -2.1246  1.0997
 3227SOL     OW21142   3.870   4.638   1.000 -0.0217  0.0485 -0.3195
 3227SOL    HW121143   3.912   4.622   1.084 -0.4276 -0.0653 -0.1381
 3227SOL    HW221144   3.871   0.008   0.998 -1.2579  0.0224 -2.4932
 3228SOL     OW21145   0.752   3.831   5.781 -0.3943  0.4369 -0.0220
 3228SOL    HW121146   0.830   3.882   5.804 -0.9454  1.6161 -0.7568
 3228SOL    HW221147   0.706   3.895   5.726 -0.9429  0.6363  0.6808
 3229SOL     OW21148   2.807   0.670  10.826 -0.0475  0.7669  0.0550
 3229SOL    HW121149   2.836   0.597  10.772  1.2213  0.6164  0.9428
 3229SOL    HW221150   2.875   0.735  10.806  0.2751  0.2034 -0.6749
 3230SOL     OW21151   4.311   0.058   4.260  0.6069 -1.3605  0.2041
 3230SOL    HW121152   4.357   0.137   4.287 -1.9603 -0.0959  0.9500
 3230SOL    HW221153   4.312   0.061   4.165 -1.2006  1.2024  0.2554
 3231SOL     OW21154   3.547   0.369   4.255 -0.2877 -0.3588  0.0105
 3231SOL    HW121155   3.515   0.289   4.297 -2.5514  1.1665  1.1612
 3231SOL    HW221156   3.603   0.406   4.322  1.1617 -0.9937 -0.8495
 3232SOL     OW21157   3.195   2.163   3.209  0.4357 -0.4183 -0.4542
 3232SOL    HW121158   3.203   2.204   3.295 -0.3967 -1.2086  0.0053
 3232SOL    HW221159   3.146   2.084   3.236 -0.3423  0.3546  0.4080
 3233SOL     OW21160   2.506   1.984  12.179 -0.8988 -0.3615  0.3847
 3233SOL    HW121161   2.448   1.909  12.192  0.4096 -1.5208 -0.4341
 3233SOL    HW221162   2.496   1.983  12.084  1.3127 -0.3993  0.1660
 3234SOL     OW21163   3.878   2.073   3.937  0.1074  0.1283  1.0128
 3234SOL    HW121164   3.955   2.128   3.950 -0.2091  0.7962  0.1090
 3234SOL    HW221165   3.866   2.095   3.844  0.5011  3.2542  1.7032
 3235SOL     OW21166   3.259   0.552   6.639 -0.0076 -0.1683 -0.0290
 3235SOL    HW121167   3.285   0.636   6.602  1.1479  0.0375  1.2409
 3235SOL    HW221168   3.303   0.485   6.585  2.5977  1.5472 -0.0488
 3236SOL     OW21169   1.086   4.413   1.493 -0.0803 -0.3474 -0.3637
 3236SOL    HW121170   1.032   4.491   1.505 -0.2108 -0.2983 -1.2447
 3236SOL    HW221171   1.128   4.390   1.576  0.6463  0.9946 -0.3671
 3237SOL     OW21172   2.782   1.301   3.180  0.3353 -0.8424  0.0878
 3237SOL    HW121173   2.863   1.253   3.198 -0.3784 -2.1550 -0.2099
 3237SOL    HW221174   2.796   1.335   3.092 -0.2497  0.3078  0.4286
 3238SOL     OW21175   1.564   1.060   6.114 -1.0781 -0.5753  0.6573
 3238SOL    HW121176   1.583   1.122   6.044 -0.2540  0.1138  1.4742
 3238SOL    HW221177   1.609   0.976   6.101  0.0685  0.1873 -0.2774
 3239SOL     OW21178   1.523   1.689   4.414  0.3313 -0.2629 -0.3088
 3239SOL    HW121179   1.467   1.613   4.429  1.1831 -0.6946  0.6837
 3239SOL    HW221180   1.599   1.653   4.370 -0.6716 -3.1267  0.2682
 3240SOL     OW21181   0.226   1.788  12.718 -0.4321  0.0101 -0.0109
 3240SOL    HW121182   0.221   1.851  12.646 -1.4815  0.3143  0.3333
 3240SOL    HW221183   0.173   1.719  12.678 -1.6487  0.2344  1.1938
 3241SOL     OW21184   1.511   4.136  11.589  0.0083 -0.0168  0.1385
 3241SOL    HW121185   1.534   4.118  11.680 -1.9729  0.4666  0.7183
 3241SOL    HW221186   1.442   4.071  11.576  2.4717 -2.3897 -1.0636
 3242SOL     OW21187   0.322   4.175  11.692  0.0012  0.4306 -0.5731
 3242SOL    HW121188   0.238   4.165  11.647  0.7723  1.7184 -2.2513
 3242SOL    HW221189   0.368   4.236  11.636  0.1558 -0.7894 -1.7640
 3243SOL     OW21190   3.550   3.698   2.020 -0.4505 -0.0143 -0.8317
 3243SOL    HW121191   3.507   3.767   1.969 -2.4683  1.0668  2.3468
 3243SOL    HW221192   3.521   3.707   2.111  0.7182  2.1358 -0.6750
 3244SOL     OW21193   3.055   3.143   4.843 -0.1465  0.1066  0.5680
 3244SOL    HW121194   3.073   3.158   4.936 -0.8686 -2.7184  1.1684
 3244SOL    HW221195   3.067   3.048   4.840 -1.7491 -0.0208 -1.7511
 3245SOL     OW21196   3.012   3.881   8.225 -0.3301  0.2897  0.0003
 3245SOL    HW121197   2.926   3.893   8.266 -0.1517  0.6638  0.2666
 3245SOL    HW221198   3.060   3.960   8.248 -0.1217  1.4608 -4.5577
 3246SOL     OW21199   0.212   2.302   3.924  0.6876 -0.0430 -0.2059
 3246SOL    HW121200   0.175   2.217   3.902 -1.4638  0.3048  2.0855
 3246SOL    HW221201   0.155   2.375   3.899  2.7486  2.0839  1.2199
 3247SOL     OW21202   1.587   3.292   6.246 -0.3214  0.7708  0.0721
 3247SOL    HW121203   1.584   3.236   6.324  0.8217  1.8373  0.8905
 3247SOL    HW221204   1.496   3.295   6.217 -0.8422  2.2187  1.8505
 3248SOL     OW21205   0.824   1.050   3.795  0.7639 -0.4013 -0.2382
 3248SOL    HW121206   0.740   1.042   3.749 -0.2702  0.3588  1.4924
 3248SOL    HW221207   0.850   0.958   3.793 -3.2503 -1.5306 -0.3580
 3249SOL     OW21208   1.454   1.628   6.765  0.2692 -0.2284  0.7880
 3249SOL    HW121209   1.388   1.692   6.791  0.3628  0.2930 -0.2785
 3249SOL    HW221210   1.416   1.541   6.779  0.3170 -0.1925  1.1356
 3250SOL     OW21211   2.489   4.233   6.198 -0.5685  0.2325  0.0985
 3250SOL    HW121212   2.496   4.138   6.207  0.1715  0.1848 -1.0433
 3250SOL    HW221213   2.420   4.250   6.135 -1.3539 -0.3076  0.8248
 3251SOL     OW21214   0.956   3.400   2.810 -0.4533  0.5665  0.7242
 3251SOL    HW121215   0.926   3.330   2.753  1.7903 -0.4206  0.7281
 3251SOL    HW221216   0.972   3.465   2.741 -0.1693 -0.7032 -0.4083
 3252SOL     OW21217   2.097   1.575   8.179 -0.7100  0.0157  0.0025
 3252SOL    HW121218   2.026   1.512   8.185 -1.6838  1.0932 -0.3435
 3252SOL    HW221219   2.142   1.576   8.264 -2.2537 -2.4585  0.8277
 3253SOL     OW21220   4.399   1.240  15.472 -0.3179 -0.6798 -0.1623
 3253SOL    HW121221   4.470   1.232  15.536 -0.5962  1.4877  0.4164
 3253SOL    HW221222   4.334   1.183  15.512 -0.0027 -0.3060  0.8676
 3254SOL     OW21223   0.972   2.220   0.926 -0.1280 -1.2569 -0.0008
 3254SOL    HW121224   0.971   2.201   1.020  1.9631 -0.0426  0.2770
 3254SOL    HW221225   1.062   2.203   0.896 -0.5208 -0.8326 -1.4010
 3255SOL     OW21226   1.929   2.992   6.354  0.6451 -0.3131 -0.9332
 3255SOL    HW121227   1.995   3.061   6.364  0.1957 -0.1433  0.9007
 3255SOL    HW221228   1.994   2.921   6.348  0.0106 -1.0390  0.6717
 3256SOL     OW21229   3.629   1.034   8.950 -0.5130 -0.5682 -0.4218
 3256SOL    HW121230   3.577   1.100   8.904  1.5052 -0.9656 -3.3031
 3256SOL    HW221231   3.665   1.087   9.021  1.3379 -0.5356 -1.3644
 3257SOL     OW21232   2.017   1.770  15.614 -0.1678 -0.6421  0.1952
 3257SOL    HW121233   1.994   1.723  15.693  0.1642 -1.6442 -0.2983
 3257SOL    HW221234   2.109   1.791  15.631 -0.2678  0.1826 -0.2576
 3258SOL     OW21235   1.563   0.661   8.785 -0.2132 -0.4543  0.2902
 3258SOL    HW121236   1.576   0.703   8.700 -2.7934 -1.3397 -0.5250
 3258SOL    HW221237   1.599   0.573   8.769  0.7706 -0.5925  3.2063
 3259SOL     OW21238   0.410   3.344   6.026 -0.2259  0.2789 -0.2472
 3259SOL    HW121239   0.339   3.295   6.068  0.5264 -0.0811  0.6130
 3259SOL    HW221240   0.363   3.400   5.965 -1.2149 -0.4215 -0.1385
 3260SOL     OW21241   0.705   1.786  13.323  0.3793 -0.3878 -0.6840
 3260SOL    HW121242   0.781   1.747  13.280  1.0276 -0.8160  0.8520
 3260SOL    HW221243   0.682   1.864  13.273 -1.2378 -1.1784 -1.1494
 3261SOL     OW21244   1.286   4.306   6.648  0.4323 -0.0436  0.1526
 3261SOL    HW121245   1.213   4.350   6.692  1.0528  4.0830 -2.9925
 3261SOL    HW221246   1.364   4.343   6.689  0.5805  1.5879 -1.6550
 3262SOL     OW21247   2.234   4.513   4.134  0.0681  0.6069 -0.1426
 3262SOL    HW121248   2.204   4.600   4.108  1.1613  0.3087 -2.4387
 3262SOL    HW221249   2.279   4.486   4.054  0.7488  0.9874  0.1080
 3263SOL     OW21250   0.784   1.697   5.835 -0.5954 -0.2480  0.3253
 3263SOL    HW121251   0.726   1.710   5.910  0.4635 -0.5984  1.2080
 3263SOL    HW221252   0.773   1.602   5.829  0.7167 -0.4738  1.6322
 3264SOL     OW21253   0.792   1.390   8.892  0.4590 -0.1594 -0.2734
 3264SOL    HW121254   0.750   1.448   8.956  0.2578  0.4063 -0.9265
 3264SOL    HW221255   0.880   1.387   8.930 -0.1767 -0.0564  1.2177
 3265SOL     OW21256   0.105   1.399   7.390 -0.2630  0.0580  0.6010
 3265SOL    HW121257   0.129   1.458   7.318 -1.1781  0.9205  1.0055
 3265SOL    HW221258   0.011   1.402   7.376 -0.3437 -2.3448  0.7276
 3266SOL     OW21259   1.813   0.989   5.093  0.4256  0.1578 -0.0018
 3266SOL    HW121260   1.814   1.020   5.002 -1.6361 -1.6440 -0.6238
 3266SOL    HW221261   1.849   0.901   5.082 -1.8780 -0.9905  1.5745
 3267SOL     OW21262   1.483   2.774   6.685 -0.0877 -0.0319  0.1095
 3267SOL    HW121263   1.566   2.732   6.660 -0.5030 -1.3579  0.9712
 3267SOL    HW221264   1.432   2.702   6.722 -0.5858  0.5464  0.5359
 3268SOL     OW21265   4.043   2.535  13.082  0.4942  0.5257  0.7278
 3268SOL    HW121266   4.038   2.442  13.059 -2.0707  0.8140  0.1813
 3268SOL    HW221267   3.973   2.544  13.146 -0.0195  1.0968  0.0854
 3269SOL     OW21268   2.610   0.929   2.054 -0.1293 -0.1023  0.0370
 3269SOL    HW121269   2.599   0.878   2.134 -0.5901 -2.4803 -1.5568
 3269SOL    HW221270   2.567   0.881   1.984 -1.6673 -1.2903  1.8158
 3270SOL     OW21271   3.123   0.049   1.058 -0.0618 -0.0737  0.3168
 3270SOL    HW121272   3.169   0.124   1.096 -1.0166 -0.7374  2.7858
 3270SOL    HW221273   3.201   4.724   1.036 -1.1094 -2.1290  1.3019
 3271SOL     OW21274   4.570   2.059  16.081 -0.2867  0.2698 -0.3058
 3271SOL    HW121275   4.500   1.996  16.102  0.9447 -0.8154  0.5301
 3271SOL    HW221276   4.574   2.060  15.986  1.1539 -1.2260 -0.2519
 3272SOL     OW21277   1.845   4.627   1.729  0.1552  0.0222  0.0418
 3272SOL    HW121278   1.896   4.708   1.727 -0.3088  0.2499 -2.2230
 3272SOL    HW221279   1.845   4.597   1.638  1.4036 -0.4490  0.1929
 3273SOL     OW21280   0.871   0.842  13.424  0.0415  0.3118 -0.2144
 3273SOL    HW121281   0.893   0.757  13.386 -0.6111 -0.1369  0.4116
 3273SOL    HW221282   0.844   0.900  13.353 -2.4305 -2.6951 -1.7142
 3274SOL     OW21283   4.299   0.877   6.024 -0.2002 -0.4935  0.0864
 3274SOL    HW121284   4.373   0.886   6.084 -0.3076  2.1265 -0.1954
 3274SOL    HW221285   4.286   0.971   6.020  2.0260 -0.1280  1.1182
 3275SOL     OW21286   1.406   3.507  11.337  0.3581  0.1507  0.1049
 3275SOL    HW121287   1.382   3.543  11.423 -2.0798 -1.5527  0.1334
 3275SOL    HW221288   1.428   3.592  11.299 -1.3899 -0.7942 -2.9804
 3276SOL     OW21289   1.418   0.011   3.549  0.2914 -0.6436  0.2163
 3276SOL    HW121290   1.334   4.697   3.525  0.7756 -3.3273  2.8754
 3276SOL    HW221291   1.426   0.067   3.473 -3.0920 -0.5882 -0.1158
 3277SOL     OW21292   0.254   4.307   8.825 -0.3567  0.3028 -0.1532
 3277SOL    HW121293   0.195   4.352   8.885 -0.1791  0.6518 -0.2432
 3277SOL    HW221294   0.237   4.362   8.748 -2.6478 -1.6042 -1.0170
 3278SOL     OW21295   4.236   0.391   7.844 -0.7179 -0.2379 -0.3661
 3278SOL    HW121296   4.328   0.372   7.829 -0.7607 -0.6524 -0.0969
 3278SOL    HW221297   4.241   0.445   7.923 -3.3617 -1.6503  0.7583
 3279SOL     OW21298   3.038   1.610   9.576 -0.4145 -0.3341 -0.6541
 3279SOL    HW121299   3.044   1.681   9.640 -0.0331  0.0003 -1.0573
 3279SOL    HW221300   2.962   1.642   9.528 -0.4484 -0.8677 -0.9531
 3280SOL     OW21301   3.618   4.557   8.195  0.3591  0.4774 -0.1001
 3280SOL    HW121302   3.554   4.553   8.124 -0.6977  2.8261  0.7098
 3280SOL    HW221303   3.573   4.522   8.271 -2.0388 -0.2425 -1.8375
 3281SOL     OW21304   3.855   1.549   6.716  0.6612 -0.7436  0.0413
 3281SOL    HW121305   3.785   1.531   6.652 -0.6701 -2.5293  2.0115
 3281SOL    HW221306   3.837   1.641   6.734 -0.1674 -1.1181  1.1473
 3282SOL     OW21307   2.496   3.629  17.385 -0.4683  0.0548 -0.3687
 3282SOL    HW121308   2.411   3.594  17.358 -0.6016  1.8619 -2.2809
 3282SOL    HW221309   2.557   3.565  17.349  1.3340  1.5913 -0.0145
 3283SOL     OW21310   2.456   3.417  12.579  0.0446  0.0482  0.2673
 3283SOL    HW121311   2.423   3.405  12.668  0.1060  0.3143  0.3290
 3283SOL    HW221312   2.473   3.510  12.596 -0.6654 -0.3200  3.0153
 3284SOL     OW21313   1.078   1.214   1.515  0.4408 -0.2382  0.0440
 3284SOL    HW121314   1.148   1.159   1.549 -1.3324 -2.1769  0.5430
 3284SOL    HW221315   1.066   1.181   1.426 -0.4780 -0.0897  0.1135
 3285SOL     OW21316   0.859   2.766   7.874  0.2895 -0.0269  0.1601
 3285SOL    HW121317   0.919   2.729   7.939  2.1279  3.1156  0.2670
 3285SOL    HW221318   0.914   2.836   7.840 -0.5127 -0.3445 -1.7821
 3286SOL     OW21319   2.780   0.641   9.016 -0.0901  0.3530  0.5001
 3286SOL    HW121320   2.693   0.667   8.987 -0.0254  2.2280  1.9569
 3286SOL    HW221321   2.817   0.730   9.021 -1.0073  0.6692  1.5377
 3287SOL     OW21322   0.312   1.061   6.549 -0.6165 -0.1493  0.1882
 3287SOL    HW121323   0.226   1.058   6.591 -1.3830  1.2785 -1.2887
 3287SOL    HW221324   0.358   1.007   6.614 -2.8207 -1.7548  0.3961
 3288SOL     OW21325   0.309   0.200  13.926  0.2265  0.0214  0.0456
 3288SOL    HW121326   0.330   0.117  13.883  0.5965  0.8994 -1.4972
 3288SOL    HW221327   0.391   0.248  13.908  0.0028  0.2872 -0.2716
 3289SOL     OW21328   1.243   1.238   9.650  0.2056  0.5352 -0.0963
 3289SOL    HW121329   1.303   1.306   9.619 -1.2851 -0.1680 -4.6693
 3289SOL    HW221330   1.304   1.181   9.695 -0.3233 -0.3327 -0.4772
 3290SOL     OW21331   1.662   4.196   6.077 -0.7208  0.5751  0.6241
 3290SOL    HW121332   1.593   4.243   6.029  0.5414  0.5366 -1.2591
 3290SOL    HW221333   1.725   4.201   6.005 -1.3036  0.8382  0.1258
 3291SOL     OW21334   4.666   2.699   3.398 -0.0076  0.6334 -0.0263
 3291SOL    HW121335   0.024   2.706   3.350  0.4994 -0.1208  0.7544
 3291SOL    HW221336   4.645   2.790   3.420  3.7014  1.4774  0.0208
 3292SOL     OW21337   4.404   1.547  14.311 -0.4070 -0.1749  0.3714
 3292SOL    HW121338   4.493   1.544  14.348 -0.5319 -2.8536  0.4690
 3292SOL    HW221339   4.365   1.622  14.356  0.6718  0.8538 -0.4256
 3293SOL     OW21340   3.334   0.471   7.781  0.3225 -0.6516 -0.5413
 3293SOL    HW121341   3.373   0.540   7.727  0.6811 -0.4518 -0.0330
 3293SOL    HW221342   3.242   0.493   7.768  0.1281 -0.1009  1.7596
 3294SOL     OW21343   2.471   1.631   6.543 -0.0215  0.2151  0.3693
 3294SOL    HW121344   2.489   1.538   6.556  3.1814  0.8862  0.6167
 3294SOL    HW221345   2.557   1.672   6.552  0.2404 -0.2284 -0.1151
 3295SOL     OW21346   2.513   0.595   5.157 -0.0098 -0.0695  0.3331
 3295SOL    HW121347   2.551   0.663   5.101 -1.1500  2.4667  2.6070
 3295SOL    HW221348   2.463   0.547   5.092  0.8228 -0.4384 -0.0341
 3296SOL     OW21349   4.424   3.551  16.779  0.5419 -0.8233 -0.8443
 3296SOL    HW121350   4.420   3.480  16.715  1.3305 -1.5053 -0.1387
 3296SOL    HW221351   4.502   3.600  16.755 -0.0591  0.2609 -0.6012
 3297SOL     OW21352   1.652   2.516  14.531  0.4885 -0.5680 -0.6320
 3297SOL    HW121353   1.581   2.452  14.537 -0.9610  1.0824 -0.2275
 3297SOL    HW221354   1.689   2.495  14.445  1.9857 -1.1916  0.1576
 3298SOL     OW21355   3.184   1.718   2.532  0.1694  0.2702 -0.0121
 3298SOL    HW121356   3.149   1.806   2.519 -0.3347 -0.2879 -2.5193
 3298SOL    HW221357   3.259   1.739   2.587  1.2377 -0.9739 -0.9662
 3299SOL     OW21358   2.188   1.336   3.426 -0.2094 -0.3911  0.3487
 3299SOL    HW121359   2.226   1.370   3.507 -2.2325  0.1457  1.0782
 3299SOL    HW221360   2.234   1.393   3.365 -0.8228  0.6035  0.8098
 3300SOL     OW21361   1.468   3.870   1.069  0.0818 -0.9149 -0.0277
 3300SOL    HW121362   1.515   3.849   1.150  1.3497 -0.5870 -0.6864
 3300SOL    HW221363   1.535   3.915   1.018 -1.1064  0.1915 -0.5903
 3301SOL     OW21364   0.935   3.302   3.254 -0.4767  0.4656 -0.0793
 3301SOL    HW121365   0.969   3.389   3.276 -1.0240 -0.1682  3.2803
 3301SOL    HW221366   0.998   3.260   3.313  0.7111  2.0708 -0.2170
 3302SOL     OW21367   2.414   3.006   4.620 -0.1519 -0.4542  0.3026
 3302SOL    HW121368   2.447   2.972   4.703 -1.0451 -0.8082  0.5228
 3302SOL    HW221369   2.380   3.093   4.642  1.2294 -0.1581  1.2322
 3303SOL     OW21370   3.702   4.459   0.881  0.0824 -0.0363 -0.5669
 3303SOL    HW121371   3.680   4.466   0.788 -1.2717  0.6606 -0.1843
 3303SOL    HW221372   3.738   4.547   0.893 -0.0905 -0.3521  2.2200
 3304SOL     OW21373   0.693   3.509   8.023  0.4637 -0.8297 -0.3619
 3304SOL    HW121374   0.639   3.448   8.074  0.5689  1.3858  2.3836
 3304SOL    HW221375   0.662   3.493   7.934 -1.3764  0.8055 -0.0199
 3305SOL     OW21376   0.467   1.001  17.479 -0.5556  0.1589 -0.1377
 3305SOL    HW121377   0.510   0.963  17.555 -0.4326 -2.2246 -1.4105
 3305SOL    HW221378   0.543   1.049  17.445  0.0055  0.0878  1.0413
 3306SOL     OW21379   0.430   3.094   7.840 -0.2600 -0.8131  0.0096
 3306SOL    HW121380   0.482   3.021   7.807 -2.0238 -1.8514 -0.4837
 3306SOL    HW221381   0.342   3.061   7.822 -0.6892  1.6792 -2.4552
 3307SOL     OW21382   2.166   4.621   4.651  0.8584 -0.3597  0.6217
 3307SOL    HW121383   2.251   4.665   4.648  0.2189  0.9376  1.4756
 3307SOL    HW221384   2.128   4.664   4.575  1.3716  2.8605  2.2198
 3308SOL     OW21385   0.964   2.355   0.660 -0.0865  0.6484 -0.4204
 3308SOL    HW121386   0.951   2.410   0.736  1.2516  0.9596 -0.4250
 3308SOL    HW221387   1.056   2.352   0.685 -0.3791 -2.3333  0.2787
 3309SOL     OW21388   4.667   2.416   6.449  0.3677  0.6501 -0.0490
 3309SOL    HW121389   4.644   2.427   6.357  2.2193  0.1329 -0.5742
 3309SOL    HW221390   4.578   2.399   6.480  1.0349 -0.3569  1.3169
 3310SOL     OW21391   4.222   3.067   3.274 -0.1862  0.7299 -0.0221
 3310SOL    HW121392   4.142   3.046   3.322 -0.9431 -1.0648 -2.0813
 3310SOL    HW221393   4.288   3.048   3.341 -1.4075 -2.4116  0.2800
 3311SOL     OW21394   0.542   0.216   6.496 -0.0514  0.1524 -0.2670
 3311SOL    HW121395   0.540   0.206   6.401 -0.4758 -1.8202 -0.0638
 3311SOL    HW221396   0.451   0.230   6.523 -0.0783 -1.4249  0.4854
 3312SOL     OW21397   0.252   4.457   6.485 -0.1711 -0.1845  0.2376
 3312SOL    HW121398   0.278   4.530   6.541 -0.5381  0.8664 -0.9729
 3312SOL    HW221399   0.311   4.388   6.517  0.7038  0.7848  0.7088
 3313SOL     OW21400   0.746   3.757  16.533  0.1049  0.2240 -0.4614
 3313SOL    HW121401   0.797   3.695  16.585  0.8970  3.0849  2.2137
 3313SOL    HW221402   0.809   3.817  16.492  1.2443  0.2604  1.3077
 3314SOL     OW21403   0.266   0.886   3.335  0.4242  0.3922  0.2529
 3314SOL    HW121404   0.262   0.833   3.415 -0.3471  2.1607  1.3671
 3314SOL    HW221405   0.173   0.879   3.313 -0.1403  1.0292  2.4601
 3315SOL     OW21406   2.723   3.543  15.875  0.1151 -0.2975 -0.1365
 3315SOL    HW121407   2.728   3.638  15.879 -1.5943 -0.1479 -1.3233
 3315SOL    HW221408   2.641   3.523  15.921 -0.8008  0.2099 -1.5662
 3316SOL     OW21409   1.418   2.937  16.264 -0.1250  0.0298  0.3362
 3316SOL    HW121410   1.353   2.879  16.225 -0.1789  1.4166 -1.6069
 3316SOL    HW221411   1.414   3.021  16.218 -0.9545 -1.0219 -1.4723
 3317SOL     OW21412   2.443   2.957  15.612 -0.1520  0.6377  0.5430
 3317SOL    HW121413   2.355   2.988  15.593 -0.0036  0.3468 -0.6031
 3317SOL    HW221414   2.504   3.030  15.600  3.4836 -2.1694  1.7284
 3318SOL     OW21415   4.426   1.379  16.327  0.5478 -0.1740  0.4127
 3318SOL    HW121416   4.414   1.339  16.241  0.4799  0.4671  0.1183
 3318SOL    HW221417   4.520   1.363  16.335  0.7508  0.3921 -0.7962
 3319SOL     OW21418   1.431   2.713   1.580 -0.3229 -0.2166  0.0276
 3319SOL    HW121419   1.463   2.687   1.493 -0.0668 -2.2494  0.7389
 3319SOL    HW221420   1.353   2.660   1.587 -0.2932 -0.4751 -1.6103
 3320SOL     OW21421   0.631   3.664   9.754 -0.1274  0.2798  0.1319
 3320SOL    HW121422   0.621   3.673   9.849 -1.5045  0.1420 -0.0046
 3320SOL    HW221423   0.593   3.747   9.724 -0.8296 -0.3794 -0.7957
 3321SOL     OW21424   1.132   3.214   3.437 -0.0191  0.0465 -0.1714
 3321SOL    HW121425   1.189   3.272   3.386 -3.0660  1.3262 -2.0711
 3321SOL    HW221426   1.191   3.216   3.513  0.1450  1.5301 -0.3340
 3322SOL     OW21427   4.654   0.503   8.888  0.2139 -0.4059 -0.6154
 3322SOL    HW121428   4.565   0.494   8.856 -0.6288  2.2179  1.0079
 3322SOL    HW221429   4.706   0.561   8.833 -0.1935  0.8911  0.3850
 3323SOL     OW21430   4.423   1.514   6.892  0.3691 -0.5359  0.3641
 3323SOL    HW121431   4.412   1.450   6.823  0.1474 -0.4203  0.2898
 3323SOL    HW221432   4.329   1.530   6.906  0.5914 -0.6869  2.0910
 3324SOL     OW21433   2.275   2.839   6.556 -0.0117 -0.3245  0.3220
 3324SOL    HW121434   2.351   2.782   6.560 -0.4308 -0.9542 -0.5611
 3324SOL    HW221435   2.303   2.919   6.600 -3.6248  1.0998  0.0144
 3325SOL     OW21436   3.993   0.399   5.890  0.0694 -0.1761 -0.6817
 3325SOL    HW121437   3.994   0.318   5.941 -1.9161  0.7957  0.8748
 3325SOL    HW221438   4.073   0.442   5.920 -0.3740 -1.6347  2.5879
 3326SOL     OW21439   0.330   1.065  10.762 -0.0627  0.5541 -0.1309
 3326SOL    HW121440   0.369   0.996  10.708 -0.7630  0.3523 -0.3763
 3326SOL    HW221441   0.382   1.142  10.738  0.4358  0.7263  1.4634
 3327SOL     OW21442   1.216   2.713   3.720 -0.1551  0.8773 -0.0212
 3327SOL    HW121443   1.129   2.681   3.739  0.0677 -1.2476 -2.4876
 3327SOL    HW221444   1.263   2.632   3.698 -2.1201 -0.0282 -0.8806
 3328SOL     OW21445   2.443   1.021   2.571 -0.4571  0.1062  0.3350
 3328SOL    HW121446   2.494   0.961   2.625 -0.6048 -0.4315 -0.1216
 3328SOL    HW221447   2.361   0.972   2.567 -0.7445  0.7623 -1.8309
 3329SOL     OW21448   3.708   4.062   2.096  0.4210  0.6750 -0.3578
 3329SOL    HW121449   3.789   4.027   2.058  0.3289  1.2669 -1.0866
 3329SOL    HW221450   3.738   4.144   2.134  3.2638  0.3948 -1.9993
 3330SOL     OW21451   0.650   0.342  12.911 -0.2830  0.0460 -0.4860
 3330SOL    HW121452   0.572   0.397  12.923  0.9426  1.3910  1.3007
 3330SOL    HW221453   0.649   0.327  12.816  2.0312 -1.5603 -0.2319
 3331SOL     OW21454   3.867   3.128  14.984 -0.1982 -0.0018  0.0975
 3331SOL    HW121455   3.904   3.090  14.904 -2.0454  1.1359 -1.2925
 3331SOL    HW221456   3.773   3.111  14.980 -0.0850 -0.2061 -2.0090
 3332SOL     OW21457   3.513   3.871   5.726 -0.1955 -0.9072 -0.2576
 3332SOL    HW121458   3.518   3.885   5.632 -2.0710  0.0941 -0.1961
 3332SOL    HW221459   3.421   3.852   5.743 -0.4713 -0.8055 -1.6547
 3333SOL     OW21460   0.690   4.548   4.080 -0.1677  0.5732 -0.1221
 3333SOL    HW121461   0.633   4.621   4.104 -0.5139  0.2171  0.1527
 3333SOL    HW221462   0.681   4.490   4.156  0.0483  0.8704  0.1309
 3334SOL     OW21463   2.858   4.606  11.951  0.3316  0.1551  0.1752
 3334SOL    HW121464   2.881   4.558  12.031  0.9376 -1.3468 -0.9088
 3334SOL    HW221465   2.923   4.572  11.891  0.9918  0.0957  0.9214
 3335SOL     OW21466   0.618   1.479  12.039 -0.0259 -0.0845  0.2935
 3335SOL    HW121467   0.525   1.460  12.028  0.1951 -0.4370 -0.9773
 3335SOL    HW221468   0.637   1.514  11.951 -0.7379  0.3535  0.3139
 3336SOL     OW21469   2.013   2.057   5.425  0.1173 -0.2797  0.0901
 3336SOL    HW121470   2.061   2.046   5.343 -1.3705 -0.3544 -0.7722
 3336SOL    HW221471   2.018   2.148   5.456  0.3181  0.8341 -3.2583
 3337SOL     OW21472   3.138   3.101  16.969 -0.3813 -0.1950  0.1065
 3337SOL    HW121473   3.055   3.135  17.004  0.4592  0.6938  1.2376
 3337SOL    HW221474   3.177   3.172  16.919 -2.6059  1.6450  0.9594
 3338SOL     OW21475   0.202   4.392  16.690  0.2060 -0.2917 -0.1301
 3338SOL    HW121476   0.214   4.453  16.617 -0.4475  0.3847  0.3264
 3338SOL    HW221477   0.183   4.313  16.641  0.2660 -0.1049 -0.4518
 3339SOL     OW21478   4.070   3.578   0.981  0.1473 -0.0423  0.3424
 3339SOL    HW121479   4.078   3.485   1.003 -1.9409 -0.1944  0.4672
 3339SOL    HW221480   4.159   3.607   1.000  0.2180  0.2405 -0.4332
 3340SOL     OW21481   4.007   0.869   6.850  0.1334  0.0499  0.4943
 3340SOL    HW121482   3.913   0.853   6.841 -0.1998  0.7849  2.6214
 3340SOL    HW221483   4.039   0.805   6.787  1.9712  1.4578 -0.0064
 3341SOL     OW21484   4.511   1.781  13.491  0.3104  0.1876 -0.0794
 3341SOL    HW121485   4.566   1.798  13.415  1.2412  2.4946  1.1292
 3341SOL    HW221486   4.488   1.688  13.483 -2.3835  0.8716 -0.5104
 3342SOL     OW21487   0.616   4.275  17.308  0.3551  0.0928  0.0171
 3342SOL    HW121488   0.598   4.272  17.402  1.9631 -1.8082  0.2804
 3342SOL    HW221489   0.602   4.184  17.282  0.7046  0.2505 -0.7018
 3343SOL     OW21490   4.650   3.967   7.041  0.4772 -0.3224  0.0175
 3343SOL    HW121491   4.643   4.054   7.003 -0.1276  0.2501  1.4319
 3343SOL    HW221492   4.705   3.924   6.976  0.9893 -3.4850  2.4981
 3344SOL     OW21493   1.388   1.333   7.556 -0.1917 -0.6460  0.7803
 3344SOL    HW121494   1.468   1.290   7.525  0.7279  1.1174  0.7062
 3344SOL    HW221495   1.422   1.353   7.643  1.2241 -0.1191  0.1045
 3345SOL     OW21496   1.204   1.768   2.825  0.3639  0.3060 -0.3116
 3345SOL    HW121497   1.167   1.723   2.750  3.5889 -2.5663 -0.1688
 3345SOL    HW221498   1.166   1.719   2.899 -1.2472  1.2566 -0.5068
 3346SOL     OW21499   2.760   2.973   4.285 -0.2574  0.1253 -0.3507
 3346SOL    HW121500   2.833   2.978   4.347  1.5507 -0.7162 -2.4139
 3346SOL    HW221501   2.713   2.894   4.308  1.1691 -0.9594 -1.1391
 3347SOL     OW21502   4.043   4.601   2.606 -0.2494 -0.2335  0.0603
 3347SOL    HW121503   3.953   4.622   2.630 -0.1397  0.5722 -0.2489
 3347SOL    HW221504   4.086   4.633   2.685 -2.2803  0.9277  0.6791
 3348SOL     OW21505   4.512   3.784   2.738  0.2373  0.7650  0.2200
 3348SOL    HW121506   4.465   3.833   2.672 -1.4415 -0.4731  0.5051
 3348SOL    HW221507   4.556   3.852   2.790  1.9908 -1.4105  1.6116
 3349SOL     OW21508   1.097   3.666   7.271  0.2004  0.1753 -0.0227
 3349SOL    HW121509   1.062   3.699   7.353 -0.2709 -0.8595  0.2023
 3349SOL    HW221510   1.057   3.716   7.199 -0.7093  0.0503  0.3928
 3350SOL     OW21511   4.090   1.942   6.211 -0.7367 -0.0742 -0.1822
 3350SOL    HW121512   4.147   1.877   6.171  1.5438  1.3214  0.8448
 3350SOL    HW221513   4.009   1.895   6.188 -0.7597 -0.0019 -0.2499
 3351SOL     OW21514   0.438   3.544   0.748 -0.2273 -0.0173 -0.2498
 3351SOL    HW121515   0.483   3.522   0.666  0.6133 -1.0482  0.4891
 3351SOL    HW221516   0.431   3.458   0.789 -0.0328  0.2745  0.3836
 3352SOL     OW21517   1.049   3.506   7.734 -1.0114 -0.5705 -0.5682
 3352SOL    HW121518   1.128   3.551   7.707 -0.9457 -1.1439 -1.3457
 3352SOL    HW221519   0.992   3.580   7.713 -1.7865 -0.8552  0.5104
 3353SOL     OW21520   1.028   1.247   9.821 -0.0366 -0.2972 -0.2667
 3353SOL    HW121521   1.074   1.208   9.896 -0.2177  1.1271  0.5874
 3353SOL    HW221522   1.106   1.249   9.765  1.3091 -0.1322  1.6097
 3354SOL     OW21523   3.054   1.216   3.173 -0.3986 -0.1022 -0.1069
 3354SOL    HW121524   3.126   1.203   3.110 -0.6656 -0.2802 -0.3747
 3354SOL    HW221525   3.097   1.270   3.239  1.9343 -0.9706 -0.9021
 3355SOL     OW21526   2.830   3.227   8.647 -0.0057  0.0238  0.2574
 3355SOL    HW121527   2.814   3.166   8.719  3.3671 -0.9190  0.2318
 3355SOL    HW221528   2.816   3.164   8.576  3.1938 -0.6331  0.2032
 3356SOL     OW21529   3.802   3.956   3.856 -0.4323 -0.1924 -0.2800
 3356SOL    HW121530   3.785   3.968   3.950 -1.4511 -0.1626 -0.4757
 3356SOL    HW221531   3.826   4.046   3.833  0.9849 -0.2781  0.8250
 3357SOL     OW21532   3.075   0.911   4.620  0.4427 -0.2735  0.0532
 3357SOL    HW121533   3.022   0.898   4.541  0.1272  1.4918 -0.0277
 3357SOL    HW221534   3.083   1.006   4.634  2.8844 -0.5602  0.5973
 3358SOL     OW21535   3.326   3.131   8.278 -0.2762  0.6323 -0.0733
 3358SOL    HW121536   3.266   3.174   8.339 -0.1229 -0.1529  0.6286
 3358SOL    HW221537   3.409   3.131   8.325 -1.5743 -1.4163  2.2160
 3359SOL     OW21538   0.884   4.623   4.855 -0.0723 -0.0509  0.5960
 3359SOL    HW121539   0.965   4.572   4.853  0.2489  0.5765 -2.1227
 3359SOL    HW221540   0.911   4.708   4.821 -0.8312  1.1913  3.1057
 3360SOL     OW21541   2.822   0.163   3.755  0.0506 -0.0501  0.1404
 3360SOL    HW121542   2.739   0.148   3.710  0.5109  1.3748 -1.1579
 3360SOL    HW221543   2.849   0.071   3.755  1.1614  0.2852 -4.2629
 3361SOL     OW21544   0.961   3.175   1.461  0.0463 -0.1943  0.7220
 3361SOL    HW121545   0.930   3.107   1.521  0.6714 -1.3974 -0.2912
 3361SOL    HW221546   1.008   3.232   1.521 -0.7819 -0.5572  1.7151
 3362SOL     OW21547   3.781   0.655   6.221  0.1586  0.2579 -0.7612
 3362SOL    HW121548   3.697   0.701   6.218  0.0021  0.0266  0.0811
 3362SOL    HW221549   3.774   0.589   6.152  2.0441  0.5013 -1.1983
 3363SOL     OW21550   2.534   2.566   3.353 -0.1187  0.5619  0.9234
 3363SOL    HW121551   2.560   2.482   3.315  0.4978  1.2675 -0.2279
 3363SOL    HW221552   2.463   2.546   3.414  0.7441  0.6871  1.9709
 3364SOL     OW21553   3.679   3.419  14.098 -0.1954 -0.2040 -0.2247
 3364SOL    HW121554   3.658   3.475  14.173 -1.5917 -1.2153  0.1489
 3364SOL    HW221555   3.626   3.340  14.104 -1.3657  0.6723  0.9409
 3365SOL     OW21556   4.551   2.724   6.090 -0.1215  0.1744  0.2969
 3365SOL    HW121557   4.558   2.817   6.110  0.5908  0.6393 -2.1211
 3365SOL    HW221558   4.642   2.699   6.078 -0.6874 -1.7700 -0.0868
 3366SOL     OW21559   2.377   4.672   8.363 -0.2965  1.0175 -0.2400
 3366SOL    HW121560   2.369   4.582   8.394 -2.2483  0.2352 -2.9237
 3366SOL    HW221561   2.418   4.708   8.441  0.0655  0.0725  0.0053
 3367SOL     OW21562   1.669   2.828  16.641  0.2216  0.2918  0.1988
 3367SOL    HW121563   1.643   2.847  16.551  2.0902 -2.9333 -1.0138
 3367SOL    HW221564   1.762   2.819  16.621 -0.1533 -1.2318 -0.8687
 3368SOL     OW21565   0.793   1.140   8.035  0.6198 -0.0451  0.5649
 3368SOL    HW121566   0.782   1.153   8.129  1.2701  1.7671  0.3859
 3368SOL    HW221567   0.767   1.221   7.990 -1.8691 -0.8284  0.6025
 3369SOL     OW21568   2.401   1.373  16.497 -0.7194  0.5377 -0.0015
 3369SOL    HW121569   2.390   1.444  16.560  0.3143  1.7486 -1.1750
 3369SOL    HW221570   2.469   1.322  16.541 -0.2739  2.1565  1.1851
 3370SOL     OW21571   1.886   1.361   3.635 -0.1921 -0.4725 -0.1253
 3370SOL    HW121572   1.925   1.415   3.704 -0.7320 -2.1639  1.4800
 3370SOL    HW221573   1.799   1.351   3.673 -0.4238  1.1953 -0.2084
 3371SOL     OW21574   1.400   1.719   8.950 -0.3824 -0.3468  0.1439
 3371SOL    HW121575   1.357   1.800   8.978  1.3168  0.0873  1.5467
 3371SOL    HW221576   1.385   1.725   8.856 -1.4478  0.8787  0.3789
 3372SOL     OW21577   1.839   0.331   5.112 -0.0521  0.2862 -0.0604
 3372SOL    HW121578   1.926   0.294   5.127  0.5624  1.5089 -0.6507
 3372SOL    HW221579   1.829   0.336   5.017  1.2232  0.2552 -0.1897
 3373SOL     OW21580   0.115   2.283   7.055  0.1812 -0.0073  0.0536
 3373SOL    HW121581   0.163   2.362   7.028  0.6226 -0.9630 -1.9656
 3373SOL    HW221582   0.087   2.262   6.966 -0.6598  0.3743  0.2256
 3374SOL     OW21583   2.893   1.061   0.436  0.3437  0.0427 -0.5998
 3374SOL    HW121584   2.965   1.121   0.418  0.7380 -0.7077 -1.5071
 3374SOL    HW221585   2.831   1.127   0.466  0.6020  0.2498 -0.5218
 3375SOL     OW21586   2.513   0.314  15.063 -0.4694 -0.3749 -0.1504
 3375SOL    HW121587   2.603   0.292  15.041 -0.0460 -0.6020  1.8591
 3375SOL    HW221588   2.496   0.275  15.149  0.7757 -0.9230 -0.1621
 3376SOL     OW21589   3.977   0.681   1.310  0.1027  0.0736 -0.0834
 3376SOL    HW121590   4.037   0.686   1.384 -0.2593  0.2906  0.1934
 3376SOL    HW221591   3.980   0.587   1.295  1.2427  0.3446 -1.5473
 3377SOL     OW21592   0.846   1.433   4.933  0.2210  0.3571 -0.2312
 3377SOL    HW121593   0.909   1.386   4.878 -0.0629 -0.1509 -0.1230
 3377SOL    HW221594   0.767   1.419   4.881  1.5255  1.8886 -2.6121
 3378SOL     OW21595   2.466   1.846   3.316  0.2121 -0.1721  0.3219
 3378SOL    HW121596   2.513   1.830   3.398 -1.1446 -1.6092  0.8297
 3378SOL    HW221597   2.523   1.798   3.257  2.5288 -1.0947  3.3578
 3379SOL     OW21598   1.351   0.614   5.978 -0.3435  0.0419 -1.0509
 3379SOL    HW121599   1.357   0.674   5.904  1.0780  1.6462  0.3700
 3379SOL    HW221600   1.258   0.593   5.989  0.3665 -2.0404  0.8808
 3380SOL     OW21601   1.205   2.877   5.907  0.6223 -0.1810 -0.8015
 3380SOL    HW121602   1.133   2.833   5.951  2.1670 -0.9147  0.9689
 3380SOL    HW221603   1.281   2.875   5.965  0.5507  0.8150 -0.6604
 3381SOL     OW21604   0.793   4.010   2.302  0.3216  0.3920 -0.3147
 3381SOL    HW121605   0.758   4.005   2.213 -1.1742 -2.9937  0.4513
 3381SOL    HW221606   0.795   4.104   2.318  1.6178 -0.1011  2.4618
 3382SOL     OW21607   1.125   3.497  12.549  0.5574 -0.2124 -0.1726
 3382SOL    HW121608   1.095   3.583  12.577  0.8194 -0.2931  0.3390
 3382SOL    HW221609   1.137   3.450  12.631 -0.0291  2.9469  1.6946
 3383SOL     OW21610   1.177   3.782   1.493  0.2426  0.4182 -0.1476
 3383SOL    HW121611   1.261   3.828   1.500  0.7326 -0.2083 -2.0449
 3383SOL    HW221612   1.202   3.691   1.506  2.6929  0.8424 -1.9493
 3384SOL     OW21613   0.858   0.414  13.143  0.2236  0.4014 -0.5293
 3384SOL    HW121614   0.797   0.386  13.076  0.8379  0.2419 -1.0193
 3384SOL    HW221615   0.924   0.345  13.135  0.0361 -0.1711  2.8519
 3385SOL     OW21616   2.852   2.625  16.375  0.7955  0.0798  0.1179
 3385SOL    HW121617   2.763   2.619  16.339  0.1912  0.4836  1.5456
 3385SOL    HW221618   2.850   2.721  16.378  1.3690  0.0729  0.6790
 3386SOL     OW21619   3.795   0.440   3.311 -0.0971  0.2697 -0.0993
 3386SOL    HW121620   3.781   0.362   3.364 -2.0162 -0.6473 -1.9522
 3386SOL    HW221621   3.728   0.418   3.247  0.4030 -0.2638 -0.4466
 3387SOL     OW21622   2.250   1.543   0.600  0.1251  0.3034  0.0020
 3387SOL    HW121623   2.208   1.580   0.678  1.8641  2.3928 -0.0286
 3387SOL    HW221624   2.181   1.512   0.542  0.5099  1.0496 -0.8591
 3388SOL     OW21625   3.770   1.458   9.269  0.4044  0.6641  0.7239
 3388SOL    HW121626   3.833   1.515   9.225  0.9531 -1.4607 -1.1878
 3388SOL    HW221627   3.694   1.515   9.257  0.1772 -0.5531 -3.5195
 3389SOL     OW21628   1.971   2.401   2.929 -0.0137 -0.3273 -0.4745
 3389SOL    HW121629   2.015   2.483   2.904 -0.5221 -0.9090 -3.2158
 3389SOL    HW221630   1.966   2.364   2.841 -1.3765  0.1990 -0.6204
 3390SOL     OW21631   4.335   1.399  12.494  0.6591  0.3899 -0.6838
 3390SOL    HW121632   4.326   1.476  12.438 -2.5631  1.4175  1.2407
 3390SOL    HW221633   4.415   1.351  12.474  0.7982  0.7467 -0.9822
 3391SOL     OW21634   2.375   2.999  11.486 -0.6607 -0.1779 -0.3281
 3391SOL    HW121635   2.396   3.068  11.423 -0.6703  0.0882 -0.0397
 3391SOL    HW221636   2.460   2.957  11.496  0.0114  1.5901  1.1652
 3392SOL     OW21637   3.749   4.460   4.909  0.2127 -0.0281 -0.4163
 3392SOL    HW121638   3.709   4.446   4.823  1.5442  0.0319 -1.0606
 3392SOL    HW221639   3.669   4.471   4.960  1.6142 -0.1118  1.7717
 3393SOL     OW21640   1.623   2.176   6.580 -0.4593  0.1350 -0.2054
 3393SOL    HW121641   1.582   2.146   6.499 -0.6949  1.3629 -0.5434
 3393SOL    HW221642   1.635   2.089   6.618  1.7848  0.7539  0.5391
 3394SOL     OW21643   2.736   0.273   7.867  0.2100  0.2315  0.0815
 3394SOL    HW121644   2.721   0.363   7.896  1.0060  0.9566 -1.7387
 3394SOL    HW221645   2.670   0.277   7.797  0.7266 -0.1384 -0.4255
 3395SOL     OW21646   4.069   4.256   8.419 -0.5032 -0.2297  0.0139
 3395SOL    HW121647   4.074   4.326   8.353  2.7140 -0.1791  0.2946
 3395SOL    HW221648   3.989   4.278   8.465  0.1986 -0.2568  1.2431
 3396SOL     OW21649   3.627   4.447   2.316 -0.4838  0.3053 -0.0306
 3396SOL    HW121650   3.649   4.540   2.321  2.1100 -0.4057  2.0142
 3396SOL    HW221651   3.568   4.451   2.241 -2.6539  0.6128  1.7158
 3397SOL     OW21652   1.978   0.434   3.242 -0.1405  0.0126  0.0610
 3397SOL    HW121653   1.922   0.429   3.319 -1.1276 -1.3670 -0.7707
 3397SOL    HW221654   1.921   0.409   3.170 -0.9955 -0.2814  0.8482
 3398SOL     OW21655   0.639   3.785   5.347  0.3523  0.4037 -0.2220
 3398SOL    HW121656   0.646   3.746   5.260 -0.7385  0.7777 -0.4851
 3398SOL    HW221657   0.703   3.728   5.389  1.6076  0.1861 -2.4681
 3399SOL     OW21658   2.834   2.809   8.125 -0.1761 -0.8795  0.4388
 3399SOL    HW121659   2.911   2.863   8.142 -0.0690 -0.6492 -0.8010
 3399SOL    HW221660   2.762   2.873   8.120  1.6101  0.8802 -2.5319
 3400SOL     OW21661   2.340   4.684   7.840  0.2326 -0.0443 -0.2976
 3400SOL    HW121662   2.272   0.026   7.838  2.1374  1.7665 -2.7297
 3400SOL    HW221663   2.290   4.604   7.857 -1.3660  0.4086 -2.9189
 3401SOL     OW21664   1.848   0.013   9.516 -0.4399  0.0808  0.0056
 3401SOL    HW121665   1.754   0.031   9.520 -0.2815  1.3542 -1.7423
 3401SOL    HW221666   1.869   0.010   9.609 -1.3304  0.4949  0.2253
 3402SOL     OW21667   2.722   1.936   7.807 -0.0858 -0.0780 -0.2610
 3402SOL    HW121668   2.741   1.847   7.778 -4.1431 -0.8380 -0.6087
 3402SOL    HW221669   2.647   1.919   7.864 -0.3433  1.2044 -0.2124
 3403SOL     OW21670   0.925   4.682   3.102 -0.1877 -0.2198  0.4160
 3403SOL    HW121671   0.908   4.703   3.193  0.5677 -0.9948  0.7365
 3403SOL    HW221672   0.981   4.605   3.113  0.4187  0.6869  3.5217
 3404SOL     OW21673   4.023   2.427  14.911 -0.5623  0.1980 -0.5245
 3404SOL    HW121674   4.051   2.426  14.820  1.5699 -0.7357  0.1366
 3404SOL    HW221675   3.985   2.339  14.917  2.9888 -1.5346 -3.4793
 3405SOL     OW21676   4.090   2.101  17.248 -0.4241 -0.3331 -0.1388
 3405SOL    HW121677   4.008   2.147  17.228  0.4393  1.0824 -0.3681
 3405SOL    HW221678   4.058   2.011  17.250  1.3413 -1.0213 -2.6219
 3406SOL     OW21679   1.967   0.266  14.967  0.4316 -0.3348  0.3599
 3406SOL    HW121680   1.984   0.359  14.957 -0.4217 -0.1285  0.8554
 3406SOL    HW221681   1.988   0.257  15.060  0.0154 -0.5580  0.4347
 3407SOL     OW21682   0.864   1.762   4.977 -0.6342  0.0332  0.2197
 3407SOL    HW121683   0.900   1.708   4.907  1.1993 -1.7009  2.4888
 3407SOL    HW221684   0.880   1.711   5.057 -1.1933 -2.5567 -1.3300
 3408SOL     OW21685   2.830   4.621   3.734  0.2339  0.3899  0.3164
 3408SOL    HW121686   2.905   4.568   3.707 -1.7087 -1.2860 -1.7300
 3408SOL    HW221687   2.760   4.599   3.673 -1.1313  0.9882  1.6937
 3409SOL     OW21688   4.448   1.819  16.133  0.3384  0.1828 -0.3895
 3409SOL    HW121689   4.515   1.803  16.200  3.0137  2.4132 -2.5007
 3409SOL    HW221690   4.452   1.740  16.079  1.3007  0.5169 -0.8147
 3410SOL     OW21691   1.645   3.989   0.918 -0.6933 -0.2490  0.0359
 3410SOL    HW121692   1.651   4.079   0.885  2.7038 -0.2560  0.6603
 3410SOL    HW221693   1.705   3.942   0.860  0.2737 -0.1919  1.0000
 3411SOL     OW21694   1.353   2.563   1.894 -0.8563 -0.1410 -0.3535
 3411SOL    HW121695   1.262   2.536   1.889 -1.7518  2.3851  1.9225
 3411SOL    HW221696   1.391   2.517   1.820  0.1712  0.7239 -0.3772
 3412SOL     OW21697   3.530   0.748   4.250  0.0152 -0.1471  0.2981
 3412SOL    HW121698   3.622   0.727   4.231  0.5059  3.3158 -1.1767
 3412SOL    HW221699   3.489   0.695   4.182 -0.6364  1.7662 -0.7996
 3413SOL     OW21700   4.630   2.360   2.749  0.3728  0.2777 -0.1658
 3413SOL    HW121701   4.713   2.408   2.744 -0.2343  1.3468  0.0672
 3413SOL    HW221702   4.639   2.329   2.839  0.4745  2.2114  0.4926
 3414SOL     OW21703   0.350   2.893  14.409 -0.1310  0.4701  0.2096
 3414SOL    HW121704   0.264   2.896  14.367 -0.3739 -0.7209  0.6061
 3414SOL    HW221705   0.367   2.986  14.424  2.5881 -0.2763  1.7838
 3415SOL     OW21706   4.492   1.673  12.060 -0.0549 -0.0906 -0.2513
 3415SOL    HW121707   4.469   1.585  12.090 -1.3167  0.2406 -0.2409
 3415SOL    HW221708   4.466   1.669  11.968  2.0957 -2.2062 -0.7726
 3416SOL     OW21709   0.532   2.143   8.020  0.5555  0.2811  0.1932
 3416SOL    HW121710   0.495   2.216   8.068 -1.4382 -0.5016 -0.1254
 3416SOL    HW221711   0.470   2.071   8.032 -1.6778  2.0697 -0.5806
 3417SOL     OW21712   1.127   3.465  12.062  0.1791  0.4765  0.4696
 3417SOL    HW121713   1.221   3.454  12.077  0.0198 -1.6457 -0.1369
 3417SOL    HW221714   1.108   3.425  11.977 -0.7458 -0.1156  0.9422
 3418SOL     OW21715   2.421   0.243   7.379  0.1324 -0.2713 -0.0758
 3418SOL    HW121716   2.400   0.161   7.424 -1.6690 -0.1656 -0.7243
 3418SOL    HW221717   2.384   0.223   7.292 -2.3860 -0.7116  1.1050
 3419SOL     OW21718   2.103   0.279   5.098 -0.4542  0.2633  0.0100
 3419SOL    HW121719   2.101   0.184   5.094 -1.1288  0.1893  2.0059
 3419SOL    HW221720   2.088   0.293   5.191  1.5312  3.1479 -0.0864
 3420SOL     OW21721   2.091   2.469   2.410 -0.0552 -0.7268  0.2331
 3420SOL    HW121722   2.048   2.555   2.405 -2.2891 -1.9566 -1.6019
 3420SOL    HW221723   2.092   2.438   2.319  3.0924 -0.4074  0.1396
 3421SOL     OW21724   4.644   4.130  11.329 -0.1211 -0.4938 -0.0978
 3421SOL    HW121725   4.569   4.180  11.298  2.0282  2.3290 -0.6706
 3421SOL    HW221726   4.699   4.139  11.252 -1.7179  1.0026 -1.0687
 3422SOL     OW21727   2.219   1.133  12.820  0.0943 -0.3978 -0.0495
 3422SOL    HW121728   2.288   1.082  12.778  0.3367 -0.0772 -0.0470
 3422SOL    HW221729   2.149   1.125  12.755 -0.7988 -0.0382  0.8609
 3423SOL     OW21730   1.195   1.165  10.044  0.2711 -0.2652 -0.3312
 3423SOL    HW121731   1.233   1.083  10.075  0.5148  0.7976  2.2226
 3423SOL    HW221732   1.274   1.212  10.018  0.6052 -0.9686 -0.5669
 3424SOL     OW21733   4.183   3.769   3.606 -0.3029 -0.6599 -0.1759
 3424SOL    HW121734   4.137   3.794   3.686 -2.9410  2.2244 -2.5962
 3424SOL    HW221735   4.191   3.676   3.629  1.0344 -1.0534 -2.1731
 3425SOL     OW21736   4.455   3.490  10.367  0.0902 -0.3410  0.0137
 3425SOL    HW121737   4.446   3.417  10.305 -1.8573  0.0667 -0.1997
 3425SOL    HW221738   4.384   3.480  10.430 -0.4387 -4.1059 -1.1533
 3426SOL     OW21739   0.178   3.767  13.721 -0.2322 -0.1484 -0.3457
 3426SOL    HW121740   0.137   3.826  13.658 -0.8115 -0.1658  0.0082
 3426SOL    HW221741   0.150   3.801  13.806 -0.7854 -2.3391  0.3505
 3427SOL     OW21742   2.390   1.155  11.193  0.5889  0.2765  0.3083
 3427SOL    HW121743   2.386   1.105  11.111  1.3232  1.5859 -0.5260
 3427SOL    HW221744   2.463   1.109  11.235  2.6718  4.0047  0.7900
 3428SOL     OW21745   4.622   1.518   5.642 -0.4622 -0.1762  0.2117
 3428SOL    HW121746   4.662   1.491   5.725  0.5476  1.8442  0.3684
 3428SOL    HW221747   4.604   1.430   5.608  0.1510  0.5620 -1.9700
 3429SOL     OW21748   3.449   2.369   7.916 -0.1389  0.0701  0.1802
 3429SOL    HW121749   3.402   2.329   7.989 -2.3401  0.0052 -1.2806
 3429SOL    HW221750   3.445   2.298   7.852 -2.4362  0.0432  0.3338
 3430SOL     OW21751   2.331   2.224   4.046  0.0502 -0.6802 -0.0911
 3430SOL    HW121752   2.297   2.252   4.131 -0.4211 -2.5403  0.3531
 3430SOL    HW221753   2.419   2.262   4.050 -0.3825  0.4653 -1.8037
 3431SOL     OW21754   4.514   0.540   3.136  0.0357 -0.1565 -0.0402
 3431SOL    HW121755   4.452   0.468   3.140 -1.7439  1.3702 -0.0512
 3431SOL    HW221756   4.572   0.512   3.207 -0.2579 -0.6956 -0.0140
 3432SOL     OW21757   4.285   3.301  13.692 -0.1097  0.4497 -0.1634
 3432SOL    HW121758   4.254   3.213  13.672  0.5382  0.1577  0.0994
 3432SOL    HW221759   4.235   3.315  13.772 -0.2725  1.0980 -0.3734
 3433SOL     OW21760   4.323   4.219   1.213 -0.4977  0.3770  0.4410
 3433SOL    HW121761   4.232   4.212   1.242  0.0764 -0.5819  2.0430
 3433SOL    HW221762   4.326   4.278   1.138 -1.8065  2.0935  1.7195
 3434SOL     OW21763   2.947   2.484   7.433  0.2245 -0.1972 -0.1757
 3434SOL    HW121764   3.030   2.525   7.408 -0.2261  0.9482  0.2009
 3434SOL    HW221765   2.927   2.486   7.526  0.1572 -0.9430 -0.1707
 3435SOL     OW21766   4.623   3.738   5.326 -0.7073  0.0628  0.2496
 3435SOL    HW121767   4.684   3.684   5.276 -0.8438 -1.2947  1.5570
 3435SOL    HW221768   4.564   3.775   5.260 -0.8724  0.9063  0.8656
 3436SOL     OW21769   2.763   1.427   5.377  0.2672  0.5335 -0.0633
 3436SOL    HW121770   2.712   1.415   5.297  0.6030 -1.2193  0.0003
 3436SOL    HW221771   2.736   1.352   5.429  1.8295  0.2859  0.4015
 3437SOL     OW21772   0.371   1.844  16.575 -0.2117 -0.6371  0.5751
 3437SOL    HW121773   0.357   1.750  16.571  0.3353 -0.6071 -2.5155
 3437SOL    HW221774   0.354   1.862  16.482 -2.7767 -1.6589  0.8487
 3438SOL     OW21775   0.902   1.488   6.268  0.1412 -1.0398  0.3350
 3438SOL    HW121776   0.975   1.519   6.322  0.9220 -0.3692 -1.0991
 3438SOL    HW221777   0.860   1.422   6.323  1.9331 -2.7818 -0.3965
 3439SOL     OW21778   1.200   1.246   4.645 -0.3630 -0.3800 -0.1155
 3439SOL    HW121779   1.176   1.179   4.582  0.7626 -0.1255 -0.8282
 3439SOL    HW221780   1.178   1.329   4.602  2.0647 -0.3376 -1.2790
 3440SOL     OW21781   1.127   3.341   6.776  0.0177  0.2793  0.0797
 3440SOL    HW121782   1.205   3.373   6.822  0.1022  0.2003 -0.0088
 3440SOL    HW221783   1.099   3.265   6.827  0.4765  0.3787  0.4910
 3441SOL     OW21784   1.702   4.641   6.822 -0.0876  0.1916  0.1314
 3441SOL    HW121785   1.640   4.705   6.856  0.4863  1.2364 -0.8110
 3441SOL    HW221786   1.773   4.631   6.885  0.3885  0.1231 -0.4149
 3442SOL     OW21787   2.194   4.542  14.176 -0.3026  0.1953  0.1328
 3442SOL    HW121788   2.228   4.608  14.237  1.1940  1.1392 -1.7352
 3442SOL    HW221789   2.275   4.529  14.126 -0.0999  0.0107  0.5039
 3443SOL     OW21790   2.538   2.529  12.635 -0.1048  0.4125  0.1961
 3443SOL    HW121791   2.471   2.557  12.573  0.4387 -0.6022 -0.8468
 3443SOL    HW221792   2.542   2.434  12.623 -2.8343  0.4617 -1.0830
 3444SOL     OW21793   4.144   1.338  13.190  0.4060  0.4625 -0.4284
 3444SOL    HW121794   4.079   1.384  13.137  1.7252  2.5937 -0.2056
 3444SOL    HW221795   4.199   1.297  13.124  0.6306 -1.7767  1.1383
 3445SOL     OW21796   1.962   4.455   6.309 -0.3653  0.1513 -0.3257
 3445SOL    HW121797   2.031   4.518   6.331 -1.5954  0.9194  1.3580
 3445SOL    HW221798   1.896   4.524   6.318  0.3334  1.0731 -2.4219
 3446SOL     OW21799   2.040   0.411   8.035  0.3822 -0.0918 -0.2421
 3446SOL    HW121800   2.065   0.462   7.958  0.5026  0.7872  0.3787
 3446SOL    HW221801   2.119   0.362   8.058  1.3752  1.9820  0.8107
 3447SOL     OW21802   2.838   1.434  10.926  0.6688 -0.1659 -0.0180
 3447SOL    HW121803   2.920   1.391  10.951  0.3492  0.1339  1.5066
 3447SOL    HW221804   2.777   1.412  10.996  0.4190  4.0358  1.1239
 3448SOL     OW21805   3.164   2.486   9.419  0.1928  0.1639  0.9537
 3448SOL    HW121806   3.194   2.443   9.499  1.7020 -1.1772 -0.3260
 3448SOL    HW221807   3.112   2.420   9.373 -0.0674 -0.2350  1.8262
 3449SOL     OW21808   1.610   4.390  13.384  0.0834 -0.2806  0.0716
 3449SOL    HW121809   1.658   4.315  13.347  0.1470  0.5534 -1.5512
 3449SOL    HW221810   1.536   4.342  13.420  0.9592  0.1113  2.4278
 3450SOL     OW21811   0.214   3.030   2.726 -0.2996 -0.7594  0.4054
 3450SOL    HW121812   0.163   3.108   2.704  1.7192  0.3692 -0.2106
 3450SOL    HW221813   0.298   3.075   2.724 -0.2851 -0.7058  2.2156
 3451SOL     OW21814   1.989   1.891   6.220  0.3908 -0.0131  0.4746
 3451SOL    HW121815   2.046   1.908   6.295  1.2171 -0.9427  0.0489
 3451SOL    HW221816   1.953   1.808   6.250  3.4642 -0.7037  2.2363
 3452SOL     OW21817   3.167   0.330   4.349 -0.3635  0.4591  0.2275
 3452SOL    HW121818   3.246   0.380   4.331  1.4626 -2.4689  0.1820
 3452SOL    HW221819   3.167   0.348   4.443  2.0693 -0.0305  0.3192
 3453SOL     OW21820   3.872   3.609   2.635 -0.0442  0.3401 -0.4667
 3453SOL    HW121821   3.953   3.656   2.654  1.7771 -2.6432 -0.7791
 3453SOL    HW221822   3.862   3.628   2.542 -1.1486  0.3901 -0.3452
 3454SOL     OW21823   4.222   4.027   5.757  0.2272  0.4881 -0.0770
 3454SOL    HW121824   4.241   3.953   5.700 -0.2042  1.7631 -1.8485
 3454SOL    HW221825   4.304   4.024   5.807 -0.0291  0.3625  0.3442
 3455SOL     OW21826   1.042   3.124   6.353 -0.4582 -0.1521 -0.4553
 3455SOL    HW121827   1.123   3.158   6.390 -0.3941 -2.2178  1.3121
 3455SOL    HW221828   0.979   3.196   6.356 -1.2706 -0.9058  0.2886
 3456SOL     OW21829   1.874   2.711  10.819 -0.0540  0.2503  0.5679
 3456SOL    HW121830   1.867   2.662  10.737 -1.5401  0.0353  0.8226
 3456SOL    HW221831   1.787   2.701  10.858 -1.5396  0.1036 -2.7677
 3457SOL     OW21832   0.233   2.501  11.965  0.2002 -0.1357  0.3373
 3457SOL    HW121833   0.319   2.524  11.930  0.7087 -1.2511  0.8455
 3457SOL    HW221834   0.175   2.498  11.889  1.5161 -3.2844 -0.5421
 3458SOL     OW21835   1.200   3.022   5.459  0.8972  0.0934 -0.8363
 3458SOL    HW121836   1.276   2.966   5.444  0.4610 -0.8862  0.6202
 3458SOL    HW221837   1.213   3.047   5.550  0.4754  1.9652 -1.2889
 3459SOL     OW21838   0.434   1.513   5.281 -0.2671 -0.0398  0.1270
 3459SOL    HW121839   0.341   1.531   5.295 -0.8386 -0.8266 -2.5681
 3459SOL    HW221840   0.482   1.574   5.338  0.1157  0.0809 -0.3225
 3460SOL     OW21841   3.949   3.300  12.751  0.3392  0.7632 -0.3010
 3460SOL    HW121842   4.032   3.292  12.799 -0.2787  0.7904  0.7693
 3460SOL    HW221843   3.930   3.206  12.752  1.3135  0.5563 -1.2162
 3461SOL     OW21844   1.055   4.699   6.746  0.6235 -0.4061 -0.8097
 3461SOL    HW121845   1.001   0.018   6.681  0.3946  2.1573  1.1489
 3461SOL    HW221846   1.144   4.721   6.717  0.9893 -0.0728  0.5833
 3462SOL     OW21847   2.715   3.744   3.861 -0.0700 -0.2307 -1.0584
 3462SOL    HW121848   2.744   3.777   3.776 -0.6301  0.0095 -1.1543
 3462SOL    HW221849   2.663   3.666   3.842 -1.5077  0.7440 -1.1625
 3463SOL     OW21850   0.779   1.732  11.955 -0.0449 -0.0840  0.6767
 3463SOL    HW121851   0.728   1.658  11.921  1.2172 -0.5772 -0.1205
 3463SOL    HW221852   0.796   1.778  11.872  1.4756 -1.0112  0.4961
 3464SOL     OW21853   0.144   2.625   6.094 -0.2729  0.3553  0.3759
 3464SOL    HW121854   0.165   2.688   6.024  0.6912 -0.8824 -0.4378
 3464SOL    HW221855   0.201   2.660   6.163  3.2991 -0.3272 -2.2271
 3465SOL     OW21856   4.561   3.318   3.059  0.4247 -0.4830  0.4121
 3465SOL    HW121857   4.478   3.271   3.061  0.9809 -1.5441 -1.0477
 3465SOL    HW221858   4.533   3.401   3.020 -0.0260 -0.7540  0.1662
 3466SOL     OW21859   2.477   2.855   8.253  0.7780 -0.1256  0.3323
 3466SOL    HW121860   2.418   2.842   8.328 -0.2022  2.3598 -0.0245
 3466SOL    HW221861   2.510   2.766   8.240  0.2213 -0.3394  0.3646
 3467SOL     OW21862   3.351   1.940  15.566 -0.0417 -0.0604 -0.1017
 3467SOL    HW121863   3.300   1.862  15.590 -0.8052  1.2890  2.6327
 3467SOL    HW221864   3.281   1.994  15.530  0.4804 -0.1090 -1.1803
 3468SOL     OW21865   2.223   2.382   3.833 -0.3663 -0.1531  0.4528
 3468SOL    HW121866   2.135   2.389   3.870 -0.8347 -1.0327 -0.4826
 3468SOL    HW221867   2.262   2.304   3.874  2.3244  1.1825  0.4322
 3469SOL     OW21868   2.980   1.847   8.049 -0.7498  0.2921 -0.2428
 3469SOL    HW121869   2.996   1.893   7.967 -1.0788  2.7694  1.1124
 3469SOL    HW221870   3.000   1.761   8.012  1.5437  0.1859  1.2759
 3470SOL     OW21871   2.344   2.318   2.538  0.5482 -0.6942 -0.0504
 3470SOL    HW121872   2.326   2.227   2.558  0.0509 -0.0560  2.4056
 3470SOL    HW221873   2.313   2.339   2.450  1.6407 -0.0900 -0.2925
 3471SOL     OW21874   4.149   4.019   7.534  0.0665  0.9853  0.2729
 3471SOL    HW121875   4.076   3.990   7.589  0.6343 -1.1879 -0.1346
 3471SOL    HW221876   4.231   3.989   7.574 -0.3821  2.2620  2.1642
 3472SOL     OW21877   1.819   2.509   4.379  0.0588  0.0870  0.2464
 3472SOL    HW121878   1.835   2.567   4.453  2.4195  0.9772 -0.9741
 3472SOL    HW221879   1.896   2.453   4.375 -1.1708 -1.5493 -0.4789
 3473SOL     OW21880   0.923   0.328  12.694  0.2600 -0.3896 -0.1723
 3473SOL    HW121881   0.862   0.257  12.714  0.1830 -0.3237 -0.1742
 3473SOL    HW221882   0.943   0.311  12.602 -0.6586 -1.3226 -0.2116
 3474SOL     OW21883   1.391   2.124   3.962  0.1059  0.6417  0.1114
 3474SOL    HW121884   1.413   2.129   4.055 -0.9099  0.2791  0.3663
 3474SOL    HW221885   1.317   2.185   3.952 -0.9699 -0.4331  1.5807
 3475SOL     OW21886   4.046   0.703   9.241  0.2824  0.1727 -0.2217
 3475SOL    HW121887   4.140   0.692   9.254  0.2641  1.1053  0.7446
 3475SOL    HW221888   4.036   0.774   9.305 -0.3354 -1.2909  1.2887
 3476SOL     OW21889   4.463   2.737   4.854  0.3306  0.4419  0.2141
 3476SOL    HW121890   4.436   2.646   4.843  1.8955  0.1064 -0.9021
 3476SOL    HW221891   4.462   2.776   4.767  1.8621 -0.2377 -0.1155
 3477SOL     OW21892   3.556   2.841  14.367 -0.1602 -0.3800  0.3634
 3477SOL    HW121893   3.592   2.754  14.383  2.0129  0.5020  0.3054
 3477SOL    HW221894   3.604   2.890  14.434 -0.3520 -1.1688  1.0860
 3478SOL     OW21895   4.334   1.721  11.799  0.7387 -0.0135  0.7310
 3478SOL    HW121896   4.418   1.750  11.764  0.8275 -1.1891 -0.0316
 3478SOL    HW221897   4.274   1.733  11.725 -0.7582  2.8083  2.3671
 3479SOL     OW21898   4.368   4.576   2.738 -0.1127 -0.2521  0.6004
 3479SOL    HW121899   4.454   4.551   2.705 -1.0699 -1.2261 -1.0941
 3479SOL    HW221900   4.318   4.532   2.670  0.9380  2.2614 -1.8582
 3480SOL     OW21901   2.002   4.637   8.421 -0.4439  0.2697  0.2836
 3480SOL    HW121902   2.014   4.623   8.515  1.4438  1.3469  0.1919
 3480SOL    HW221903   1.961   4.557   8.388  0.7763 -1.0827  2.1043
 3481SOL     OW21904   1.430   2.380   1.636  0.1025  0.2783 -0.5753
 3481SOL    HW121905   1.477   2.318   1.580 -0.5289  0.5600 -1.4253
 3481SOL    HW221906   1.414   2.326   1.713 -0.7925 -1.9426 -2.3269
 3482SOL     OW21907   2.124   3.936   1.812  0.1247  0.6386  0.1046
 3482SOL    HW121908   2.051   3.972   1.863 -0.8559  1.5585 -1.9642
 3482SOL    HW221909   2.174   3.889   1.879 -0.3512  0.4913  0.3563
 3483SOL     OW21910   3.276   4.546   4.822 -0.3510  0.1735  0.3694
 3483SOL    HW121911   3.183   4.528   4.834 -0.3425  0.8173  1.4000
 3483SOL    HW221912   3.284   4.530   4.728 -2.7956  0.7616  0.0472
 3484SOL     OW21913   2.490   1.973   7.032 -0.1911  0.3734 -0.1312
 3484SOL    HW121914   2.551   1.999   6.963  0.2112  1.7756  0.7723
 3484SOL    HW221915   2.431   1.911   6.988  0.1059  0.8506 -1.2167
 3485SOL     OW21916   2.407   2.826   7.468 -0.8024  0.5468 -0.4486
 3485SOL    HW121917   2.361   2.782   7.539  0.9329  1.2403  1.0782
 3485SOL    HW221918   2.498   2.834   7.495 -1.0257  0.3373  0.3675
 3486SOL     OW21919   2.792   4.123  17.303  0.5221 -0.1925  0.6178
 3486SOL    HW121920   2.758   4.170  17.226 -0.0996 -1.7621 -0.0660
 3486SOL    HW221921   2.748   4.039  17.288 -0.4778  0.8971 -2.6064
 3487SOL     OW21922   0.763   1.401   8.643 -0.2437 -0.4169  0.2780
 3487SOL    HW121923   0.679   1.355   8.635 -0.4913  0.3416 -1.5266
 3487SOL    HW221924   0.790   1.367   8.728 -1.1729 -1.1403  0.2834
 3488SOL     OW21925   2.948   2.385   4.389 -0.4000 -0.1315 -0.4386
 3488SOL    HW121926   3.023   2.437   4.359  0.9395 -1.1846  1.0725
 3488SOL    HW221927   2.963   2.360   4.480 -0.3461  0.6016 -0.2496
 3489SOL     OW21928   1.052   2.023   6.237  0.1001  0.5676  0.2264
 3489SOL    HW121929   0.957   2.017   6.236  0.2863 -2.6118  0.0828
 3489SOL    HW221930   1.077   1.935   6.266  1.1951 -0.0927 -2.7609
 3490SOL     OW21931   4.519   2.424   5.078  0.0098  0.0308  0.1985
 3490SOL    HW121932   4.520   2.428   4.983 -2.4764  0.8273  0.1955
 3490SOL    HW221933   4.502   2.517   5.092 -0.4614 -0.3382  2.1480
 3491SOL     OW21934   1.979   0.274   6.772  0.4374 -0.0326  0.0812
 3491SOL    HW121935   1.934   0.275   6.857 -0.1519 -0.7611 -0.2193
 3491SOL    HW221936   2.050   0.335   6.789  3.2030 -2.9284 -1.1761
 3492SOL     OW21937   2.202   1.852  13.208  0.9185  0.3165 -0.7677
 3492SOL    HW121938   2.215   1.839  13.302 -2.8761 -0.2595 -0.3126
 3492SOL    HW221939   2.201   1.947  13.197 -0.9468  0.4767  0.8483
 3493SOL     OW21940   1.742   2.377   5.886 -0.2705 -0.2391  0.1308
 3493SOL    HW121941   1.788   2.386   5.969 -0.8734 -0.2328  0.4632
 3493SOL    HW221942   1.779   2.296   5.850  0.2525  0.3159 -0.5971
 3494SOL     OW21943   2.096   2.628   3.179  0.1373 -0.1475 -0.0349
 3494SOL    HW121944   2.076   2.668   3.095 -2.5901 -1.9772 -0.2910
 3494SOL    HW221945   2.012   2.582   3.187 -0.7310  1.8053  2.2978
 3495SOL     OW21946   1.314   0.159   4.315  0.6666 -0.0964  0.1639
 3495SOL    HW121947   1.368   0.203   4.250  0.9874 -1.3626 -0.4431
 3495SOL    HW221948   1.222   0.184   4.305  1.3513  3.8589  4.1393
 3496SOL     OW21949   3.158   4.709   7.862  0.1385 -0.4042 -0.3611
 3496SOL    HW121950   3.092   4.663   7.914  2.2858 -2.8175  0.2691
 3496SOL    HW221951   3.106   0.022   7.791 -0.7006 -0.1950  0.3654
 3497SOL     OW21952   2.074   0.193  14.555  0.3723 -0.3685  1.0687
 3497SOL    HW121953   2.170   0.198  14.565  0.2914  0.7640  1.3495
 3497SOL    HW221954   2.061   0.104  14.586 -4.9504 -0.1006 -0.4633
 3498SOL     OW21955   0.332   4.615   9.614 -0.4299 -0.1445 -0.9055
 3498SOL    HW121956   0.413   4.568   9.635 -0.2683  0.9328  0.8059
 3498SOL    HW221957   0.269   4.545   9.632  1.5549 -1.6391  0.3505
 3499SOL     OW21958   3.156   3.093   6.505  0.0688 -0.3471  0.5105
 3499SOL    HW121959   3.239   3.110   6.548  0.3664  1.0008 -0.6020
 3499SOL    HW221960   3.194   3.049   6.429  0.0124 -2.6211  1.8155
 3500SOL     OW21961   3.153   1.487  10.810  0.8957  0.3608 -0.4768
 3500SOL    HW121962   3.141   1.404  10.855 -1.5706 -0.3107 -2.4270
 3500SOL    HW221963   3.195   1.540  10.878 -0.2903  1.4796 -0.6238
 3501SOL     OW21964   0.869   3.314   9.855  0.1236  0.6953 -0.3630
 3501SOL    HW121965   0.848   3.357   9.772 -0.0776  0.1650 -0.5848
 3501SOL    HW221966   0.863   3.220   9.839  1.6894  0.2562  1.6599
 3502SOL     OW21967   1.196   2.893   3.357  0.1421 -0.4702  0.0175
 3502SOL    HW121968   1.246   2.957   3.307  1.0851 -0.3536  1.1224
 3502SOL    HW221969   1.145   2.954   3.410  0.2448 -0.0192 -0.3990
 3503SOL     OW21970   0.820   4.374   4.776  0.0845 -0.1937  0.2404
 3503SOL    HW121971   0.794   4.466   4.784  0.3159 -0.2908  2.2011
 3503SOL    HW221972   0.845   4.354   4.867 -5.4137 -0.7592  1.6430
 3504SOL     OW21973   3.933   3.448   7.072 -0.6039 -0.1409  0.1069
 3504SOL    HW121974   3.911   3.540   7.057  0.5804  0.3172  1.2143
 3504SOL    HW221975   3.853   3.413   7.112  1.0341 -1.5229  2.1488
 3505SOL     OW21976   3.620   1.032  14.510 -0.6304 -0.6283  0.2698
 3505SOL    HW121977   3.619   0.945  14.548  0.7311 -0.5736  0.4493
 3505SOL    HW221978   3.526   1.050  14.512 -0.5914 -0.4682  0.6637
 3506SOL     OW21979   1.698   1.454  17.365  0.6812 -0.1012 -0.2023
 3506SOL    HW121980   1.650   1.492  17.439 -1.7837  0.4905 -2.1074
 3506SOL    HW221981   1.637   1.408  17.309 -0.9834 -3.0451  4.0188
 3507SOL     OW21982   2.263   2.071   5.743 -0.1572 -0.1830  0.3181
 3507SOL    HW121983   2.216   1.990   5.725  0.5064 -0.9957  2.2940
 3507SOL    HW221984   2.326   2.082   5.671  0.0462 -1.2514  0.3436
 3508SOL     OW21985   1.665   2.571  14.880  0.2086 -0.3405 -0.1846
 3508SOL    HW121986   1.630   2.510  14.945  3.2943 -0.8894  0.9668
 3508SOL    HW221987   1.715   2.639  14.925 -2.2577  1.3721 -0.0201
 3509SOL     OW21988   3.658   3.165   7.583  0.5158  0.0912  0.1576
 3509SOL    HW121989   3.703   3.183   7.500 -2.1774  2.5851 -0.7879
 3509SOL    HW221990   3.656   3.254   7.620 -0.2160  0.8468 -1.6613
 3510SOL     OW21991   2.538   1.570  15.019  0.1281  0.4691 -0.3919
 3510SOL    HW121992   2.575   1.648  14.978  0.5041  0.3738 -0.2308
 3510SOL    HW221993   2.529   1.595  15.111  1.8216  1.6796 -0.5586
 3511SOL     OW21994   3.341   2.812   7.490 -0.6516 -0.6387  0.2217
 3511SOL    HW121995   3.357   2.842   7.579 -1.3944 -0.8984  0.4461
 3511SOL    HW221996   3.358   2.882   7.428  1.8280  0.1880  1.8207
 3512SOL     OW21997   1.262   3.808   1.833 -0.0080 -0.1048 -0.0118
 3512SOL    HW121998   1.168   3.794   1.848  0.0590 -1.4489 -0.8728
 3512SOL    HW221999   1.255   3.901   1.809  0.4007  0.0903  0.6347
 3513SOL     OW22000   1.118   4.624   9.650  0.0027  0.3215 -0.0242
 3513SOL    HW122001   1.109   4.571   9.729  1.2465 -0.6776 -0.5574
 3513SOL    HW222002   1.146   4.559   9.585 -0.8764 -0.8114  0.7279
 3514SOL     OW22003   3.814   3.543  11.594 -0.5279 -0.2687 -0.1170
 3514SOL    HW122004   3.878   3.579  11.655 -0.6720 -0.8495  0.3863
 3514SOL    HW222005   3.858   3.543  11.509  0.4121  0.6515  0.3701
 3515SOL     OW22006   3.254   2.501   5.971 -0.3868 -0.3471 -0.3135
 3515SOL    HW122007   3.335   2.520   5.922  0.2804 -0.9192  0.5678
 3515SOL    HW222008   3.200   2.566   5.925  1.6632  1.4364 -0.2208
 3516SOL     OW22009   1.341   4.381   2.037  0.1213 -0.0752 -0.6027
 3516SOL    HW122010   1.388   4.446   2.090 -1.6816  1.8626 -1.4101
 3516SOL    HW222011   1.400   4.306   2.025  1.0124  0.0392  2.8512
 3517SOL     OW22012   4.642   2.935   7.165  0.6089 -0.3978 -0.6049
 3517SOL    HW122013   0.003   2.902   7.191  1.5504  1.6171 -1.1313
 3517SOL    HW222014   4.577   2.872   7.198 -0.4489  0.1219 -1.6864
 3518SOL     OW22015   0.474   1.383   7.909  0.0852  0.7244 -0.6327
 3518SOL    HW122016   0.566   1.380   7.883  0.4481 -1.6110  1.0009
 3518SOL    HW222017   0.460   1.292   7.934  1.6892  0.7391  0.3322
 3519SOL     OW22018   3.154   0.059   0.734  0.3691  0.1296 -0.2260
 3519SOL    HW122019   3.210   0.028   0.805  0.4601  1.0333  0.0982
 3519SOL    HW222020   3.080   4.725   0.730 -0.8220  1.4379  3.0197
 3520SOL     OW22021   4.274   1.483   3.295 -0.4691 -0.2740 -0.5092
 3520SOL    HW122022   4.310   1.445   3.375  0.3229  0.6516 -0.4240
 3520SOL    HW222023   4.197   1.532   3.323 -0.1726  0.1715 -0.4723
 3521SOL     OW22024   1.952   3.960   2.011 -0.2357  0.5043 -0.6322
 3521SOL    HW122025   1.862   3.928   2.015 -0.8426  2.3232  0.4268
 3521SOL    HW222026   1.988   3.886   2.059  0.2808  0.2050 -1.4809
 3522SOL     OW22027   1.527   4.177   7.766  0.4994 -0.0498 -0.2160
 3522SOL    HW122028   1.561   4.240   7.829 -0.0011 -1.4560  1.4580
 3522SOL    HW222029   1.512   4.235   7.691  1.0971  1.8345  1.1357
 3523SOL     OW22030   1.433   0.057   9.799 -0.1999 -0.1749  0.5981
 3523SOL    HW122031   1.443   4.698   9.755  1.6113  0.9361 -1.0931
 3523SOL    HW222032   1.451   0.028   9.888  1.7538  0.1927  0.3203
 3524SOL     OW22033   2.531   1.416   9.569  0.3103  0.8003  0.2426
 3524SOL    HW122034   2.579   1.497   9.554  0.5844  0.5011 -0.5396
 3524SOL    HW222035   2.524   1.420   9.664 -1.2039  2.6936  0.0468
 3525SOL     OW22036   0.866   0.040  15.762 -0.3666  0.9019  0.0565
 3525SOL    HW122037   0.900   0.124  15.729  0.0893  0.3620 -0.8490
 3525SOL    HW222038   0.947   4.725  15.792 -1.0271 -0.7403 -0.3987
 3526SOL     OW22039   4.388   3.975   5.414  0.4120 -0.3763 -0.0210
 3526SOL    HW122040   4.480   3.995   5.398  0.4640  0.9891  1.9993
 3526SOL    HW222041   4.395   3.903   5.476 -1.7249  0.3511  1.0515
 3527SOL     OW22042   3.679   3.015   0.021 -0.3006  0.1710  0.0170
 3527SOL    HW122043   3.615   3.086   0.023 -0.0344  0.4709 -1.4414
 3527SOL    HW222044   3.682   2.979   0.109 -1.6769 -1.1364 -0.4553
 3528SOL     OW22045   2.606   0.661   6.117  0.5123  0.0257 -0.6064
 3528SOL    HW122046   2.548   0.711   6.061  1.9600  1.2928 -0.9797
 3528SOL    HW222047   2.687   0.663   6.066 -0.4215  0.5758 -2.0727
 3529SOL     OW22048   1.777   2.744   5.249 -0.0664  0.0353  0.5981
 3529SOL    HW122049   1.786   2.785   5.335 -0.4750  2.8023 -0.6735
 3529SOL    HW222050   1.693   2.699   5.243 -0.4504  0.8140  0.1274
 3530SOL     OW22051   3.685   0.928  10.240 -0.4166 -0.0937  0.1069
 3530SOL    HW122052   3.746   0.914  10.167  0.5786  0.6198  0.8207
 3530SOL    HW222053   3.658   0.839  10.263  1.4759 -0.8644 -0.6349
 3531SOL     OW22054   4.472   4.376   3.216 -0.0544  0.4026  0.3100
 3531SOL    HW122055   4.516   4.291   3.219 -0.0218  0.3515 -1.6975
 3531SOL    HW222056   4.496   4.401   3.127 -1.4563  1.2402  0.1742
 3532SOL     OW22057   4.564   3.401   4.168 -0.5481  0.7429  0.1800
 3532SOL    HW122058   4.637   3.383   4.228 -1.7568 -0.4530  1.3222
 3532SOL    HW222059   4.598   3.433   4.085 -1.9989 -2.1102 -1.5306
 3533SOL     OW22060   3.156   0.496   7.566  0.5027 -0.8938 -0.3006
 3533SOL    HW122061   3.186   0.567   7.510  0.3075  0.1197  0.8905
 3533SOL    HW222062   3.113   0.431   7.511  0.9489  0.9847 -2.8639
 3534SOL     OW22063   0.328   1.826  14.404 -0.3027 -0.2626  0.1876
 3534SOL    HW122064   0.307   1.837  14.311  0.7721 -0.9410 -0.1411
 3534SOL    HW222065   0.288   1.745  14.435  0.8840 -1.0916 -0.4474
 3535SOL     OW22066   4.004   4.519   9.734  0.3616  0.1085  0.5889
 3535SOL    HW122067   3.945   4.569   9.790 -2.0732  1.1892 -2.9855
 3535SOL    HW222068   4.030   4.592   9.678  1.9590 -0.7625  0.2064
 3536SOL     OW22069   4.095   0.586   8.596 -0.2255  0.1084  0.5535
 3536SOL    HW122070   4.152   0.517   8.631  0.9532 -0.4930 -2.5748
 3536SOL    HW222071   4.007   0.565   8.627 -0.6463  1.6059  0.3616
 3537SOL     OW22072   4.322   1.643   8.583 -0.6896 -0.6394 -0.2623
 3537SOL    HW122073   4.368   1.629   8.666  1.1469  2.1027 -0.8041
 3537SOL    HW222074   4.367   1.720   8.547 -0.0351 -0.7510  0.3034
 3538SOL     OW22075   0.511   4.392   3.403 -0.6077 -0.5852  0.0415
 3538SOL    HW122076   0.417   4.404   3.388 -1.2476 -1.7035  3.1196
 3538SOL    HW222077   0.554   4.471   3.370 -1.2561  0.0744  0.7682
 3539SOL     OW22078   1.348   2.371   2.157  0.4957  0.0806 -0.2334
 3539SOL    HW122079   1.410   2.319   2.208 -0.6409  0.5420  1.6069
 3539SOL    HW222080   1.387   2.354   2.071  2.8226 -0.7345  0.9877
 3540SOL     OW22081   2.317   1.031   8.689 -0.0055  0.3359  0.4019
 3540SOL    HW122082   2.236   1.015   8.641  0.2136  0.9595 -0.1826
 3540SOL    HW222083   2.290   1.077   8.768  1.2751  0.9795  0.4729
 3541SOL     OW22084   1.025   1.959   1.246 -0.2826  0.2381 -0.3253
 3541SOL    HW122085   0.942   1.995   1.277  0.5055  1.7798 -0.0320
 3541SOL    HW222086   0.988   1.885   1.197  0.4243 -0.0458 -0.4361
 3542SOL     OW22087   0.567   4.160   4.933  0.3163  0.1100 -0.5148
 3542SOL    HW122088   0.534   4.249   4.921 -2.4446 -0.7910  0.3861
 3542SOL    HW222089   0.480   4.125   4.953  0.4981 -0.8552 -1.4184
 3543SOL     OW22090   2.742   0.262   9.284  0.0900 -0.1135  0.4396
 3543SOL    HW122091   2.825   0.257   9.332 -0.2516 -2.5053  0.8149
 3543SOL    HW222092   2.712   0.338   9.335  0.1049  0.8276 -0.9635
 3544SOL     OW22093   0.496   2.310  10.840  0.3077 -0.1228 -0.0997
 3544SOL    HW122094   0.552   2.237  10.866 -0.6042 -0.5957  0.5396
 3544SOL    HW222095   0.568   2.373  10.832 -1.1195  0.8306 -5.1676
 3545SOL     OW22096   4.024   0.539   0.711 -0.4156 -0.0030 -0.7565
 3545SOL    HW122097   3.946   0.499   0.672 -0.0198 -0.8582 -0.6703
 3545SOL    HW222098   4.022   0.499   0.798 -2.0919 -2.1683 -1.7766
 3546SOL     OW22099   3.259   0.299   6.759  0.4977  0.1327  0.1370
 3546SOL    HW122100   3.270   0.393   6.746  2.9223 -0.2338 -0.4822
 3546SOL    HW222101   3.163   0.294   6.752  0.7871 -1.9709 -2.5010
 3547SOL     OW22102   3.275   0.616   4.353  0.1644 -0.1489 -0.1158
 3547SOL    HW122103   3.246   0.613   4.262 -1.2453 -0.5559  0.3555
 3547SOL    HW222104   3.359   0.658   4.333  0.1435 -0.6147 -1.1572
 3548SOL     OW22105   1.508   3.730   6.603 -0.1735 -0.1389 -0.2381
 3548SOL    HW122106   1.467   3.743   6.688  1.2148 -2.2166  0.7522
 3548SOL    HW222107   1.588   3.683   6.624 -1.4909 -2.0880  0.3872
 3549SOL     OW22108   0.496   0.414  11.198 -0.1283  0.3843 -0.3525
 3549SOL    HW122109   0.568   0.476  11.188 -0.8324  1.1950 -0.4768
 3549SOL    HW222110   0.422   0.472  11.178  0.7121  0.4028 -3.4080
 3550SOL     OW22111   2.039   3.077  12.728 -0.3748 -0.2630  0.2669
 3550SOL    HW122112   2.068   3.087  12.637  1.1809 -2.2503  0.5332
 3550SOL    HW222113   2.119   3.039  12.763  0.7983  3.0942  1.2073
 3551SOL     OW22114   4.713   0.382  15.114  0.2303 -0.2094  0.0691
 3551SOL    HW122115   0.083   0.393  15.120  0.2249  1.4775 -3.2107
 3551SOL    HW222116   4.699   0.376  15.020  1.9357 -1.3767 -0.1180
 3552SOL     OW22117   2.982   3.681  17.483  0.8964  0.6246 -0.5730
 3552SOL    HW122118   3.061   3.629  17.498 -0.4555 -1.2044  0.2158
 3552SOL    HW222119   2.961   3.659  17.392 -0.3051 -0.1194 -0.1069
 3553SOL     OW22120   1.337   4.427   5.516  0.6226 -0.1683  0.3070
 3553SOL    HW122121   1.373   4.515   5.528  0.5222 -0.3179  1.7188
 3553SOL    HW222122   1.253   4.434   5.560  0.9552  3.5167  0.3724
 3554SOL     OW22123   4.475   2.177   6.818 -0.4359  0.1834 -0.1397
 3554SOL    HW122124   4.395   2.226   6.841  0.1576  0.5091  1.2041
 3554SOL    HW222125   4.473   2.099   6.873 -0.1956  0.5357  0.3666
 3555SOL     OW22126   1.005   2.428   3.380 -0.1148  0.4582  0.0739
 3555SOL    HW122127   1.009   2.516   3.417  1.0225  0.7611 -0.7265
 3555SOL    HW222128   0.913   2.406   3.392 -0.1904  0.8912  0.2754
 3556SOL     OW22129   3.680   1.746   2.665 -0.0396 -0.1478  0.2537
 3556SOL    HW122130   3.726   1.760   2.748  1.7042 -0.2550 -0.6789
 3556SOL    HW222131   3.717   1.818   2.614 -0.6909  0.8822  1.2571
 3557SOL     OW22132   4.653   1.389   8.644 -0.3209  0.2691  0.3185
 3557SOL    HW122133   4.651   1.450   8.571 -4.1335 -1.2002 -0.7573
 3557SOL    HW222134   4.721   1.331   8.610  0.2749 -0.3852  2.5925
 3558SOL     OW22135   3.820   3.722   2.069  0.0955 -0.0832 -0.0563
 3558SOL    HW122136   3.726   3.706   2.060  0.1333  0.7964 -1.8688
 3558SOL    HW222137   3.830   3.808   2.030  1.1911 -0.1813  0.0012
 3559SOL     OW22138   3.380   4.401   6.268 -0.5080  0.2717  0.3646
 3559SOL    HW122139   3.469   4.369   6.261 -1.2735 -1.5118 -1.1960
 3559SOL    HW222140   3.332   4.345   6.206  0.8352  1.0867 -1.3916
 3560SOL     OW22141   2.930   1.955   0.639  0.2431  0.2075 -0.6262
 3560SOL    HW122142   2.958   1.864   0.629  1.6389  0.6041 -0.3120
 3560SOL    HW222143   3.013   2.001   0.653 -1.6575  3.1485  1.0272
 3561SOL     OW22144   3.988   0.971   6.463 -0.0374  0.2501 -0.4116
 3561SOL    HW122145   3.916   0.943   6.520  1.7500 -3.3031  0.1030
 3561SOL    HW222146   4.053   0.972   6.533  2.4227  2.0238 -2.7526
 3562SOL     OW22147   1.339   2.680   8.361  0.5868 -0.0817 -0.4253
 3562SOL    HW122148   1.408   2.718   8.306  1.3928 -0.5527  0.2586
 3562SOL    HW222149   1.375   2.697   8.448 -1.0973  1.5379 -0.0421
 3563SOL     OW22150   3.778   4.096  13.358  0.3466  0.3767 -0.1122
 3563SOL    HW122151   3.805   4.133  13.274  0.5276 -2.1238 -1.1527
 3563SOL    HW222152   3.717   4.028  13.330 -1.2283  2.8586 -2.7329
 3564SOL     OW22153   3.379   3.063   7.436  0.6760 -0.4222 -0.1075
 3564SOL    HW122154   3.462   3.065   7.482  0.7895  0.6266 -0.3593
 3564SOL    HW222155   3.323   3.125   7.483  2.1611  1.3679 -0.7107
 3565SOL     OW22156   4.143   3.496   2.487  0.4576 -0.2097  0.1323
 3565SOL    HW122157   4.184   3.548   2.556  0.0193 -0.6752  0.7489
 3565SOL    HW222158   4.100   3.567   2.440  0.1122 -1.8914 -2.1199
 3566SOL     OW22159   3.004   2.579  12.735  0.2212 -0.6069  0.6183
 3566SOL    HW122160   2.947   2.618  12.669  2.3314  3.7257  1.3714
 3566SOL    HW222161   2.987   2.487  12.715 -0.8983 -0.2995  0.1445
 3567SOL     OW22162   0.256   1.169   7.375  0.7356 -0.6485  0.1019
 3567SOL    HW122163   0.184   1.112   7.401 -2.3901  3.0503 -0.5211
 3567SOL    HW222164   0.227   1.260   7.378  0.4583 -0.8040  2.0058
 3568SOL     OW22165   3.833   3.158   3.251  0.8420 -0.4650 -0.5083
 3568SOL    HW122166   3.869   3.169   3.163  1.4196 -0.8402 -0.3209
 3568SOL    HW222167   3.741   3.172   3.230  0.8370 -1.5569 -1.2149
 3569SOL     OW22168   2.927   2.639   9.452 -0.4292  0.5758 -0.5572
 3569SOL    HW122169   2.929   2.721   9.502  0.3111 -0.2424  0.7779
 3569SOL    HW222170   3.012   2.597   9.470 -1.8665 -1.5920  1.1809
 3570SOL     OW22171   1.660   0.118   8.474 -0.2740 -0.0514 -0.3205
 3570SOL    HW122172   1.587   0.063   8.503  0.6377 -1.6395 -1.0632
 3570SOL    HW222173   1.618   0.204   8.479  3.2699  1.6684 -0.4202
 3571SOL     OW22174   0.767   2.286   8.918  0.3618  0.2653  0.1624
 3571SOL    HW122175   0.696   2.341   8.885  0.1606 -0.0424  0.0840
 3571SOL    HW222176   0.789   2.324   9.003  0.9949  1.1834 -0.3999
 3572SOL     OW22177   0.063   0.397   1.411 -0.6156  0.3288  0.2325
 3572SOL    HW122178   0.155   0.373   1.415 -0.3150  1.0685 -2.0927
 3572SOL    HW222179   0.025   0.325   1.361 -1.5694  1.7688 -1.1067
 3573SOL     OW22180   1.963   4.054   8.527 -0.5038 -0.1118 -0.5197
 3573SOL    HW122181   1.955   3.970   8.572 -1.9944 -0.8005 -2.0849
 3573SOL    HW222182   2.033   4.096   8.577  0.1691  0.3370 -1.8563
 3574SOL     OW22183   3.236   1.560  11.600  0.4734  0.0046 -0.2903
 3574SOL    HW122184   3.248   1.603  11.685  1.4680  2.4350 -1.6607
 3574SOL    HW222185   3.318   1.587  11.558  0.7623 -1.6452 -0.7704
 3575SOL     OW22186   0.011   3.337   0.416 -0.3345 -0.8316  0.0775
 3575SOL    HW122187   0.063   3.332   0.495  2.6595 -1.6267 -1.9636
 3575SOL    HW222188   4.648   3.355   0.450  0.7167  1.8862  1.3206
 3576SOL     OW22189   3.342   0.162   2.325  0.4953 -0.1785  0.2259
 3576SOL    HW122190   3.297   0.177   2.408 -1.2450 -1.6342 -0.4513
 3576SOL    HW222191   3.354   0.067   2.327  0.8115 -0.1526 -0.4598
 3577SOL     OW22192   4.100   1.838   4.085 -0.1544 -0.6782 -0.1229
 3577SOL    HW122193   4.124   1.746   4.085 -0.7911 -0.8450 -0.6040
 3577SOL    HW222194   4.058   1.843   4.171 -0.8208 -0.2188 -0.4763
 3578SOL     OW22195   2.569   4.454   5.122 -0.5146 -0.3114 -0.3016
 3578SOL    HW122196   2.585   4.453   5.027 -0.0885 -0.5303 -0.2257
 3578SOL    HW222197   2.635   4.388   5.144  0.3634  0.4421 -0.7110
 3579SOL     OW22198   4.185   4.175   0.065 -0.3436 -0.3770  0.4454
 3579SOL    HW122199   4.169   4.247   0.126 -0.1999  0.9386 -1.0663
 3579SOL    HW222200   4.102   4.131   0.080 -1.0834  1.6501  2.2467
 3580SOL     OW22201   1.995   0.879   0.882  0.4235 -0.5556 -0.3299
 3580SOL    HW122202   1.965   0.923   0.962  0.8805 -2.6232  0.9718
 3580SOL    HW222203   1.972   0.789   0.906  1.5116 -0.5912  0.5570
 3581SOL     OW22204   4.086   1.662   4.529 -0.5006  0.7572 -0.4506
 3581SOL    HW122205   4.157   1.664   4.465 -0.4140  1.1777 -0.3419
 3581SOL    HW222206   4.023   1.700   4.469  0.6588  1.7594 -1.0361
 3582SOL     OW22207   1.818   2.346   1.312 -0.1810  0.2702  0.6039
 3582SOL    HW122208   1.789   2.389   1.232 -0.7409 -0.1391  0.5881
 3582SOL    HW222209   1.767   2.396   1.376  0.8788  0.7773  1.0571
 3583SOL     OW22210   1.269   1.790   7.258  0.9516  0.2253  0.6592
 3583SOL    HW122211   1.184   1.808   7.217  1.3986  0.9979  0.0676
 3583SOL    HW222212   1.260   1.695   7.268 -0.1684  0.2650  0.0615
 3584SOL     OW22213   1.670   1.353  13.698 -0.0949  0.6386 -0.2971
 3584SOL    HW122214   1.703   1.393  13.778 -1.3090  1.7468 -0.3346
 3584SOL    HW222215   1.575   1.342  13.709 -0.1426 -0.9429 -2.2176
 3585SOL     OW22216   1.877   4.226   2.043  0.1105  0.0351  0.1245
 3585SOL    HW122217   1.891   4.266   1.957  1.8826 -0.9208 -0.0306
 3585SOL    HW222218   1.915   4.139   2.035 -2.4426 -1.0344 -0.6102
 3586SOL     OW22219   1.090   1.211   9.425 -0.0693 -0.4222  0.7703
 3586SOL    HW122220   1.115   1.228   9.516 -2.9636  0.8596  1.3303
 3586SOL    HW222221   1.004   1.170   9.433 -0.0248 -1.3163 -3.5415
 3587SOL     OW22222   2.116   0.857   5.137  0.6970  0.0052 -0.7802
 3587SOL    HW122223   2.208   0.880   5.142  0.4768  1.0122 -1.2416
 3587SOL    HW222224   2.100   0.900   5.053 -2.8598 -1.3637 -0.8234
 3588SOL     OW22225   0.663   1.027  15.648 -0.1760 -0.1742  0.2483
 3588SOL    HW122226   0.709   1.088  15.590 -0.4559 -0.0152  0.1959
 3588SOL    HW222227   0.694   0.952  15.598  0.7786  1.3410 -1.4534
 3589SOL     OW22228   1.018   2.735   6.054 -0.2811  0.2970 -0.0654
 3589SOL    HW122229   0.965   2.659   6.031  0.6280 -0.8123  1.4517
 3589SOL    HW222230   0.997   2.729   6.147 -0.3897  0.1812 -0.0982
 3590SOL     OW22231   4.444   3.679   3.804 -0.1466 -0.2075 -0.1207
 3590SOL    HW122232   4.416   3.724   3.884 -0.3281 -2.4400  1.0681
 3590SOL    HW222233   4.454   3.747   3.738  1.2570  1.3003  1.6490
 3591SOL     OW22234   0.980   4.518  16.805  0.0014 -0.1156 -0.0835
 3591SOL    HW122235   0.913   4.453  16.785 -0.6037  0.6171 -0.4598
 3591SOL    HW222236   0.929   4.578  16.859 -0.5085 -1.4696  0.9357
 3592SOL     OW22237   3.697   3.470   8.564  0.4676  0.1009 -0.0180
 3592SOL    HW122238   3.602   3.468   8.553  0.5815  0.6840 -1.0806
 3592SOL    HW222239   3.727   3.400   8.507 -0.6127  0.0589 -0.5364
 3593SOL     OW22240   3.245   3.335   5.905 -0.0342 -0.0023 -0.6742
 3593SOL    HW122241   3.287   3.405   5.954 -1.8679  1.3383 -1.0224
 3593SOL    HW222242   3.306   3.261   5.905  0.9971  0.8497 -1.1049
 3594SOL     OW22243   3.142   4.544   3.965 -0.3497 -0.4337 -0.4665
 3594SOL    HW122244   3.110   4.475   4.024  0.5013  0.1930  0.7287
 3594SOL    HW222245   3.079   4.612   3.984 -0.2144 -0.1596 -1.0032
 3595SOL     OW22246   4.305   1.732   4.379 -0.4570 -0.2015 -0.2118
 3595SOL    HW122247   4.326   1.640   4.362  0.1764 -0.1667  0.3884
 3595SOL    HW222248   4.382   1.771   4.336  0.7164 -2.7230 -0.4095
 3596SOL     OW22249   1.629   3.919  15.881 -0.5340  0.0757  0.3805
 3596SOL    HW122250   1.571   3.991  15.903  0.7739  0.7589  1.5718
 3596SOL    HW222251   1.567   3.846  15.875 -0.2512 -0.1855  0.6021
 3597SOL     OW22252   0.431   2.499   6.102 -0.2257  0.1380  0.4184
 3597SOL    HW122253   0.473   2.581   6.129 -1.7921  1.7981 -2.2192
 3597SOL    HW222254   0.387   2.546   6.031 -0.1347 -1.5446 -0.7354
 3598SOL     OW22255   1.410   3.600  11.757 -0.0911  0.1100 -0.3823
 3598SOL    HW122256   1.339   3.594  11.821 -1.1833  1.6348 -1.4431
 3598SOL    HW222257   1.367   3.610  11.672  0.0638 -2.3032 -0.7310
 3599SOL     OW22258   2.650   1.930   2.980 -0.8603 -0.1373  0.4229
 3599SOL    HW122259   2.732   1.924   2.931 -1.3807  0.1760 -0.4894
 3599SOL    HW222260   2.586   1.886   2.923  0.5932  0.7968 -1.9396
 3600SOL     OW22261   3.828   2.569   4.378  0.1678 -0.1820 -0.0977
 3600SOL    HW122262   3.922   2.567   4.358  0.3562 -1.8468  0.9440
 3600SOL    HW222263   3.795   2.507   4.313 -1.5941  0.4691  0.1890
 3601SOL     OW22264   2.921   2.926  13.112 -0.3798  0.2567  0.1411
 3601SOL    HW122265   2.947   2.900  13.023  0.4619  0.0141  0.4518
 3601SOL    HW222266   2.880   3.011  13.096  0.4786  0.4037 -1.3446
 3602SOL     OW22267   4.673   2.539   3.608  0.4596 -0.0764  0.0484
 3602SOL    HW122268   0.031   2.492   3.604 -0.8449 -2.4170  0.1393
 3602SOL    HW222269   4.673   2.570   3.518 -1.6230  1.4014  0.5489
 3603SOL     OW22270   3.571   3.243   3.479  0.3236  0.1412 -0.2069
 3603SOL    HW122271   3.584   3.175   3.546 -1.5217  0.3378  0.3436
 3603SOL    HW222272   3.634   3.304   3.518  0.4845  1.0572 -1.9369
 3604SOL     OW22273   3.380   1.320   6.072 -0.3716  0.1374  0.2283
 3604SOL    HW122274   3.322   1.374   6.127  1.4157  0.7380  1.5411
 3604SOL    HW222275   3.342   1.313   5.984 -0.3173 -0.8059  0.2893
 3605SOL     OW22276   2.816   1.955   2.303 -0.1116  0.4789  0.0336
 3605SOL    HW122277   2.815   2.020   2.233 -1.2082 -0.4510 -0.8069
 3605SOL    HW222278   2.748   1.992   2.359 -2.2581  0.6375 -2.6952
 3606SOL     OW22279   1.201   1.601   6.284  0.0256  0.1231  0.3410
 3606SOL    HW122280   1.238   1.642   6.206 -1.5861 -0.5439 -0.7856
 3606SOL    HW222281   1.176   1.679   6.334 -2.7812 -0.2866 -0.3960
 3607SOL     OW22282   1.263   4.648   2.719  0.0568 -0.0672 -0.0683
 3607SOL    HW122283   1.179   4.611   2.748  0.8813 -1.7680  0.1693
 3607SOL    HW222284   1.272   4.595   2.640  1.2296  0.7695 -0.4891
 3608SOL     OW22285   2.735   1.669   0.448 -0.0620 -0.1425 -0.7148
 3608SOL    HW122286   2.664   1.607   0.462 -0.7872  1.1073  1.1655
 3608SOL    HW222287   2.677   1.745   0.439  1.1249  1.2054  2.9875
 3609SOL     OW22288   1.044   1.839   3.212  0.6651  0.2096 -0.6415
 3609SOL    HW122289   1.060   1.752   3.175  2.2386  0.8161 -1.4048
 3609SOL    HW222290   0.971   1.830   3.273  2.0500 -1.6903  0.7810
 3610SOL     OW22291   1.909   1.883   9.098  0.5426 -0.1768 -0.1756
 3610SOL    HW122292   1.849   1.957   9.084 -0.6786 -1.0567  0.3729
 3610SOL    HW222293   1.989   1.924   9.130 -0.6026  1.7036  0.3092
 3611SOL     OW22294   0.793   3.215   1.004 -0.3581 -0.3896  0.5220
 3611SOL    HW122295   0.726   3.213   1.073  0.6954 -1.0031  1.5402
 3611SOL    HW222296   0.868   3.208   1.064  0.5718 -3.3804 -1.0078
 3612SOL     OW22297   2.874   3.519   3.917 -0.1434 -0.3374  0.6641
 3612SOL    HW122298   2.784   3.538   3.945 -0.9470 -0.9456 -1.5328
 3612SOL    HW222299   2.933   3.579   3.963 -1.0589 -0.4320  1.9923
 3613SOL     OW22300   1.891   2.992   4.099 -0.4794 -0.2232  0.1381
 3613SOL    HW122301   1.973   3.023   4.137  0.9325 -1.0211 -2.2825
 3613SOL    HW222302   1.877   2.903   4.132 -2.8399  0.2488  0.4569
 3614SOL     OW22303   4.287   3.709   0.414 -0.5702 -0.1019  0.5470
 3614SOL    HW122304   4.368   3.688   0.461 -0.7752 -0.2993  0.8073
 3614SOL    HW222305   4.327   3.720   0.327 -0.4838 -0.8108  0.4944
 3615SOL     OW22306   4.114   0.201   6.305 -0.0498  0.0423  0.2133
 3615SOL    HW122307   4.186   0.265   6.309  2.6710 -3.1298  1.6946
 3615SOL    HW222308   4.143   0.142   6.375 -0.9165 -1.0232 -0.3266
 3616SOL     OW22309   2.538   4.477   1.491 -0.0288 -0.2683 -0.0669
 3616SOL    HW122310   2.553   4.461   1.584 -0.8084  0.9933  0.2860
 3616SOL    HW222311   2.458   4.426   1.483 -0.5256  0.2756  1.3879
 3617SOL     OW22312   2.953   2.477   3.776  0.1223 -0.1403 -0.2623
 3617SOL    HW122313   2.956   2.448   3.868 -2.5272 -1.5278 -0.6086
 3617SOL    HW222314   2.865   2.514   3.770 -0.6341 -1.8756  0.0278
 3618SOL     OW22315   3.844   4.660  13.721 -0.7055  0.2233 -0.1842
 3618SOL    HW122316   3.869   4.635  13.632  1.2137 -0.7361  0.6433
 3618SOL    HW222317   3.749   4.655  13.714 -0.6010  2.0975 -2.9666
 3619SOL     OW22318   3.892   1.783   6.180  0.1149  0.1741  0.4068
 3619SOL    HW122319   3.812   1.759   6.132 -0.1481  0.4056  0.7349
 3619SOL    HW222320   3.893   1.715   6.247  0.2763 -0.0683  0.1565
 3620SOL     OW22321   3.655   2.405  14.212 -0.4754 -0.1232  0.5911
 3620SOL    HW122322   3.590   2.449  14.266 -1.7673 -3.2118  1.5495
 3620SOL    HW222323   3.685   2.333  14.269 -0.8316 -1.1117 -0.4613
 3621SOL     OW22324   1.253   0.647  11.502  0.2423  0.0391 -0.0763
 3621SOL    HW122325   1.274   0.736  11.473 -2.0379  0.1829 -1.3392
 3621SOL    HW222326   1.340   0.609  11.503 -0.7682 -2.2085  1.7969
 3622SOL     OW22327   1.423   2.405   5.513  0.4134  0.0174  0.0436
 3622SOL    HW122328   1.470   2.328   5.545  0.5096  0.2459  0.4525
 3622SOL    HW222329   1.339   2.370   5.485  0.4799 -1.2554  1.4552
 3623SOL     OW22330   0.703   4.408   1.041  0.1811  0.6277  0.5690
 3623SOL    HW122331   0.727   4.483   0.986 -1.2491  1.1196  0.6119
 3623SOL    HW222332   0.610   4.429   1.043  0.4323  1.8460 -0.4692
 3624SOL     OW22333   0.794   3.774   7.985 -0.1852  0.6122  0.0321
 3624SOL    HW122334   0.771   3.682   7.995 -3.0212  1.2074 -1.0321
 3624SOL    HW222335   0.876   3.779   8.036  0.1291 -2.1046 -0.2332
 3625SOL     OW22336   4.494   3.788   4.939  0.0266  0.0502  0.4108
 3625SOL    HW122337   4.438   3.782   4.861  0.3607 -2.0202  0.3351
 3625SOL    HW222338   4.461   3.864   4.987  0.3705  0.1263  0.5285
 3626SOL     OW22339   0.126   3.777   8.138  0.3197  0.1756 -0.3536
 3626SOL    HW122340   0.124   3.873   8.136 -1.9857  0.0947 -1.7936
 3626SOL    HW222341   0.210   3.773   8.183 -0.1295  1.2194  0.5863
 3627SOL     OW22342   4.265   1.692  10.307  0.1847  0.1209  0.3009
 3627SOL    HW122343   4.301   1.772  10.345 -1.9381  1.0749  0.2565
 3627SOL    HW222344   4.225   1.640  10.376 -1.6110  0.6390 -0.3493
 3628SOL     OW22345   2.711   3.773   2.777 -0.3032 -0.1160 -0.3706
 3628SOL    HW122346   2.698   3.763   2.871 -0.8750  0.3897 -0.3971
 3628SOL    HW222347   2.766   3.851   2.785 -0.1448 -0.3832  1.1429
 3629SOL     OW22348   4.717   3.240   3.822  0.2495 -0.1019 -0.1683
 3629SOL    HW122349   0.049   3.281   3.757  0.0470 -0.7325 -0.7369
 3629SOL    HW222350   0.024   3.277   3.904  0.0880  0.1497 -0.2184
 3630SOL     OW22351   4.533   0.575   7.816  0.0497  0.4357 -0.6165
 3630SOL    HW122352   4.616   0.598   7.857 -1.1890 -0.0166  2.1593
 3630SOL    HW222353   4.496   0.658   7.787  1.3450  0.9602 -0.7485
 3631SOL     OW22354   0.563   4.202   3.214  0.7199  0.1353 -0.4231
 3631SOL    HW122355   0.656   4.226   3.215  0.9508 -0.7467 -0.5649
 3631SOL    HW222356   0.536   4.247   3.294  3.2618 -0.8274  0.9930
 3632SOL     OW22357   4.640   4.015   1.129 -0.1364 -0.1089  0.5291
 3632SOL    HW122358   4.667   3.973   1.047  1.2335  1.2913  0.2648
 3632SOL    HW222359   4.718   4.053   1.169  0.1001 -0.2463  0.1989
 3633SOL     OW22360   3.624   3.326   6.515 -1.0142  0.0267 -0.4245
 3633SOL    HW122361   3.544   3.356   6.557 -0.4044 -0.2520  0.9212
 3633SOL    HW222362   3.592   3.240   6.486  2.6248 -1.5370  0.1032
 3634SOL     OW22363   2.215   4.275  10.661 -0.7108 -0.1366 -0.3317
 3634SOL    HW122364   2.303   4.313  10.652  0.5685 -2.5816  2.0313
 3634SOL    HW222365   2.193   4.277  10.568 -0.3591  1.3286 -0.3885
 3635SOL     OW22366   0.908   2.292   7.552  0.2494  0.0429 -0.5309
 3635SOL    HW122367   0.833   2.233   7.547  0.5927 -0.3970 -0.4266
 3635SOL    HW222368   0.968   2.245   7.495  1.0084  1.6621 -1.0673
 3636SOL     OW22369   3.314   3.045   1.232  0.1234  0.4631 -0.1109
 3636SOL    HW122370   3.401   3.013   1.207 -0.5621  0.2368 -2.1955
 3636SOL    HW222371   3.296   3.103   1.158  0.8202  2.6736  1.4587
 3637SOL     OW22372   0.799   1.173   6.993  0.7458  0.3994  0.1706
 3637SOL    HW122373   0.720   1.174   7.046  0.4374  1.7227 -0.3074
 3637SOL    HW222374   0.828   1.264   6.988 -0.0556  0.5996 -0.8391
 3638SOL     OW22375   3.429   0.169   0.496 -0.6853  0.5100  0.4511
 3638SOL    HW122376   3.431   0.261   0.520  1.2678  0.2470  1.2691
 3638SOL    HW222377   3.505   0.171   0.439 -1.9146 -0.2788 -1.2228
 3639SOL     OW22378   0.434   3.907   5.785 -0.4448 -0.2067 -0.1718
 3639SOL    HW122379   0.359   3.949   5.829 -1.3226 -2.4840  0.5088
 3639SOL    HW222380   0.444   3.966   5.710 -0.3934  0.8421  0.6471
 3640SOL     OW22381   1.532   1.158  14.472  0.3748  0.0110  0.1451
 3640SOL    HW122382   1.547   1.241  14.427 -1.2180 -0.0162 -0.4464
 3640SOL    HW222383   1.485   1.108  14.405  0.3190  1.3388 -0.8045
 3641SOL     OW22384   1.588   2.321  11.215 -0.0514 -0.6826  0.3057
 3641SOL    HW122385   1.557   2.295  11.301 -1.5352  0.5116  0.1240
 3641SOL    HW222386   1.616   2.412  11.222  2.2548 -1.4272  0.6887
 3642SOL     OW22387   4.072   1.918   7.787  0.2864 -0.1630 -0.8528
 3642SOL    HW122388   4.138   1.852   7.767  0.4646  0.3882 -2.0416
 3642SOL    HW222389   4.128   1.982   7.832 -2.6741  0.8813  1.3836
 3643SOL     OW22390   0.269   3.837  12.706 -0.0522 -0.4649 -0.8540
 3643SOL    HW122391   0.345   3.779  12.711  0.3065 -0.0051 -0.9684
 3643SOL    HW222392   0.202   3.778  12.673 -1.9770  2.5913 -2.4393
 3644SOL     OW22393   4.209   1.480   2.551 -0.2441  0.0717  0.1079
 3644SOL    HW122394   4.215   1.390   2.520  2.4533  0.1175  0.5023
 3644SOL    HW222395   4.189   1.526   2.469 -0.6759 -1.4426 -0.6237
 3645SOL     OW22396   0.277   0.099   9.443 -0.6587 -0.4609  0.0663
 3645SOL    HW122397   0.288   0.017   9.492 -0.5431 -0.9271 -0.7346
 3645SOL    HW222398   0.236   0.151   9.513 -2.5216 -2.1545  0.2707
 3646SOL     OW22399   4.353   0.614  12.019 -0.0649 -0.1272 -0.2530
 3646SOL    HW122400   4.440   0.654  12.010 -1.1676  2.2502 -0.3141
 3646SOL    HW222401   4.341   0.591  11.927 -0.1436  0.5657 -0.4162
 3647SOL     OW22402   4.264   1.279  16.529  0.5827 -0.3049 -0.1378
 3647SOL    HW122403   4.338   1.304  16.474  1.3146 -1.1236  0.4582
 3647SOL    HW222404   4.272   1.338  16.604  0.5667 -0.0641 -0.3277
 3648SOL     OW22405   0.297   2.816  14.747  0.2818  0.1746  0.0356
 3648SOL    HW122406   0.260   2.768  14.674  1.0826 -0.2899 -0.0607
 3648SOL    HW222407   0.364   2.755  14.778 -0.0104 -0.8815 -1.4509
 3649SOL     OW22408   3.708   3.803   7.799  0.3991 -0.5039 -0.0915
 3649SOL    HW122409   3.737   3.714   7.822 -0.8702 -1.5973 -2.6390
 3649SOL    HW222410   3.614   3.792   7.812  0.0461  1.7402 -0.7006
 3650SOL     OW22411   2.031   2.384   1.047  0.7181  0.2965 -0.0255
 3650SOL    HW122412   1.941   2.415   1.034  0.2087 -1.7350 -1.2845
 3650SOL    HW222413   2.039   2.424   1.134  0.4546  1.3850 -0.5048
 3651SOL     OW22414   4.196   2.522   5.399  0.1121  0.4338 -0.2336
 3651SOL    HW122415   4.184   2.466   5.475 -0.0222 -0.1752 -0.7082
 3651SOL    HW222416   4.291   2.528   5.406  0.3802 -1.8723 -1.9018
 3652SOL     OW22417   0.473   1.287   6.792  0.2298  0.6164 -0.4722
 3652SOL    HW122418   0.379   1.304   6.799 -0.4478 -2.0660 -2.9986
 3652SOL    HW222419   0.514   1.357   6.843  0.2477  0.9606 -0.9649
 3653SOL     OW22420   3.952   1.304   5.214  0.6732  0.3103 -0.3437
 3653SOL    HW122421   3.970   1.396   5.234  0.7966 -0.0640  1.3032
 3653SOL    HW222422   4.023   1.280   5.154  1.2746 -0.8106  0.8095
 3654SOL     OW22423   3.728   1.347   9.524  0.3088 -0.7728  0.1657
 3654SOL    HW122424   3.770   1.384   9.446  1.7579 -0.8664  0.9217
 3654SOL    HW222425   3.634   1.352   9.502  0.4221  1.0392  0.0924
 3655SOL     OW22426   3.954   4.476  13.487  0.1876 -0.3864  0.3084
 3655SOL    HW122427   3.988   4.425  13.560 -1.8959 -1.8793  0.2275
 3655SOL    HW222428   3.939   4.413  13.417 -0.4146  0.4143 -0.2852
 3656SOL     OW22429   3.419   0.715   8.413  0.1119  0.2622  0.1582
 3656SOL    HW122430   3.449   0.625   8.396 -0.2741  0.0874  0.3962
 3656SOL    HW222431   3.353   0.715   8.344  0.4216  0.6276 -0.1365
 3657SOL     OW22432   0.156   3.676  12.311 -0.0443  0.2640  0.4846
 3657SOL    HW122433   0.124   3.644  12.396 -0.8019 -0.6983 -0.1643
 3657SOL    HW222434   0.117   3.764  12.313  0.1477  0.2517  4.7044
 3658SOL     OW22435   3.643   3.158   6.152  0.4714  0.0883 -0.5321
 3658SOL    HW122436   3.689   3.079   6.124 -1.0934 -1.9483  2.6767
 3658SOL    HW222437   3.611   3.141   6.241 -0.5201  0.1842 -0.8744
 3659SOL     OW22438   0.061   4.044   6.471 -0.1562 -0.2717  0.6646
 3659SOL    HW122439   4.698   4.036   6.507 -0.1153  1.2864  1.0756
 3659SOL    HW222440   0.107   4.081   6.547  0.1875 -0.3723  0.5076
 3660SOL     OW22441   3.650   4.626   7.673  0.3670 -0.0871 -0.4095
 3660SOL    HW122442   3.558   4.621   7.698  0.2474 -0.3681 -0.8963
 3660SOL    HW222443   3.655   4.679   7.594  0.2665 -0.5074 -0.6964
 3661SOL     OW22444   4.672   2.353   4.114  0.3709  0.5013  0.1284
 3661SOL    HW122445   4.707   2.335   4.201  1.3584  0.4410 -0.2919
 3661SOL    HW222446   4.609   2.423   4.134 -0.2207  0.0110  0.0030
 3662SOL     OW22447   3.990   4.407   7.230 -0.3693 -0.2410 -0.0066
 3662SOL    HW122448   3.945   4.491   7.242 -1.7760 -0.8385 -1.2361
 3662SOL    HW222449   3.991   4.409   7.135 -0.4757  3.3062  0.0542
 3663SOL     OW22450   2.474   2.705  13.809 -0.2197 -0.1245 -0.3995
 3663SOL    HW122451   2.538   2.636  13.790 -1.3441 -0.9866 -1.0557
 3663SOL    HW222452   2.523   2.766  13.864 -1.0047  1.2204 -1.1938
 3664SOL     OW22453   3.077   4.445  10.310  0.1497 -0.4139 -0.5314
 3664SOL    HW122454   3.051   4.355  10.331 -0.2866  0.0301  0.8139
 3664SOL    HW222455   3.060   4.488  10.394 -0.0082  1.2860 -1.4311
 3665SOL     OW22456   2.582   0.053   2.533 -0.2796  1.0211  0.0977
 3665SOL    HW122457   2.577   0.053   2.437 -0.1976  0.2262  0.0934
 3665SOL    HW222458   2.616   0.141   2.547 -0.3335  1.3272 -1.7461
 3666SOL     OW22459   2.083   3.536   5.062  0.1927 -0.1534  0.3378
 3666SOL    HW122460   2.135   3.513   5.139 -0.1251  0.2985  0.6821
 3666SOL    HW222461   2.024   3.602   5.098  0.3699 -0.6972  1.6063
 3667SOL     OW22462   2.121   1.034   4.919  0.2076 -0.5057  0.2259
 3667SOL    HW122463   2.120   1.130   4.917  0.8273 -0.5173 -0.5426
 3667SOL    HW222464   2.209   1.018   4.885 -0.7716  1.4511 -3.1825
 3668SOL     OW22465   2.088   1.833  12.935  0.1041  0.4641  0.5984
 3668SOL    HW122466   2.097   1.864  13.025  2.6795 -1.0347  0.8638
 3668SOL    HW222467   2.056   1.745  12.951 -1.9942  0.8367 -1.5456
 3669SOL     OW22468   4.326   2.045  10.620  0.4077  0.5327 -0.1092
 3669SOL    HW122469   4.345   2.027  10.712  0.3411 -0.4621 -0.2886
 3669SOL    HW222470   4.313   1.961  10.577  1.6478  0.4134 -0.2360
 3670SOL     OW22471   0.253   3.114   7.513  0.1864  0.0824 -0.3319
 3670SOL    HW122472   0.193   3.183   7.485 -0.9186 -0.5948  0.3603
 3670SOL    HW222473   0.334   3.155   7.483 -0.8595  3.1801  1.0721
 3671SOL     OW22474   4.052   3.895   1.075  0.3258 -0.2081 -0.4663
 3671SOL    HW122475   4.130   3.920   1.125 -0.0542 -2.4368  1.2602
 3671SOL    HW222476   4.064   3.800   1.067  1.4208  0.0195 -1.4808
 3672SOL     OW22477   2.998   2.463   1.961 -0.2144  0.0401  0.6338
 3672SOL    HW122478   3.059   2.528   1.925 -0.5776 -0.2888 -0.5678
 3672SOL    HW222479   2.948   2.445   1.882 -0.3485 -0.6402  0.8755
 3673SOL     OW22480   3.325   2.827  10.189 -0.2100  0.2417  0.0912
 3673SOL    HW122481   3.285   2.879  10.259 -1.1599 -1.0135  0.4796
 3673SOL    HW222482   3.334   2.744  10.237  4.1335  0.0475 -1.0171
 3674SOL     OW22483   2.888   0.442  10.659  0.0704 -0.0082 -0.4457
 3674SOL    HW122484   2.924   0.480  10.579  0.1572  0.8718  0.0130
 3674SOL    HW222485   2.958   0.385  10.692 -1.3297 -1.6833 -0.3398
 3675SOL     OW22486   2.514   1.854   0.442 -0.3262  0.2219 -0.2970
 3675SOL    HW122487   2.452   1.906   0.493  0.4365 -1.2465  2.1443
 3675SOL    HW222488   2.530   1.908   0.365 -0.8855 -1.4027 -1.5510
 3676SOL     OW22489   1.840   4.616  14.235  0.5835  0.0758 -0.6072
 3676SOL    HW122490   1.927   4.649  14.259 -0.7685  2.7324  0.6439
 3676SOL    HW222491   1.797   4.699  14.215  0.9344  0.8106  1.7286
 3677SOL     OW22492   4.299   0.415   4.357 -0.4060  0.5809 -0.2086
 3677SOL    HW122493   4.236   0.345   4.372  0.3084 -0.1781 -0.7413
 3677SOL    HW222494   4.328   0.449   4.442  1.4960  0.3995 -0.7900
 3678SOL     OW22495   1.302   3.175   8.712 -0.2844  0.7688  0.2994
 3678SOL    HW122496   1.274   3.084   8.715  1.3000  0.2888  0.6421
 3678SOL    HW222497   1.267   3.207   8.795  2.8765  2.2035  1.0626
 3679SOL     OW22498   2.011   1.294   4.719 -0.5181  0.2026 -0.2565
 3679SOL    HW122499   2.039   1.281   4.629  0.2115 -2.8396  0.3868
 3679SOL    HW222500   1.920   1.270   4.705 -0.7168 -0.2365  1.7429
 3680SOL     OW22501   1.687   1.341  14.157  0.1041 -0.4173  0.1976
 3680SOL    HW122502   1.668   1.271  14.094 -1.5022  0.9646 -0.8451
 3680SOL    HW222503   1.775   1.363  14.126 -0.6402 -0.7877 -2.1697
 3681SOL     OW22504   0.880   0.569   0.281 -0.7356  0.1459  0.4599
 3681SOL    HW122505   0.910   0.627   0.352 -0.0600  0.4613 -0.0856
 3681SOL    HW222506   0.864   0.483   0.320  0.3110 -1.6630 -3.2033
 3682SOL     OW22507   0.313   3.851   3.897 -0.2703 -0.4785 -0.0026
 3682SOL    HW122508   0.383   3.873   3.837 -1.3687 -1.9090 -1.8123
 3682SOL    HW222509   0.241   3.848   3.834  0.3573 -0.5101 -0.7172
 3683SOL     OW22510   1.563   1.934   8.222 -0.5124  0.1461 -0.0110
 3683SOL    HW122511   1.595   1.860   8.170 -1.4356 -0.9690  1.0187
 3683SOL    HW222512   1.536   1.883   8.298  0.3586  0.3849  0.4595
 3684SOL     OW22513   0.946   0.126  16.383  0.6544  0.4564  0.8934
 3684SOL    HW122514   1.014   0.179  16.343 -0.6590  0.4229 -1.3573
 3684SOL    HW222515   0.991   0.088  16.459  1.6316 -0.9086 -0.3563
 3685SOL     OW22516   3.315   0.233   9.293  0.2820  0.6694  0.2129
 3685SOL    HW122517   3.405   0.228   9.323 -0.0777  0.4664  1.2643
 3685SOL    HW222518   3.325   0.199   9.204  0.4575  1.0072  0.1043
 3686SOL     OW22519   3.839   2.109  17.113  0.3763 -0.6997  0.2758
 3686SOL    HW122520   3.759   2.086  17.065  0.3890 -0.0544 -0.0598
 3686SOL    HW222521   3.908   2.054  17.075 -0.1592 -0.8793 -0.4502
 3687SOL     OW22522   2.216   1.310   1.808  0.1229 -0.5145  0.0033
 3687SOL    HW122523   2.240   1.373   1.740  1.9342 -2.0557 -0.7911
 3687SOL    HW222524   2.157   1.257   1.754  3.0513 -1.2096 -2.5268
 3688SOL     OW22525   1.745   3.008   4.748  0.6004  0.3554  0.8106
 3688SOL    HW122526   1.715   3.099   4.742 -0.7073 -0.1906 -1.0142
 3688SOL    HW222527   1.663   2.963   4.770 -0.5309  0.9279 -2.1808
 3689SOL     OW22528   0.326   2.201  10.518 -0.4637 -0.2867  0.1197
 3689SOL    HW122529   0.384   2.264  10.476 -0.8555  0.1316  0.2082
 3689SOL    HW222530   0.311   2.141  10.445 -0.4428  0.6135 -0.6287
 3690SOL     OW22531   1.623   3.286  12.126  0.7216 -0.4150 -0.2508
 3690SOL    HW122532   1.639   3.356  12.063 -0.0393  0.3859  0.4516
 3690SOL    HW222533   1.613   3.204  12.077  1.3585 -0.1760 -0.7761
 3691SOL     OW22534   2.792   0.065   5.484 -0.6435 -0.2351 -0.5335
 3691SOL    HW122535   2.783   4.715   5.424 -0.0551  0.2047 -1.1670
 3691SOL    HW222536   2.879   0.100   5.468  0.2816 -2.0500  0.5357
 3692SOL     OW22537   4.253   4.072   7.281 -0.0575 -0.1076 -0.2372
 3692SOL    HW122538   4.241   4.037   7.369  0.9250  3.7439  1.4619
 3692SOL    HW222539   4.283   3.992   7.238  1.5930 -0.8293  2.2921
 3693SOL     OW22540   0.975   1.656  12.454  0.0863  0.1647 -0.0168
 3693SOL    HW122541   0.893   1.674  12.408  0.3064  4.0443  1.0933
 3693SOL    HW222542   0.956   1.697  12.539 -0.8763 -0.2718 -0.0209
 3694SOL     OW22543   0.459   1.412   7.297 -0.5900  0.4228  0.3042
 3694SOL    HW122544   0.484   1.381   7.210  0.0311 -0.1035  0.6624
 3694SOL    HW222545   0.371   1.441   7.275 -0.6771 -0.2681 -0.2611
 3695SOL     OW22546   0.533   2.321   7.506 -0.0798  0.0854  0.4439
 3695SOL    HW122547   0.543   2.279   7.591 -1.3669 -0.3308  0.3868
 3695SOL    HW222548   0.536   2.413   7.533  1.2814 -0.0481  0.7360
 3696SOL     OW22549   0.288   1.528  16.027  0.1880  0.2545 -0.0581
 3696SOL    HW122550   0.197   1.542  16.003 -0.3899 -0.1840  1.9058
 3696SOL    HW222551   0.289   1.438  16.060 -0.4415  0.5379  0.7227
 3697SOL     OW22552   4.149   1.986   1.615  0.2861 -0.7451 -0.2277
 3697SOL    HW122553   4.196   1.935   1.682  0.9712  0.0183 -0.1210
 3697SOL    HW222554   4.095   1.914   1.583  1.2328 -2.4696  2.0201
 3698SOL     OW22555   3.816   3.852   7.350  0.2919 -0.4192 -0.4159
 3698SOL    HW122556   3.823   3.871   7.444 -0.3257  1.8998 -0.8276
 3698SOL    HW222557   3.861   3.768   7.347 -2.1591 -1.7248 -0.5032
 3699SOL     OW22558   2.154   2.914  17.610  0.4514 -0.0893 -0.1755
 3699SOL    HW122559   2.123   2.825  17.591 -1.1301  0.7261 -1.4072
 3699SOL    HW222560   2.236   2.921  17.562 -0.3233  0.8128 -1.3639
 3700SOL     OW22561   1.348   3.157   1.369 -0.6545  0.4454 -0.5962
 3700SOL    HW122562   1.369   3.195   1.283  0.9308 -2.3746 -1.4584
 3700SOL    HW222563   1.413   3.179   1.435 -0.4515  0.5047 -0.8145
 3701SOL     OW22564   0.769   1.306   1.380  0.0951 -0.0844  0.3122
 3701SOL    HW122565   0.845   1.283   1.326 -1.5946 -1.1556 -1.5895
 3701SOL    HW222566   0.701   1.242   1.358 -1.7537  2.0311 -0.0957
 3702SOL     OW22567   1.525   4.575   2.569  0.0164 -1.0681 -0.4784
 3702SOL    HW122568   1.442   4.535   2.543 -3.5052  3.2572  4.0250
 3702SOL    HW222569   1.502   4.668   2.566  0.8273 -0.8764 -0.7605
 3703SOL     OW22570   4.480   3.246   9.192  0.3097 -0.4933 -0.5423
 3703SOL    HW122571   4.527   3.195   9.257  1.5511 -1.1338 -1.9390
 3703SOL    HW222572   4.473   3.334   9.229 -0.8083  0.5629 -3.2331
 3704SOL     OW22573   3.079   2.206   5.641  0.1387 -0.1933 -0.1357
 3704SOL    HW122574   3.042   2.267   5.705  1.2308  1.0472 -0.6721
 3704SOL    HW222575   3.138   2.268   5.597  0.9763  0.0051  1.2462
 3705SOL     OW22576   0.702   1.757   8.187  0.5170 -0.4575  0.7511
 3705SOL    HW122577   0.745   1.818   8.247  1.1606 -0.0494 -0.1292
 3705SOL    HW222578   0.757   1.762   8.110  1.4695  1.8285  1.5962
 3706SOL     OW22579   4.218   0.002   1.017 -0.4333 -0.9772  0.1721
 3706SOL    HW122580   4.282   0.047   1.072  0.0460 -0.5275 -0.7742
 3706SOL    HW222581   4.161   4.693   1.087  0.2175 -1.1400  0.6275
 3707SOL     OW22582   3.875   1.653  15.185  0.0817 -0.5825  0.0416
 3707SOL    HW122583   3.799   1.671  15.129 -0.1732 -2.7921 -0.3361
 3707SOL    HW222584   3.837   1.667  15.272 -0.1291  0.6707 -0.2629
 3708SOL     OW22585   1.584   3.310  11.513 -0.0591  0.0112  0.2390
 3708SOL    HW122586   1.638   3.386  11.490  0.8853 -0.6312  0.3196
 3708SOL    HW222587   1.635   3.249  11.459  0.1167  0.7225 -0.3938
 3709SOL     OW22588   4.620   2.767  10.792  0.2877  0.9731  0.4732
 3709SOL    HW122589   4.643   2.857  10.770  1.9200  0.6540  0.8473
 3709SOL    HW222590   4.689   2.707  10.762 -0.2194  0.5629  0.1236
 3710SOL     OW22591   4.343   1.412   5.673 -0.4046 -0.1908 -0.5895
 3710SOL    HW122592   4.269   1.380   5.724  0.1714  0.4921  0.6788
 3710SOL    HW222593   4.317   1.368   5.592 -0.9820  0.4413 -0.7486
 3711SOL     OW22594   2.783   2.867   6.414  0.0881  0.3446 -0.0727
 3711SOL    HW122595   2.847   2.934   6.390  2.8539 -1.3578  2.5674
 3711SOL    HW222596   2.807   2.859   6.506 -0.0499  1.8041  0.0877
 3712SOL     OW22597   0.976   3.594   8.406 -0.0647  0.1175  0.6300
 3712SOL    HW122598   0.993   3.688   8.415 -1.2770  0.2357  1.5788
 3712SOL    HW222599   1.060   3.563   8.371 -0.4814  0.1756 -0.4100
 3713SOL     OW22600   1.549   2.391   8.368 -0.1394 -0.0444  1.0631
 3713SOL    HW122601   1.567   2.434   8.451  4.0395 -0.8024  0.5275
 3713SOL    HW222602   1.544   2.302   8.403 -1.7931  0.2174  1.5288
 3714SOL     OW22603   0.993   3.774   3.216 -0.5144  0.6426  0.3188
 3714SOL    HW122604   0.902   3.754   3.199 -0.4187 -0.4812  1.1432
 3714SOL    HW222605   1.038   3.734   3.142 -1.5730 -0.2432  0.1635
 3715SOL     OW22606   0.589   3.081   9.339 -0.0558  0.6180 -0.2729
 3715SOL    HW122607   0.626   3.053   9.422 -1.2051 -0.0232  0.0152
 3715SOL    HW222608   0.625   3.018   9.277  0.6291  1.6763 -0.9616
 3716SOL     OW22609   3.785   2.353  17.310 -0.1692  0.3542 -0.1926
 3716SOL    HW122610   3.715   2.310  17.262  0.8180 -0.7321 -0.6585
 3716SOL    HW222611   3.860   2.345  17.251 -0.6358 -0.1560 -0.7067
 3717SOL     OW22612   2.476   4.224  10.199 -0.6202 -0.2171  0.1504
 3717SOL    HW122613   2.517   4.159  10.256 -0.9620  1.0621  1.8391
 3717SOL    HW222614   2.383   4.206  10.214 -0.7487 -0.7872 -1.3583
 3718SOL     OW22615   0.070   1.169  10.759 -0.2241  0.5817 -0.5082
 3718SOL    HW122616   0.076   1.249  10.812  2.9329 -0.0099  0.0632
 3718SOL    HW222617   0.153   1.121  10.770 -1.0044 -0.4159  1.0051
 3719SOL     OW22618   2.603   1.491   4.200  0.4971  0.4244  0.1939
 3719SOL    HW122619   2.523   1.520   4.156  0.2316  1.4058  1.3262
 3719SOL    HW222620   2.586   1.533   4.284 -0.8233 -1.1012  0.6829
 3720SOL     OW22621   2.169   0.445   3.003  0.3477  0.0887  0.2525
 3720SOL    HW122622   2.218   0.376   3.049 -2.0798 -0.4683  2.0011
 3720SOL    HW222623   2.080   0.410   3.000 -0.3882  1.8567  1.3413
 3721SOL     OW22624   1.740   3.859   8.427  0.2676 -0.0162 -0.2217
 3721SOL    HW122625   1.705   3.769   8.429 -2.6349  1.0996 -0.1539
 3721SOL    HW222626   1.833   3.840   8.429  0.0171 -1.2831 -0.7036
 3722SOL     OW22627   2.689   4.184   5.649 -0.1439  0.0221 -0.7632
 3722SOL    HW122628   2.730   4.100   5.671 -1.5252 -0.1599  1.1021
 3722SOL    HW222629   2.605   4.145   5.626 -0.5257  0.1454  0.4527
 3723SOL     OW22630   1.043   3.033   8.488  0.2258  0.0981 -0.5716
 3723SOL    HW122631   0.967   3.004   8.438  1.7043  0.7280 -3.1872
 3723SOL    HW222632   1.069   3.119   8.453  0.9843 -0.3177 -1.0283
 3724SOL     OW22633   3.335   4.279   4.562  0.7193 -0.0421  0.4573
 3724SOL    HW122634   3.291   4.364   4.563  0.5515 -0.1546  3.0410
 3724SOL    HW222635   3.386   4.298   4.483  0.5071  0.7711  0.5120
 3725SOL     OW22636   1.208   3.629  11.529  0.1524  0.1817 -0.0142
 3725SOL    HW122637   1.141   3.687  11.568 -0.5548  1.3470 -2.9949
 3725SOL    HW222638   1.152   3.574  11.476 -1.2112  4.1278 -2.6946
 3726SOL     OW22639   1.654   1.878   0.414  0.4548 -0.1148  0.5726
 3726SOL    HW122640   1.569   1.923   0.417  1.2469  1.2936  1.7776
 3726SOL    HW222641   1.699   1.933   0.349 -0.2526 -1.3580 -0.9916
 3727SOL     OW22642   1.912   4.470  13.434  0.0081  0.0444 -0.2475
 3727SOL    HW122643   1.823   4.436  13.425  0.7537 -2.3832  1.5069
 3727SOL    HW222644   1.925   4.505  13.345  0.2169 -1.3544 -0.7567
 3728SOL     OW22645   0.306   1.099   5.524 -0.1530  0.4845 -0.1972
 3728SOL    HW122646   0.383   1.110   5.580  0.3995 -0.5445 -0.7599
 3728SOL    HW222647   0.261   1.181   5.546 -0.2568  0.4488 -0.2756
 3729SOL     OW22648   1.303   3.477   7.138 -0.7158  0.3407 -0.0749
 3729SOL    HW122649   1.293   3.492   7.044 -0.9344 -0.5919 -0.2026
 3729SOL    HW222650   1.245   3.543   7.177  0.5107  1.5620 -0.3439
 3730SOL     OW22651   1.112   3.473   0.868  0.0227  0.3634  0.7347
 3730SOL    HW122652   1.157   3.556   0.884 -1.2132  1.2647 -0.4559
 3730SOL    HW222653   1.145   3.452   0.780 -1.2631  0.0611  0.3190
 3731SOL     OW22654   2.491   1.895   1.010  0.2199  0.4088 -0.6110
 3731SOL    HW122655   2.556   1.947   1.057  0.4507  1.7712 -2.4214
 3731SOL    HW222656   2.495   1.936   0.923  2.2079  0.9509 -0.2611
 3732SOL     OW22657   3.724   4.577   7.034  0.5886  0.0969 -0.0996
 3732SOL    HW122658   3.639   4.547   7.065  0.9322 -0.3730  0.3756
 3732SOL    HW222659   3.772   4.615   7.108  1.2590  1.0991 -1.0485
 3733SOL     OW22660   1.965   2.735  11.642 -0.1250  0.2648  0.3795
 3733SOL    HW122661   2.044   2.717  11.591 -1.6948  0.1380 -1.9929
 3733SOL    HW222662   1.906   2.682  11.588 -0.5272  2.4141 -1.3108
 3734SOL     OW22663   0.170   0.146   2.901 -0.0602 -0.0451 -0.2423
 3734SOL    HW122664   0.191   0.072   2.843 -3.5855 -0.1595 -1.4007
 3734SOL    HW222665   0.145   0.216   2.840  0.8374 -0.2395 -0.8275
 3735SOL     OW22666   4.120   3.046   9.501  0.4766 -0.4094  0.6441
 3735SOL    HW122667   4.131   2.968   9.447  0.1920 -1.1851  1.7076
 3735SOL    HW222668   4.207   3.085   9.498 -0.0119  0.6487  0.0894
 3736SOL     OW22669   3.209   1.658   7.540  0.3915  0.5580 -0.7297
 3736SOL    HW122670   3.212   1.753   7.524  1.3849  0.7075  0.3357
 3736SOL    HW222671   3.298   1.630   7.520  0.7205  0.6844  0.5938
 3737SOL     OW22672   4.050   1.670  15.959  0.2341  0.8556 -0.3150
 3737SOL    HW122673   3.983   1.643  15.896  0.1351  0.4523 -0.0289
 3737SOL    HW222674   4.129   1.638  15.916 -0.1427 -0.7839  0.2237
 3738SOL     OW22675   1.254   0.906   3.347 -0.2805 -1.3027 -0.1200
 3738SOL    HW122676   1.268   0.900   3.252  1.1763  1.9325 -0.1216
 3738SOL    HW222677   1.175   0.960   3.361  1.0793  0.8399 -0.6198
 3739SOL     OW22678   2.889   2.728   1.518  0.0692  0.0976 -0.4417
 3739SOL    HW122679   2.874   2.683   1.436  1.7132  0.4717 -0.9547
 3739SOL    HW222680   2.820   2.793   1.505  0.8190  0.9044 -0.4359
 3740SOL     OW22681   0.791   4.632   4.435  0.1152  0.2742 -0.1255
 3740SOL    HW122682   0.847   4.569   4.479 -1.0361  0.3882  1.5183
 3740SOL    HW222683   0.709   4.586   4.418  0.0223  0.7840 -1.0525
 3741SOL     OW22684   3.746   3.330   9.544 -0.3598 -0.0677 -0.0035
 3741SOL    HW122685   3.803   3.268   9.589  2.1119 -0.0575 -3.1055
 3741SOL    HW222686   3.672   3.271   9.527 -0.7384  0.0669  1.1763
 3742SOL     OW22687   1.179   2.928   8.702 -0.3240  0.5972 -0.2436
 3742SOL    HW122688   1.101   2.904   8.753  0.5844 -1.7234  0.0371
 3742SOL    HW222689   1.134   2.952   8.621 -1.6604 -2.1260 -0.3067
 3743SOL     OW22690   0.122   0.346   8.506 -0.7535 -0.1309  0.1333
 3743SOL    HW122691   0.162   0.359   8.593 -0.2785  0.7417 -0.2143
 3743SOL    HW222692   0.058   0.277   8.523 -1.6068  0.3509 -1.1265
 3744SOL     OW22693   2.531   3.521   4.164  0.0432  0.4888 -0.0322
 3744SOL    HW122694   2.438   3.544   4.155  0.9423  3.9417 -0.2046
 3744SOL    HW222695   2.566   3.580   4.230  0.4116  2.1495 -1.7326
 3745SOL     OW22696   2.575   4.523  13.186  0.0560 -0.5137  0.1367
 3745SOL    HW122697   2.655   4.557  13.226  0.6653 -3.5394  1.5249
 3745SOL    HW222698   2.599   4.511  13.094 -1.7185  0.3458 -0.4336
 3746SOL     OW22699   4.532   3.060  16.524 -0.1641  0.0855  0.1973
 3746SOL    HW122700   4.563   3.138  16.478  1.7763 -1.4399 -1.0797
 3746SOL    HW222701   4.505   3.000  16.454  1.8695  0.9711 -1.3193
 3747SOL     OW22702   2.038   2.523   5.285  0.2023 -0.8227  0.5746
 3747SOL    HW122703   1.953   2.532   5.243  0.9630  0.5211 -0.6486
 3747SOL    HW222704   2.012   2.470   5.361  1.7013 -1.7011  0.4948
 3748SOL     OW22705   0.525   2.777   3.062 -0.6008 -0.0430 -0.9903
 3748SOL    HW122706   0.535   2.798   2.970 -1.5101  0.6302 -0.9392
 3748SOL    HW222707   0.530   2.859   3.112 -1.1355  0.3116 -1.5088
 3749SOL     OW22708   1.619   4.305   2.090 -0.3869 -0.1623  0.2752
 3749SOL    HW122709   1.657   4.391   2.070  1.0352 -0.8531  0.0026
 3749SOL    HW222710   1.697   4.250   2.087  1.0276  1.9060 -1.1802
 3750SOL     OW22711   2.861   1.737   5.457 -0.2477  0.4857 -0.5102
 3750SOL    HW122712   2.784   1.740   5.514  1.2773  0.7912  1.5546
 3750SOL    HW222713   2.897   1.824   5.474 -0.1290 -0.1832  2.7424
 3751SOL     OW22714   3.915   2.829  13.199  0.3088  0.1093 -0.3330
 3751SOL    HW122715   4.010   2.834  13.209  0.4300 -0.5833 -1.1210
 3751SOL    HW222716   3.909   2.878  13.118 -1.9270  0.3517 -0.0121
 3752SOL     OW22717   3.527   0.752   6.215  0.4906  0.3623  0.4863
 3752SOL    HW122718   3.447   0.787   6.177  2.0797  2.7917 -0.6188
 3752SOL    HW222719   3.536   0.801   6.297  1.7848 -2.8411  2.2768
 3753SOL     OW22720   0.089   3.565   5.146 -0.3750 -0.4806 -0.2723
 3753SOL    HW122721   0.179   3.599   5.145  0.4875 -2.8020 -2.6231
 3753SOL    HW222722   0.054   3.616   5.073 -0.3393 -1.5082 -1.0164
 3754SOL     OW22723   4.360   4.096   9.195  0.0238  0.0906  0.1417
 3754SOL    HW122724   4.363   4.058   9.107  2.4450  1.2459 -0.2769
 3754SOL    HW222725   4.448   4.074   9.226  0.7382  2.7512 -0.0715
 3755SOL     OW22726   0.950   4.626   8.422  0.2578  0.4914  0.2503
 3755SOL    HW122727   0.985   4.714   8.414  1.3137 -0.0251 -0.8664
 3755SOL    HW222728   0.926   4.633   8.515 -1.8921 -1.4054 -0.1563
 3756SOL     OW22729   3.594   2.964   3.015  0.3826  0.0034 -0.0028
 3756SOL    HW122730   3.602   3.012   3.097  1.9786  1.1083 -0.8012
 3756SOL    HW222731   3.499   2.952   3.011  0.0230  1.9462  2.8433
 3757SOL     OW22732   1.139   4.505   4.853 -0.2782  0.2769  0.1239
 3757SOL    HW122733   1.153   4.525   4.761 -2.4108 -0.6059 -0.3888
 3757SOL    HW222734   1.224   4.525   4.893  0.3309  0.7753 -1.4114
 3758SOL     OW22735   4.194   3.125   0.524  0.2506 -0.0006 -0.0447
 3758SOL    HW122736   4.270   3.110   0.468 -0.4056 -0.9045 -0.7004
 3758SOL    HW222737   4.151   3.040   0.513  0.5511  0.0907 -1.9427
 3759SOL     OW22738   3.283   0.326   1.921 -0.2855 -0.1926  0.1261
 3759SOL    HW122739   3.207   0.274   1.894  0.4392 -1.1440 -0.0649
 3759SOL    HW222740   3.357   0.299   1.866 -0.6652  1.2676 -1.1307
 3760SOL     OW22741   1.997   4.197   6.312  0.1478 -0.1239 -0.2911
 3760SOL    HW122742   1.991   4.293   6.314  0.7377 -0.1340  2.9563
 3760SOL    HW222743   1.953   4.177   6.395 -1.7210  0.3331 -1.1816
 3761SOL     OW22744   2.546   1.516   3.520  0.1020 -0.2343  0.3216
 3761SOL    HW122745   2.550   1.475   3.434  0.6128 -0.5212  0.4775
 3761SOL    HW222746   2.458   1.504   3.555  0.2028  0.0832  0.6848
 3762SOL     OW22747   1.594   3.176   8.629 -0.5325  0.2278 -0.7224
 3762SOL    HW122748   1.534   3.129   8.571 -3.2385  2.0398  0.6220
 3762SOL    HW222749   1.529   3.238   8.661  0.2744  0.8206 -0.2110
 3763SOL     OW22750   4.070   1.603   5.894  0.0086 -0.6694 -0.5673
 3763SOL    HW122751   3.998   1.593   5.831 -1.3595  0.4570  0.8251
 3763SOL    HW222752   4.140   1.558   5.845  0.9925 -1.9788  2.0364
 3764SOL     OW22753   0.089   2.057  15.725 -0.9565 -0.1713 -0.0171
 3764SOL    HW122754   0.139   2.119  15.778  0.3765  1.0481 -2.7126
 3764SOL    HW222755   0.001   2.093  15.736 -0.1199  0.8438  3.3208
 3765SOL     OW22756   2.624   4.449   6.066 -0.4295 -0.1179  0.1639
 3765SOL    HW122757   2.694   4.390   6.039 -2.1536 -1.1169 -2.0907
 3765SOL    HW222758   2.586   4.387   6.129 -0.8488  0.7042  0.7336
 3766SOL     OW22759   4.006   0.710   7.530  0.1388 -0.1566  0.6611
 3766SOL    HW122760   3.968   0.755   7.606  3.1667  0.9056  1.5373
 3766SOL    HW222761   3.927   0.670   7.494 -1.3469  1.4812  2.0399
 3767SOL     OW22762   3.128   2.166   0.746  0.3409 -0.1371  0.0100
 3767SOL    HW122763   3.099   2.152   0.836  0.7827 -1.7559 -0.1000
 3767SOL    HW222764   3.086   2.251   0.733  0.3073 -0.0842  0.4589
 3768SOL     OW22765   2.770   0.355   4.953  0.8983  0.0016 -0.8542
 3768SOL    HW122766   2.841   0.361   4.889  1.2288 -0.9100 -0.5727
 3768SOL    HW222767   2.807   0.413   5.020  0.6410  0.1654 -0.8560
 3769SOL     OW22768   1.458   2.584   4.367  0.1836 -0.3446 -0.4064
 3769SOL    HW122769   1.388   2.617   4.424  1.5758  0.3485  0.8794
 3769SOL    HW222770   1.532   2.634   4.401 -1.6978  1.3419  1.2282
 3770SOL     OW22771   2.936   0.540  14.458 -0.3897 -0.0257 -0.5490
 3770SOL    HW122772   2.938   0.627  14.418  0.8533 -1.0595 -2.7333
 3770SOL    HW222773   2.908   0.486  14.384 -2.4591  0.6833 -0.3023
 3771SOL     OW22774   3.049   0.531   5.194 -0.5390  0.2224  0.6550
 3771SOL    HW122775   2.977   0.574   5.148 -1.3844 -0.8010  1.0130
 3771SOL    HW222776   3.065   0.453   5.142  2.3452  1.9841 -1.0475
 3772SOL     OW22777   1.537   1.686   2.795  0.0712 -0.4353 -0.4705
 3772SOL    HW122778   1.568   1.690   2.886  2.0786  2.2987 -1.2945
 3772SOL    HW222779   1.537   1.780   2.783 -2.0560 -0.2707  0.6621
 3773SOL     OW22780   2.720   1.449   7.627  0.3686  0.2938 -0.0511
 3773SOL    HW122781   2.772   1.397   7.566  0.4122 -0.3098  0.5006
 3773SOL    HW222782   2.654   1.385   7.654 -0.3774  0.6560 -0.9994
 3774SOL     OW22783   4.425   2.195   2.657  0.2985 -0.3529  0.2259
 3774SOL    HW122784   4.344   2.190   2.708 -1.5560 -0.0744 -2.7175
 3774SOL    HW222785   4.473   2.267   2.698  0.8190 -1.0084  0.7646
 3775SOL     OW22786   0.774   0.214   1.898  0.1807  0.4398 -0.3336
 3775SOL    HW122787   0.687   0.253   1.908 -0.7270 -1.0545 -2.3396
 3775SOL    HW222788   0.788   0.178   1.985  0.1257  1.2230  0.0009
 3776SOL     OW22789   2.544   0.711   2.962 -0.3024  0.1794 -0.4137
 3776SOL    HW122790   2.586   0.750   3.038 -0.4909  0.3293 -0.3858
 3776SOL    HW222791   2.464   0.763   2.958 -0.6480 -0.3911 -0.9794
 3777SOL     OW22792   4.186   4.697   9.583  0.4532 -0.3883  0.4159
 3777SOL    HW122793   4.258   0.034   9.578 -1.2605  1.5134 -0.7456
 3777SOL    HW222794   4.218   4.632   9.646  2.2108  1.8027  1.7474
 3778SOL     OW22795   0.127   2.060  16.698  0.2060 -0.3481 -0.0608
 3778SOL    HW122796   0.069   2.056  16.774  1.4317  0.4233  0.9311
 3778SOL    HW222797   0.123   2.156  16.695 -1.1530 -0.4310 -0.5444
 3779SOL     OW22798   3.420   1.547   5.361  0.6034  0.5358  0.2057
 3779SOL    HW122799   3.450   1.632   5.392  1.2872  0.9340 -1.5689
 3779SOL    HW222800   3.394   1.568   5.272 -0.8894  0.5692  0.6569
 3780SOL     OW22801   1.239   3.825   4.521 -0.1320  0.0678 -0.1262
 3780SOL    HW122802   1.270   3.915   4.510  0.7104 -0.1874  0.1129
 3780SOL    HW222803   1.279   3.789   4.600 -1.5202 -1.6082 -0.1909
 3781SOL     OW22804   4.479   2.708   8.448  0.6071 -0.0296 -0.2902
 3781SOL    HW122805   4.405   2.768   8.450  0.1568 -0.5696 -1.0700
 3781SOL    HW222806   4.512   2.728   8.360  1.7065  1.8331  0.5372
 3782SOL     OW22807   2.632   4.570   6.766  0.2909  0.4388  0.4039
 3782SOL    HW122808   2.567   4.637   6.789 -0.7592 -0.7066  0.8240
 3782SOL    HW222809   2.652   4.587   6.674  3.7258 -1.1488  0.8768
 3783SOL     OW22810   1.355   1.753   8.663 -0.2979 -0.3636  0.0641
 3783SOL    HW122811   1.282   1.691   8.661 -0.8157  0.2353  0.4644
 3783SOL    HW222812   1.315   1.839   8.672 -2.3106 -1.2398 -0.5110
 3784SOL     OW22813   2.061   4.445   9.729  0.0666 -0.3428 -0.0707
 3784SOL    HW122814   2.001   4.427   9.801 -1.0616  1.5601 -0.5235
 3784SOL    HW222815   1.994   4.439   9.661  1.5094 -1.0474 -1.4525
 3785SOL     OW22816   4.064   1.286   2.876 -0.2599 -0.2423  0.1066
 3785SOL    HW122817   4.039   1.198   2.847 -0.4550 -0.2005  0.1429
 3785SOL    HW222818   4.090   1.266   2.966  3.9749  0.4312 -0.9835
 3786SOL     OW22819   2.049   4.624   1.954 -0.2912 -0.0900 -0.1890
 3786SOL    HW122820   2.060   4.552   1.891  0.3855 -0.7603  0.6927
 3786SOL    HW222821   1.972   4.673   1.927 -0.7799  0.6639  2.6809
 3787SOL     OW22822   2.073   0.841  11.173 -0.0540  0.3265  0.1897
 3787SOL    HW122823   2.167   0.857  11.176 -0.1026  0.4929  0.9580
 3787SOL    HW222824   2.062   0.748  11.192  0.8775  0.2526  0.3758
 3788SOL     OW22825   1.203   3.611  10.786 -0.0496  0.5166  0.2587
 3788SOL    HW122826   1.263   3.537  10.778 -0.1125  0.6364 -1.2854
 3788SOL    HW222827   1.255   3.677  10.740  1.1353 -0.5823  0.0039
 3789SOL     OW22828   4.623   1.607  16.794  0.2946 -0.2211 -0.3287
 3789SOL    HW122829   4.689   1.676  16.787 -2.4640  2.3105 -0.9741
 3789SOL    HW222830   4.639   1.589  16.886  1.2271 -0.9074 -0.6183
 3790SOL     OW22831   3.704   4.223   7.160 -0.3345 -0.0538 -0.1825
 3790SOL    HW122832   3.693   4.244   7.252 -0.3070  0.6067 -0.3308
 3790SOL    HW222833   3.638   4.154   7.153 -0.8049  0.2102  1.7852
 3791SOL     OW22834   0.490   0.260   5.610  0.1609  0.5536 -0.2569
 3791SOL    HW122835   0.585   0.267   5.598 -0.1525  0.1718 -2.9998
 3791SOL    HW222836   0.455   0.240   5.523 -0.2788  1.4968 -0.2969
 3792SOL     OW22837   3.060   3.211   0.552  0.0507 -0.5043 -0.6654
 3792SOL    HW122838   3.097   3.199   0.639 -1.0850  0.2659 -0.0793
 3792SOL    HW222839   2.975   3.252   0.568 -0.1911 -0.6536 -1.5513
 3793SOL     OW22840   0.078   4.519   6.238  0.2464  0.9697  0.0991
 3793SOL    HW122841   0.089   4.511   6.332  1.1289 -0.3812 -0.1211
 3793SOL    HW222842   0.143   4.589   6.226 -1.4605  2.5800  0.2731
 3794SOL     OW22843   2.138   2.626   8.030  0.2067  0.1139  0.1442
 3794SOL    HW122844   2.212   2.620   7.969  0.5265 -0.9672  0.6375
 3794SOL    HW222845   2.073   2.668   7.974  0.3927  1.4678  0.9264
 3795SOL     OW22846   0.121   2.431   7.647 -0.4327 -0.0188  0.1491
 3795SOL    HW122847   0.089   2.348   7.613  0.5748 -0.2998 -0.1028
 3795SOL    HW222848   0.129   2.480   7.565  1.8659 -0.0289  0.3788
 3796SOL     OW22849   2.139   1.999  11.678  0.5780 -0.5519  0.2598
 3796SOL    HW122850   2.105   1.940  11.746 -1.1675 -1.3055 -1.2756
 3796SOL    HW222851   2.195   1.929  11.645  0.2276 -1.1560  0.9501
 3797SOL     OW22852   1.639   3.242   0.287  0.0444 -0.2816 -0.2390
 3797SOL    HW122853   1.635   3.331   0.322  2.0627  0.6242 -2.2924
 3797SOL    HW222854   1.658   3.265   0.196  0.4936  0.4527  0.0473
 3798SOL     OW22855   1.716   0.606   4.324 -0.5135 -0.0874 -0.0889
 3798SOL    HW122856   1.785   0.574   4.382  0.3663  1.3578 -0.3251
 3798SOL    HW222857   1.748   0.580   4.238  2.7558 -1.2077  1.4892
 3799SOL     OW22858   3.281   4.061   7.474  0.2735  0.0815  0.1281
 3799SOL    HW122859   3.284   4.146   7.519  0.9437 -0.3975  0.9880
 3799SOL    HW222860   3.220   4.084   7.404  0.6485  1.1071  0.1387
 3800SOL     OW22861   0.221   2.783   3.635 -0.6476  0.0645 -0.4967
 3800SOL    HW122862   0.134   2.773   3.675 -0.1807  1.4063  0.8740
 3800SOL    HW222863   0.257   2.696   3.649  0.1362  0.8739  2.6448
 3801SOL     OW22864   3.478   0.764   2.446 -0.0503 -0.2408  0.1545
 3801SOL    HW122865   3.479   0.771   2.541  2.4922 -0.4377  0.1549
 3801SOL    HW222866   3.388   0.781   2.419 -0.4781 -1.0653  1.0327
 3802SOL     OW22867   2.019   0.056  14.333 -0.1938  0.4792  0.3355
 3802SOL    HW122868   2.110   0.025  14.333  0.7571  3.2153  0.3347
 3802SOL    HW222869   2.023   0.136  14.386 -0.9921  0.5897  0.2262
 3803SOL     OW22870   3.875   0.921   4.297  0.3068  0.4601 -0.7501
 3803SOL    HW122871   3.942   0.988   4.287  0.3642  0.8067  2.0654
 3803SOL    HW222872   3.804   0.974   4.260 -0.3600  1.1074  1.4362
 3804SOL     OW22873   0.957   2.059   9.349 -0.2187 -0.3543 -1.0885
 3804SOL    HW122874   0.883   2.087   9.402 -2.6101 -3.1844 -2.9495
 3804SOL    HW222875   0.961   1.966   9.373  2.7974 -0.5248 -2.1971
 3805SOL     OW22876   2.852   1.255   7.468 -0.2056 -0.0248  0.0625
 3805SOL    HW122877   2.896   1.179   7.508 -0.4244 -0.2250 -0.0792
 3805SOL    HW222878   2.923   1.314   7.444  1.6324 -2.1709  0.1821
 3806SOL     OW22879   3.126   2.590   8.170  0.0390 -0.4095 -0.1215
 3806SOL    HW122880   3.201   2.631   8.215  0.2744 -1.3983  0.3883
 3806SOL    HW222881   3.158   2.606   8.081  1.2846 -1.4521  0.1383
 3807SOL     OW22882   3.428   1.658   4.101  0.0989 -0.4190  0.3273
 3807SOL    HW122883   3.449   1.719   4.030 -3.1584  0.1670 -0.1372
 3807SOL    HW222884   3.441   1.580   4.048 -1.3102 -1.8159  2.0272
 3808SOL     OW22885   4.546   4.582  16.108 -0.9362  0.2234  0.3715
 3808SOL    HW122886   4.564   4.657  16.163  2.4632  0.3884 -0.9508
 3808SOL    HW222887   4.499   4.625  16.036 -2.1277  0.5379  1.3386
 3809SOL     OW22888   1.663   2.446   8.113 -0.4340  0.7549  0.2273
 3809SOL    HW122889   1.616   2.435   8.195  0.1473 -1.8205  0.2032
 3809SOL    HW222890   1.667   2.358   8.075 -1.3061  2.0459 -2.8869
 3810SOL     OW22891   3.551   4.282   4.744  0.5774 -0.0847  0.5576
 3810SOL    HW122892   3.477   4.260   4.688  0.8046 -1.0878  0.6615
 3810SOL    HW222893   3.504   4.338   4.805  1.2106 -0.0874  1.0488
 3811SOL     OW22894   3.753   0.865   6.711 -0.5194 -0.0943  0.0520
 3811SOL    HW122895   3.672   0.910   6.736 -0.1048  1.3579 -1.2496
 3811SOL    HW222896   3.718   0.820   6.634 -0.5376  0.8701 -0.5013
 3812SOL     OW22897   2.286   0.607  10.598 -0.6186  0.4593  0.2304
 3812SOL    HW122898   2.360   0.663  10.621 -0.3002  0.1713 -0.0909
 3812SOL    HW222899   2.333   0.525  10.581 -0.5438  0.3929  0.7365
 3813SOL     OW22900   4.376   1.589   7.552  0.1128  0.2533  0.2743
 3813SOL    HW122901   4.407   1.501   7.529 -0.4287  0.7885 -2.4944
 3813SOL    HW222902   4.449   1.641   7.518 -0.2503  1.3274  1.1169
 3814SOL     OW22903   4.697   2.910  13.784 -0.9455 -0.3155 -0.1363
 3814SOL    HW122904   0.045   2.889  13.842 -0.5091  0.2184 -0.4998
 3814SOL    HW222905   4.691   3.004  13.798 -0.0257  0.0147 -1.9112
 3815SOL     OW22906   2.614   0.627   5.756  0.0725  0.3298  0.2418
 3815SOL    HW122907   2.532   0.655   5.714  0.2195  0.9401  0.3613
 3815SOL    HW222908   2.663   0.708   5.766 -1.3569  1.2612 -0.3490
 3816SOL     OW22909   3.777   0.467  17.037 -0.1037  0.2146  0.2378
 3816SOL    HW122910   3.702   0.469  16.978 -0.3879 -3.0655  0.4774
 3816SOL    HW222911   3.808   0.377  17.021  1.2740  0.5191  1.2536
 3817SOL     OW22912   4.080   4.322  14.915 -0.4469 -0.0389 -0.3153
 3817SOL    HW122913   4.036   4.257  14.970  1.1394 -0.6322  0.2570
 3817SOL    HW222914   4.034   4.300  14.834 -2.6113 -1.6595  1.3553
 3818SOL     OW22915   4.189   3.489   8.284 -0.2158  0.1155 -0.0814
 3818SOL    HW122916   4.246   3.518   8.355  1.6670 -0.0668 -1.4849
 3818SOL    HW222917   4.156   3.573   8.252 -0.6457  0.5357  1.4672
 3819SOL     OW22918   0.722   0.129  13.631 -0.1723  0.2922  0.1644
 3819SOL    HW122919   0.687   0.208  13.590 -1.1389 -0.4195 -0.3939
 3819SOL    HW222920   0.778   0.101  13.558  0.0035  1.9466 -0.3337
 3820SOL     OW22921   2.956   4.676   8.630 -0.7652  0.2597 -0.3009
 3820SOL    HW122922   3.051   4.668   8.621 -0.6355 -0.0835  1.2908
 3820SOL    HW222923   2.936   4.595   8.678  1.3071 -0.7249 -1.1127
 3821SOL     OW22924   1.440   1.054   2.449  0.3281  0.2484  0.2165
 3821SOL    HW122925   1.502   1.080   2.517  2.2896  0.4447 -1.6470
 3821SOL    HW222926   1.497   0.988   2.409  0.0512  1.2119 -1.7544
 3822SOL     OW22927   4.281   4.672   6.350  0.3920  0.1539  0.0645
 3822SOL    HW122928   4.188   4.653   6.354  0.1803  1.3845  0.8675
 3822SOL    HW222929   4.315   4.618   6.421 -0.0197 -0.7679 -0.4467
 3823SOL     OW22930   4.218   3.802  12.954  0.0633 -0.0683 -0.6007
 3823SOL    HW122931   4.198   3.767  13.041 -0.1467  2.4840  0.3792
 3823SOL    HW222932   4.135   3.819  12.911 -0.8081 -3.6652 -0.3742
 3824SOL     OW22933   2.695   1.260   0.496  0.3343  0.2892  0.4196
 3824SOL    HW122934   2.720   1.312   0.573  2.4855  0.6217 -0.4949
 3824SOL    HW222935   2.601   1.247   0.507  0.4496 -1.1262 -0.2272
 3825SOL     OW22936   3.689   1.460  11.496 -0.9238 -0.4866  0.2354
 3825SOL    HW122937   3.748   1.407  11.441 -1.1783  2.1552 -2.5966
 3825SOL    HW222938   3.742   1.479  11.573 -1.5001 -0.5476  0.6415
 3826SOL     OW22939   3.439   1.088  13.226  0.2771 -0.2755  0.2095
 3826SOL    HW122940   3.347   1.105  13.244  0.3323 -1.9456  2.1054
 3826SOL    HW222941   3.482   1.097  13.311  2.3563  1.2147 -0.9909
 3827SOL     OW22942   3.745   1.609   4.663  0.2166  0.0212 -0.1738
 3827SOL    HW122943   3.722   1.539   4.724 -0.0064 -0.2350 -0.5566
 3827SOL    HW222944   3.822   1.578   4.616  1.0351  0.3011  0.9713
 3828SOL     OW22945   4.222   4.519   4.145 -0.3740  0.2010  0.7113
 3828SOL    HW122946   4.275   4.590   4.183 -0.6585 -0.2629  1.9844
 3828SOL    HW222947   4.295   4.472   4.103 -2.2905 -2.0310 -0.0948
 3829SOL     OW22948   1.687   0.899   7.774 -0.4548 -0.2906  0.0002
 3829SOL    HW122949   1.752   0.871   7.837  1.7233 -0.8251 -2.4794
 3829SOL    HW222950   1.665   0.983   7.816  1.0877 -0.2639  0.7609
 3830SOL     OW22951   0.449   3.849  11.875 -0.0671 -0.6080  0.1495
 3830SOL    HW122952   0.382   3.837  11.942  0.3409  3.3711  1.2876
 3830SOL    HW222953   0.438   3.942  11.857 -0.1339 -0.7868 -0.7623
 3831SOL     OW22954   0.959   4.510  11.473  0.0993 -0.0779  0.8518
 3831SOL    HW122955   0.900   4.467  11.412 -1.5673  3.2157  0.1218
 3831SOL    HW222956   0.971   4.593  11.426 -0.5244 -0.8393 -0.6450
 3832SOL     OW22957   1.815   0.227   6.302  0.0198  0.2059  0.0075
 3832SOL    HW122958   1.815   0.238   6.397  0.7807 -2.7375  0.3688
 3832SOL    HW222959   1.902   0.191   6.283  0.2129 -0.1081  1.5142
 3833SOL     OW22960   1.213   1.719   2.252  0.1292 -0.5469 -0.3739
 3833SOL    HW122961   1.202   1.770   2.172  0.8095 -1.8898 -1.3354
 3833SOL    HW222962   1.186   1.783   2.317 -0.8369  0.0355 -1.3602
 3834SOL     OW22963   2.006   4.424   6.027 -0.4438  0.0336 -0.2328
 3834SOL    HW122964   1.995   4.434   6.122 -0.4568 -1.6674 -0.0509
 3834SOL    HW222965   2.101   4.417   6.014 -0.3033  1.3628  0.0200
 3835SOL     OW22966   1.039   2.962   7.704  0.5654  0.0742  0.0724
 3835SOL    HW122967   1.064   2.916   7.624  0.9504  0.0417  0.2149
 3835SOL    HW222968   1.088   3.043   7.692 -0.3557  0.7042  0.5772
 3836SOL     OW22969   2.540   4.431   2.433  0.1810  0.2949 -0.4436
 3836SOL    HW122970   2.594   4.365   2.477 -0.4666 -0.0049 -0.0990
 3836SOL    HW222971   2.583   4.448   2.349  0.6572 -0.4321 -0.3446
 3837SOL     OW22972   1.197   4.308   8.706 -0.3541 -0.1394  0.0348
 3837SOL    HW122973   1.131   4.326   8.640 -0.3678 -4.0647 -1.0648
 3837SOL    HW222974   1.268   4.300   8.643 -1.2298  1.3906 -1.1349
 3838SOL     OW22975   4.372   2.142   0.408  0.1566 -0.1519 -0.8033
 3838SOL    HW122976   4.302   2.121   0.346  0.2383 -1.8493 -0.3184
 3838SOL    HW222977   4.452   2.151   0.356  0.4823  1.6609  0.0375
 3839SOL     OW22978   4.532   4.362   8.181  0.0831 -0.1404  0.2142
 3839SOL    HW122979   4.506   4.421   8.110  0.5315 -0.1422  0.0520
 3839SOL    HW222980   4.625   4.358   8.162 -0.4794 -0.0362 -2.5452
 3840SOL     OW22981   3.132   2.809   9.285  0.6668  0.5927 -0.0480
 3840SOL    HW122982   3.196   2.818   9.356  1.6363  1.6601 -1.0635
 3840SOL    HW222983   3.068   2.753   9.329 -1.7073  1.9616 -1.7197
 3841SOL     OW22984   0.404   1.130   7.970  0.0867 -0.1203  0.2784
 3841SOL    HW122985   0.370   1.127   7.881  1.0549  1.3553 -0.1604
 3841SOL    HW222986   0.431   1.039   7.977  2.0196  0.5041  1.0567
 3842SOL     OW22987   0.072   0.716   2.776  0.2286  0.1796 -0.1870
 3842SOL    HW122988   0.157   0.713   2.820  0.5700 -0.0592 -0.8794
 3842SOL    HW222989   0.089   0.747   2.687 -0.3934  2.0724  0.3365
 3843SOL     OW22990   1.174   2.557   2.792  0.5560  0.0549  0.0143
 3843SOL    HW122991   1.178   2.461   2.795  1.6159  0.1369  1.1216
 3843SOL    HW222992   1.161   2.575   2.885  2.1944 -1.3633  0.5171
 3844SOL     OW22993   2.733   3.844   7.876 -0.2033  0.2233 -0.0805
 3844SOL    HW122994   2.792   3.900   7.926 -0.5027 -1.0761  1.6935
 3844SOL    HW222995   2.783   3.771   7.840 -3.4342 -1.6557 -0.7827
 3845SOL     OW22996   4.593   1.801   2.760 -0.0652  0.8697 -0.3572
 3845SOL    HW122997   4.615   1.740   2.689  0.1661 -0.5848  0.9804
 3845SOL    HW222998   4.632   1.753   2.833  2.1240  0.6150 -1.6891
 3846SOL     OW22999   1.055   0.851   4.982 -0.4665  0.4162 -0.5744
 3846SOL    HW123000   0.977   0.861   4.928 -2.0423 -3.3433  0.9559
 3846SOL    HW223001   1.135   0.878   4.937 -0.5071 -0.3548 -1.1099
 3847SOL     OW23002   0.234   2.150   4.719 -0.3521 -0.4558 -0.6998
 3847SOL    HW123003   0.212   2.240   4.696 -1.5437 -0.3634  0.8646
 3847SOL    HW223004   0.165   2.133   4.783  0.3685 -0.6085  0.0343
 3848SOL     OW23005   3.765   1.453   2.495  0.4287  0.0710 -0.5012
 3848SOL    HW123006   3.824   1.415   2.560  1.1228 -1.2695 -1.9127
 3848SOL    HW223007   3.684   1.434   2.542  2.0295 -0.4769  2.0770
 3849SOL     OW23008   3.811   2.049   9.283  0.0275 -0.2639 -0.4499
 3849SOL    HW123009   3.884   2.071   9.340 -0.1125  1.3979 -0.9294
 3849SOL    HW223010   3.865   1.999   9.222  2.9301  0.1682  1.7412
 3850SOL     OW23011   3.789   1.887   9.537 -0.6441  0.5315 -0.0466
 3850SOL    HW123012   3.881   1.909   9.524 -0.3614  0.2538  1.4795
 3850SOL    HW223013   3.758   1.894   9.447  0.5120  1.4821 -0.3598
 3851SOL     OW23014   3.942   2.173   2.448  0.6527 -0.7130 -0.2362
 3851SOL    HW123015   3.999   2.096   2.456  1.0137 -0.2784  1.3941
 3851SOL    HW223016   3.991   2.237   2.501 -0.4908 -0.1363  0.1221
 3852SOL     OW23017   2.530   2.260  12.471 -0.0898  0.0047 -0.3871
 3852SOL    HW123018   2.596   2.197  12.445  0.2490  1.6374 -3.4903
 3852SOL    HW223019   2.503   2.293  12.385  1.5636 -0.6337 -1.1503
 3853SOL     OW23020   4.695   3.043   9.006  0.0857  0.5131  0.3518
 3853SOL    HW123021   4.670   3.022   9.096  1.2421  0.5167  0.6765
 3853SOL    HW223022   4.690   2.957   8.966 -0.7020  0.3268  0.8517
 3854SOL     OW23023   3.678   2.870  12.781  0.1636 -0.5318  0.3690
 3854SOL    HW123024   3.613   2.803  12.762  0.3121 -0.5928  0.0849
 3854SOL    HW223025   3.661   2.875  12.875 -0.2807  0.2850  0.2416
 3855SOL     OW23026   3.899   2.714   9.357 -0.4896  0.3665 -0.6772
 3855SOL    HW123027   3.985   2.753   9.343  1.0716 -1.8332  2.8544
 3855SOL    HW223028   3.898   2.669   9.441  2.1311  0.3313 -0.6907
 3856SOL     OW23029   0.741   3.357   4.489  0.4271 -0.1701  0.3217
 3856SOL    HW123030   0.698   3.414   4.553 -0.4976  1.2777 -1.5963
 3856SOL    HW223031   0.745   3.415   4.412 -2.2346 -0.3799  0.0294
 3857SOL     OW23032   2.551   1.255   3.320  0.4466  0.3817  0.6688
 3857SOL    HW123033   2.601   1.250   3.402 -1.0477 -1.3730  1.4704
 3857SOL    HW223034   2.625   1.257   3.259  1.0052  1.6835  1.3884
 3858SOL     OW23035   2.206   2.602   0.742 -0.0166 -0.2878 -0.4703
 3858SOL    HW123036   2.243   2.659   0.809 -0.7905 -2.8388  2.1008
 3858SOL    HW223037   2.154   2.671   0.701 -1.0575 -1.4136 -1.0550
 3859SOL     OW23038   0.192   3.159   1.682  0.0912 -0.1677  0.2459
 3859SOL    HW123039   0.256   3.092   1.706  0.2280  0.0541  0.4949
 3859SOL    HW223040   0.193   3.217   1.758  2.4077 -0.1198  0.1745
 3860SOL     OW23041   1.053   0.841   2.255 -0.4410  0.3133  0.0148
 3860SOL    HW123042   1.080   0.756   2.221  1.5030  0.5043  1.0633
 3860SOL    HW223043   1.088   0.900   2.188 -2.4363 -1.5022 -2.6016
 3861SOL     OW23044   3.823   3.741   8.502 -0.3130  0.3936 -0.0539
 3861SOL    HW123045   3.807   3.647   8.492 -0.9787  0.7186 -1.9901
 3861SOL    HW223046   3.855   3.749   8.592 -1.9732  1.0499  0.4749
 3862SOL     OW23047   1.834   0.290   1.552  0.4473 -0.4737 -0.1070
 3862SOL    HW123048   1.750   0.251   1.579  0.3225 -1.0889 -1.3681
 3862SOL    HW223049   1.807   0.378   1.523  1.9905  0.0839  0.1832
 3863SOL     OW23050   2.677   3.786   9.058 -0.3340  0.1852  0.7622
 3863SOL    HW123051   2.641   3.800   9.146 -2.2082  0.5529 -0.0522
 3863SOL    HW223052   2.761   3.743   9.071 -0.6217 -1.4032 -2.6607
 3864SOL     OW23053   2.635   0.791   7.562 -0.6268  0.1367 -0.4554
 3864SOL    HW123054   2.560   0.731   7.564  0.1157 -0.7977 -1.0880
 3864SOL    HW223055   2.681   0.777   7.479  1.1178 -0.8998  0.6994
 3865SOL     OW23056   3.827   2.384   4.962 -0.5338  0.7065  0.3843
 3865SOL    HW123057   3.802   2.293   4.976  2.9844 -0.1729  1.0261
 3865SOL    HW223058   3.861   2.404   5.049 -0.6269 -0.4351  0.6843
 3866SOL     OW23059   3.502   2.510   4.188 -0.1994  0.0718 -0.7646
 3866SOL    HW123060   3.459   2.510   4.103  0.7139  0.4721 -1.2251
 3866SOL    HW223061   3.498   2.604   4.207 -0.3685  0.2168 -1.5426
 3867SOL     OW23062   1.302   4.014   0.858 -0.5819  0.0936  0.3160
 3867SOL    HW123063   1.360   4.027   0.933  0.8331  1.3610 -1.0078
 3867SOL    HW223064   1.217   4.017   0.902 -0.9521 -0.9422 -0.3126
 3868SOL     OW23065   0.636   2.707   8.763 -0.0144  0.3935 -0.1654
 3868SOL    HW123066   0.587   2.777   8.719  0.2456  0.2175 -0.7442
 3868SOL    HW223067   0.574   2.652   8.809  2.9608 -0.4753  2.8068
 3869SOL     OW23068   0.793   0.573  12.814 -0.3080  0.4454 -0.4871
 3869SOL    HW123069   0.827   0.510  12.749 -2.0065 -1.5468  0.5421
 3869SOL    HW223070   0.735   0.514  12.862  0.9584  1.1312  1.8675
 3870SOL     OW23071   1.573   4.547   0.589 -0.3015  0.2610  0.3864
 3870SOL    HW123072   1.524   4.549   0.672 -1.3016  0.4316 -0.2082
 3870SOL    HW223073   1.650   4.503   0.625  0.3166  0.4346 -0.7325
 3871SOL     OW23074   0.240   3.665  14.422  0.2067 -0.2656  0.0066
 3871SOL    HW123075   0.188   3.585  14.432  2.9901 -2.2310 -1.3930
 3871SOL    HW223076   0.233   3.705  14.509  1.3907 -3.0946  1.4019
 3872SOL     OW23077   2.729   3.919   8.285 -0.6125  0.1242 -0.4372
 3872SOL    HW123078   2.690   3.998   8.247  0.1247  0.8628  0.3416
 3872SOL    HW223079   2.713   3.943   8.376  0.9426 -0.0372 -0.1217
 3873SOL     OW23080   2.610   0.299  11.822  0.4436  0.1627  0.3754
 3873SOL    HW123081   2.542   0.346  11.870  1.0139  0.8337  0.5221
 3873SOL    HW223082   2.657   0.380  11.803 -1.2478  1.4430  1.6226
 3874SOL     OW23083   2.274   4.169  14.951 -0.6954  0.0401  0.6060
 3874SOL    HW123084   2.355   4.169  15.002 -0.4050 -0.0134  0.1436
 3874SOL    HW223085   2.299   4.092  14.900  1.1412 -0.7010  2.5958
 3875SOL     OW23086   1.466   2.909   1.292  0.2017  0.0545  0.6280
 3875SOL    HW123087   1.428   2.990   1.327 -0.3733 -0.3134  0.8405
 3875SOL    HW223088   1.384   2.862   1.276  1.2570 -0.9462 -1.8541
 3876SOL     OW23089   0.051   3.349   3.287  1.0025  0.2510  0.0021
 3876SOL    HW123090   0.096   3.265   3.296 -1.4123 -1.0117  0.3492
 3876SOL    HW223091   0.075   3.382   3.201 -0.2014 -0.7179 -0.7141
 3877SOL     OW23092   3.702   4.337   5.644 -0.1560  0.0962  0.0786
 3877SOL    HW123093   3.780   4.372   5.687 -0.7062  1.5734 -0.1219
 3877SOL    HW223094   3.708   4.391   5.565 -0.5572  0.2384  0.1442
 3878SOL     OW23095   3.357   2.733   8.263  0.2730  0.1803  0.1314
 3878SOL    HW123096   3.447   2.758   8.242 -0.3772  0.8267 -1.8644
 3878SOL    HW223097   3.373   2.656   8.318  2.2933  0.1618 -0.4690
 3879SOL     OW23098   3.122   0.530   8.396  0.2330  0.2389 -0.2228
 3879SOL    HW123099   3.156   0.595   8.334 -0.0386  1.4784  0.9281
 3879SOL    HW223100   3.165   0.573   8.470  0.5730  0.7276 -0.7013
 3880SOL     OW23101   4.491   4.403   7.001 -0.1703  0.0275  0.1961
 3880SOL    HW123102   4.513   4.489   7.036  1.1704 -0.1169 -0.2580
 3880SOL    HW223103   4.448   4.380   7.083  0.6301  0.6972  0.7929
 3881SOL     OW23104   2.840   1.669   4.161 -0.1739  0.1391  0.4257
 3881SOL    HW123105   2.745   1.657   4.169 -0.3696  1.6167  0.3895
 3881SOL    HW223106   2.866   1.637   4.248  2.3300  1.1372  0.0318
 3882SOL     OW23107   3.040   3.114  13.970  0.0052 -0.3936 -0.1283
 3882SOL    HW123108   3.130   3.117  13.938  0.4769  3.2313  1.5315
 3882SOL    HW223109   3.026   3.207  13.987  1.0346 -0.5168  1.4526
 3883SOL     OW23110   1.223   1.242   7.057 -0.2045  0.2934  0.4126
 3883SOL    HW123111   1.131   1.237   7.084  0.0422 -2.2382  0.7147
 3883SOL    HW223112   1.255   1.160   7.093 -0.9987 -1.0716 -1.9706
 3884SOL     OW23113   3.680   3.736   3.354 -0.4071  0.2265  0.5487
 3884SOL    HW123114   3.679   3.831   3.345 -1.4019  0.4686  3.4704
 3884SOL    HW223115   3.759   3.714   3.303  0.3015  1.8033  0.9531
 3885SOL     OW23116   4.032   0.677   4.362  0.3858 -0.0340  0.1043
 3885SOL    HW123117   4.023   0.684   4.457  2.6488  1.3775  0.2190
 3885SOL    HW223118   3.967   0.744   4.342 -0.4141 -0.5683  0.9225
 3886SOL     OW23119   3.354   0.292   5.335 -0.0144  0.0200 -0.1163
 3886SOL    HW123120   3.440   0.298   5.376  1.0432 -2.7736 -1.9733
 3886SOL    HW223121   3.311   0.372   5.366  2.8064  2.2288 -1.9551
 3887SOL     OW23122   2.112   0.951   4.622  0.7371 -0.9009  0.2090
 3887SOL    HW123123   2.207   0.940   4.621  0.4630 -2.8758 -3.1272
 3887SOL    HW223124   2.102   1.046   4.614 -0.9532 -1.3710 -3.2135
 3888SOL     OW23125   1.760   4.121  16.355 -0.1663  0.3282  0.2321
 3888SOL    HW123126   1.818   4.064  16.405  1.0245  1.4224  0.0873
 3888SOL    HW223127   1.711   4.160  16.427 -1.3874  0.0487 -0.4444
 3889SOL     OW23128   4.026   3.454   3.058 -0.2439  0.1778  0.5886
 3889SOL    HW123129   4.010   3.360   3.052  1.9777 -0.3110  2.3509
 3889SOL    HW223130   4.121   3.463   3.059 -0.2305  0.0924 -2.5699
 3890SOL     OW23131   2.354   0.545   9.178 -0.0519 -0.1997 -0.1516
 3890SOL    HW123132   2.420   0.598   9.133 -0.7798  0.6902 -0.1685
 3890SOL    HW223133   2.274   0.555   9.127 -0.4805 -0.1769  0.5349
 3891SOL     OW23134   2.882   2.857   2.528 -0.3462 -0.2749  0.0407
 3891SOL    HW123135   2.931   2.789   2.482 -0.7132 -0.8688  0.5268
 3891SOL    HW223136   2.883   2.820   2.616  2.8927  0.1254  0.1733
 3892SOL     OW23137   3.636   2.307  11.034 -0.4792  0.5936  0.1360
 3892SOL    HW123138   3.572   2.369  10.998 -3.2392 -2.0579  0.4759
 3892SOL    HW223139   3.680   2.368  11.094 -3.4967  2.6088  0.2820
 3893SOL     OW23140   3.047   2.740   2.180 -0.3063  0.0327 -0.2750
 3893SOL    HW123141   2.967   2.737   2.128  0.4200 -0.8990 -1.3066
 3893SOL    HW223142   3.082   2.828   2.164  1.4513 -0.7804 -0.8597
 3894SOL     OW23143   4.438   3.881   7.914  0.6568 -0.1170  0.2584
 3894SOL    HW123144   4.484   3.826   7.979  0.3155 -1.9289 -1.0364
 3894SOL    HW223145   4.463   3.965   7.953 -1.2808  0.1660  0.8590
 3895SOL     OW23146   2.449   0.017   7.589  0.1051  0.0252  0.5608
 3895SOL    HW123147   2.441   0.072   7.667 -1.3842 -0.8821  1.0536
 3895SOL    HW223148   2.483   4.663   7.631  0.0266  0.0822  0.7287
 3896SOL     OW23149   3.907   2.556   5.200  0.2200  0.0602  0.1714
 3896SOL    HW123150   3.823   2.593   5.227 -0.9545 -0.2431 -3.0750
 3896SOL    HW223151   3.952   2.624   5.251 -0.1860 -1.3399  2.3755
 3897SOL     OW23152   4.204   2.159   6.610  0.7435 -0.1867  0.4339
 3897SOL    HW123153   4.199   2.068   6.638 -1.9717  0.0814  0.8746
 3897SOL    HW223154   4.250   2.156   6.526 -0.6153  1.8378 -0.4078
 3898SOL     OW23155   1.664   0.636   3.936 -0.2100 -0.2174  0.2099
 3898SOL    HW123156   1.684   0.635   3.842  1.4072 -2.8109  0.5747
 3898SOL    HW223157   1.640   0.728   3.941  0.5960 -0.0810  1.4882
 3899SOL     OW23158   1.560   4.611  13.248  0.0007  0.2457  0.0444
 3899SOL    HW123159   1.489   4.648  13.299  0.9400  0.9710  0.8336
 3899SOL    HW223160   1.586   4.544  13.311 -0.0233 -1.4928 -1.7898
 3900SOL     OW23161   0.406   1.841   4.435 -0.6934  0.0168 -0.2526
 3900SOL    HW123162   0.419   1.829   4.341 -0.8367 -3.7092  0.1773
 3900SOL    HW223163   0.372   1.755   4.461 -0.5854 -0.4617 -1.7104
 3901SOL     OW23164   1.172   2.739  11.781  0.5978 -0.5428  0.0850
 3901SOL    HW123165   1.091   2.753  11.730 -0.0820 -0.5226  1.1721
 3901SOL    HW223166   1.203   2.656  11.745  0.7043 -0.8478  0.8892
 3902SOL     OW23167   0.498   1.112   2.901 -0.1753  0.2533  0.2787
 3902SOL    HW123168   0.545   1.042   2.947  0.4828  0.0070 -0.7656
 3902SOL    HW223169   0.419   1.128   2.953 -0.2381  0.4050  0.1363
 3903SOL     OW23170   1.483   3.285  15.149 -0.0644  0.1564  0.2052
 3903SOL    HW123171   1.459   3.300  15.240  0.8863  0.4057  0.4204
 3903SOL    HW223172   1.575   3.313  15.148  1.1075 -3.7352 -1.8026
 3904SOL     OW23173   2.506   3.285   9.848  0.6206  0.4089  0.1722
 3904SOL    HW123174   2.590   3.299   9.805 -0.4333  0.5907 -1.8240
 3904SOL    HW223175   2.500   3.190   9.853 -0.2966  0.5558  2.0561
 3905SOL     OW23176   1.484   3.968  14.001  0.3321  0.7557  0.1776
 3905SOL    HW123177   1.400   3.969  14.048  0.9598 -1.4222  1.3130
 3905SOL    HW223178   1.525   4.051  14.026 -0.8842  1.5589 -0.4925
 3906SOL     OW23179   3.037   4.315   6.167 -0.2036  0.5414 -0.5398
 3906SOL    HW123180   3.110   4.256   6.183 -0.9998 -0.8577 -2.1606
 3906SOL    HW223181   3.014   4.343   6.256 -2.5569 -0.2439 -0.9082
 3907SOL     OW23182   0.830   0.725   1.392  0.0183  0.4734 -0.0032
 3907SOL    HW123183   0.823   0.661   1.321  2.7504  3.1758 -2.6926
 3907SOL    HW223184   0.894   0.682   1.448 -1.4243 -0.5071  0.9167
 3908SOL     OW23185   2.741   0.778   5.228  0.2171 -0.5599  0.0655
 3908SOL    HW123186   2.816   0.775   5.287 -0.8994  0.6636  1.5374
 3908SOL    HW223187   2.698   0.861   5.248  0.0952 -1.2045  2.5076
 3909SOL     OW23188   4.062   1.976  15.151 -0.5972 -0.1236  0.1218
 3909SOL    HW123189   4.128   1.926  15.104 -0.4742 -0.5374  0.7285
 3909SOL    HW223190   4.068   1.932  15.237 -1.4252 -1.8927 -0.7274
 3910SOL     OW23191   1.376   3.766  10.663 -0.0818  0.7175 -0.4257
 3910SOL    HW123192   1.463   3.781  10.699  0.2806 -0.4285 -0.8146
 3910SOL    HW223193   1.350   3.839  10.607  2.1786  1.4464 -0.5103
 3911SOL     OW23194   2.737   4.214   8.579  0.3934  0.1570 -0.3847
 3911SOL    HW123195   2.693   4.291   8.616  0.7777  0.3552 -0.3438
 3911SOL    HW223196   2.823   4.212   8.621 -0.5721  1.6402  1.6368
 3912SOL     OW23197   1.194   0.793   5.502 -0.1782 -0.4164  0.0619
 3912SOL    HW123198   1.110   0.747   5.499 -1.6353  2.2663  0.7475
 3912SOL    HW223199   1.225   0.805   5.413  1.0876 -1.0261  0.4098
 3913SOL     OW23200   4.025   2.380   3.598 -0.5587  0.1381 -0.4407
 3913SOL    HW123201   3.970   2.457   3.612  1.8232  1.0683  3.8077
 3913SOL    HW223202   4.033   2.383   3.503 -1.3908 -0.7031 -0.5387
 3914SOL     OW23203   0.501   0.288   1.941 -0.3556  0.0482 -0.4914
 3914SOL    HW123204   0.493   0.295   2.036 -1.8283 -0.7000 -0.5643
 3914SOL    HW223205   0.446   0.352   1.895  0.6109  0.6562 -0.8159
 3915SOL     OW23206   3.034   2.532  13.017  0.2683  0.9315  0.5121
 3915SOL    HW123207   3.014   2.535  12.923  0.6635  0.5347  0.4178
 3915SOL    HW223208   2.974   2.589  13.064 -2.1625 -1.4818  0.3060
 3916SOL     OW23209   4.208   4.709  16.198 -0.1181  0.2499  1.1759
 3916SOL    HW123210   4.249   0.055  16.249  1.2578  1.2831 -1.3702
 3916SOL    HW223211   4.147   4.669  16.260 -0.5399 -1.8670 -0.6374
 3917SOL     OW23212   1.222   3.439  15.837 -0.3796 -0.3305 -0.0291
 3917SOL    HW123213   1.244   3.346  15.832  0.0525 -0.0658 -2.8499
 3917SOL    HW223214   1.200   3.426  15.929  0.1451 -0.9401  0.0093
 3918SOL     OW23215   1.287   3.731  16.059 -0.5245 -0.4403  0.0375
 3918SOL    HW123216   1.320   3.818  16.079 -0.7318 -0.1151 -0.9993
 3918SOL    HW223217   1.260   3.693  16.142  1.2652  0.6105  1.0848
 3919SOL     OW23218   3.243   0.059   1.726  0.5239  0.0999 -0.2934
 3919SOL    HW123219   3.215   0.036   1.637 -0.8063  0.2072  0.1005
 3919SOL    HW223220   3.325   0.103   1.703  0.7784  0.1357  0.6769
 3920SOL     OW23221   3.241   1.165  15.273 -0.0381 -0.2629 -0.0814
 3920SOL    HW123222   3.196   1.220  15.338  0.4782 -1.1966  1.0757
 3920SOL    HW223223   3.168   1.106  15.256 -0.5858  0.0556  1.1317
 3921SOL     OW23224   3.751   1.259  12.118 -0.2243 -0.7380  0.0101
 3921SOL    HW123225   3.829   1.315  12.115 -0.5255 -0.2716  0.7211
 3921SOL    HW223226   3.749   1.209  12.037  0.9750  0.9453 -1.0459
 3922SOL     OW23227   2.804   1.067   4.770  0.5315 -0.0093 -0.3561
 3922SOL    HW123228   2.801   1.140   4.708  0.5962 -0.9099 -1.4239
 3922SOL    HW223229   2.798   1.120   4.849 -2.0351 -0.1704 -0.4669
 3923SOL     OW23230   0.254   2.876   2.961 -0.1205 -0.1447 -0.3389
 3923SOL    HW123231   0.344   2.863   2.931  1.0501  0.0171  3.0959
 3923SOL    HW223232   0.230   2.957   2.917  0.7503 -0.8572 -2.1099
 3924SOL     OW23233   4.218   3.569   4.124 -0.7124 -0.6044 -0.3799
 3924SOL    HW123234   4.309   3.571   4.093 -0.7283  0.2488 -0.3616
 3924SOL    HW223235   4.166   3.585   4.045  1.2234  2.6988 -0.9865
 3925SOL     OW23236   2.929   3.099   7.334 -0.2283  0.6491 -0.1386
 3925SOL    HW123237   2.929   3.114   7.240 -0.0425 -0.3410 -0.2997
 3925SOL    HW223238   2.929   3.190   7.363  1.1119  0.0189  1.8224
 3926SOL     OW23239   1.066   3.972  11.281  0.4901 -0.3994 -0.4183
 3926SOL    HW123240   1.049   3.889  11.325 -1.2770 -0.0310 -0.3852
 3926SOL    HW223241   1.113   4.017  11.350  0.7212  1.1612 -1.5821
 3927SOL     OW23242   0.104   3.514  13.399  0.2992 -0.0114 -0.6777
 3927SOL    HW123243   0.082   3.581  13.334  1.2219  1.1067  0.1669
 3927SOL    HW223244   0.036   3.449  13.385  0.8981 -0.6923 -0.4090
 3928SOL     OW23245   2.696   2.296   7.026 -0.0052 -0.0604  0.3731
 3928SOL    HW123246   2.744   2.337   7.098  2.5619 -1.8256 -0.3482
 3928SOL    HW223247   2.629   2.362   7.007  1.6459  1.6089  0.3819
 3929SOL     OW23248   2.378   2.095   1.801 -0.0624 -0.2949 -0.4515
 3929SOL    HW123249   2.421   2.039   1.865 -0.9385 -1.4391 -0.8570
 3929SOL    HW223250   2.451   2.151   1.776 -0.9128  0.8024 -0.5240
 3930SOL     OW23251   0.898   1.516  10.301 -0.0730 -0.0642 -0.3690
 3930SOL    HW123252   0.958   1.477  10.237 -0.8988 -1.1770 -0.4635
 3930SOL    HW223253   0.872   1.593  10.250  0.9726  0.3617 -0.2617
 3931SOL     OW23254   0.387   1.736   1.275 -0.1400 -0.3249 -0.3973
 3931SOL    HW123255   0.321   1.668   1.257  0.5994 -0.9916 -0.6205
 3931SOL    HW223256   0.417   1.761   1.187  2.5129  0.4260  0.7098
 3932SOL     OW23257   1.596   2.376   7.071 -0.1930 -0.1591  0.2515
 3932SOL    HW123258   1.677   2.356   7.118 -1.9635  2.6357  4.4272
 3932SOL    HW223259   1.596   2.315   6.997 -1.9607 -1.8233  1.6382
 3933SOL     OW23260   4.410   3.233   5.736  0.0886 -0.1546  0.3998
 3933SOL    HW123261   4.445   3.187   5.660 -2.0046 -1.9357  0.5347
 3933SOL    HW223262   4.321   3.208   5.712 -0.1142  0.3917  0.5720
 3934SOL     OW23263   3.308   3.930   2.100 -0.1918 -0.3564 -0.1738
 3934SOL    HW123264   3.320   4.019   2.133 -0.3309 -0.1943 -0.5659
 3934SOL    HW223265   3.380   3.931   2.037  0.9728  2.6452  1.1963
 3935SOL     OW23266   0.433   4.169   2.915  0.3261  0.5684 -0.4150
 3935SOL    HW123267   0.451   4.091   2.863 -0.7351  0.4404 -0.6069
 3935SOL    HW223268   0.522   4.191   2.942  0.0180 -0.1405  1.1378
 3936SOL     OW23269   1.699   2.248   2.604  0.2787  0.0040 -0.2393
 3936SOL    HW123270   1.768   2.264   2.667 -0.3704  1.9642 -0.0128
 3936SOL    HW223271   1.625   2.306   2.624  0.1837 -0.1334 -0.1957
 3937SOL     OW23272   3.801   4.207   4.642  0.4168  0.6040  0.2147
 3937SOL    HW123273   3.820   4.280   4.583  0.2183  0.8789  0.4912
 3937SOL    HW223274   3.711   4.225   4.666 -0.7433 -0.3153 -3.4748
 3938SOL     OW23275   0.801   3.836  16.100 -0.6770 -0.1231  0.1164
 3938SOL    HW123276   0.850   3.754  16.106 -2.1724 -1.0716 -0.6083
 3938SOL    HW223277   0.877   3.893  16.100 -1.1877  0.5738 -2.0790
 3939SOL     OW23278   1.971   0.515   6.142 -0.3635  0.7837  0.1600
 3939SOL    HW123279   1.883   0.546   6.166 -0.7697  0.6011 -1.1317
 3939SOL    HW223280   1.997   0.463   6.218 -0.2317 -0.5507 -0.8078
 3940SOL     OW23281   2.092   2.817   4.434 -0.2062 -0.0878  0.0074
 3940SOL    HW123282   2.047   2.878   4.493  0.6756  0.2527  0.3276
 3940SOL    HW223283   2.106   2.885   4.369  0.2282  0.6849  0.9135
 3941SOL     OW23284   4.156   3.087   6.211 -0.2179  0.3687  0.4776
 3941SOL    HW123285   4.121   3.113   6.125  0.8008  3.6420  1.0295
 3941SOL    HW223286   4.185   3.169   6.251  2.8578 -0.0943 -0.7688
 3942SOL     OW23287   0.349   4.517   3.883 -0.1639  0.3159  0.4951
 3942SOL    HW123288   0.281   4.495   3.820  0.7693  2.3266 -1.2309
 3942SOL    HW223289   0.341   4.612   3.880  0.7617  0.3813 -0.0060
 3943SOL     OW23290   0.907   0.067   7.212 -0.3425  0.3044 -0.2305
 3943SOL    HW123291   0.830   0.052   7.157 -2.0219  2.3984  1.5423
 3943SOL    HW223292   0.983   0.077   7.155  1.7815  1.5222  2.8060
 3944SOL     OW23293   3.290   2.331   4.867 -0.6132 -0.1648  0.3268
 3944SOL    HW123294   3.335   2.387   4.803 -1.4898  2.0015  1.5915
 3944SOL    HW223295   3.365   2.317   4.924 -0.4536  0.6197  0.3102
 3945SOL     OW23296   0.521   1.326   8.586 -0.0952  0.2315  0.6639
 3945SOL    HW123297   0.480   1.413   8.585 -0.3372  0.1223  1.0090
 3945SOL    HW223298   0.443   1.271   8.579  0.6059 -0.5453 -1.0062
 3946SOL     OW23299   1.820   4.080   7.440  0.0926  0.6508 -0.0068
 3946SOL    HW123300   1.738   4.057   7.483  0.8860  1.6885  2.0624
 3946SOL    HW223301   1.865   3.996   7.435  0.3650  0.7940  0.0087
 3947SOL     OW23302   4.377   0.471   5.842 -0.0586 -0.2679  0.4608
 3947SOL    HW123303   4.410   0.538   5.782 -0.8237 -0.0878  0.2432
 3947SOL    HW223304   4.312   0.524   5.888 -0.9979  0.7915 -2.1206
 3948SOL     OW23305   4.386   0.083   7.280  0.1061 -0.3309 -0.2466
 3948SOL    HW123306   4.338   0.133   7.345  2.1941  1.4894 -0.1033
 3948SOL    HW223307   4.379   0.142   7.205 -2.0348 -0.7881 -0.3981
 3949SOL     OW23308   2.044   0.488   8.299 -0.0688  0.0415 -0.3630
 3949SOL    HW123309   2.035   0.455   8.209  2.4372 -1.9106  0.1047
 3949SOL    HW223310   2.092   0.420   8.346  0.7790  1.4386  0.8016
 3950SOL     OW23311   0.845   1.698   5.524  0.3486 -0.0682 -0.0253
 3950SOL    HW123312   0.856   1.664   5.613 -0.3730 -2.4926 -0.8555
 3950SOL    HW223313   0.927   1.664   5.489  0.0902  0.8413 -1.5336
 3951SOL     OW23314   4.584   3.225   7.732  0.1589  0.2973 -0.0500
 3951SOL    HW123315   4.632   3.188   7.658  0.4166  0.0314  0.2534
 3951SOL    HW223316   4.588   3.316   7.704  0.9623  0.0113 -0.8597
 3952SOL     OW23317   0.337   1.928  10.694 -0.0804  0.0363 -0.4203
 3952SOL    HW123318   0.415   1.982  10.680 -0.7326  0.8452 -0.9540
 3952SOL    HW223319   0.316   1.955  10.784  0.7548 -1.2223  0.1456
 3953SOL     OW23320   0.822   0.216   7.419  0.1314 -0.1139  0.5098
 3953SOL    HW123321   0.845   0.185   7.332 -2.4741 -1.6652  0.3942
 3953SOL    HW223322   0.903   0.195   7.466 -0.0486 -1.6534  0.1275
 3954SOL     OW23323   1.953   0.119   4.168  0.3092  0.0947 -0.1093
 3954SOL    HW123324   1.923   0.192   4.113  0.1628  0.0630 -0.0695
 3954SOL    HW223325   1.908   0.049   4.121  1.5557 -0.2661 -0.7682
 3955SOL     OW23326   4.514   3.794   0.987  0.5888  0.3232 -0.2956
 3955SOL    HW123327   4.595   3.821   0.945  0.6527  0.1496 -0.2851
 3955SOL    HW223328   4.536   3.712   1.031  0.2334 -1.6431 -3.8163
 3956SOL     OW23329   1.752   3.594  15.544 -0.1488  0.1831 -0.4238
 3956SOL    HW123330   1.786   3.626  15.628 -1.8420 -0.2649  0.4277
 3956SOL    HW223331   1.689   3.659  15.512 -2.5067 -1.3959  1.0493
 3957SOL     OW23332   3.462   0.014   5.040 -0.0634 -0.4117  0.0612
 3957SOL    HW123333   3.452   4.644   5.034  1.4685 -0.3879 -3.0159
 3957SOL    HW223334   3.473   0.043   4.950  0.3271  1.0342  0.5896
 3958SOL     OW23335   3.871   1.288  16.021  0.0791 -0.4254  0.0940
 3958SOL    HW123336   3.848   1.252  15.935  1.8368 -0.0267 -0.5289
 3958SOL    HW223337   3.779   1.286  16.049  0.3697  1.4303  1.1582
 3959SOL     OW23338   2.725   1.426  14.875  0.7412  0.8430 -0.1806
 3959SOL    HW123339   2.646   1.478  14.890  0.2612  0.3845 -1.1137
 3959SOL    HW223340   2.752   1.413  14.966 -0.4154  1.2068  0.2163
 3960SOL     OW23341   2.860   3.058   3.104 -0.0208 -0.2073  0.0124
 3960SOL    HW123342   2.801   3.130   3.127  3.0236  2.8713 -1.9102
 3960SOL    HW223343   2.925   3.110   3.058  0.7919 -0.2096  1.1598
 3961SOL     OW23344   4.401   1.828   2.454  0.3792 -0.5976 -0.1586
 3961SOL    HW123345   4.328   1.803   2.397 -0.1761  0.6706  0.0014
 3961SOL    HW223346   4.349   1.830   2.535 -0.0202 -2.3458 -0.3735
 3962SOL     OW23347   3.792   1.508   8.233  0.0538 -0.1767 -0.1327
 3962SOL    HW123348   3.822   1.417   8.238  0.8675  0.1203  0.2282
 3962SOL    HW223349   3.757   1.517   8.322 -1.0220  2.7519 -0.8661
 3963SOL     OW23350   2.535   2.825   2.637  0.3359 -0.0217 -0.2642
 3963SOL    HW123351   2.569   2.854   2.552  0.1560 -0.5061 -0.5002
 3963SOL    HW223352   2.464   2.769   2.606  1.6644 -0.2981 -2.8343
 3964SOL     OW23353   3.158   2.616   8.527 -0.7080 -0.5490  0.2145
 3964SOL    HW123354   3.078   2.597   8.478  1.5832 -0.5478 -3.4993
 3964SOL    HW223355   3.121   2.665   8.600  0.7112 -0.0416  0.6021
 3965SOL     OW23356   4.327   2.248  17.685  0.0398  0.4051  0.0315
 3965SOL    HW123357   4.277   2.172   0.013 -0.1308  0.5972  0.2337
 3965SOL    HW223358   4.339   2.298   0.063  1.6174  1.9343 -1.1711
 3966SOL     OW23359   1.626   0.127   9.145  0.0540 -0.0595 -0.4159
 3966SOL    HW123360   1.608   0.202   9.203  1.4780  0.4789 -0.6731
 3966SOL    HW223361   1.638   0.187   9.072 -0.5710  0.7874  0.1745
 3967SOL     OW23362   0.507   4.536   2.885 -0.6436 -0.5719 -0.2960
 3967SOL    HW123363   0.445   4.593   2.930 -0.3827 -0.3551 -0.2072
 3967SOL    HW223364   0.475   4.551   2.796 -2.2796 -1.4477  0.1424
 3968SOL     OW23365   4.163   3.219   5.619  0.5487 -0.0653  0.4839
 3968SOL    HW123366   4.114   3.255   5.545  1.8281 -1.0291 -0.8320
 3968SOL    HW223367   4.160   3.124   5.612 -1.0557 -0.1075  1.7067
 3969SOL     OW23368   2.491   2.907   0.311 -0.4240  0.1755  0.3349
 3969SOL    HW123369   2.520   2.977   0.369  0.9016  1.4583 -1.8821
 3969SOL    HW223370   2.410   2.940   0.272 -1.3006  0.0244  2.0560
 3970SOL     OW23371   0.532   0.552   1.642  0.1170 -0.4273 -0.1491
 3970SOL    HW123372   0.471   0.522   1.709  2.4246 -1.5031  1.4862
 3970SOL    HW223373   0.617   0.556   1.685 -0.3695 -3.1458  1.0791
 3971SOL     OW23374   2.262   0.458  14.095 -0.1003  0.3567  0.1648
 3971SOL    HW123375   2.171   0.429  14.084 -0.3689  0.8232  1.1782
 3971SOL    HW223376   2.312   0.376  14.104 -0.0581  0.2919 -0.6831
 3972SOL     OW23377   3.563   1.205   8.196 -0.2524 -0.3861 -0.8895
 3972SOL    HW123378   3.539   1.293   8.223 -0.7948 -1.1777  1.1933
 3972SOL    HW223379   3.598   1.173   8.279  0.4208  2.4841 -0.0974
 3973SOL     OW23380   1.490   4.657   1.718 -0.4542  0.5264 -0.8411
 3973SOL    HW123381   1.512   4.681   1.808  0.4116 -0.4170 -0.8038
 3973SOL    HW223382   1.495   4.562   1.712 -3.8640  0.2357  0.6606
 3974SOL     OW23383   2.260   0.275   5.572  1.1378 -0.2047  0.5750
 3974SOL    HW123384   2.241   0.323   5.652 -1.8010 -0.5700  0.0893
 3974SOL    HW223385   2.337   0.326   5.545 -0.1324  1.3327 -0.1298
 3975SOL     OW23386   2.882   0.685   7.409  0.3709 -0.1549  0.1298
 3975SOL    HW123387   2.895   0.650   7.497 -2.0211  1.0558  0.9764
 3975SOL    HW223388   2.899   0.608   7.353 -2.1725  0.4363 -1.4626
 3976SOL     OW23389   2.955   4.326   7.136  0.4582 -0.1804  0.0459
 3976SOL    HW123390   2.955   4.342   7.042  3.1799 -1.6900 -0.2075
 3976SOL    HW223391   2.867   4.361   7.146 -0.2196 -1.6657 -0.6309
 3977SOL     OW23392   0.312   3.550   7.993  0.1630 -0.1091 -0.4947
 3977SOL    HW123393   0.354   3.529   7.909 -1.2339  0.2883 -1.2950
 3977SOL    HW223394   0.266   3.627   7.959 -0.5793  0.5988  2.1075
 3978SOL     OW23395   0.498   4.165   8.875  0.1795  0.2336 -0.1150
 3978SOL    HW123396   0.410   4.202   8.869  0.7861  1.6423 -0.4443
 3978SOL    HW223397   0.486   4.074   8.849 -0.2826 -0.2050  1.6312
 3979SOL     OW23398   2.997   0.429   8.720  0.0019 -0.7800 -0.1376
 3979SOL    HW123399   3.036   0.346   8.693  0.1619 -0.0880 -2.0328
 3979SOL    HW223400   2.903   0.417   8.735  0.0883 -0.2363  0.8554
 3980SOL     OW23401   4.238   1.324   8.724  0.2392 -0.4380 -0.1438
 3980SOL    HW123402   4.254   1.361   8.637 -1.7715  2.1359  0.6045
 3980SOL    HW223403   4.191   1.393   8.770  0.4324 -0.5035  0.1534
 3981SOL     OW23404   2.256   1.820  13.938  0.0424 -0.0861 -0.0127
 3981SOL    HW123405   2.336   1.865  13.964 -0.6847  1.6908 -0.8502
 3981SOL    HW223406   2.280   1.757  13.870  1.4534  1.8346 -1.2962
 3982SOL     OW23407   1.392   2.116   1.274 -0.2745  0.6351  0.3108
 3982SOL    HW123408   1.449   2.053   1.230 -1.4211  1.9826 -3.0281
 3982SOL    HW223409   1.440   2.136   1.355  1.5504 -0.9790 -0.3865
 3983SOL     OW23410   0.065   3.129   2.453 -0.1971  0.0716  0.3949
 3983SOL    HW123411   0.072   3.039   2.485 -0.6952 -0.5640 -1.3004
 3983SOL    HW223412   4.704   3.123   2.410  1.2117 -1.6132 -2.2139
 3984SOL     OW23413   0.890   2.946  11.425  0.0554 -0.3140 -0.0559
 3984SOL    HW123414   0.909   3.023  11.479 -0.8996  0.3146 -0.5998
 3984SOL    HW223415   0.808   2.971  11.381 -0.3741 -0.9946  0.3614
 3985SOL     OW23416   1.203   1.218   7.763  0.8155 -0.0417  0.0193
 3985SOL    HW123417   1.248   1.270   7.696  0.4621 -1.1531 -1.0750
 3985SOL    HW223418   1.124   1.193   7.716  0.4247 -0.3991  0.8644
 3986SOL     OW23419   3.845   0.272   6.307  0.0101  0.5399  0.1719
 3986SOL    HW123420   3.828   0.185   6.270 -0.5179  0.1249  1.3809
 3986SOL    HW223421   3.940   0.283   6.314 -0.2920  1.9456  2.3760
 3987SOL     OW23422   2.821   4.167  17.561  0.0421  0.3268  0.7254
 3987SOL    HW123423   2.809   4.192  17.469  1.6471 -0.6287  0.2572
 3987SOL    HW223424   2.784   4.079  17.546  5.0630 -1.7844  0.8652
 3988SOL     OW23425   2.357   1.798  17.560  0.6462 -0.5256  0.2423
 3988SOL    HW123426   2.380   1.888  17.581 -1.0000  0.0216 -0.2744
 3988SOL    HW223427   2.429   1.749  17.600 -1.1010 -0.8778  2.8927
 3989SOL     OW23428   3.352   3.481   7.854  0.4042  0.3297  0.0188
 3989SOL    HW123429   3.257   3.484   7.838  0.3964 -0.0874 -0.0220
 3989SOL    HW223430   3.346   3.458   7.947  0.5156 -1.4464 -0.4085
 3990SOL     OW23431   2.449   4.360   6.523  0.0524 -0.1481  0.2710
 3990SOL    HW123432   2.437   4.266   6.511  0.0570  0.0208 -1.0596
 3990SOL    HW223433   2.512   4.361   6.595 -0.0933 -1.2647  0.4085
 3991SOL     OW23434   3.216   1.292   9.674  0.3093 -0.2220 -0.1883
 3991SOL    HW123435   3.128   1.312   9.706  0.4331 -0.2462  0.1700
 3991SOL    HW223436   3.257   1.288   9.760 -1.1991  1.6868  0.6273
 3992SOL     OW23437   2.408   2.440  16.009 -0.0531 -0.5464 -0.2704
 3992SOL    HW123438   2.399   2.360  15.957 -1.4111 -0.0796 -0.7342
 3992SOL    HW223439   2.366   2.503  15.951  2.8597  2.8116  1.2936
 3993SOL     OW23440   1.809   3.527   8.982 -0.2558 -0.2320 -0.2984
 3993SOL    HW123441   1.832   3.442   8.946  1.2546  0.3552 -0.7276
 3993SOL    HW223442   1.893   3.568   9.002 -1.5790  1.5952  1.5248
 3994SOL     OW23443   2.208   4.083   4.346  0.6556  0.5300 -0.2391
 3994SOL    HW123444   2.254   4.138   4.409  0.5692  0.5584 -0.2001
 3994SOL    HW223445   2.273   4.071   4.277 -0.0288 -1.1061 -0.5973
 3995SOL     OW23446   3.545   1.168  12.987  0.2248  0.3223 -0.1334
 3995SOL    HW123447   3.476   1.171  13.054 -0.1885  1.2284 -0.6038
 3995SOL    HW223448   3.590   1.086  13.008  0.5813 -0.1155 -2.6215
 3996SOL     OW23449   3.573   1.188   6.356 -0.4429  0.4062 -0.2352
 3996SOL    HW123450   3.636   1.212   6.424  0.2171  1.5680 -1.2639
 3996SOL    HW223451   3.635   1.179   6.284  0.8003 -2.6962  1.2093
 3997SOL     OW23452   2.083   3.396   7.638  0.3372 -0.3001 -0.3630
 3997SOL    HW123453   1.995   3.420   7.609 -0.2889 -0.4921  1.3728
 3997SOL    HW223454   2.121   3.373   7.554  0.2522 -2.5776  0.2417
 3998SOL     OW23455   1.806   0.542  10.672  0.0698 -0.5427 -0.0085
 3998SOL    HW123456   1.893   0.570  10.642  1.1666 -1.8778  1.8549
 3998SOL    HW223457   1.824   0.466  10.727  2.2405 -0.8345 -1.1129
 3999SOL     OW23458   0.670   0.507   4.012  0.3215  0.2242  0.4812
 3999SOL    HW123459   0.607   0.532   3.945  0.9420 -2.7656 -1.2320
 3999SOL    HW223460   0.706   0.590   4.043  0.4453 -0.0804  1.1519
 4000SOL     OW23461   3.842   0.879   5.087 -0.2353  0.3586  0.4818
 4000SOL    HW123462   3.853   0.833   5.170  1.3700 -0.8894 -0.4278
 4000SOL    HW223463   3.769   0.839   5.040 -0.6153 -1.4427  2.6465
 4001SOL     OW23464   0.641   4.692   7.778  0.0756 -0.2825 -0.3754
 4001SOL    HW123465   0.717   4.676   7.834 -1.6158 -1.3739  1.6526
 4001SOL    HW223466   0.615   0.050   7.819 -2.3582 -0.2428 -2.0334
 4002SOL     OW23467   1.205   4.715   2.301 -0.6080  0.3405  0.1130
 4002SOL    HW123468   1.164   4.642   2.347 -0.4235 -0.6302 -1.2666
 4002SOL    HW223469   1.154   0.063   2.337 -0.6126 -0.1900  1.1611
 4003SOL     OW23470   0.868   4.524   2.401 -0.0675 -0.5891 -0.2212
 4003SOL    HW123471   0.957   4.489   2.395 -0.9547 -3.0676  1.1019
 4003SOL    HW223472   0.885   4.618   2.407 -3.5351  0.0661 -0.4220
 4004SOL     OW23473   4.162   0.799   5.225  0.5337 -0.2849  0.1807
 4004SOL    HW123474   4.209   0.828   5.304  1.9239  1.4581 -1.3019
 4004SOL    HW223475   4.233   0.768   5.169  0.1407 -0.2732 -0.3136
 4005SOL     OW23476   0.012   2.201   5.623 -0.3510 -0.0983  0.0443
 4005SOL    HW123477   4.703   2.173   5.708  0.2796  0.6943  0.5562
 4005SOL    HW223478   0.065   2.280   5.638 -1.3392  0.5132  0.3275
 4006SOL     OW23479   3.434   2.869   1.673 -0.4274 -0.1357 -0.0517
 4006SOL    HW123480   3.355   2.859   1.620 -0.5754 -0.3905  0.2173
 4006SOL    HW223481   3.444   2.779   1.702 -3.3719  0.1217  1.7557
 4007SOL     OW23482   4.480   3.850   4.438  0.0651  0.3068 -0.1447
 4007SOL    HW123483   4.401   3.848   4.383 -0.1994  1.7571  0.1782
 4007SOL    HW223484   4.444   3.802   4.513  1.5254 -1.5282 -0.6429
 4008SOL     OW23485   2.374   1.057   7.406 -0.0882  0.2187  0.4370
 4008SOL    HW123486   2.329   1.037   7.324  2.6406  1.1686 -1.2544
 4008SOL    HW223487   2.466   1.062   7.380  1.1249 -2.0958  4.1971
 4009SOL     OW23488   1.057   4.419   2.125 -0.4372 -0.2366  0.6340
 4009SOL    HW123489   1.145   4.410   2.089 -0.3885 -1.6711  1.1045
 4009SOL    HW223490   1.082   4.437   2.215 -0.6629  1.6528  0.3314
 4010SOL     OW23491   3.912   3.331   6.412 -0.0736 -0.1423 -0.1149
 4010SOL    HW123492   3.920   3.421   6.444  1.2800 -0.6274  0.8968
 4010SOL    HW223493   3.837   3.344   6.354  0.3942 -1.6192 -1.0321
 4011SOL     OW23494   2.195   0.018   8.169  0.4870  0.2967  0.5424
 4011SOL    HW123495   2.269   4.698   8.209 -0.5721  0.8544  3.0992
 4011SOL    HW223496   2.125   4.706   8.222  0.3045  1.3030  1.0037
 4012SOL     OW23497   4.709   2.392  12.079 -0.4486 -0.2645 -0.5779
 4012SOL    HW123498   0.074   2.417  12.057 -0.2917 -0.1723  0.1727
 4012SOL    HW223499   4.650   2.457  12.041  1.1353  1.4849 -0.0504
 4013SOL     OW23500   2.586   2.656  17.166  0.0834 -0.0173 -0.1374
 4013SOL    HW123501   2.506   2.603  17.172  0.2539 -0.4060 -1.2438
 4013SOL    HW223502   2.560   2.733  17.115  0.4672  1.4975  1.9212
 4014SOL     OW23503   4.158   4.178   6.701  0.4843 -0.3927  0.0416
 4014SOL    HW123504   4.098   4.253   6.694  1.4396  0.2502 -1.0854
 4014SOL    HW223505   4.163   4.137   6.615  0.3044 -2.1756  0.8909
 4015SOL     OW23506   3.622   3.829  10.524 -0.1561  0.0016  0.4112
 4015SOL    HW123507   3.665   3.915  10.519  2.1725 -1.1359  0.9897
 4015SOL    HW223508   3.641   3.815  10.616 -2.9546 -1.0041  0.8324
 4016SOL     OW23509   3.609   2.234   7.344  0.2621  0.1679  0.1556
 4016SOL    HW123510   3.594   2.275   7.429  0.9782 -1.1564  0.9295
 4016SOL    HW223511   3.641   2.313   7.301  2.0342  0.5731  2.1803
 4017SOL     OW23512   1.702   4.133   3.982  0.7897  0.0891 -0.1579
 4017SOL    HW123513   1.680   4.216   3.939 -3.5259 -1.2791 -0.5307
 4017SOL    HW223514   1.633   4.129   4.047  0.2761 -0.5968 -0.7481
 4018SOL     OW23515   2.089   2.041   6.436 -0.3859 -0.1725 -0.6343
 4018SOL    HW123516   2.179   2.072   6.447 -0.3030  0.2714 -2.7185
 4018SOL    HW223517   2.053   2.037   6.525  1.0037  3.7503  0.0929
 4019SOL     OW23518   3.775   0.212  14.687 -0.2066  0.1267 -0.2991
 4019SOL    HW123519   3.729   0.135  14.719 -0.0562  0.0204 -0.3363
 4019SOL    HW223520   3.740   0.277  14.748 -2.4028 -2.7761  1.5338
 4020SOL     OW23521   2.673   2.206   0.470 -0.9082 -0.2791 -0.0724
 4020SOL    HW123522   2.710   2.288   0.501 -3.1550 -0.0414  1.9248
 4020SOL    HW223523   2.608   2.249   0.415  1.0014 -0.0579 -2.1962
 4021SOL     OW23524   0.432   2.891  12.522 -0.1833  0.0805 -0.1157
 4021SOL    HW123525   0.386   2.808  12.509 -0.5673  0.1212  0.9599
 4021SOL    HW223526   0.459   2.873  12.612 -0.7863  2.3309  0.5199
 4022SOL     OW23527   1.812   1.863   2.417  0.6058  0.0746  0.4788
 4022SOL    HW123528   1.838   1.809   2.343  0.1233 -0.3342  0.6111
 4022SOL    HW223529   1.797   1.792   2.479 -1.5856 -0.6968 -0.9286
 4023SOL     OW23530   3.246   1.147  12.854  0.0528  0.1633 -0.0336
 4023SOL    HW123531   3.287   1.233  12.847 -0.5853  0.3957 -0.8957
 4023SOL    HW223532   3.179   1.165  12.789 -0.8121 -0.5689  0.6532
 4024SOL     OW23533   4.233   0.725   6.252 -0.2463  0.2407 -0.4070
 4024SOL    HW123534   4.297   0.748   6.186 -0.0197  1.1943  0.1520
 4024SOL    HW223535   4.163   0.747   6.190  0.6571 -2.0451 -2.2239
 4025SOL     OW23536   0.997   2.443  11.593  0.6179 -0.3615 -0.1604
 4025SOL    HW123537   0.981   2.523  11.543 -0.4943  0.4753  1.5538
 4025SOL    HW223538   1.093   2.443  11.584  0.5746 -2.5421 -0.7076
 4026SOL     OW23539   2.525   1.853   5.207 -0.1591 -0.0191 -0.1457
 4026SOL    HW123540   2.443   1.821   5.169  0.5182 -3.7203  1.5278
 4026SOL    HW223541   2.507   1.872   5.299 -2.5233 -2.7951 -0.0608
 4027SOL     OW23542   1.802   4.021   3.492  0.2470  0.0996 -0.3438
 4027SOL    HW123543   1.844   4.074   3.560 -1.0839 -0.9418  1.2958
 4027SOL    HW223544   1.879   3.984   3.451  1.0757  0.7908  0.5861
 4028SOL     OW23545   0.856   0.043   7.969 -0.1866 -0.2481 -0.0505
 4028SOL    HW123546   0.855   0.101   8.045  0.2034 -1.5427  0.9382
 4028SOL    HW223547   0.871   4.687   8.018 -1.9481 -0.3449  0.3419
 4029SOL     OW23548   2.313   0.996   7.753  0.1035  0.2479 -0.0917
 4029SOL    HW123549   2.389   1.023   7.804  1.4552 -0.0263 -1.9594
 4029SOL    HW223550   2.332   1.033   7.667  1.6911  0.3361  0.2972
 4030SOL     OW23551   3.944   3.197   0.608 -0.1805 -0.3764  0.7539
 4030SOL    HW123552   4.022   3.160   0.567 -0.8628  0.3348 -1.1646
 4030SOL    HW223553   3.976   3.255   0.677  0.0494 -0.2835  0.5668
 4031SOL     OW23554   0.959   1.985   1.669 -0.4128  0.3103 -0.3237
 4031SOL    HW123555   0.996   2.065   1.706  2.0958 -1.2372  0.5007
 4031SOL    HW223556   0.921   1.950   1.749  0.2725 -0.1958 -0.2162
 4032SOL     OW23557   4.468   2.230   2.984  0.3266 -0.0376  0.5303
 4032SOL    HW123558   4.427   2.186   3.058  0.9675 -1.5406 -0.0076
 4032SOL    HW223559   4.546   2.176   2.970 -0.4447 -0.8038 -0.8781
 4033SOL     OW23560   0.457   1.765   7.749  0.0850  0.1878  0.6695
 4033SOL    HW123561   0.429   1.815   7.672  0.6595 -1.7298 -0.7762
 4033SOL    HW223562   0.446   1.675   7.719  1.8751  0.4753 -0.8975
 4034SOL     OW23563   2.165   0.615   9.770 -0.3168  0.3456 -0.2173
 4034SOL    HW123564   2.069   0.619   9.773 -0.3175 -0.0477  0.3207
 4034SOL    HW223565   2.187   0.538   9.718 -1.9857 -1.0366  1.1061
 4035SOL     OW23566   2.495   0.586  11.076  0.3062  0.0632 -0.1882
 4035SOL    HW123567   2.504   0.562  11.168 -2.6301 -0.8483 -0.1418
 4035SOL    HW223568   2.469   0.504  11.034 -3.3265  1.2524 -0.2674
 4036SOL     OW23569   0.206   3.082   4.375 -0.6308  0.0008 -0.6016
 4036SOL    HW123570   0.139   3.093   4.442  1.4963  1.6475  1.2781
 4036SOL    HW223571   0.222   3.175   4.363 -2.8717  0.4178 -0.3176
 4037SOL     OW23572   1.940   2.677   1.871 -0.1795 -0.1006 -0.3903
 4037SOL    HW123573   1.881   2.605   1.850  2.1550 -1.8015 -1.2015
 4037SOL    HW223574   1.905   2.695   1.958 -0.3887 -1.3027 -0.2348
 4038SOL     OW23575   1.020   1.907   5.377  0.0414 -0.2377 -0.2147
 4038SOL    HW123576   0.983   1.897   5.290  0.9188 -1.7008 -0.4168
 4038SOL    HW223577   0.945   1.881   5.431 -0.6790  1.4242 -0.4017
 4039SOL     OW23578   4.701   2.190  11.205  0.0326  0.3830  0.3290
 4039SOL    HW123579   4.653   2.273  11.209  1.5719  1.2222  1.6593
 4039SOL    HW223580   0.036   2.202  11.279  0.9886 -0.1407 -0.3612
 4040SOL     OW23581   3.492   3.504  11.176  0.0109  0.2454  0.6056
 4040SOL    HW123582   3.549   3.488  11.250  1.3748 -0.3270 -0.5789
 4040SOL    HW223583   3.435   3.427  11.184  0.4842 -0.4086 -2.2119
 4041SOL     OW23584   3.116   0.831   7.651  0.6423 -0.6616  0.5604
 4041SOL    HW123585   3.158   0.791   7.574  0.2075 -0.4345  0.2061
 4041SOL    HW223586   3.167   0.911   7.666  1.9878 -1.2858 -0.6152
 4042SOL     OW23587   1.205   3.716   0.736  0.8371 -0.5272 -0.4635
 4042SOL    HW123588   1.204   3.733   0.830  0.8895  0.6522 -0.6743
 4042SOL    HW223589   1.130   3.767   0.704  0.7189  0.6501  1.7103
 4043SOL     OW23590   3.083   1.798  13.459  0.4112  0.1215 -0.0319
 4043SOL    HW123591   3.062   1.862  13.527 -1.6002  0.5303 -1.0512
 4043SOL    HW223592   3.177   1.818  13.452  0.0369  1.4254 -1.2407
 4044SOL     OW23593   3.381   2.909  17.695  0.4031 -0.3196  0.0106
 4044SOL    HW123594   3.424   2.848   0.053  0.8833 -1.7747 -1.7790
 4044SOL    HW223595   3.413   2.883  17.608 -1.2817  0.4939 -0.8483
 4045SOL     OW23596   3.554   3.748   5.998 -0.8018 -0.1565 -0.2525
 4045SOL    HW123597   3.584   3.724   5.910  0.0187 -1.9196  0.5239
 4045SOL    HW223598   3.490   3.812   5.967  0.5906  0.3613 -2.1063
 4046SOL     OW23599   3.984   3.320   5.379  0.1360  0.8190  0.1333
 4046SOL    HW123600   3.908   3.333   5.322 -2.4563  0.4515  3.4859
 4046SOL    HW223601   3.935   3.348   5.457 -0.9841 -1.5792  0.2947
 4047SOL     OW23602   1.782   0.253   3.126  0.0747  0.2683 -0.2844
 4047SOL    HW123603   1.734   0.198   3.064 -0.6338  0.3691  0.1762
 4047SOL    HW223604   1.771   0.206   3.208 -2.5540 -1.0378 -1.3956
 4048SOL     OW23605   1.829   2.676   8.191 -0.2130  0.4830 -0.4708
 4048SOL    HW123606   1.791   2.593   8.164 -0.3884  0.1337  0.8723
 4048SOL    HW223607   1.919   2.648   8.209 -0.7678 -0.3406  1.0030
 4049SOL     OW23608   0.507   4.650   4.709 -0.2092  0.7847  0.2012
 4049SOL    HW123609   0.509   0.005   4.762  1.1030  0.0434  1.2846
 4049SOL    HW223610   0.516   4.688   4.622 -0.2467 -2.5561 -1.2119
 4050SOL     OW23611   2.436   1.438   6.921 -0.2122 -0.7257 -0.3677
 4050SOL    HW123612   2.479   1.454   6.837 -1.7335  2.6154 -0.5226
 4050SOL    HW223613   2.400   1.352   6.903  1.2244 -1.9746  2.7612
 4051SOL     OW23614   0.732   0.868   5.125  0.7473  0.5231  0.5570
 4051SOL    HW123615   0.777   0.952   5.133 -0.0000  0.9475  0.2655
 4051SOL    HW223616   0.643   0.887   5.154  0.5106 -1.3427  1.0657
 4052SOL     OW23617   0.684   2.618  15.028 -0.1857  0.1882  0.3724
 4052SOL    HW123618   0.704   2.676  15.102 -2.5314 -0.8719  1.8538
 4052SOL    HW223619   0.731   2.540  15.056  0.5306 -0.6545 -3.2014
 4053SOL     OW23620   1.514   2.804   1.855  0.4022  0.1373  0.7432
 4053SOL    HW123621   1.454   2.748   1.903  0.6446  0.9774  2.0471
 4053SOL    HW223622   1.515   2.759   1.771 -0.7830 -0.9955  1.3417
 4054SOL     OW23623   3.636   0.450   8.878  0.3865 -0.6944 -0.4319
 4054SOL    HW123624   3.572   0.392   8.918 -0.5952  0.7436  0.0652
 4054SOL    HW223625   3.664   0.411   8.796  1.1865 -0.7726 -0.1219
 4055SOL     OW23626   0.561   3.429  15.670  0.6044 -0.3256  0.1490
 4055SOL    HW123627   0.526   3.488  15.604  1.0626  1.6524  1.6727
 4055SOL    HW223628   0.654   3.451  15.669  0.6314 -0.3012  3.0153
 4056SOL     OW23629   1.537   3.708  15.402 -0.6606  0.1303  0.1026
 4056SOL    HW123630   1.467   3.645  15.385  1.4575 -1.6246 -2.1093
 4056SOL    HW223631   1.504   3.762  15.473  2.1297 -0.5773  1.9471
 4057SOL     OW23632   3.421   2.792  11.061 -0.0261 -0.1312 -0.0572
 4057SOL    HW123633   3.456   2.722  11.007  0.1436  0.4357 -0.6826
 4057SOL    HW223634   3.470   2.767  11.140  0.9353 -0.5626 -0.7986
 4058SOL     OW23635   1.568   3.746   4.284  0.0865 -0.0649  0.1136
 4058SOL    HW123636   1.503   3.808   4.252  0.4480  1.7828  3.0516
 4058SOL    HW223637   1.641   3.805   4.302  1.1422 -1.3485  0.1228
 4059SOL     OW23638   3.238   2.155   4.620  0.8628  0.0121 -0.0184
 4059SOL    HW123639   3.298   2.134   4.548  0.0304 -1.1821 -0.3594
 4059SOL    HW223640   3.296   2.217   4.664  0.1030  1.1757 -0.6420
 4060SOL     OW23641   2.397   3.521  10.090 -0.8447 -0.3513  0.2388
 4060SOL    HW123642   2.370   3.491  10.003  1.6514 -0.8453 -0.3797
 4060SOL    HW223643   2.477   3.564  10.060 -1.1779  0.8931  1.1379
 4061SOL     OW23644   3.035   4.276   4.917  0.1099 -0.5958  0.8700
 4061SOL    HW123645   3.084   4.224   4.853 -1.3051 -1.5693  0.5749
 4061SOL    HW223646   2.979   4.210   4.959  0.0367 -1.6491 -0.8697
 4062SOL     OW23647   0.058   2.469   5.270  0.0035 -0.2681 -0.5431
 4062SOL    HW123648   4.702   2.475   5.220 -0.5966 -1.9794  0.2330
 4062SOL    HW223649   0.108   2.515   5.202  1.7278 -1.6362 -0.1948
 4063SOL     OW23650   1.350   3.695   0.488  0.2642 -0.3217  0.7163
 4063SOL    HW123651   1.311   3.775   0.451  0.5454 -0.3009  0.4648
 4063SOL    HW223652   1.301   3.703   0.570 -0.7771 -0.1167  0.0743
 4064SOL     OW23653   4.201   2.456   1.527  0.0916 -0.0455 -0.2648
 4064SOL    HW123654   4.276   2.501   1.488 -1.2790  0.5546 -2.1895
 4064SOL    HW223655   4.235   2.367   1.533 -0.0321 -0.1197 -0.6625
 4065SOL     OW23656   1.990   2.595   8.637 -0.2533 -0.1161 -0.0805
 4065SOL    HW123657   1.974   2.508   8.600  0.7696 -0.7831  1.0662
 4065SOL    HW223658   1.952   2.648   8.566 -3.6707 -0.2584  1.6318
 4066SOL     OW23659   2.370   0.831  11.125 -0.2281 -0.6203  0.1253
 4066SOL    HW123660   2.426   0.871  11.059  0.1981  1.2528  1.5950
 4066SOL    HW223661   2.398   0.740  11.119 -0.5835 -0.5543 -2.3822
 4067SOL     OW23662   1.526   1.601   1.748  0.2657 -0.2673 -0.4371
 4067SOL    HW123663   1.455   1.538   1.734 -1.4237  0.9757  2.4420
 4067SOL    HW223664   1.573   1.545   1.811  0.2023  0.6711  0.4435
 4068SOL     OW23665   2.541   1.992  15.408 -0.0870  0.0816  0.3487
 4068SOL    HW123666   2.583   2.078  15.406 -2.0965  0.8995 -4.7410
 4068SOL    HW223667   2.595   1.943  15.347  1.1270  0.1766  1.3373
 4069SOL     OW23668   2.773   2.794   6.699  0.6934 -0.3804  0.3257
 4069SOL    HW123669   2.764   2.721   6.760  0.9615 -0.1070  0.6929
 4069SOL    HW223670   2.865   2.814   6.713  1.2913 -1.5999 -1.9660
 4070SOL     OW23671   1.366   2.962   0.889 -0.0078 -0.7577 -0.0063
 4070SOL    HW123672   1.278   2.983   0.858 -0.2701 -0.1706  1.1425
 4070SOL    HW223673   1.400   3.049   0.906  0.9838 -0.9616 -0.9538
 4071SOL     OW23674   1.829   0.239   6.567 -0.6578  0.1182  0.0703
 4071SOL    HW123675   1.867   0.229   6.654  0.2325  0.9599 -0.2307
 4071SOL    HW223676   1.865   0.326   6.551 -1.2443  0.1960 -0.8024
 4072SOL     OW23677   0.618   3.057   4.817  0.4674 -0.2553  0.4634
 4072SOL    HW123678   0.710   3.052   4.842 -0.2999  0.5441  3.5734
 4072SOL    HW223679   0.574   3.042   4.901  0.4859 -1.4470  0.2515
 4073SOL     OW23680   1.931   3.091   3.801 -0.0416  0.1888  0.3501
 4073SOL    HW123681   1.911   3.071   3.893 -0.4945  1.6296  0.5651
 4073SOL    HW223682   1.976   3.011   3.775 -2.6361 -0.1278 -3.1982
 4074SOL     OW23683   0.205   0.860   9.304  0.5905 -0.5153  0.5616
 4074SOL    HW123684   0.166   0.775   9.324  0.2074 -0.1056  1.5680
 4074SOL    HW223685   0.220   0.885   9.396 -2.2585 -0.8862  1.1355
 4075SOL     OW23686   4.417   3.863   8.280  0.1060  0.4081  0.0495
 4075SOL    HW123687   4.457   3.938   8.323  1.2678  0.6965 -1.5228
 4075SOL    HW223688   4.461   3.799   8.336  0.2648  1.4667  1.1255
 4076SOL     OW23689   3.313   0.815   6.557  0.3412 -0.1191 -0.1784
 4076SOL    HW123690   3.227   0.822   6.515  0.3679 -0.1749 -0.2421
 4076SOL    HW223691   3.358   0.872   6.495 -2.1675 -0.0603 -1.9501
 4077SOL     OW23692   1.071   3.447  11.367 -0.1357 -0.0204  0.1088
 4077SOL    HW123693   0.976   3.446  11.380 -0.4239  1.7134 -1.8216
 4077SOL    HW223694   1.075   3.440  11.272  0.2823  2.3337 -0.0299
 4078SOL     OW23695   0.386   0.108   1.591 -0.2155 -0.2089 -0.0926
 4078SOL    HW123696   0.325   0.103   1.665 -1.4339 -0.3818 -1.0912
 4078SOL    HW223697   0.416   0.017   1.592  2.0253  0.5498  1.2000
 4079SOL     OW23698   0.468   4.153   0.088 -0.3082  0.2132 -0.0966
 4079SOL    HW123699   0.426   4.237   0.067  0.1294  0.7107  1.0209
 4079SOL    HW223700   0.553   4.177   0.051  0.2252 -1.7784 -0.1595
 4080SOL     OW23701   1.670   2.170   7.719  0.9048 -0.2528 -0.0847
 4080SOL    HW123702   1.665   2.104   7.789  3.4760  0.7288  1.0050
 4080SOL    HW223703   1.755   2.150   7.680  0.6121 -1.7137  0.0003
 4081SOL     OW23704   3.468   4.243   4.007  0.1773 -0.4504 -0.5206
 4081SOL    HW123705   3.513   4.321   4.040 -0.7921  0.5636 -1.5973
 4081SOL    HW223706   3.499   4.232   3.917 -2.5984 -1.4966 -1.3424
 4082SOL     OW23707   0.002   2.085   4.881  0.2538 -0.2559 -0.4351
 4082SOL    HW123708   4.678   2.116   4.958  0.6672  1.4816 -0.8796
 4082SOL    HW223709   4.664   2.029   4.836  1.6035 -3.1082  1.2227
 4083SOL     OW23710   3.392   3.815  10.356  0.1678 -0.0265  0.7288
 4083SOL    HW123711   3.462   3.835  10.419  2.7363 -0.6806 -1.9050
 4083SOL    HW223712   3.408   3.726  10.324 -0.4050  0.3496 -0.6125
 4084SOL     OW23713   2.643   3.222   5.303 -0.6983  0.7483 -0.4336
 4084SOL    HW123714   2.706   3.225   5.231 -1.0435  1.6648 -0.6942
 4084SOL    HW223715   2.627   3.129   5.321  0.4272  0.4612 -0.8957
 4085SOL     OW23716   2.468   3.134  12.523 -0.7600 -0.0925 -0.7469
 4085SOL    HW123717   2.499   3.224  12.532  0.1255 -0.5224  0.5469
 4085SOL    HW223718   2.526   3.088  12.584 -2.2119  0.9129  1.3753
 4086SOL     OW23719   3.898   0.657   7.157  0.0526 -1.0292  0.3595
 4086SOL    HW123720   3.979   0.706   7.147  0.1740 -1.4118 -0.5595
 4086SOL    HW223721   3.878   0.644   7.064  0.4650 -2.1702  0.4304
 4087SOL     OW23722   3.117   1.598   5.776 -0.3153 -0.3215  0.0650
 4087SOL    HW123723   3.026   1.601   5.749  0.7481 -0.4095 -3.5991
 4087SOL    HW223724   3.116   1.518   5.829 -0.4252 -0.8965 -0.8018
 4088SOL     OW23725   0.216   2.020   6.930 -0.2269 -0.5480 -0.2877
 4088SOL    HW123726   0.191   2.105   6.966  2.2894  0.8754 -1.9153
 4088SOL    HW223727   0.228   2.041   6.837  1.2734 -0.8331 -0.1574
 4089SOL     OW23728   2.131   1.920   0.866 -0.0643 -0.3831 -0.2637
 4089SOL    HW123729   2.141   1.828   0.841  0.7468 -0.3743  0.0289
 4089SOL    HW223730   2.200   1.927   0.933 -1.2061  0.0847  0.8696
 4090SOL     OW23731   3.439   2.958   8.078  0.5008  0.2561 -0.1707
 4090SOL    HW123732   3.381   2.946   8.003  0.8868  0.5154 -0.5067
 4090SOL    HW223733   3.388   3.021   8.129 -2.0683 -1.5996 -0.4433
 4091SOL     OW23734   1.947   4.663   2.524 -0.6778 -0.2297 -0.2089
 4091SOL    HW123735   2.006   4.620   2.585  0.8043 -0.1061 -1.5484
 4091SOL    HW223736   1.875   4.601   2.516 -0.8211  0.0999 -1.5900
 4092SOL     OW23737   2.711   1.221  15.561 -1.0253 -0.4071 -0.0755
 4092SOL    HW123738   2.691   1.239  15.469 -2.4703 -0.5111  0.2229
 4092SOL    HW223739   2.792   1.170  15.558 -1.1707 -0.7053  1.0170
 4093SOL     OW23740   4.603   2.671   2.544 -0.8441  0.5714  0.0274
 4093SOL    HW123741   4.657   2.750   2.547  0.4897 -0.2017 -3.0451
 4093SOL    HW223742   4.651   2.614   2.484  0.6414  1.0225  0.7960
 4094SOL     OW23743   1.874   1.679   0.284  0.5475  0.0341 -0.1170
 4094SOL    HW123744   1.859   1.688   0.190 -1.3301 -1.7581  0.0229
 4094SOL    HW223745   1.867   1.773   0.303 -0.7765 -0.5991  2.5399
 4095SOL     OW23746   0.059   1.783   4.030  0.3140  0.3175 -0.8288
 4095SOL    HW123747   4.690   1.800   4.030  0.4690  1.1874  0.1021
 4095SOL    HW223748   0.083   1.777   4.123  0.5049 -1.3827 -0.9943
 4096SOL     OW23749   0.284   3.654   9.241 -0.1195  0.5579 -0.0271
 4096SOL    HW123750   0.341   3.657   9.164  0.1397  1.8874  0.2158
 4096SOL    HW223751   0.340   3.623   9.312 -0.1667 -0.5249 -0.4650
 4097SOL     OW23752   0.813   1.932   3.743 -0.5835  0.2181 -0.4773
 4097SOL    HW123753   0.906   1.933   3.721  0.0162  0.8191  2.1860
 4097SOL    HW223754   0.782   2.023   3.741  0.5810  0.6277  0.3235
 4098SOL     OW23755   1.309   3.860   5.824 -0.4726 -0.1362  0.1340
 4098SOL    HW123756   1.378   3.801   5.793 -0.5617 -1.1706  1.9273
 4098SOL    HW223757   1.239   3.797   5.803  1.2776 -1.3054 -2.1977
 4099SOL     OW23758   3.867   4.084   8.698 -0.5236  0.1522  0.2241
 4099SOL    HW123759   3.860   4.160   8.641 -1.3884  0.3905  0.6529
 4099SOL    HW223760   3.939   4.036   8.657  0.5181 -0.5119  2.8175
 4100SOL     OW23761   3.176   1.561   6.739  0.2777 -0.0166  0.1619
 4100SOL    HW123762   3.085   1.567   6.710 -0.2060  0.6483  1.8121
 4100SOL    HW223763   3.218   1.567   6.653  1.4003  0.2319  0.7333
 4101SOL     OW23764   2.685   3.211   4.450  0.4319 -0.4557  0.3097
 4101SOL    HW123765   2.597   3.180   4.471  0.5111 -0.8476  0.0625
 4101SOL    HW223766   2.685   3.197   4.355 -0.2063 -1.7357  0.4930
 4102SOL     OW23767   1.090   0.141   3.469  0.2881  0.1923  0.2536
 4102SOL    HW123768   1.130   0.203   3.530 -0.6438 -0.9285  2.0004
 4102SOL    HW223769   1.141   0.064   3.495  1.5932  1.6589  2.0706
 4103SOL     OW23770   2.190   1.066   8.028  0.1090 -0.1682  0.3887
 4103SOL    HW123771   2.111   1.054   8.082  0.7051  1.2176  1.5729
 4103SOL    HW223772   2.246   1.012   8.084 -2.3931 -1.4545  1.6419
 4104SOL     OW23773   1.846   0.226  15.619 -0.0171  0.4935 -0.1812
 4104SOL    HW123774   1.800   0.146  15.646 -2.6476  1.5307 -1.5573
 4104SOL    HW223775   1.783   0.284  15.576 -0.4455  1.6690  2.0247
 4105SOL     OW23776   0.787   3.801   6.564 -0.0792 -0.3692  0.3898
 4105SOL    HW123777   0.850   3.843   6.506 -0.2583 -1.9037 -0.9125
 4105SOL    HW223778   0.845   3.755   6.624 -0.1227  0.5299  1.1234
 4106SOL     OW23779   2.170   2.747   8.985  0.4019 -0.3275  0.0835
 4106SOL    HW123780   2.139   2.828   9.026  3.2871  0.8401 -0.0732
 4106SOL    HW223781   2.189   2.790   8.902 -0.1644  0.4066  0.3401
 4107SOL     OW23782   3.695   3.509   1.364 -0.4941 -0.0623  0.5615
 4107SOL    HW123783   3.727   3.424   1.335  1.0063  0.3557  0.9756
 4107SOL    HW223784   3.752   3.573   1.320 -0.1095 -1.7034 -1.3210
 4108SOL     OW23785   1.516   2.080   6.349 -0.5937  0.2261 -0.3309
 4108SOL    HW123786   1.513   1.992   6.388  0.9458 -0.0772 -0.9205
 4108SOL    HW223787   1.577   2.076   6.275 -1.0767 -1.5614 -0.6360
 4109SOL     OW23788   2.123   1.266   6.222 -0.5330  0.3473  0.1175
 4109SOL    HW123789   2.201   1.263   6.278  0.1332  3.2576 -0.6872
 4109SOL    HW223790   2.062   1.197   6.249  0.3161  0.0987  1.4468
 4110SOL     OW23791   2.725   2.670   9.011 -0.4877  0.4923 -0.2999
 4110SOL    HW123792   2.705   2.665   9.104  1.8389  1.0076  0.2298
 4110SOL    HW223793   2.788   2.742   9.015  1.3071 -1.1696  1.5283
 4111SOL     OW23794   2.852   1.049  11.396 -0.0815  0.1680 -0.2816
 4111SOL    HW123795   2.922   1.109  11.372 -0.0699 -0.3166 -1.5065
 4111SOL    HW223796   2.881   1.008  11.477 -0.7743  1.2333  0.5073
 4112SOL     OW23797   3.049   3.422   9.388 -0.3863  0.5962  0.0571
 4112SOL    HW123798   3.060   3.510   9.351  3.2219 -0.1327 -0.5134
 4112SOL    HW223799   3.069   3.366   9.313 -0.4351  1.1286 -0.3568
 4113SOL     OW23800   3.565   4.636   5.285  0.4102  0.5412  0.2952
 4113SOL    HW123801   3.477   4.643   5.321 -0.0268  0.5861 -0.7930
 4113SOL    HW223802   3.560   4.704   5.218 -0.1140 -1.4569 -1.6947
 4114SOL     OW23803   1.447   3.437   4.889 -0.3323  0.7921  0.3788
 4114SOL    HW123804   1.467   3.453   4.982 -1.8402  1.5075  0.5781
 4114SOL    HW223805   1.380   3.370   4.884  0.5827 -0.1157  0.3554
 4115SOL     OW23806   0.167   2.846   3.982 -0.2189  0.2955 -0.0071
 4115SOL    HW123807   0.140   2.915   4.043 -1.6514  0.6336 -1.0086
 4115SOL    HW223808   0.083   2.802   3.968  0.8924 -0.3804 -4.2991
 4116SOL     OW23809   2.885   1.204   4.335 -0.5267  0.1613  0.0888
 4116SOL    HW123810   2.979   1.207   4.318 -0.7084 -1.0750 -1.0869
 4116SOL    HW223811   2.875   1.120   4.380 -2.9623  1.8207  2.6020
 4117SOL     OW23812   2.726   1.783   1.380 -0.1413  0.4033 -0.3656
 4117SOL    HW123813   2.760   1.704   1.422 -1.1971 -0.3259 -0.8600
 4117SOL    HW223814   2.683   1.843   1.440  1.1511  2.5270 -1.5717
 4118SOL     OW23815   1.044   1.864  10.753  0.0806  0.2400  0.5661
 4118SOL    HW123816   0.972   1.805  10.779 -1.1524  1.0373 -1.0694
 4118SOL    HW223817   1.008   1.910  10.678 -0.0834 -0.0178  0.4857
 4119SOL     OW23818   1.647   2.799   0.930 -0.1113 -0.4189  0.0644
 4119SOL    HW123819   1.570   2.750   0.960 -0.1187 -0.0038  0.7103
 4119SOL    HW223820   1.669   2.742   0.856 -0.2040 -2.0475  1.2779
 4120SOL     OW23821   2.923   3.644   3.515 -0.1456  0.3824 -0.1381
 4120SOL    HW123822   2.961   3.649   3.427 -2.4574 -1.0885 -1.2047
 4120SOL    HW223823   2.910   3.550   3.529 -1.0986  0.6177  0.5222
 4121SOL     OW23824   4.313   4.599   9.816  0.4822 -0.4740  0.3651
 4121SOL    HW123825   4.278   4.657   9.883 -0.3699 -0.8846  0.2706
 4121SOL    HW223826   4.309   4.512   9.855 -2.0312 -0.9748 -1.0102
 4122SOL     OW23827   4.405   0.893   7.263 -0.5939 -0.5623  0.7286
 4122SOL    HW123828   4.393   0.862   7.352 -1.9231  0.0776  0.7842
 4122SOL    HW223829   4.327   0.947   7.248 -2.3390 -2.5138  2.9182
 4123SOL     OW23830   2.906   4.562   6.099 -0.1051 -0.2893 -0.3163
 4123SOL    HW123831   2.866   4.483   6.061 -0.2934 -1.9661  3.4126
 4123SOL    HW223832   3.000   4.546   6.100 -0.2956 -1.3474  0.2814
 4124SOL     OW23833   0.425   3.839   9.463  0.0353  0.4046 -0.1007
 4124SOL    HW123834   0.481   3.834   9.386  0.9131 -0.6460  0.6080
 4124SOL    HW223835   0.403   3.746   9.473 -0.6092  0.7688  1.7933
 4125SOL     OW23836   1.640   0.903   3.976  0.4638 -0.1862 -0.3247
 4125SOL    HW123837   1.622   0.950   3.895 -0.8014 -2.3782 -1.3283
 4125SOL    HW223838   1.622   0.973   4.039  2.2457  1.3710 -1.5489
 4126SOL     OW23839   0.431   2.881   7.266 -0.4042 -0.5053  0.2185
 4126SOL    HW123840   0.487   2.813   7.303  2.9463  2.3712  0.4823
 4126SOL    HW223841   0.492   2.955   7.261 -0.6908 -0.1573  1.6637
 4127SOL     OW23842   0.830   3.906   3.891 -0.2425 -0.9527 -0.1410
 4127SOL    HW123843   0.784   3.937   3.812  0.0159  0.1185  0.1217
 4127SOL    HW223844   0.818   3.979   3.952 -1.9981  0.6326 -2.3445
 4128SOL     OW23845   4.703   3.649  14.010 -0.0805 -0.1839 -0.2564
 4128SOL    HW123846   4.648   3.639  14.087 -0.7102  1.0732 -0.5436
 4128SOL    HW223847   4.702   3.743  13.988  3.4963  0.6703  3.0715
 4129SOL     OW23848   3.466   2.526   2.754  0.4832 -0.2543 -0.0960
 4129SOL    HW123849   3.399   2.594   2.740 -1.5504 -2.0861  0.7193
 4129SOL    HW223850   3.505   2.549   2.838  1.1485 -2.8615  0.3000
 4130SOL     OW23851   3.331   2.521  11.165  0.5804  0.3062 -0.1782
 4130SOL    HW123852   3.395   2.578  11.209  0.0520 -0.8479  2.1244
 4130SOL    HW223853   3.256   2.576  11.189  0.3817  0.7113 -1.7352
 4131SOL     OW23854   3.985   2.074   9.474 -0.0487  0.8275 -0.4855
 4131SOL    HW123855   3.932   2.143   9.513 -2.6474 -0.6182 -1.4655
 4131SOL    HW223856   4.075   2.092   9.501 -0.8475  1.5493  1.7089
 4132SOL     OW23857   3.570   1.434   4.424 -0.3419  0.5174 -0.6021
 4132SOL    HW123858   3.586   1.340   4.423  0.2515  0.6249 -0.7371
 4132SOL    HW223859   3.658   1.461   4.450 -0.4960  1.9233 -1.5358
 4133SOL     OW23860   3.304   2.671   4.943  0.0220  0.2260 -0.1407
 4133SOL    HW123861   3.365   2.644   5.011  2.1303  1.6636 -1.4354
 4133SOL    HW223862   3.238   2.606   4.967  0.2793  0.0849  0.1885
 4134SOL     OW23863   3.079   1.273  15.452  0.2698 -0.3510 -1.0858
 4134SOL    HW123864   3.020   1.198  15.444 -2.2364  1.4308  0.6052
 4134SOL    HW223865   3.026   1.338  15.497  1.8002  0.6773 -0.7636
 4135SOL     OW23866   1.879   0.656   8.653  0.2303  0.4280  0.2849
 4135SOL    HW123867   1.868   0.562   8.663  0.3587  0.5988  2.0086
 4135SOL    HW223868   1.814   0.670   8.583  1.6293  0.4621 -1.0137
 4136SOL     OW23869   1.793   1.908   0.141  0.2470  0.0232  0.5516
 4136SOL    HW123870   1.809   1.908   0.046 -1.6732  0.2126  0.2391
 4136SOL    HW223871   1.822   1.996   0.168 -0.6718  0.4931 -0.0091
 4137SOL     OW23872   1.449   2.166   4.224 -0.0062 -0.5243  0.1222
 4137SOL    HW123873   1.478   2.240   4.277  2.6453 -0.6423 -1.1440
 4137SOL    HW223874   1.395   2.108   4.278  0.4822 -1.0809  0.0193
 4138SOL     OW23875   3.620   0.106  10.845  0.1137  0.1995 -0.2646
 4138SOL    HW123876   3.620   0.202  10.842 -1.5393  0.0966 -4.1560
 4138SOL    HW223877   3.661   0.088  10.761 -1.7708 -3.1347 -0.4938
 4139SOL     OW23878   2.951   0.141   9.050  0.5088  0.4580  0.2475
 4139SOL    HW123879   2.999   0.153   8.968  2.2502  3.0093  1.6634
 4139SOL    HW223880   2.865   0.111   9.019  1.2815 -0.3441 -1.1177
 4140SOL     OW23881   0.796   0.620  14.353  0.3373 -0.3107 -0.5627
 4140SOL    HW123882   0.813   0.605  14.260 -0.0029 -0.5220 -0.5909
 4140SOL    HW223883   0.846   0.542  14.379 -1.8722 -1.4381  0.3336
 4141SOL     OW23884   3.041   0.689  15.289  0.0767  0.5999  0.4829
 4141SOL    HW123885   3.111   0.626  15.273  0.1747  1.0101 -0.7202
 4141SOL    HW223886   2.959   0.651  15.258  0.5437  0.6477 -0.8224
 4142SOL     OW23887   2.448   0.659   5.410 -0.4761  0.2157  0.1462
 4142SOL    HW123888   2.473   0.655   5.318  0.8021  0.5781  0.4839
 4142SOL    HW223889   2.487   0.741   5.441  1.6619  0.3260 -2.8109
 4143SOL     OW23890   3.614   1.853   9.069 -0.7652  0.4170  0.5035
 4143SOL    HW123891   3.598   1.822   9.158 -1.0836  0.5749  0.5027
 4143SOL    HW223892   3.595   1.770   9.024 -1.2735  0.8868 -0.1484
 4144SOL     OW23893   1.268   3.976   4.909 -0.1987  0.3120 -0.0218
 4144SOL    HW123894   1.305   3.904   4.960 -0.2807  0.7782  0.6994
 4144SOL    HW223895   1.343   4.034   4.891 -0.1146  0.2202  0.0330
 4145SOL     OW23896   0.563   0.890   0.032  0.1700 -0.4529  0.5020
 4145SOL    HW123897   0.595   0.800   0.030 -0.8049 -0.7980  0.3007
 4145SOL    HW223898   0.606   0.917   0.113 -0.3675  1.1412  0.2438
 4146SOL     OW23899   3.158   3.879   4.450  0.2003 -0.1054 -0.3837
 4146SOL    HW123900   3.129   3.791   4.426 -0.6470 -0.0515  0.4591
 4146SOL    HW223901   3.110   3.938   4.392  2.2841 -0.2773 -2.2836
 4147SOL     OW23902   3.667   0.017   8.856  0.1596  0.2560  0.1839
 4147SOL    HW123903   3.597   4.689   8.896 -1.4094 -0.2381 -3.2650
 4147SOL    HW223904   3.702   4.675   8.797  1.4350 -0.1646  1.4093
 4148SOL     OW23905   2.170   0.467   7.513 -0.2453  0.2357  0.3034
 4148SOL    HW123906   2.221   0.464   7.594  0.5374  0.3407 -0.1853
 4148SOL    HW223907   2.180   0.560   7.491 -0.6284  0.1872 -0.0683
 4149SOL     OW23908   2.797   2.906  17.422 -0.7345  0.5196  0.3454
 4149SOL    HW123909   2.826   2.817  17.403  1.7016  1.1503  0.9913
 4149SOL    HW223910   2.759   2.895  17.510  0.9650 -1.2798  0.8662
 4150SOL     OW23911   4.025   3.402  17.583 -0.3235 -0.2276  0.7538
 4150SOL    HW123912   4.013   3.335  17.515 -2.2459 -0.0366  0.8930
 4150SOL    HW223913   4.044   3.470  17.519 -0.4379 -3.3642 -2.6626
 4151SOL     OW23914   2.702   4.463   7.263 -0.0863 -0.1711  0.2386
 4151SOL    HW123915   2.608   4.459   7.280  0.1251 -0.9441  1.2444
 4151SOL    HW223916   2.732   4.501   7.345  0.4662 -0.0522 -0.0202
 4152SOL     OW23917   2.023   3.483   0.837 -0.1231 -0.5271  0.4768
 4152SOL    HW123918   2.079   3.407   0.822  1.1908  0.9768 -2.2003
 4152SOL    HW223919   2.083   3.543   0.882  1.0464 -2.0822  0.9746
 4153SOL     OW23920   1.479   1.992   4.950 -0.1306 -0.5529  0.2404
 4153SOL    HW123921   1.486   2.019   4.858 -1.1417 -0.2045  0.2558
 4153SOL    HW223922   1.434   2.068   4.988 -0.1240 -0.8398  0.8214
 4154SOL     OW23923   0.194   2.148   2.917  0.4110 -0.3189 -0.1410
 4154SOL    HW123924   0.163   2.115   3.001  0.7571  1.1438  0.5604
 4154SOL    HW223925   0.145   2.096   2.854  0.0061  0.4547 -0.4577
 4155SOL     OW23926   0.827   4.695  14.382 -0.4628  0.1870  0.3208
 4155SOL    HW123927   0.778   0.047  14.353  2.0069  1.0592 -1.4702
 4155SOL    HW223928   0.766   4.638  14.430 -2.2550 -2.3185 -4.8742
 4156SOL     OW23929   1.812   1.947   0.999 -0.3974  0.5055 -0.1796
 4156SOL    HW123930   1.894   1.985   1.030 -0.3809  0.8501 -0.6492
 4156SOL    HW223931   1.826   1.940   0.904  1.4644 -1.1755  0.2052
 4157SOL     OW23932   0.743   1.293   3.500 -0.2385  0.2367 -0.0668
 4157SOL    HW123933   0.801   1.365   3.527 -0.7715 -0.5420  3.1666
 4157SOL    HW223934   0.748   1.307   3.405  0.3233 -1.3594 -0.2698
 4158SOL     OW23935   0.671   1.088  16.634 -0.0174  0.4498  0.7788
 4158SOL    HW123936   0.633   1.136  16.708 -0.9183  0.3359  0.3811
 4158SOL    HW223937   0.653   0.999  16.663  2.2018 -0.3652 -0.3658
 4159SOL     OW23938   1.248   0.804   3.608 -0.2909 -0.6868  0.7644
 4159SOL    HW123939   1.229   0.795   3.514  3.2191 -1.2583  0.0903
 4159SOL    HW223940   1.331   0.853   3.606 -1.2034  0.8895  0.9202
 4160SOL     OW23941   3.932   4.633  10.365 -0.0163  0.6664 -0.0286
 4160SOL    HW123942   3.935   4.639  10.270  3.5540  0.3374  0.0314
 4160SOL    HW223943   3.890   4.549  10.381 -0.2737  0.7853 -0.0781
 4161SOL     OW23944   2.647   0.718  10.537  0.6379 -0.0931 -0.1323
 4161SOL    HW123945   2.715   0.772  10.577 -1.1704  1.7413  0.4694
 4161SOL    HW223946   2.593   0.689  10.610 -0.4491 -0.2699 -1.0171
 4162SOL     OW23947   2.447   4.158  16.833 -0.4043  0.2510  0.2369
 4162SOL    HW123948   2.421   4.105  16.909  2.2944  0.2184  1.1193
 4162SOL    HW223949   2.433   4.247  16.866  1.5410  0.4136  0.6147
 4163SOL     OW23950   0.578   4.643  16.969 -0.0427  0.2598  0.4421
 4163SOL    HW123951   0.554   4.567  16.916  2.2318 -0.1882  0.0424
 4163SOL    HW223952   0.494   4.663  17.011 -0.1632 -0.5699  0.5898
 4164SOL     OW23953   1.217   4.382   4.023  0.3969 -0.6016  0.2043
 4164SOL    HW123954   1.189   4.296   3.992 -1.0868  0.7153 -2.1132
 4164SOL    HW223955   1.136   4.430   4.009  0.4356 -0.5484  0.1628
 4165SOL     OW23956   0.594   0.290  15.480 -0.2432  0.2492  0.0483
 4165SOL    HW123957   0.608   0.213  15.535 -0.9324  1.7849  2.3386
 4165SOL    HW223958   0.504   0.286  15.446 -0.7699 -0.1762  1.4986
 4166SOL     OW23959   1.462   4.143   7.138  0.2977 -0.3732 -0.6631
 4166SOL    HW123960   1.452   4.210   7.070  2.8364  2.5559  1.8016
 4166SOL    HW223961   1.557   4.131   7.144  0.3161  0.8418  1.4008
 4167SOL     OW23962   1.912   3.765   1.349 -0.0993  0.1322  0.2424
 4167SOL    HW123963   1.980   3.705   1.318 -1.1414 -0.7712 -0.3191
 4167SOL    HW223964   1.912   3.761   1.444  0.7905 -0.0056  0.2318
 4168SOL     OW23965   3.954   4.663  10.726 -0.4553  0.1605  0.3960
 4168SOL    HW123966   3.940   0.021  10.772 -1.3574  0.0348  0.3390
 4168SOL    HW223967   3.862   4.651  10.706  0.1021 -2.0859 -0.8792
 4169SOL     OW23968   0.959   1.036   8.551  0.1642 -0.2815 -0.1111
 4169SOL    HW123969   0.935   1.116   8.596 -0.4114  0.3008 -1.4635
 4169SOL    HW223970   1.001   0.983   8.619  0.0193 -1.2105 -0.7400
 4170SOL     OW23971   0.972   0.911   3.546  0.1073 -0.0195  0.3443
 4170SOL    HW123972   0.904   0.899   3.613 -0.8805  0.1628 -0.6334
 4170SOL    HW223973   1.046   0.868   3.589 -0.8368  0.5691  2.6069
 4171SOL     OW23974   0.808   0.346  16.489  0.3081  0.4447 -0.5140
 4171SOL    HW123975   0.780   0.306  16.571 -3.6530  0.0869 -2.0011
 4171SOL    HW223976   0.825   0.268  16.436  2.7756  0.5113  0.1852
 4172SOL     OW23977   2.925   3.892  17.153  0.0298 -0.2370  0.1050
 4172SOL    HW123978   2.984   3.823  17.182  1.2967  1.3754  1.3793
 4172SOL    HW223979   2.841   3.847  17.160  0.0485 -0.2680  0.1357
 4173SOL     OW23980   0.320   2.786  12.128 -0.5300  0.5708 -0.4886
 4173SOL    HW123981   0.376   2.709  12.122 -1.5478 -0.1418 -0.7239
 4173SOL    HW223982   0.299   2.817  12.039  0.1207 -0.5363 -1.0217
 4174SOL     OW23983   4.015   2.344  16.353  0.2463 -0.5470 -0.1554
 4174SOL    HW123984   3.960   2.421  16.340  1.5751  0.2710 -0.8220
 4174SOL    HW223985   3.979   2.279  16.293 -2.6473  1.3700 -0.5002
 4175SOL     OW23986   0.232   1.034   2.875 -0.4425  0.2765  0.0514
 4175SOL    HW123987   0.231   1.052   2.781 -1.6990 -0.9993 -0.1662
 4175SOL    HW223988   0.218   0.940   2.887 -0.1766  0.1839 -0.3626
 4176SOL     OW23989   3.914   1.278   4.015  0.9345  0.3311 -0.1221
 4176SOL    HW123990   3.846   1.213   4.034  0.5055  1.2661  1.5649
 4176SOL    HW223991   3.864   1.359   4.019 -0.4576 -0.5685  0.9319
 4177SOL     OW23992   3.636   3.293   6.869 -0.8792 -0.0449  0.1472
 4177SOL    HW123993   3.644   3.246   6.952  1.0649  0.1947  0.1089
 4177SOL    HW223994   3.567   3.354   6.892  0.7530  0.6360  3.2614
 4178SOL     OW23995   3.800   2.674  12.966  0.0629  0.3998 -0.4459
 4178SOL    HW123996   3.786   2.611  12.896 -1.5973 -0.8372  0.9997
 4178SOL    HW223997   3.883   2.640  12.999  0.2856  0.4886 -0.9122
 4179SOL     OW23998   4.596   4.223   7.235  0.3407 -0.6504  0.1798
 4179SOL    HW123999   4.648   4.298   7.206 -0.9389 -0.2364 -1.0754
 4179SOL    HW224000   4.507   4.238   7.203 -0.0377  2.0769  2.4520
 4180SOL     OW24001   3.536   4.472   7.264 -0.2004 -0.5482  0.5392
 4180SOL    HW124002   3.488   4.452   7.345 -0.9942 -1.2887 -0.1175
 4180SOL    HW224003   3.612   4.414   7.268  2.0519  2.3110 -1.0814
 4181SOL     OW24004   2.270   3.839   8.267 -0.8983  0.4209  0.2260
 4181SOL    HW124005   2.221   3.888   8.202 -1.2114 -0.3565 -0.1285
 4181SOL    HW224006   2.323   3.784   8.210 -2.2400 -1.5221  0.8183
 4182SOL     OW24007   3.700   0.276   9.110 -0.6969  0.4849 -0.2398
 4182SOL    HW124008   3.639   0.222   9.059 -0.8191 -0.5404  0.9930
 4182SOL    HW224009   3.740   0.223   9.179 -0.8726  0.7117  0.0321
 4183SOL     OW24010   2.792   1.290   3.844 -0.5002 -0.6017 -0.0755
 4183SOL    HW124011   2.785   1.385   3.845  3.9968 -0.3003  1.4574
 4183SOL    HW224012   2.775   1.281   3.938 -0.2769 -0.7962 -0.0520
 4184SOL     OW24013   2.577   2.178  16.060 -0.0127  0.1214 -0.1259
 4184SOL    HW124014   2.644   2.172  16.129 -0.7847 -0.6944  0.5691
 4184SOL    HW224015   2.624   2.139  15.986 -1.2374 -2.4345  0.4394
 4185SOL     OW24016   3.034   3.816   7.947  0.1004 -0.4319 -0.1519
 4185SOL    HW124017   3.007   3.724   7.945 -2.8086  0.3749  2.5197
 4185SOL    HW224018   2.998   3.843   8.032 -0.0986 -0.6184 -0.1770
 4186SOL     OW24019   0.727   2.898   6.757  0.1238 -0.0104  0.5787
 4186SOL    HW124020   0.790   2.969   6.752 -0.8239  0.6909 -1.5510
 4186SOL    HW224021   0.688   2.909   6.843  0.6925 -1.1876  0.9777
 4187SOL     OW24022   0.323   0.673   2.007 -0.4571  0.1826 -0.0955
 4187SOL    HW124023   0.320   0.625   1.924 -2.0763  2.3105 -1.2484
 4187SOL    HW224024   0.409   0.645   2.038 -0.1777  0.8820 -0.2390
 4188SOL     OW24025   1.840   2.980   7.347 -0.0180 -0.5842 -0.1481
 4188SOL    HW124026   1.852   2.902   7.294 -0.8559 -1.0305  0.3253
 4188SOL    HW224027   1.875   3.052   7.294 -1.5356 -0.0439 -0.4040
 4189SOL     OW24028   3.193   3.647   8.653  0.5617 -0.1370  0.0153
 4189SOL    HW124029   3.249   3.721   8.631 -1.3664  1.2603 -0.1534
 4189SOL    HW224030   3.142   3.647   8.573  3.2013  0.0235 -1.6628
 4190SOL     OW24031   0.119   1.665   5.524 -0.4722  0.2342 -0.3750
 4190SOL    HW124032   0.194   1.605   5.522  0.0576  0.8563  1.0770
 4190SOL    HW224033   0.051   1.610   5.563 -0.0322 -0.3300 -0.4105
 4191SOL     OW24034   2.236   3.687   7.395 -0.1561  0.4849  0.3954
 4191SOL    HW124035   2.308   3.741   7.427 -0.5744  1.3481 -0.1318
 4191SOL    HW224036   2.268   3.599   7.415 -0.5383  0.0260 -1.0221
 4192SOL     OW24037   0.071   3.641   3.540  0.6505 -0.3014 -0.9176
 4192SOL    HW124038   4.708   3.674   3.525 -0.1374 -2.6551 -1.5566
 4192SOL    HW224039   0.096   3.710   3.602 -0.6626 -1.2447  0.6653
 4193SOL     OW24040   3.812   4.289   8.520 -0.0265  0.4217 -0.3633
 4193SOL    HW124041   3.805   4.372   8.567  1.3346  0.6095 -0.4876
 4193SOL    HW224042   3.765   4.306   8.439  0.2202 -3.5738 -1.3314
 4194SOL     OW24043   2.240   0.239   8.423  0.1885  0.1324  0.0388
 4194SOL    HW124044   2.155   0.205   8.451  1.3500 -3.2525 -0.4366
 4194SOL    HW224045   2.286   0.160   8.393 -0.4649 -1.0754  2.1784
 4195SOL     OW24046   0.154   4.043   1.618  0.1242 -0.0605 -1.0241
 4195SOL    HW124047   0.148   4.132   1.582  0.5657  1.1834  1.9406
 4195SOL    HW224048   0.248   4.029   1.606  0.3150 -0.3666  0.8990
 4196SOL     OW24049   4.111   1.073  12.838  0.1297 -0.0832  0.3811
 4196SOL    HW124050   4.064   1.020  12.902  0.7399 -1.6866 -0.5055
 4196SOL    HW224051   4.037   1.117  12.796  1.4425  1.6221 -0.1603
 4197SOL     OW24052   2.834   3.134   3.490 -0.1966  0.4228  0.1915
 4197SOL    HW124053   2.877   3.075   3.428 -0.2831 -0.6626  1.1693
 4197SOL    HW224054   2.745   3.113   3.463 -0.3554  2.3732 -0.7683
 4198SOL     OW24055   3.638   4.013   9.874  0.2558 -0.3764 -0.2132
 4198SOL    HW124056   3.718   3.991   9.827  0.1088  1.7742 -1.4884
 4198SOL    HW224057   3.585   4.076   9.823  0.8942  1.0815  0.9470
 4199SOL     OW24058   3.060   1.510  14.899 -0.1301  0.4504  0.6085
 4199SOL    HW124059   3.110   1.432  14.924 -1.2749  0.0817  1.7639
 4199SOL    HW224060   3.110   1.579  14.941 -1.4693  1.6352  0.2366
 4200SOL     OW24061   3.028   3.075   9.749  0.3936 -0.6565  0.0548
 4200SOL    HW124062   2.975   3.155   9.749  1.1682 -0.1404  2.7925
 4200SOL    HW224063   3.075   3.099   9.829 -0.5490 -2.0196  1.0237
 4201SOL     OW24064   2.400   2.444  17.665  0.3081  0.0468 -0.1734
 4201SOL    HW124065   2.358   2.514   0.013 -0.1405  1.6279 -2.7580
 4201SOL    HW224066   2.481   2.490  17.643 -0.3495  0.3165 -2.0334
 4202SOL     OW24067   0.639   1.274  12.854  0.0579  0.3804  0.8325
 4202SOL    HW124068   0.657   1.220  12.931 -0.5979 -0.1770  0.6037
 4202SOL    HW224069   0.565   1.324  12.886  1.4434  3.0860 -0.1998
 4203SOL     OW24070   1.608   2.866  10.320 -0.4489 -0.3006  0.0100
 4203SOL    HW124071   1.700   2.888  10.306  0.1565 -1.4958  2.1363
 4203SOL    HW224072   1.571   2.917  10.248  2.9940  1.5087 -0.4279
 4204SOL     OW24073   4.045   2.311   4.119 -0.0985  0.3974  0.3997
 4204SOL    HW124074   4.000   2.388   4.085 -1.1041  0.5128  1.9974
 4204SOL    HW224075   4.125   2.316   4.066 -0.6152 -0.4486 -0.4755
 4205SOL     OW24076   0.290   4.610   9.030 -0.6540 -0.4123  0.4314
 4205SOL    HW124077   0.303   4.619   8.936 -0.3961 -0.9698  0.4185
 4205SOL    HW224078   0.230   4.535   9.031 -2.0248  0.6937  1.2097
 4206SOL     OW24079   1.227   0.695   2.601 -0.2602  0.0658  0.5746
 4206SOL    HW124080   1.259   0.701   2.511  0.7800 -1.9091  0.8364
 4206SOL    HW224081   1.156   0.758   2.584 -0.8777 -0.7441  0.1481
 4207SOL     OW24082   3.684   4.037  10.930 -0.5459  0.0950  0.1244
 4207SOL    HW124083   3.684   4.034  11.026  1.4797 -0.0977  0.1270
 4207SOL    HW224084   3.626   3.965  10.905  0.3627 -0.5911  0.0150
 4208SOL     OW24085   2.574   4.127   8.990 -0.3138 -0.2592 -0.5779
 4208SOL    HW124086   2.584   4.065   9.062 -0.8785  1.1223  0.6656
 4208SOL    HW224087   2.484   4.158   8.998 -0.0048  0.2496  0.8913
 4209SOL     OW24088   2.614   3.172   2.027  0.1749  0.0756  0.7306
 4209SOL    HW124089   2.545   3.221   1.981  0.3345 -0.3645  0.0291
 4209SOL    HW224090   2.685   3.212   1.977 -0.1520 -0.7669 -0.4100
 4210SOL     OW24091   3.379   4.616   9.339 -0.2054 -0.1891  0.4648
 4210SOL    HW124092   3.390   4.693   9.395  1.2944 -1.6800  2.1827
 4210SOL    HW224093   3.441   4.549   9.368  0.6117 -0.3919 -1.8085
 4211SOL     OW24094   3.942   2.950   7.508  0.1589  0.1377  0.4389
 4211SOL    HW124095   3.973   2.999   7.584 -0.9151  2.4217 -0.6047
 4211SOL    HW224096   4.022   2.952   7.454  0.4372 -2.6047  0.7517
 4212SOL     OW24097   1.346   3.735   6.219 -0.2785  0.7333  0.0053
 4212SOL    HW124098   1.411   3.698   6.159  0.1673  1.8893 -0.2226
 4212SOL    HW224099   1.380   3.821   6.247 -1.3297  0.8219  1.0003
 4213SOL     OW24100   2.479   1.409   3.104  0.3238 -0.1604 -0.3002
 4213SOL    HW124101   2.394   1.432   3.143  0.4007  0.8184 -0.7168
 4213SOL    HW224102   2.511   1.356   3.177 -1.3410 -0.9179 -0.1184
 4214SOL     OW24103   4.657   2.884   3.696 -0.5708  0.0572  0.1728
 4214SOL    HW124104   4.573   2.902   3.655 -0.6865 -0.3425  0.2399
 4214SOL    HW224105   4.711   2.943   3.642  2.1665 -1.3843  1.3199
 4215SOL     OW24106   3.035   1.454   2.386  0.4612  0.1666 -0.1885
 4215SOL    HW124107   3.003   1.365   2.371  1.0906 -0.2144  0.7830
 4215SOL    HW224108   2.971   1.483   2.451  1.3888  0.0818  0.7524
 4216SOL     OW24109   1.471   2.037  10.321 -0.2596 -0.7871 -0.2256
 4216SOL    HW124110   1.397   2.076  10.369  0.1246 -0.3214 -0.0159
 4216SOL    HW224111   1.432   2.035  10.233 -1.8462  1.1262  0.4258
 4217SOL     OW24112   1.065   3.361   4.487  0.5402 -0.0320  0.3788
 4217SOL    HW124113   0.973   3.366   4.462  1.0113 -1.2746 -1.5318
 4217SOL    HW224114   1.080   3.449   4.522 -0.0146  1.2222 -2.5226
 4218SOL     OW24115   0.370   4.069   6.166  0.7204  0.1201 -0.3274
 4218SOL    HW124116   0.421   4.149   6.159  1.2231 -0.3274 -1.8266
 4218SOL    HW224117   0.425   4.014   6.222 -0.1592  0.4058  0.8213
 4219SOL     OW24118   0.253   2.431   9.544  0.3258 -0.2591  0.0163
 4219SOL    HW124119   0.328   2.478   9.509  0.0046  0.7794  0.7281
 4219SOL    HW224120   0.200   2.414   9.466 -1.6360  0.5967  1.1595
 4220SOL     OW24121   2.423   1.925   7.604  0.3544 -0.0557 -0.1236
 4220SOL    HW124122   2.351   1.935   7.542  0.2137 -2.8449 -0.4121
 4220SOL    HW224123   2.488   1.872   7.557  0.5224  0.1526 -0.1252
 4221SOL     OW24124   4.356   3.622  13.389  0.3408 -0.0033  0.3379
 4221SOL    HW124125   4.318   3.534  13.392 -0.1749  0.2469  1.0437
 4221SOL    HW224126   4.357   3.644  13.482 -0.6363  1.7960 -0.0792
 4222SOL     OW24127   1.992   1.045   8.237  0.1073 -0.4334  0.0878
 4222SOL    HW124128   1.926   0.977   8.252 -1.0244  0.2238 -2.0032
 4222SOL    HW224129   2.055   1.023   8.306 -0.4343  1.4870  1.1774
 4223SOL     OW24130   4.301   4.120   6.440 -0.2089  0.5380 -0.1197
 4223SOL    HW124131   4.382   4.166   6.417  0.7848 -0.0771  2.1085
 4223SOL    HW224132   4.244   4.159   6.374 -0.1572  1.1179  0.1843
 4224SOL     OW24133   0.054   2.977   0.499  0.8092  0.2896 -0.1452
 4224SOL    HW124134   4.704   2.948   0.551 -0.1371  2.1976 -0.4324
 4224SOL    HW224135   0.103   2.898   0.478  0.0232 -0.5392  1.1660
 4225SOL     OW24136   2.701   4.289  12.199 -0.9412  0.9056 -0.3636
 4225SOL    HW124137   2.742   4.206  12.224  0.5843  1.0919 -2.2400
 4225SOL    HW224138   2.756   4.315  12.125 -1.8207  0.0547 -1.3182
 4226SOL     OW24139   0.186   2.540   9.099 -0.3940  0.1479  0.3032
 4226SOL    HW124140   0.104   2.575   9.133  0.9026  1.5306  2.0213
 4226SOL    HW224141   0.150   2.473   9.041 -1.3903  1.5922 -0.7315
 4227SOL     OW24142   4.227   2.842  13.491  0.7272  0.2922 -0.4215
 4227SOL    HW124143   4.141   2.803  13.502  1.1460 -0.3044  0.7324
 4227SOL    HW224144   4.280   2.791  13.552  0.5600 -0.6344 -1.0469
 4228SOL     OW24145   2.306   2.902   8.481 -0.3617 -0.2852  0.4946
 4228SOL    HW124146   2.267   2.820   8.512 -1.9662  1.0525  2.0356
 4228SOL    HW224147   2.280   2.963   8.550 -0.4629  1.1263 -0.7787
 4229SOL     OW24148   3.902   3.634  12.952 -0.8493 -0.0533  0.3382
 4229SOL    HW124149   3.959   3.679  12.889 -1.2643 -0.3203 -0.2324
 4229SOL    HW224150   3.956   3.579  13.008  0.0500  2.1406  1.6288
 4230SOL     OW24151   2.316   3.925   5.271 -0.1984 -0.1491  0.7887
 4230SOL    HW124152   2.320   3.853   5.334 -1.1974 -0.5635  0.3704
 4230SOL    HW224153   2.316   3.997   5.334  0.5215  0.5229  0.0292
 4231SOL     OW24154   4.697   2.751   8.034  0.3317 -0.2809 -0.4000
 4231SOL    HW124155   0.021   2.675   8.002  1.6218  0.3554  0.1010
 4231SOL    HW224156   0.028   2.827   8.021 -0.4091  0.6602  1.9196
 4232SOL     OW24157   0.629   2.444   9.320 -0.2848  0.0016  0.0650
 4232SOL    HW124158   0.552   2.411   9.275  0.3081 -0.5145 -0.5690
 4232SOL    HW224159   0.598   2.440   9.410 -1.0392  1.1188 -0.1491
 4233SOL     OW24160   3.155   2.818   4.291 -0.2565 -0.3401 -0.6050
 4233SOL    HW124161   3.170   2.821   4.196 -0.8502 -0.4567 -0.7039
 4233SOL    HW224162   3.241   2.842   4.324 -1.8783  2.0335  1.8791
 4234SOL     OW24163   0.738   1.316   0.611  0.1008 -0.4464  0.1605
 4234SOL    HW124164   0.807   1.276   0.663  0.9905  1.5308  0.5274
 4234SOL    HW224165   0.780   1.363   0.539 -1.2751  2.7066  1.4119
 4235SOL     OW24166   4.023   1.997  16.924  0.3736 -0.5201  0.0950
 4235SOL    HW124167   4.104   1.961  16.888 -0.1632 -0.6521 -0.9905
 4235SOL    HW224168   4.038   2.091  16.911  1.5612 -0.7004  0.2042
 4236SOL     OW24169   2.553   1.916   5.926 -0.0167  0.4648  0.2931
 4236SOL    HW124170   2.478   1.877   5.969 -0.9667  0.7357 -1.0973
 4236SOL    HW224171   2.563   2.006   5.958 -0.5470  0.1993  1.1892
 4237SOL     OW24172   3.088   0.218   5.689  0.4066  0.8488 -0.7712
 4237SOL    HW124173   3.031   0.215   5.765 -0.3945 -0.5411 -1.4226
 4237SOL    HW224174   3.150   0.149   5.713 -0.1066  1.7527  3.1226
 4238SOL     OW24175   3.305   0.393   3.624 -0.1350 -0.7645  0.4358
 4238SOL    HW124176   3.344   0.309   3.599 -1.8668 -1.0609 -1.2822
 4238SOL    HW224177   3.233   0.397   3.561 -0.9190  0.2079  1.3945
 4239SOL     OW24178   3.514   1.578   9.582  0.3615 -0.3425 -0.2968
 4239SOL    HW124179   3.432   1.603   9.625  1.1337 -0.3418  1.1760
 4239SOL    HW224180   3.585   1.610   9.639  0.6415 -0.7084 -0.4419
 4240SOL     OW24181   3.889   4.196  11.352 -0.4270  0.1128  0.2721
 4240SOL    HW124182   3.882   4.256  11.277 -0.1394 -0.1422  0.0412
 4240SOL    HW224183   3.879   4.248  11.432  0.9299 -1.1598  1.2700
 4241SOL     OW24184   1.783   2.427   0.533 -0.5855 -0.5391 -0.4351
 4241SOL    HW124185   1.700   2.448   0.490  1.3968 -0.1916 -4.0243
 4241SOL    HW224186   1.848   2.474   0.480 -0.0402 -0.5485  0.2254
 4242SOL     OW24187   4.515   4.585   6.519  0.3967  0.3911  0.5750
 4242SOL    HW124188   4.474   4.520   6.576 -0.1870  1.0787  0.9285
 4242SOL    HW224189   4.578   4.522   6.483  0.7331  1.0538 -0.0052
 4243SOL     OW24190   1.898   1.564   4.838 -0.1002  1.0089 -0.1600
 4243SOL    HW124191   1.925   1.474   4.853  0.9222  1.6437  1.7126
 4243SOL    HW224192   1.955   1.622   4.887  2.4246 -2.6376  1.1867
 4244SOL     OW24193   4.508   2.323  16.783 -0.1340  0.5197  0.3488
 4244SOL    HW124194   4.476   2.272  16.857  0.2355 -0.4264 -0.1565
 4244SOL    HW224195   4.539   2.400  16.831  0.2254 -0.1081  1.1252
 4245SOL     OW24196   2.748   3.629   6.117  0.5807  0.0362 -0.5216
 4245SOL    HW124197   2.784   3.545   6.146 -1.5265 -1.2558 -1.6819
 4245SOL    HW224198   2.713   3.611   6.030  1.0977 -0.5336 -0.6096
 4246SOL     OW24199   0.422   2.614   6.799  0.4799 -0.2349  0.6287
 4246SOL    HW124200   0.477   2.681   6.839 -0.6079 -1.2797  3.8509
 4246SOL    HW224201   0.386   2.664   6.726 -1.3546 -1.2929  0.8079
 4247SOL     OW24202   0.716   0.372  15.096  0.3584 -0.0083  0.3354
 4247SOL    HW124203   0.796   0.424  15.104  1.1993 -1.2597 -0.0803
 4247SOL    HW224204   0.752   0.289  15.066  1.6138  0.1392  1.4207
 4248SOL     OW24205   0.870   2.339   6.525  0.6861 -0.5236  0.3070
 4248SOL    HW124206   0.899   2.428   6.548  1.2924 -0.5589 -0.3313
 4248SOL    HW224207   0.818   2.311   6.600  2.6960 -0.0679  1.8519
 4249SOL     OW24208   2.394   1.430   8.643  0.0813 -0.1230  0.0423
 4249SOL    HW124209   2.355   1.492   8.704 -1.4378  1.5740 -2.6087
 4249SOL    HW224210   2.486   1.458   8.643 -0.3479  1.2891 -0.0448
 4250SOL     OW24211   3.685   4.432   5.396 -0.1722 -0.0527  0.2608
 4250SOL    HW124212   3.654   4.509   5.349  1.1845  0.5990  0.4249
 4250SOL    HW224213   3.604   4.387   5.417  0.0993  0.4925  2.3806
 4251SOL     OW24214   4.459   1.505   5.028  0.0350 -0.0457 -0.0377
 4251SOL    HW124215   4.418   1.570   4.971  0.5729 -0.1093 -0.5003
 4251SOL    HW224216   4.462   1.426   4.974  0.7828 -0.2682  0.3383
 4252SOL     OW24217   1.572   1.764   3.669 -0.5306 -0.0847  0.2894
 4252SOL    HW124218   1.636   1.813   3.720  2.9154 -1.7060 -2.4961
 4252SOL    HW224219   1.533   1.830   3.612  0.6117 -0.4937 -0.9771
 4253SOL     OW24220   3.111   1.741   1.464 -0.1421 -0.2166  0.4742
 4253SOL    HW124221   3.193   1.748   1.511  1.7931 -1.8170 -2.6557
 4253SOL    HW224222   3.057   1.808   1.506 -1.0708  0.3170 -1.5538
 4254SOL     OW24223   2.939   1.783  16.967  0.2890 -0.2591 -0.7454
 4254SOL    HW124224   2.894   1.734  16.898 -0.4020 -0.3093 -0.2675
 4254SOL    HW224225   2.949   1.705  17.022 -1.5367  0.1827  0.2451
 4255SOL     OW24226   0.890   3.702  14.776 -0.8282 -0.5504  0.1347
 4255SOL    HW124227   0.884   3.770  14.843  1.0486  1.0551 -1.3515
 4255SOL    HW224228   0.799   3.685  14.750 -1.1384  1.3267  0.0174
 4256SOL     OW24229   4.526   0.974   2.611  0.1627 -0.2076  0.1809
 4256SOL    HW124230   4.517   1.047   2.550 -0.0004 -1.2392 -1.0313
 4256SOL    HW224231   4.474   0.905   2.571 -0.4784 -1.0812  2.5123
 4257SOL     OW24232   3.904   4.523  11.346  0.7843 -0.5432  0.1787
 4257SOL    HW124233   3.921   4.498  11.436  1.6797  1.6827  0.6442
 4257SOL    HW224234   3.967   4.594  11.331 -2.5164  2.3713 -0.0003
 4258SOL     OW24235   0.613   4.716  11.307  0.1094  0.1553  0.2250
 4258SOL    HW124236   0.547   0.039  11.357 -1.2779 -0.2391 -1.2366
 4258SOL    HW224237   0.588   4.630  11.341 -0.1224  0.9710  2.1534
 4259SOL     OW24238   4.593   2.335  13.560 -0.0618 -0.3632  0.2206
 4259SOL    HW124239   4.638   2.332  13.644  0.2832  1.3959  0.1018
 4259SOL    HW224240   4.650   2.270  13.519 -0.5234 -1.1788  0.8588
 4260SOL     OW24241   2.117   3.141   8.046  0.1673 -0.2410 -0.6275
 4260SOL    HW124242   2.157   3.200   8.110  3.3562 -0.8074 -2.0475
 4260SOL    HW224243   2.158   3.056   8.063 -0.2748 -0.6628 -1.6649
 4261SOL     OW24244   0.681   0.483  10.863  0.2985 -0.3286  0.2406
 4261SOL    HW124245   0.758   0.512  10.814  0.5323 -3.3398 -1.2092
 4261SOL    HW224246   0.610   0.528  10.817  0.8325  1.2248  0.9706
 4262SOL     OW24247   4.078   2.561   4.281  0.1737 -1.0773 -0.6861
 4262SOL    HW124248   4.040   2.571   4.193 -0.0301 -0.6254 -0.5477
 4262SOL    HW224249   4.123   2.646   4.282 -0.8374 -0.5310 -1.2352
 4263SOL     OW24250   1.032   4.347   5.604  0.2763  0.0250 -0.4864
 4263SOL    HW124251   1.076   4.270   5.641 -1.8408 -0.9057  0.0756
 4263SOL    HW224252   1.055   4.415   5.668  0.8256  2.0318 -2.8058
 4264SOL     OW24253   2.703   4.321   6.369  0.2895 -0.4072 -0.3641
 4264SOL    HW124254   2.631   4.268   6.335 -0.7785  0.8042  0.0150
 4264SOL    HW224255   2.700   4.291   6.460 -0.4793  0.6253 -0.0483
 4265SOL     OW24256   3.792   0.876   3.825 -0.0098 -0.2258  0.1148
 4265SOL    HW124257   3.854   0.914   3.763  1.1915 -2.8178 -0.2938
 4265SOL    HW224258   3.714   0.884   3.769 -1.1166 -0.3214  1.6411
 4266SOL     OW24259   0.621   2.428   5.805  0.6226 -0.0225  0.1162
 4266SOL    HW124260   0.666   2.375   5.739 -0.4321 -0.4111 -0.2808
 4266SOL    HW224261   0.543   2.382   5.833 -0.2317 -0.2392 -2.6482
 4267SOL     OW24262   4.190   1.903   6.677 -0.1826  0.0626 -0.5935
 4267SOL    HW124263   4.258   1.886   6.742  1.3204 -1.3471 -2.5398
 4267SOL    HW224264   4.113   1.869   6.722 -0.3759  2.2634  0.7176
 4268SOL     OW24265   2.060   2.501  17.354 -0.3262 -0.2828  0.0740
 4268SOL    HW124266   1.993   2.433  17.346 -1.3440  0.8482 -1.0197
 4268SOL    HW224267   2.141   2.450  17.353  0.0533  0.3456 -1.2431
 4269SOL     OW24268   4.376   0.093   1.210  0.3030  0.4561  0.3141
 4269SOL    HW124269   4.469   0.096   1.235  0.0986 -1.5968  1.3057
 4269SOL    HW224270   4.376   0.177   1.164  1.0524 -0.0447 -0.5831
 4270SOL     OW24271   0.520   3.822   8.015 -0.3878  0.0682  0.5490
 4270SOL    HW124272   0.534   3.916   8.026  0.9955  0.4680 -4.4744
 4270SOL    HW224273   0.611   3.793   8.020 -0.2754 -0.1407 -2.3698
 4271SOL     OW24274   3.661   3.851   2.390 -0.0757 -0.2334 -0.1246
 4271SOL    HW124275   3.728   3.788   2.362  1.6192  1.4524  0.1188
 4271SOL    HW224276   3.706   3.934   2.409  0.9581 -0.6556 -0.7156
 4272SOL     OW24277   1.097   2.188   6.442 -0.2403  0.2860  0.3128
 4272SOL    HW124278   1.079   2.104   6.401  0.7685 -0.1341  0.7352
 4272SOL    HW224279   1.008   2.212   6.468 -0.1722  0.9534 -0.0677
 4273SOL     OW24280   3.297   1.252   6.484 -0.0467 -0.8568 -0.0119
 4273SOL    HW124281   3.384   1.217   6.464  1.1211  0.8267  2.1473
 4273SOL    HW224282   3.265   1.187   6.547  0.7206 -1.9035 -0.6804
 4274SOL     OW24283   4.063   2.515   8.407 -1.0602 -0.6192 -0.2606
 4274SOL    HW124284   4.089   2.560   8.327  0.8443  0.0259  0.7270
 4274SOL    HW224285   4.082   2.423   8.387 -0.2760 -0.4951 -0.0716
 4275SOL     OW24286   0.776   0.659   4.953  0.0463  0.3474 -0.4966
 4275SOL    HW124287   0.769   0.725   5.021  1.6393  0.5990 -0.5890
 4275SOL    HW224288   0.810   0.724   4.892 -1.1336  3.1528  1.8444
 4276SOL     OW24289   1.925   4.176   6.992  0.1969  0.1510  0.3763
 4276SOL    HW124290   1.996   4.187   6.928 -0.1513  1.4783  0.2252
 4276SOL    HW224291   1.901   4.090   6.958 -0.9164  0.6911 -0.2094
 4277SOL     OW24292   0.797   1.409  10.881 -0.4811 -0.5260 -0.2222
 4277SOL    HW124293   0.892   1.399  10.887 -0.1459  0.7850 -3.0982
 4277SOL    HW224294   0.764   1.333  10.928 -0.3042  0.9501  2.3088
 4278SOL     OW24295   1.456   4.631   2.231 -0.3241  0.3751  0.8307
 4278SOL    HW124296   1.496   4.638   2.318 -0.7536  0.4382  1.0275
 4278SOL    HW224297   1.361   4.646   2.236  0.0013  2.7699  0.1142
 4279SOL     OW24298   1.383   0.452  17.256  0.1153  0.2183 -0.3202
 4279SOL    HW124299   1.308   0.424  17.202  1.2228  0.0586 -1.7879
 4279SOL    HW224300   1.342   0.533  17.287 -0.8292  0.3635 -1.8956
 4280SOL     OW24301   3.829   2.164   6.694  0.1493  0.2986  0.6264
 4280SOL    HW124302   3.856   2.083   6.649 -1.9249 -0.1258  0.1114
 4280SOL    HW224303   3.904   2.176   6.752  0.1494  0.0515  0.6803
 4281SOL     OW24304   2.780   2.264  17.127 -0.1070  0.2578  0.1630
 4281SOL    HW124305   2.793   2.188  17.069  0.3110  0.0265  0.5609
 4281SOL    HW224306   2.808   2.337  17.071  1.7567  0.3115  1.1749
 4282SOL     OW24307   4.512   1.860   6.638 -0.0033  0.1248  0.4640
 4282SOL    HW124308   4.587   1.919   6.647 -0.8963  1.2656  0.5203
 4282SOL    HW224309   4.498   1.873   6.544  2.4677 -1.1609 -0.0583
 4283SOL     OW24310   1.225   4.332  12.722 -0.1836  0.0751 -0.3385
 4283SOL    HW124311   1.165   4.378  12.780  1.0126  0.7802  0.3479
 4283SOL    HW224312   1.249   4.254  12.771 -1.6632 -0.0014  0.2521
 4284SOL     OW24313   2.815   1.011  13.908  0.1682  0.1018 -0.3937
 4284SOL    HW124314   2.766   0.955  13.848  0.6299 -1.1163  0.3533
 4284SOL    HW224315   2.854   1.067  13.841 -0.7835 -0.4936 -1.4388
 4285SOL     OW24316   3.205   0.528   9.446  0.1410  0.4404 -0.0483
 4285SOL    HW124317   3.140   0.569   9.503  1.4629 -1.1489  2.6089
 4285SOL    HW224318   3.286   0.571   9.474  2.0930 -3.1763 -0.1969
 4286SOL     OW24319   4.146   2.835   0.163 -0.5682  0.0983  0.7892
 4286SOL    HW124320   4.200   2.899   0.116 -0.8730  0.5765  1.0942
 4286SOL    HW224321   4.068   2.845   0.109 -0.9832  0.5214  1.4794
 4287SOL     OW24322   3.679   3.242   4.783  0.2390  0.1164 -1.0371
 4287SOL    HW124323   3.771   3.262   4.768  0.4337  1.6854  2.0864
 4287SOL    HW224324   3.691   3.210   4.873 -2.6647 -0.4927 -0.8539
 4288SOL     OW24325   1.259   4.450   6.352  0.1345  0.0468  0.0292
 4288SOL    HW124326   1.263   4.357   6.375  1.0652  0.3891  1.2317
 4288SOL    HW224327   1.166   4.461   6.332 -0.6511  0.2122  3.6920
 4289SOL     OW24328   4.561   4.644   0.943  0.4279  0.3387  0.2578
 4289SOL    HW124329   4.494   4.713   0.944 -0.8690 -0.9009 -1.5387
 4289SOL    HW224330   4.580   4.647   0.850  0.1848  2.8384  0.3072
 4290SOL     OW24331   0.192   1.187   3.099 -0.5663  0.3108 -0.0286
 4290SOL    HW124332   0.233   1.136   3.029 -0.6780  0.6910 -0.3675
 4290SOL    HW224333   0.129   1.240   3.050 -0.4760  0.5608  0.1302
 4291SOL     OW24334   3.245   4.558   8.394 -0.8716 -0.0635  0.2577
 4291SOL    HW124335   3.234   4.593   8.483  2.5988 -1.4287  1.2333
 4291SOL    HW224336   3.300   4.621   8.347 -1.5704  0.4275  0.1061
 4292SOL     OW24337   0.251   0.114   3.278  0.3921 -0.3827  0.1081
 4292SOL    HW124338   0.254   0.200   3.236  1.1520  0.2623  1.4796
 4292SOL    HW224339   0.338   0.086   3.249  0.8462  3.4266 -2.2533
 4293SOL     OW24340   0.405   2.795   7.984  0.1002  0.1874  0.4354
 4293SOL    HW124341   0.452   2.825   7.907  1.8039 -1.7899  0.7074
 4293SOL    HW224342   0.339   2.749   7.932  1.1518 -1.7126  0.7683
 4294SOL     OW24343   3.512   1.261   8.549  0.0634 -0.3444  1.3686
 4294SOL    HW124344   3.569   1.337   8.536 -1.1479  0.5895  1.5490
 4294SOL    HW224345   3.567   1.186   8.527  0.0936 -0.5033  1.9977
 4295SOL     OW24346   2.135   1.390   8.674 -0.3410 -0.1823 -0.2774
 4295SOL    HW124347   2.132   1.464   8.735 -1.0061  0.4618 -1.0869
 4295SOL    HW224348   2.230   1.387   8.668 -0.4814  2.1001 -3.7384
 4296SOL     OW24349   2.584   0.301   4.734 -0.4752 -0.4564 -0.2097
 4296SOL    HW124350   2.627   0.356   4.799 -0.4625  0.6724 -1.1853
 4296SOL    HW224351   2.555   0.226   4.787 -0.3689 -1.0802 -1.0247
 4297SOL     OW24352   3.472   3.566   8.855 -0.0393 -0.3285  0.3330
 4297SOL    HW124353   3.549   3.531   8.900  0.0297  0.9769  1.2472
 4297SOL    HW224354   3.403   3.523   8.904 -0.6030  0.2389  0.0381
 4298SOL     OW24355   3.630   3.204  15.960  0.2127 -0.2383  0.1770
 4298SOL    HW124356   3.655   3.184  15.870 -0.5556 -3.5066  0.7037
 4298SOL    HW224357   3.551   3.150  15.972 -0.5067  1.0253  1.1576
 4299SOL     OW24358   3.141   0.848   6.324  0.0535  0.1790  0.3951
 4299SOL    HW124359   3.202   0.882   6.258  0.9340 -2.0674  0.0578
 4299SOL    HW224360   3.145   0.756   6.298 -0.3191 -0.2808  2.0009
 4300SOL     OW24361   2.742   0.320   6.551  0.1356  0.3200  0.1343
 4300SOL    HW124362   2.777   0.315   6.462 -0.1520 -0.7018  0.0751
 4300SOL    HW224363   2.804   0.382   6.589  0.3991 -0.1240  0.4381
 4301SOL     OW24364   4.540   2.861   8.235 -0.5417  0.4877 -0.4332
 4301SOL    HW124365   4.447   2.879   8.225 -0.3227  0.5430 -2.3943
 4301SOL    HW224366   4.561   2.879   8.143  0.2985 -0.2699 -0.3944
 4302SOL     OW24367   1.034   1.404   9.005  0.0581 -0.1793 -0.3785
 4302SOL    HW124368   1.102   1.404   8.939  0.3530  1.9176 -0.0663
 4302SOL    HW224369   1.092   1.403   9.082 -0.5073 -2.5998  0.0271
 4303SOL     OW24370   0.054   4.182  13.762 -0.5659  0.6076  0.0579
 4303SOL    HW124371   4.693   4.210  13.792 -0.3584 -0.6019  1.7874
 4303SOL    HW224372   0.114   4.246  13.801 -0.0192 -0.4302  0.9147
 4304SOL     OW24373   2.922   1.002   1.399  1.5037 -0.1021  0.3604
 4304SOL    HW124374   2.906   1.077   1.341 -0.3611  0.0036  1.0432
 4304SOL    HW224375   2.884   1.039   1.478 -1.1222 -2.5647  0.2362
 4305SOL     OW24376   0.664   3.903   8.399  0.1104  0.2321  0.2387
 4305SOL    HW124377   0.755   3.933   8.404  0.0262  0.2288  1.7902
 4305SOL    HW224378   0.616   3.984   8.384 -0.2912  0.4426  2.5623
 4306SOL     OW24379   4.448   3.601   0.625  0.5804  0.0595  0.3067
 4306SOL    HW124380   4.436   3.515   0.585 -1.0851  1.0317 -1.2357
 4306SOL    HW224381   4.541   3.594   0.647  0.7599  1.9005  0.0923
 4307SOL     OW24382   2.948   0.985  13.133 -0.2888  0.0800 -0.2371
 4307SOL    HW124383   2.871   1.011  13.183 -0.2966 -0.6990  0.1654
 4307SOL    HW224384   2.974   0.904  13.177  1.5677 -0.4202 -2.2388
 4308SOL     OW24385   0.230   2.105  12.111 -0.0375  0.1684 -0.9932
 4308SOL    HW124386   0.266   2.050  12.180 -3.2014  0.7944  1.1889
 4308SOL    HW224387   0.305   2.105  12.052  0.6642  0.1603 -0.0969
 4309SOL     OW24388   2.303   1.983   0.261 -0.2587  0.7708 -0.2824
 4309SOL    HW124389   2.374   2.046   0.273 -1.2619  1.8360 -0.0339
 4309SOL    HW224390   2.255   1.986   0.344  0.9791  1.0978  0.4263
 4310SOL     OW24391   0.995   4.189   3.488 -0.0872 -0.6290  0.1398
 4310SOL    HW124392   1.040   4.125   3.544  0.8720  3.0901  3.6829
 4310SOL    HW224393   0.927   4.141   3.442  1.2006 -1.5346 -0.8161
 4311SOL     OW24394   0.844   0.880   6.577  0.1568 -0.0425 -0.0424
 4311SOL    HW124395   0.939   0.870   6.584  0.1483  0.1681  0.4159
 4311SOL    HW224396   0.842   0.965   6.622 -1.4413 -0.7054  1.1513
 4312SOL     OW24397   4.446   0.660   9.529  0.6143 -0.2654 -0.5364
 4312SOL    HW124398   4.454   0.571   9.493 -0.3702  0.0664 -1.5767
 4312SOL    HW224399   4.525   0.664   9.583 -0.8453 -0.4609  1.5858
 4313SOL     OW24400   2.054   0.542   4.254 -0.3267  0.9339  0.0486
 4313SOL    HW124401   2.086   0.632   4.257 -0.6083  1.1083 -1.9533
 4313SOL    HW224402   1.976   0.552   4.199 -0.5142 -0.7809  0.0012
 4314SOL     OW24403   2.877   1.155   0.149 -0.1318  0.0343 -0.0694
 4314SOL    HW124404   2.927   1.225   0.106 -0.0800 -0.1100 -0.2449
 4314SOL    HW224405   2.900   1.174   0.240  1.7135 -1.5389 -0.2127
 4315SOL     OW24406   1.722   0.712   9.344  0.0551  0.4575  0.4146
 4315SOL    HW124407   1.719   0.807   9.350 -0.2356  0.4412  0.5237
 4315SOL    HW224408   1.810   0.689   9.373 -0.2475 -1.0722  0.1104
 4316SOL     OW24409   0.903   3.626  15.192  0.4683 -0.4573 -0.1196
 4316SOL    HW124410   0.941   3.599  15.109 -1.4006 -1.5841 -0.6063
 4316SOL    HW224411   0.914   3.547  15.246 -0.0718 -0.9721 -0.7701
 4317SOL     OW24412   0.576   1.310  14.603  0.1583  0.1729  0.3981
 4317SOL    HW124413   0.572   1.333  14.510 -0.0727  0.3389  0.4496
 4317SOL    HW224414   0.551   1.217  14.607  0.2505  0.2101  1.8998
 4318SOL     OW24415   3.494   3.254   2.610  0.0799 -0.2128  0.1080
 4318SOL    HW124416   3.441   3.211   2.676  1.1171 -3.7186 -1.3196
 4318SOL    HW224417   3.514   3.185   2.547 -1.4457 -0.7621  0.2356
 4319SOL     OW24418   2.654   4.008   3.166  0.5780 -0.3062 -0.3427
 4319SOL    HW124419   2.634   4.033   3.076 -0.4545 -1.9350 -0.5771
 4319SOL    HW224420   2.741   3.971   3.161  0.5113 -0.6389  0.8994
 4320SOL     OW24421   4.090   2.791   8.528  0.1301 -0.1834  0.3887
 4320SOL    HW124422   4.035   2.719   8.499  0.2311  0.4481 -1.3968
 4320SOL    HW224423   4.029   2.864   8.530  1.0621  0.5737  1.5983
 4321SOL     OW24424   3.832   2.937  15.867 -0.1287 -0.1237  0.0016
 4321SOL    HW124425   3.778   2.931  15.788  1.7403  1.7862 -1.4294
 4321SOL    HW224426   3.857   2.846  15.881 -1.3426 -0.4062  0.3351
 4322SOL     OW24427   4.499   2.143   1.340 -0.1471 -0.0266 -1.0926
 4322SOL    HW124428   4.411   2.178   1.353  0.7218  1.4769  0.8513
 4322SOL    HW224429   4.493   2.059   1.385 -0.7569  1.0408  0.8338
 4323SOL     OW24430   1.926   2.152   7.582  0.1013 -0.1546 -0.0570
 4323SOL    HW124431   1.872   2.130   7.506  1.4672  0.1344 -1.1226
 4323SOL    HW224432   1.945   2.065   7.617 -0.2495 -0.4751 -0.6584
 4324SOL     OW24433   1.290   2.484  16.010  0.0326  0.2974 -0.3521
 4324SOL    HW124434   1.216   2.467  15.952 -0.9895 -1.2647  1.4090
 4324SOL    HW224435   1.299   2.392  16.032 -1.4818  0.1220 -0.4635
 4325SOL     OW24436   2.238   2.913   8.798  0.7232 -0.6008 -0.2669
 4325SOL    HW124437   2.246   3.000   8.758  0.3147 -0.4387  0.0010
 4325SOL    HW224438   2.260   2.846   8.733 -3.1066  1.4341 -3.6839
 4326SOL     OW24439   2.816   3.864   4.522  0.1125 -0.1644 -0.9876
 4326SOL    HW124440   2.805   3.935   4.584  1.5411 -1.5974  0.8948
 4326SOL    HW224441   2.911   3.855   4.531 -0.2352 -1.0167  1.6863
 4327SOL     OW24442   3.989   2.432   6.437  0.6682  0.3245 -0.1089
 4327SOL    HW124443   3.938   2.503   6.475 -3.1575 -2.2459 -0.3915
 4327SOL    HW224444   4.023   2.391   6.517 -0.2743 -0.1765  0.0281
 4328SOL     OW24445   0.048   2.473   2.414 -0.4760 -0.4680 -0.6951
 4328SOL    HW124446   0.136   2.497   2.387 -0.4487 -0.8808 -0.9704
 4328SOL    HW224447   0.051   2.383   2.447  0.2608 -0.6884 -1.3521
 4329SOL     OW24448   0.432   1.245   9.387 -0.2124 -0.0987  0.6736
 4329SOL    HW124449   0.341   1.236   9.415 -0.0078  1.8514  1.9405
 4329SOL    HW224450   0.472   1.159   9.399  1.9354  0.6685 -0.9032
 4330SOL     OW24451   1.216   1.482   2.416  0.6145 -0.0266 -0.4440
 4330SOL    HW124452   1.124   1.507   2.427  0.6713 -0.1165  0.2291
 4330SOL    HW224453   1.219   1.535   2.336 -1.2289 -0.9399 -1.1161
 4331SOL     OW24454   1.735   1.129   9.077 -0.4139 -0.4749 -0.3745
 4331SOL    HW124455   1.830   1.117   9.071 -0.1593  0.9121  0.9026
 4331SOL    HW224456   1.714   1.083   8.996  0.7696 -1.1100 -0.3273
 4332SOL     OW24457   0.249   3.231   2.005  0.4042  0.3102 -0.4570
 4332SOL    HW124458   0.229   3.220   2.098 -1.6093  1.3709 -0.7660
 4332SOL    HW224459   0.185   3.298   1.979 -1.9387 -0.9857  1.9511
 4333SOL     OW24460   1.980   4.546   8.905 -0.5356  0.7988 -0.9299
 4333SOL    HW124461   1.985   4.630   8.859  0.8503  1.1922 -0.0555
 4333SOL    HW224462   1.969   4.585   8.992 -1.3089  0.1091 -0.7145
 4334SOL     OW24463   3.071   3.192   4.398  0.6520 -0.0290 -0.0451
 4334SOL    HW124464   3.029   3.246   4.466  0.2767  0.6267 -0.8029
 4334SOL    HW224465   3.030   3.106   4.408  0.9964  0.0723  2.3180
 4335SOL     OW24466   0.093   2.431  17.026 -0.2191  0.5088  0.5324
 4335SOL    HW124467   0.104   2.498  17.094  2.3620 -0.5406  1.1408
 4335SOL    HW224468   0.019   2.471  16.981 -0.2269 -2.2946 -1.9671
 4336SOL     OW24469   4.627   2.990  11.050  0.1571 -0.3730  0.3049
 4336SOL    HW124470   4.681   3.043  10.991  0.2521  1.3299  1.9075
 4336SOL    HW224471   4.692   2.969  11.117  0.4343  1.1897  0.5296
 4337SOL     OW24472   2.526   2.607   6.030 -0.2500  0.2516 -0.0689
 4337SOL    HW124473   2.548   2.531   6.083 -0.3294  1.4913  1.7723
 4337SOL    HW224474   2.573   2.668   6.088 -1.8302  1.2993  0.1245
 4338SOL     OW24475   2.723   1.802   3.472  0.5913  0.2231  0.5160
 4338SOL    HW124476   2.697   1.710   3.483  0.0353  0.4816  1.4097
 4338SOL    HW224477   2.775   1.789   3.393  0.2315 -0.5567  0.4039
 4339SOL     OW24478   3.220   3.913   8.652 -0.4626 -0.3378  0.4920
 4339SOL    HW124479   3.209   3.982   8.717 -1.3230  0.3752 -0.4050
 4339SOL    HW224480   3.277   3.862   8.709 -0.5290 -0.0046  0.8533
 4340SOL     OW24481   3.294   1.060   4.906  0.4622  0.1811 -0.4047
 4340SOL    HW124482   3.209   1.096   4.932  0.6280 -0.2999  0.8124
 4340SOL    HW224483   3.355   1.107   4.963 -0.7158  0.5226  0.5881
 4341SOL     OW24484   4.207   1.745  16.388  0.1886 -0.1935  0.5497
 4341SOL    HW124485   4.236   1.783  16.305  0.2064 -1.6141 -0.0946
 4341SOL    HW224486   4.183   1.823  16.438 -0.8662 -1.2456  1.6798
 4342SOL     OW24487   1.665   4.296   2.968  0.2803  0.4423 -1.0009
 4342SOL    HW124488   1.687   4.284   3.060  2.3805  3.0497 -1.1459
 4342SOL    HW224489   1.744   4.343   2.941 -1.4494  2.9620 -1.5563
 4343SOL     OW24490   4.310   1.376   9.046  0.2218 -0.3643  0.8299
 4343SOL    HW124491   4.250   1.343   9.112 -0.5236 -3.3042 -1.3476
 4343SOL    HW224492   4.371   1.307   9.020  0.9655  1.0871 -1.2273
 4344SOL     OW24493   0.669   4.246   4.533  0.0701  0.1740  0.3405
 4344SOL    HW124494   0.671   4.174   4.470 -0.6922  0.0164  0.4960
 4344SOL    HW224495   0.725   4.222   4.607  2.1613  0.1378 -1.2304
 4345SOL     OW24496   1.729   4.527   1.942 -0.1588  0.1513 -0.0313
 4345SOL    HW124497   1.777   4.557   1.864 -0.7154 -0.5081 -0.6300
 4345SOL    HW224498   1.657   4.589   1.952  0.3250  0.7811 -0.4725
 4346SOL     OW24499   2.106   3.392   3.261 -0.2910  0.1834 -0.1895
 4346SOL    HW124500   2.060   3.400   3.345 -0.0690 -1.6877  0.0942
 4346SOL    HW224501   2.041   3.334   3.222  0.1386 -1.2166  1.1717
 4347SOL     OW24502   3.205   4.137   2.950  0.0458  0.3200 -0.6509
 4347SOL    HW124503   3.153   4.060   2.971 -1.1937  1.2579 -0.3008
 4347SOL    HW224504   3.186   4.200   3.021 -0.2185 -0.9228  0.3761
 4348SOL     OW24505   3.456   3.788  16.693 -0.5391  0.1861  0.5474
 4348SOL    HW124506   3.417   3.719  16.748 -0.7806  1.0767  1.4955
 4348SOL    HW224507   3.409   3.861  16.732 -1.0346 -0.7280  1.6855
 4349SOL     OW24508   2.769   3.927   4.255  0.3868 -0.4483 -0.0583
 4349SOL    HW124509   2.682   3.963   4.274  0.3303 -0.4852 -0.2389
 4349SOL    HW224510   2.793   3.884   4.337  0.3973  0.0826  0.2111
 4350SOL     OW24511   0.921   1.620  11.689 -0.0341  0.7620 -0.2096
 4350SOL    HW124512   0.953   1.534  11.663 -2.7630 -0.1066 -0.7620
 4350SOL    HW224513   1.001   1.649  11.733  0.6174 -0.0549 -0.8566
 4351SOL     OW24514   4.432   0.954   4.092  0.0744 -0.2998 -0.0861
 4351SOL    HW124515   4.359   0.925   4.146  1.6119 -0.1445  2.1287
 4351SOL    HW224516   4.398   1.021   4.034  0.3102  1.5430  1.9148
 4352SOL     OW24517   1.784   0.114  11.980 -0.0697  0.0197  0.0919
 4352SOL    HW124518   1.735   0.126  12.061 -0.4890 -1.0331 -0.0116
 4352SOL    HW224519   1.845   0.187  11.981  0.6896 -0.6569  1.6875
 4353SOL     OW24520   1.641   0.175   2.393  0.0583 -0.1449  0.0834
 4353SOL    HW124521   1.719   0.121   2.409  1.3706  1.6351 -0.2837
 4353SOL    HW224522   1.573   0.142   2.451 -1.6790  0.3478 -1.6981
 4354SOL     OW24523   3.783   1.978   2.563 -0.0625 -0.0826 -0.7186
 4354SOL    HW124524   3.737   2.038   2.504 -0.9017 -0.5724 -0.5645
 4354SOL    HW224525   3.844   2.041   2.600 -0.4818 -0.3801  0.4961
 4355SOL     OW24526   3.122   4.002   7.766 -0.9048 -0.2234  0.0391
 4355SOL    HW124527   3.075   3.973   7.844 -1.0524 -0.8727 -0.2897
 4355SOL    HW224528   3.105   3.928   7.709  0.9070 -1.3461  0.9282
 4356SOL     OW24529   2.313   3.182   2.968  0.2379 -0.2230 -1.0435
 4356SOL    HW124530   2.296   3.244   2.897 -0.4794 -0.9057 -1.4655
 4356SOL    HW224531   2.408   3.182   2.959  0.4373 -1.1013  0.9475
 4357SOL     OW24532   1.232   3.394  13.601 -0.2678 -0.4261  0.1028
 4357SOL    HW124533   1.211   3.346  13.521 -0.4872 -1.3618  0.7206
 4357SOL    HW224534   1.322   3.424  13.588 -1.1455  1.1073 -2.3992
 4358SOL     OW24535   4.119   3.282   5.909 -0.4283  0.3316  0.1933
 4358SOL    HW124536   4.186   3.329   5.958 -0.2253  0.6927 -0.4392
 4358SOL    HW224537   4.146   3.273   5.817  1.8970 -1.5459  1.0424
 4359SOL     OW24538   4.684   4.472  11.338  0.1217  0.7606  0.6086
 4359SOL    HW124539   4.688   4.538  11.408  2.3787  2.4801 -1.1185
 4359SOL    HW224540   4.639   4.405  11.389 -0.5887  2.1057  1.7617
 4360SOL     OW24541   2.485   0.677   2.004  0.3427  0.0150  0.1682
 4360SOL    HW124542   2.523   0.604   1.955 -0.1160 -1.8278  2.5508
 4360SOL    HW224543   2.395   0.664   1.973  0.7670 -0.9722 -0.6575
 4361SOL     OW24544   0.512   3.450  10.710 -0.0128  0.3313  0.3274
 4361SOL    HW124545   0.572   3.431  10.638 -1.2931  1.7064 -1.0916
 4361SOL    HW224546   0.427   3.417  10.682  0.1609 -0.6842  0.9999
 4362SOL     OW24547   3.999   2.427   1.368  1.0073 -0.0510  0.6697
 4362SOL    HW124548   3.946   2.354   1.400  1.5431 -1.3258 -1.2989
 4362SOL    HW224549   4.063   2.432   1.438  1.8457 -0.8160 -0.0312
 4363SOL     OW24550   4.629   3.424   3.608 -0.1815  0.1991 -0.1357
 4363SOL    HW124551   4.671   3.495   3.560  1.3669 -0.4262  0.2947
 4363SOL    HW224552   4.542   3.431   3.568  0.0339  1.8737 -0.3262
 4364SOL     OW24553   0.940   3.267   2.325 -0.1522 -0.2438  0.1097
 4364SOL    HW124554   0.965   3.290   2.236  0.3092  0.0240  0.3071
 4364SOL    HW224555   0.990   3.337   2.368 -0.0516 -0.5140  0.4355
 4365SOL     OW24556   3.150   2.884   4.835  0.4570 -0.5070  0.4621
 4365SOL    HW124557   3.184   2.875   4.746 -0.5383  1.3136 -0.0950
 4365SOL    HW224558   3.204   2.820   4.880  0.8573  0.3857  1.2389
 4366SOL     OW24559   3.967   3.040   4.841  0.4111  0.3269  0.3373
 4366SOL    HW124560   4.023   3.030   4.764  1.2315  0.6476  0.8888
 4366SOL    HW224561   3.935   3.129   4.825  1.0469  0.7348  1.3237
 4367SOL     OW24562   0.830   0.981  17.247  0.5579 -0.6976  0.5257
 4367SOL    HW124563   0.756   0.975  17.186  2.2152 -0.8739 -1.4712
 4367SOL    HW224564   0.789   0.999  17.332 -0.4743  1.7687 -0.5099
 4368SOL     OW24565   3.577   2.452   4.889  0.3831 -0.0237  0.0411
 4368SOL    HW124566   3.590   2.546   4.881 -2.0482  0.3510  0.5968
 4368SOL    HW224567   3.668   2.427   4.875 -0.5584 -1.8762 -2.8724
 4369SOL     OW24568   0.809   0.595  16.552 -0.1620  0.4607 -0.4022
 4369SOL    HW124569   0.714   0.589  16.554 -0.1563  0.1306 -0.9559
 4369SOL    HW224570   0.815   0.501  16.537  0.5812  0.3390  0.6582
 4370SOL     OW24571   2.263   3.174   5.064 -0.3498  0.1850 -0.2572
 4370SOL    HW124572   2.298   3.092   5.098  0.4782  0.6511  0.0427
 4370SOL    HW224573   2.341   3.230   5.057 -2.1297  2.3424 -3.1919
 4371SOL     OW24574   3.850   2.507   9.177 -0.4699 -0.3907  0.4216
 4371SOL    HW124575   3.886   2.549   9.099 -3.5241 -0.0423 -0.7688
 4371SOL    HW224576   3.862   2.571   9.248 -0.5744  2.2736 -1.9946
 4372SOL     OW24577   3.497   0.959   7.603 -0.4577 -0.3936  0.3281
 4372SOL    HW124578   3.498   1.043   7.648 -2.3287 -0.8354  1.2106
 4372SOL    HW224579   3.527   0.986   7.516 -1.7020  1.7341  0.5650
 4373SOL     OW24580   0.260   0.278   6.498  0.7975 -0.3345 -0.8644
 4373SOL    HW124581   0.176   0.270   6.452  0.7227 -2.7022 -0.3401
 4373SOL    HW224582   0.243   0.366   6.529 -0.3235 -1.5326  1.9179
 4374SOL     OW24583   0.179   3.881   2.979  0.1410  0.3636  0.5230
 4374SOL    HW124584   0.171   3.912   2.889  2.6976 -0.6353 -0.0572
 4374SOL    HW224585   0.235   3.806   2.960 -1.4536 -0.7305  0.2233
 4375SOL     OW24586   1.290   2.664   0.090 -0.5786 -0.3590 -0.2544
 4375SOL    HW124587   1.201   2.630   0.100 -0.3498 -0.4624  1.5592
 4375SOL    HW224588   1.289   2.719   0.168  3.0230 -1.8750  0.8779
 4376SOL     OW24589   0.618   2.818  10.873 -0.3950 -0.4241 -0.4845
 4376SOL    HW124590   0.617   2.911  10.897 -0.0485 -0.0132 -2.0846
 4376SOL    HW224591   0.538   2.822  10.821 -0.1027  1.8526 -0.7510
 4377SOL     OW24592   0.079   1.574  13.204 -0.0116 -0.5825 -0.3316
 4377SOL    HW124593   0.173   1.592  13.207  0.0418 -0.7752 -0.8944
 4377SOL    HW224594   0.084   1.483  13.176  0.8742 -0.6843  0.1556
 4378SOL     OW24595   4.090   3.364   8.006  0.1011  0.8182 -0.2419
 4378SOL    HW124596   4.150   3.356   7.932 -1.0190 -0.0382 -1.0686
 4378SOL    HW224597   4.143   3.404   8.075  0.8299  1.0438 -0.9373
 4379SOL     OW24598   2.841   0.437   9.974 -0.5462 -0.5339 -0.1364
 4379SOL    HW124599   2.882   0.490  10.043 -1.0560 -1.7195  1.0697
 4379SOL    HW224600   2.746   0.451   9.982 -0.3727  1.2860 -1.2036
 4380SOL     OW24601   3.227   4.508  14.612  0.2008 -0.7054  0.2067
 4380SOL    HW124602   3.299   4.470  14.663 -0.5468  0.0889  1.8835
 4380SOL    HW224603   3.256   4.599  14.605  4.1013 -1.9669 -0.0509
 4381SOL     OW24604   1.948   1.394  14.040 -0.0096 -0.8706 -0.0843
 4381SOL    HW124605   2.022   1.440  14.001  0.6848 -0.9590  1.1181
 4381SOL    HW224606   2.003   1.364  14.113 -1.3945  1.2631  1.8299
 4382SOL     OW24607   4.288   2.261   9.182 -0.1140 -0.3096  0.1326
 4382SOL    HW124608   4.286   2.166   9.195  1.3621 -0.6351 -1.9545
 4382SOL    HW224609   4.371   2.279   9.138 -1.0912  1.7591 -0.8671
 4383SOL     OW24610   3.044   4.652  10.067 -0.2103  0.3518 -0.1269
 4383SOL    HW124611   3.039   4.587  10.137  0.1743  1.8450  1.2738
 4383SOL    HW224612   2.976   4.716  10.089 -1.6709 -2.2258  2.9562
 4384SOL     OW24613   1.358   4.476   8.265  0.4492 -0.4390  0.4454
 4384SOL    HW124614   1.386   4.563   8.292  3.2163 -0.8907 -0.9677
 4384SOL    HW224615   1.438   4.429   8.288  0.2404 -0.0361  2.0127
 4385SOL     OW24616   3.873   3.664   2.349  0.0430  0.1890  0.2032
 4385SOL    HW124617   3.830   3.578   2.351  0.3918  0.0768  2.9672
 4385SOL    HW224618   3.874   3.688   2.256  1.9057  1.7530  0.6239
 4386SOL     OW24619   0.690   1.940  15.669  0.1138  0.1804  0.5303
 4386SOL    HW124620   0.614   1.997  15.657 -0.3407 -0.6590 -0.5553
 4386SOL    HW224621   0.753   1.991  15.719 -0.4431  0.3658  1.0495
 4387SOL     OW24622   0.585   0.582   5.348 -0.0582 -0.1041  0.4559
 4387SOL    HW124623   0.632   0.501   5.328 -1.1415 -0.8452  0.8794
 4387SOL    HW224624   0.568   0.611   5.259  0.0994  1.2668  0.8785
 4388SOL     OW24625   1.051   2.110  14.831 -0.1645  0.3447 -0.1404
 4388SOL    HW124626   1.013   2.060  14.903 -0.6900 -1.6635 -1.8271
 4388SOL    HW224627   1.136   2.067  14.823  1.2054  2.3245  3.8024
 4389SOL     OW24628   1.018   0.166   1.452 -0.1148 -0.3923 -0.0731
 4389SOL    HW124629   1.018   0.203   1.540 -1.9947 -0.1450 -0.1640
 4389SOL    HW224630   0.994   0.074   1.464  0.2717 -0.1629  2.3932
 4390SOL     OW24631   3.399   2.136  15.198 -0.7204  0.1800  0.1083
 4390SOL    HW124632   3.408   2.175  15.111 -2.5656 -1.5985 -0.8936
 4390SOL    HW224633   3.453   2.197  15.248 -0.4987 -0.2213  0.3626
 4391SOL     OW24634   1.951   1.948   4.937 -0.0804 -0.3337  0.3518
 4391SOL    HW124635   1.897   1.889   4.990 -0.6490 -1.7280 -1.7877
 4391SOL    HW224636   1.898   1.956   4.858  2.0487 -0.6102 -1.1104
 4392SOL     OW24637   1.687   3.728   7.464 -0.1919 -0.5586 -0.0225
 4392SOL    HW124638   1.692   3.794   7.532  2.0142  0.2283 -0.9204
 4392SOL    HW224639   1.722   3.775   7.388  0.8436  2.4357  2.3061
 4393SOL     OW24640   1.315   2.169   7.602 -0.3224 -0.7173 -0.3952
 4393SOL    HW124641   1.267   2.251   7.611  3.0234  1.2442 -0.4387
 4393SOL    HW224642   1.348   2.163   7.691  2.0319 -0.5585 -1.2637
 4394SOL     OW24643   1.300   4.461  16.211 -0.5474  0.1431 -0.9008
 4394SOL    HW124644   1.326   4.537  16.160  1.0249 -0.6919 -1.3477
 4394SOL    HW224645   1.278   4.501  16.295 -3.0946  1.2900 -2.1276
 4395SOL     OW24646   3.021   1.740   4.784  0.5454 -0.2237  0.6996
 4395SOL    HW124647   2.942   1.733   4.731 -0.8889 -0.0721  2.8118
 4395SOL    HW224648   3.001   1.826   4.821  2.8756  1.6874 -2.4905
 4396SOL     OW24649   0.961   3.712   2.841  0.4306 -0.3030  0.9375
 4396SOL    HW124650   1.013   3.635   2.818  1.9803  0.7126  1.1205
 4396SOL    HW224651   1.027   3.763   2.888  0.7502 -0.4734  0.6753
 4397SOL     OW24652   2.597   2.941   8.544  0.0726 -0.3177 -0.1136
 4397SOL    HW124653   2.636   2.871   8.492 -0.4995 -0.7533  0.0463
 4397SOL    HW224654   2.527   2.964   8.483 -0.5145 -1.3518  0.1738
 4398SOL     OW24655   3.672   3.101   5.024  0.2458  0.2850 -0.3974
 4398SOL    HW124656   3.711   3.029   5.073  0.5023 -0.1559 -1.2634
 4398SOL    HW224657   3.590   3.054   5.012 -0.6646  2.3904 -2.2916
 4399SOL     OW24658   2.028   4.611  10.033  0.5036  0.6422 -0.0543
 4399SOL    HW124659   1.963   4.679  10.054  0.9756  1.3343 -0.8740
 4399SOL    HW224660   1.966   4.545  10.003 -1.1970  0.8490  2.9377
 4400SOL     OW24661   2.406   3.234   6.319  0.5658 -0.1608 -0.2125
 4400SOL    HW124662   2.456   3.283   6.254  2.2317 -0.1360  1.0836
 4400SOL    HW224663   2.465   3.166   6.353 -0.8304 -1.3611 -0.1653
 4401SOL     OW24664   3.334   2.228   7.238  0.4105  0.1311  0.2306
 4401SOL    HW124665   3.421   2.222   7.278  0.2526 -0.8166  0.4299
 4401SOL    HW224666   3.271   2.211   7.308 -0.2804 -0.9067 -0.6397
 4402SOL     OW24667   0.337   0.287   7.459  0.4897 -0.0185  0.7582
 4402SOL    HW124668   0.387   0.206   7.466 -1.6650 -1.2615  1.9322
 4402SOL    HW224669   0.278   0.270   7.385  0.5280 -0.2134  0.7726
 4403SOL     OW24670   1.109   3.876   5.142  0.3452 -0.4959 -0.1237
 4403SOL    HW124671   1.054   3.801   5.167  0.0529 -0.3146 -0.2253
 4403SOL    HW224672   1.051   3.913   5.076 -1.0540 -0.0242  1.3498
 4404SOL     OW24673   1.843   3.084   3.498 -0.4699  0.7349  0.5797
 4404SOL    HW124674   1.834   3.101   3.592  0.6765  1.3574  0.5677
 4404SOL    HW224675   1.766   3.028   3.482 -1.6013  1.8332  2.1231
 4405SOL     OW24676   4.560   3.755   8.817 -0.0656 -0.2264 -0.2716
 4405SOL    HW124677   4.510   3.832   8.790 -0.2823 -0.0712  0.5521
 4405SOL    HW224678   4.527   3.733   8.904  0.5677 -0.4457 -0.0931
 4406SOL     OW24679   2.762   2.158   9.685  0.2435  0.1320 -0.0056
 4406SOL    HW124680   2.805   2.144   9.601 -0.0758 -0.5031 -0.0608
 4406SOL    HW224681   2.678   2.189   9.651  0.3967 -1.1961 -1.5800
 4407SOL     OW24682   1.446   3.203   3.220 -0.1376 -0.0377  0.0692
 4407SOL    HW124683   1.474   3.239   3.136  0.9201  2.5794  1.5152
 4407SOL    HW224684   1.390   3.270   3.261  0.2484  0.9237 -0.9610
 4408SOL     OW24685   4.205   1.651   2.294  1.0054 -0.3923 -0.2647
 4408SOL    HW124686   4.133   1.695   2.250  0.9143 -0.4359 -0.1598
 4408SOL    HW224687   4.232   1.600   2.218  1.1730 -1.7434  0.7014
 4409SOL     OW24688   4.187   2.917  12.118 -0.5194  0.3740 -0.3453
 4409SOL    HW124689   4.218   2.998  12.158  1.1073  0.3757 -1.6262
 4409SOL    HW224690   4.268   2.878  12.084  1.3139  1.8375  2.4479
 4410SOL     OW24691   1.314   3.322   2.850  0.3696 -0.0076 -0.0062
 4410SOL    HW124692   1.368   3.355   2.922 -2.2110 -0.6961  2.2419
 4410SOL    HW224693   1.227   3.312   2.888 -0.5537  1.6782 -1.6006
 4411SOL     OW24694   3.003   2.288   9.278  0.6235  0.5737 -0.0080
 4411SOL    HW124695   2.946   2.305   9.203  1.0576  1.6781 -0.1043
 4411SOL    HW224696   3.056   2.215   9.247  0.4060 -0.4297  1.9917
 4412SOL     OW24697   3.167   0.282  10.021  0.1270 -0.7267 -0.1994
 4412SOL    HW124698   3.172   0.280   9.925 -0.5229 -1.8071 -0.2160
 4412SOL    HW224699   3.096   0.220  10.038 -0.1609 -0.6581 -1.1680
 4413SOL     OW24700   0.933   1.862   8.031  0.4195 -0.0757  0.2691
 4413SOL    HW124701   0.991   1.905   8.094  1.5140 -2.3110  0.7495
 4413SOL    HW224702   0.886   1.931   7.983  0.3409 -0.8915 -0.8247
 4414SOL     OW24703   0.585   4.462   4.381 -0.1932  0.2377 -0.4548
 4414SOL    HW124704   0.492   4.443   4.387 -0.0937 -0.0323  0.2820
 4414SOL    HW224705   0.616   4.387   4.433 -0.6513  1.0231  0.9394
 4415SOL     OW24706   2.995   2.647   5.532 -0.6504 -0.6143 -0.1309
 4415SOL    HW124707   2.905   2.639   5.501 -0.3936 -0.2320 -0.9713
 4415SOL    HW224708   3.041   2.630   5.450  0.3247  1.6519 -0.0609
 4416SOL     OW24709   1.573   2.794   2.184 -0.5302 -0.1369 -0.3735
 4416SOL    HW124710   1.547   2.882   2.209 -0.0880 -0.0524 -0.2189
 4416SOL    HW224711   1.533   2.742   2.253 -1.1323 -0.5875 -1.0567
 4417SOL     OW24712   0.993   3.163  12.603 -0.6620 -0.0349 -0.5437
 4417SOL    HW124713   1.073   3.200  12.642 -2.3637  0.9391  2.0050
 4417SOL    HW224714   1.013   3.181  12.511 -2.2329 -0.0623 -0.8847
 4418SOL     OW24715   2.158   4.131   5.624 -0.6289 -0.2414  0.1328
 4418SOL    HW124716   2.082   4.186   5.642 -0.5823  0.8923 -3.2835
 4418SOL    HW224717   2.135   4.113   5.533  1.0664 -1.8297  0.0073
 4419SOL     OW24718   4.469   1.942   1.521  0.2945 -0.0571  0.2354
 4419SOL    HW124719   4.382   1.952   1.557  1.1032 -0.2862  2.2421
 4419SOL    HW224720   4.525   1.964   1.595  0.2000 -1.6750  0.7891
 4420SOL     OW24721   0.713   4.281  14.630  0.5477 -0.2167 -0.5559
 4420SOL    HW124722   0.695   4.365  14.588 -0.3440  0.1826  0.6061
 4420SOL    HW224723   0.799   4.306  14.662  2.0003 -1.5791 -3.3905
 4421SOL     OW24724   0.411   1.399   3.876  0.6038 -0.3116  0.3231
 4421SOL    HW124725   0.425   1.412   3.782  2.6065 -1.9524  0.4029
 4421SOL    HW224726   0.461   1.320   3.896 -0.8112 -1.4478 -0.6821
 4422SOL     OW24727   0.718   3.981  10.831 -0.3232  0.3390  0.7212
 4422SOL    HW124728   0.791   3.996  10.771 -1.0055  2.5833  0.4305
 4422SOL    HW224729   0.642   3.955  10.778  1.2592  1.5121 -2.1296
 4423SOL     OW24730   0.187   3.257   9.253  0.5338 -0.0659  0.1837
 4423SOL    HW124731   0.209   3.306   9.173  1.0426 -0.5383  0.0338
 4423SOL    HW224732   0.237   3.310   9.316  2.4429 -1.6967  0.0598
 4424SOL     OW24733   2.871   1.190   1.200  0.2311 -0.0320 -0.3885
 4424SOL    HW124734   2.776   1.187   1.189  0.2225  0.7863 -0.5905
 4424SOL    HW224735   2.877   1.286   1.198  0.2355  0.0266  2.1826
 4425SOL     OW24736   0.194   0.309   5.677  0.5312  0.1072 -0.3533
 4425SOL    HW124737   0.138   0.234   5.698  0.9803 -0.6061 -1.6360
 4425SOL    HW224738   0.258   0.279   5.612  1.9253  3.4371 -0.5398
 4426SOL     OW24739   2.127   2.039   9.252 -0.7107  0.3314 -0.9428
 4426SOL    HW124740   2.117   2.133   9.237 -0.7734  0.2893 -1.1721
 4426SOL    HW224741   2.116   2.023   9.346  0.0827  1.1502 -0.7156
 4427SOL     OW24742   3.969   1.289   4.899 -0.0266  0.2385 -0.0664
 4427SOL    HW124743   3.944   1.208   4.943  0.2238 -1.3345 -2.8274
 4427SOL    HW224744   3.898   1.352   4.910 -1.4527 -1.2953 -0.5826
 4428SOL     OW24745   1.632   4.237   1.114 -0.3922  0.1133  0.0611
 4428SOL    HW124746   1.550   4.193   1.134  0.3666 -1.8410 -1.0998
 4428SOL    HW224747   1.626   4.237   1.019  1.5878 -1.0857 -0.0637
 4429SOL     OW24748   2.720   3.397  11.717 -0.4344  0.0100 -0.1126
 4429SOL    HW124749   2.720   3.302  11.706 -0.5639 -0.0669  0.5295
 4429SOL    HW224750   2.806   3.401  11.760 -0.9415  0.5373  0.8519
 4430SOL     OW24751   4.263   2.086   8.700  0.0693 -0.3627  0.0839
 4430SOL    HW124752   4.322   2.066   8.773 -1.0299  0.9017  1.3019
 4430SOL    HW224753   4.196   2.138   8.743  1.7512  2.0696 -0.2495
 4431SOL     OW24754   2.863   2.267   8.308  0.2869  0.3304  0.1873
 4431SOL    HW124755   2.785   2.300   8.263 -1.4397 -1.3402  1.9601
 4431SOL    HW224756   2.856   2.299   8.398  1.4272  0.8857  0.0755
 4432SOL     OW24757   0.049   4.321   4.866 -0.0273 -0.7887 -0.2718
 4432SOL    HW124758   4.708   4.256   4.889  0.1162 -0.8208  0.0496
 4432SOL    HW224759   0.126   4.267   4.854 -0.7142 -1.9986  0.7310
 4433SOL     OW24760   1.481   4.268  16.239 -0.3884  0.5872 -0.3845
 4433SOL    HW124761   1.525   4.317  16.309 -0.5014 -1.0491  0.8557
 4433SOL    HW224762   1.406   4.327  16.238 -0.9084 -0.0100  2.0934
 4434SOL     OW24763   4.342   0.181  16.346  0.3881  0.6888  0.0660
 4434SOL    HW124764   4.344   0.277  16.338 -0.2226  0.7600  0.7678
 4434SOL    HW224765   4.353   0.176  16.441  2.4508 -1.5072 -0.3201
 4435SOL     OW24766   2.881   3.610   8.027 -0.0879 -0.0010 -0.5797
 4435SOL    HW124767   2.825   3.537   7.999 -1.7031  1.8653 -2.2417
 4435SOL    HW224768   2.890   3.596   8.121  0.2813  0.8306 -0.4936
 4436SOL     OW24769   4.291   0.174  13.798 -0.2610 -0.0193  0.0643
 4436SOL    HW124770   4.212   0.226  13.809 -1.3665 -2.0157  1.6068
 4436SOL    HW224771   4.358   0.242  13.808 -0.5099 -0.1436  2.6260
 4437SOL     OW24772   0.524   4.084  14.641  0.3410 -0.6869  0.6508
 4437SOL    HW124773   0.581   4.160  14.636 -0.5655  0.0529  1.6372
 4437SOL    HW224774   0.537   4.061  14.733 -0.6209 -3.2639  0.1421
 4438SOL     OW24775   2.888   1.807  16.528  0.7131 -0.6396  0.5502
 4438SOL    HW124776   2.891   1.757  16.610 -2.6372  1.2361  1.8412
 4438SOL    HW224777   2.800   1.787  16.496  0.4235  0.6829  0.5108
 4439SOL     OW24778   2.717   3.836  11.054  0.1639  0.0246 -0.2586
 4439SOL    HW124779   2.782   3.902  11.029  0.6753 -0.2730  0.2882
 4439SOL    HW224780   2.631   3.875  11.037  0.5073  0.3414 -1.2395
 4440SOL     OW24781   3.170   3.569   4.650 -0.2170 -0.1927  0.1085
 4440SOL    HW124782   3.123   3.486   4.655 -0.7738  0.0533 -0.9925
 4440SOL    HW224783   3.255   3.528   4.634 -0.4747 -0.6659 -0.0707
 4441SOL     OW24784   3.876   1.395   2.717  0.2909  0.7292 -0.0040
 4441SOL    HW124785   3.949   1.388   2.778 -1.7725  1.4844  2.6082
 4441SOL    HW224786   3.840   1.311   2.745  1.9662 -0.0027 -0.0794
 4442SOL     OW24787   0.551   3.787   9.192 -0.6434  0.0537 -0.4057
 4442SOL    HW124788   0.618   3.854   9.181 -1.0015  0.5607  0.5516
 4442SOL    HW224789   0.584   3.712   9.142  1.2361  0.5553  0.0753
 4443SOL     OW24790   2.691   2.304   5.735  0.2934 -0.2405  0.2845
 4443SOL    HW124791   2.713   2.397   5.731 -2.0606  0.2987  0.0159
 4443SOL    HW224792   2.737   2.283   5.654 -0.3133 -1.1167  0.1674
 4444SOL     OW24793   0.618   1.724   8.669 -0.1549  0.2852 -0.2761
 4444SOL    HW124794   0.702   1.678   8.659 -0.5341 -0.2937 -0.7933
 4444SOL    HW224795   0.659   1.805   8.698  0.4592  0.0575 -0.5104
 4445SOL     OW24796   4.596   1.983   6.988  0.4216 -0.3378 -0.0776
 4445SOL    HW124797   4.678   2.001   6.941  0.7334  0.6535  0.8446
 4445SOL    HW224798   4.601   2.027   7.073  3.2572 -0.2738 -0.2719
 4446SOL     OW24799   1.901   0.391   8.595 -0.0131  0.1697 -0.5995
 4446SOL    HW124800   1.912   0.335   8.518  1.3937  0.8467 -0.8749
 4446SOL    HW224801   1.984   0.358   8.630  0.6473  0.6837 -1.7082
 4447SOL     OW24802   0.128   2.443   6.638 -0.4261  0.0502 -0.0160
 4447SOL    HW124803   0.104   2.366   6.688 -0.6262  0.8537  1.1262
 4447SOL    HW224804   0.076   2.425   6.560 -2.0180  0.0652  1.0569
 4448SOL     OW24805   1.915   4.042   4.536  0.0766  0.4850 -0.9012
 4448SOL    HW124806   1.953   4.083   4.459  0.0334 -1.7537 -2.1112
 4448SOL    HW224807   1.881   4.111   4.593 -1.9933 -1.7219  0.5695
 4449SOL     OW24808   0.921   1.768   6.188  0.2144  0.3921 -0.6443
 4449SOL    HW124809   0.934   1.673   6.186  1.6022  0.5793 -0.6061
 4449SOL    HW224810   0.831   1.779   6.218  1.1338  1.6004  1.7145
 4450SOL     OW24811   3.153   1.534   0.757 -0.2228 -0.5529  0.1437
 4450SOL    HW124812   3.123   1.532   0.666 -0.9249 -1.9925  0.4099
 4450SOL    HW224813   3.104   1.611   0.787  0.4099 -0.4442  0.8745
 4451SOL     OW24814   0.673   1.203   7.645 -0.7688 -0.1294  0.2536
 4451SOL    HW124815   0.617   1.134   7.611 -0.6800 -0.0461 -0.0570
 4451SOL    HW224816   0.648   1.288   7.609  0.2667 -0.6345 -1.6356
 4452SOL     OW24817   0.854   2.660   3.491  0.3536 -0.6817 -0.0041
 4452SOL    HW124818   0.901   2.679   3.572 -0.3024  1.6456 -0.1684
 4452SOL    HW224819   0.768   2.688   3.522  0.3516  0.0853 -0.6858
 4453SOL     OW24820   3.969   4.253   7.760  0.8425 -0.1643  0.4882
 4453SOL    HW124821   4.055   4.219   7.785 -0.5291 -1.1957  3.7694
 4453SOL    HW224822   3.984   4.237   7.666  3.4706 -2.3794  1.2854
 4454SOL     OW24823   1.197   1.020  17.430 -0.3217 -0.2281 -0.2176
 4454SOL    HW124824   1.187   1.108  17.394  0.2963  0.8922  2.3392
 4454SOL    HW224825   1.256   1.042  17.502 -0.4232  1.9657 -0.8271
 4455SOL     OW24826   3.703   1.044   4.067  0.2530  0.4102 -0.8869
 4455SOL    HW124827   3.721   0.979   3.999 -1.9656 -2.8918  1.6486
 4455SOL    HW224828   3.614   1.072   4.045 -0.5284 -1.6383 -0.4145
 4456SOL     OW24829   1.860   0.479   2.903 -0.5842  0.0059  0.2146
 4456SOL    HW124830   1.803   0.407   2.931 -0.7038 -0.1047 -0.3050
 4456SOL    HW224831   1.835   0.540   2.972  2.0200  0.4134  0.7685
 4457SOL     OW24832   0.833   3.463   4.250 -0.7289 -0.8158 -0.2715
 4457SOL    HW124833   0.871   3.380   4.221 -0.0593 -0.7636  0.4742
 4457SOL    HW224834   0.830   3.499   4.162  0.8158  0.5684  0.2537
 4458SOL     OW24835   4.074   3.749   9.725 -0.1184  0.0157  1.0470
 4458SOL    HW124836   4.041   3.762   9.636 -0.5324  0.0229  1.2033
 4458SOL    HW224837   4.035   3.664   9.743  2.5441 -1.3636  0.4059
 4459SOL     OW24838   0.109   3.950   8.841  0.5267 -0.2742 -0.0761
 4459SOL    HW124839   0.187   3.895   8.836 -0.8878 -2.1966 -1.3752
 4459SOL    HW224840   0.061   3.877   8.881  0.0325 -0.7092 -1.4264
 4460SOL     OW24841   0.897   1.772   1.848 -0.9697 -0.4276  0.1296
 4460SOL    HW124842   0.950   1.696   1.821  0.6196  0.8348 -0.3200
 4460SOL    HW224843   0.812   1.730   1.859  0.0976 -2.6212  0.0345
 4461SOL     OW24844   4.724   3.985  14.156  0.1099 -0.1283 -0.3512
 4461SOL    HW124845   0.048   4.067  14.169  0.0653  0.1327 -1.8403
 4461SOL    HW224846   0.009   3.947  14.243  2.9563  1.2078 -0.1071
 4462SOL     OW24847   0.575   3.323   5.492 -0.2284 -0.0665  0.1835
 4462SOL    HW124848   0.507   3.280   5.544  0.4141  1.9157  2.6153
 4462SOL    HW224849   0.588   3.250   5.431 -0.3620 -0.8300  1.0730
 4463SOL     OW24850   4.367   1.741  14.109 -0.1690 -0.2811  0.0979
 4463SOL    HW124851   4.347   1.721  14.201  1.9716 -0.3536  0.5388
 4463SOL    HW224852   4.458   1.768  14.115 -0.8291  2.7088 -3.8144
 4464SOL     OW24853   2.040   0.886   1.999 -0.2364  1.2034 -0.5224
 4464SOL    HW124854   1.988   0.906   2.077 -0.3852 -0.8027 -0.1089
 4464SOL    HW224855   2.112   0.836   2.035  0.1660  0.9484 -1.6743
 4465SOL     OW24856   3.168   4.089   8.894  0.5247  0.8581  0.2832
 4465SOL    HW124857   3.140   4.151   8.962  1.2728  0.1135  1.2695
 4465SOL    HW224858   3.103   4.020   8.906  0.1227  1.3760  1.0689
 4466SOL     OW24859   2.331   1.953   1.561  0.4574 -0.3931 -0.2020
 4466SOL    HW124860   2.334   2.034   1.613 -0.8069 -0.5916  0.1706
 4466SOL    HW224861   2.242   1.919   1.564  0.1457  0.6041  1.4603
 4467SOL     OW24862   4.471   3.075   5.258 -0.1190 -0.3995  0.1076
 4467SOL    HW124863   4.474   3.138   5.330 -1.7448 -0.1114 -0.0770
 4467SOL    HW224864   4.551   3.023   5.267  1.5350  1.8647 -1.6678
 4468SOL     OW24865   0.451   3.851   7.157 -0.7471 -0.3296  0.3123
 4468SOL    HW124866   0.376   3.809   7.115 -0.5510 -2.0113  1.6626
 4468SOL    HW224867   0.525   3.841   7.097 -0.4246 -2.9386  1.1862
 4469SOL     OW24868   0.644   2.848  17.393  0.8038 -0.1009  0.1370
 4469SOL    HW124869   0.632   2.756  17.414  0.8748 -0.6539 -2.2105
 4469SOL    HW224870   0.567   2.885  17.435  0.0900 -0.4244 -0.8865
 4470SOL     OW24871   3.694   2.835  15.668 -0.1720  0.2959 -0.0069
 4470SOL    HW124872   3.739   2.860  15.587 -0.0769  1.9789  0.5593
 4470SOL    HW224873   3.615   2.803  15.624  0.3519 -1.0020  0.0282
 4471SOL     OW24874   0.898   0.243   2.230 -0.3602 -0.1619  0.6930
 4471SOL    HW124875   0.881   0.337   2.224  1.7426  0.1267 -0.8509
 4471SOL    HW224876   0.977   0.241   2.285 -0.8287  0.3568  1.3874
 4472SOL     OW24877   4.636   4.084   5.077  0.0892  0.1030 -0.1570
 4472SOL    HW124878   4.615   4.095   4.984  0.0084  1.8775  0.0734
 4472SOL    HW224879   4.546   4.070   5.104  0.5035 -1.2508  0.4834
 4473SOL     OW24880   0.025   2.565   4.787  0.2375  0.1949 -0.6633
 4473SOL    HW124881   0.084   2.554   4.712  1.3425  0.8986  0.0955
 4473SOL    HW224882   0.063   2.631   4.845  1.7445 -0.0896 -1.3261
 4474SOL     OW24883   4.307   3.269   1.909  0.9355  0.3700  0.5910
 4474SOL    HW124884   4.263   3.322   1.975 -0.9733 -0.4490 -0.0203
 4474SOL    HW224885   4.370   3.214   1.954 -0.5162 -0.9141  1.0302
 4475SOL     OW24886   4.725   2.252   6.774  0.0801  0.1885  0.1407
 4475SOL    HW124887   0.020   2.178   6.717 -1.9794 -0.2336 -0.0211
 4475SOL    HW224888   4.634   2.237   6.798  0.0678  0.8398  0.4995
 4476SOL     OW24889   3.697   4.345  16.198 -0.3309  0.1015  0.2925
 4476SOL    HW124890   3.760   4.277  16.221  0.9954  0.5421 -2.0591
 4476SOL    HW224891   3.742   4.401  16.135 -1.8057 -1.2546 -1.9683
 4477SOL     OW24892   2.188   2.092   7.097 -0.0760 -0.5875 -0.2783
 4477SOL    HW124893   2.274   2.060   7.068 -1.0221 -0.9297 -2.7108
 4477SOL    HW224894   2.143   2.011   7.123  1.1041 -0.7054  1.3660
 4478SOL     OW24895   1.796   0.695   3.655 -0.1862 -0.2451  0.2247
 4478SOL    HW124896   1.871   0.684   3.713 -1.0934 -4.9178  0.5898
 4478SOL    HW224897   1.790   0.790   3.652  3.6486  0.0049  0.2171
 4479SOL     OW24898   2.091   1.255   7.809  0.0422 -0.2398  0.4875
 4479SOL    HW124899   2.126   1.196   7.876 -0.3615  0.8548  1.6665
 4479SOL    HW224900   2.158   1.323   7.801  0.6035 -1.1443 -2.7759
 4480SOL     OW24901   1.212   3.266   1.658  0.1150 -0.1983  0.3526
 4480SOL    HW124902   1.269   3.190   1.644 -0.0538 -0.0236 -1.2882
 4480SOL    HW224903   1.170   3.226   1.735  0.2224  0.9758  1.0213
 4481SOL     OW24904   0.611   0.388  13.519 -0.2957  1.0275  0.0538
 4481SOL    HW124905   0.518   0.402  13.537 -1.0339 -1.7191 -1.6615
 4481SOL    HW224906   0.612   0.441  13.440  1.6761  2.2526  0.9110
 4482SOL     OW24907   2.526   2.229   2.087  0.0071  0.0510  0.0635
 4482SOL    HW124908   2.533   2.216   2.181  1.2292 -0.6459 -0.1349
 4482SOL    HW224909   2.432   2.246   2.082  0.4376  2.7925  1.5130
 4483SOL     OW24910   1.262   1.688  12.519  0.3943  0.0157 -0.7323
 4483SOL    HW124911   1.224   1.642  12.444  0.6404 -0.7968 -0.3661
 4483SOL    HW224912   1.256   1.621  12.587  1.5895  1.8084  1.1311
 4484SOL     OW24913   2.948   0.870   4.910 -0.4015  0.1572  0.4637
 4484SOL    HW124914   3.006   0.942   4.934  3.1309 -1.9831 -1.7559
 4484SOL    HW224915   2.888   0.914   4.849  1.0185  1.1927 -0.1990
 4485SOL     OW24916   1.742   2.164   0.599 -0.1305 -0.3267 -0.0656
 4485SOL    HW124917   1.760   2.256   0.617  0.1036 -0.6445  1.4038
 4485SOL    HW224918   1.828   2.125   0.618 -0.0543  0.5350  1.3741
 4486SOL     OW24919   3.240   1.114   2.901 -0.2730  0.0509  0.8221
 4486SOL    HW124920   3.173   1.134   2.836  0.7741  1.3723  0.1413
 4486SOL    HW224921   3.316   1.116   2.844 -0.7051 -1.6300  0.2008
 4487SOL     OW24922   2.337   0.183   6.434 -0.2735  0.6044 -0.5176
 4487SOL    HW124923   2.378   0.202   6.518  0.7831  0.1509 -0.9365
 4487SOL    HW224924   2.244   0.186   6.460 -0.3290  1.4689 -0.8277
 4488SOL     OW24925   1.814   3.283   3.107 -0.3289  0.4432 -0.4734
 4488SOL    HW124926   1.797   3.239   3.190 -0.3655  0.2802 -0.5678
 4488SOL    HW224927   1.727   3.285   3.066 -0.4425  1.5187 -0.1951
 4489SOL     OW24928   2.863   1.359   2.643  0.3750 -0.3370 -1.2034
 4489SOL    HW124929   2.843   1.361   2.736  3.2201  1.2179 -0.6102
 4489SOL    HW224930   2.771   1.359   2.616  0.0826 -2.3494 -0.2002
 4490SOL     OW24931   3.490   0.067   4.773  0.1443  0.0977  0.2708
 4490SOL    HW124932   3.448   0.145   4.739  0.8400  0.7697  0.9680
 4490SOL    HW224933   3.443   4.724   4.724  0.7693 -0.6691  0.7309
 4491SOL     OW24934   2.855   3.341   6.162 -0.2130  0.4131  0.2045
 4491SOL    HW124935   2.852   3.254   6.201 -2.0692  0.2056 -0.3820
 4491SOL    HW224936   2.943   3.368   6.188  0.5484 -1.1365 -0.7796
 4492SOL     OW24937   3.946   3.601   7.383 -0.4703 -0.2279  0.1718
 4492SOL    HW124938   4.031   3.601   7.426 -0.5421 -0.9800  0.3012
 4492SOL    HW224939   3.880   3.571   7.445 -1.0332  0.5903 -0.0251
 4493SOL     OW24940   4.378   0.691  16.165 -0.0672  0.6649 -0.1909
 4493SOL    HW124941   4.302   0.723  16.114 -1.0605  0.4340  1.1380
 4493SOL    HW224942   4.348   0.689  16.256 -0.5390  0.9026 -0.3388
 4494SOL     OW24943   4.506   3.066   4.886 -0.1689 -0.4157  0.8622
 4494SOL    HW124944   4.505   3.003   4.813 -2.0838  2.5443 -1.6795
 4494SOL    HW224945   4.444   3.025   4.946 -0.6168 -0.2178  0.5394
 4495SOL     OW24946   4.105   3.219   8.412 -0.3716  0.6573  0.1565
 4495SOL    HW124947   4.185   3.171   8.433 -0.9247 -0.5452 -0.5098
 4495SOL    HW224948   4.134   3.310   8.421  0.3055  0.6148 -1.6134
 4496SOL     OW24949   0.764   2.633   4.454 -0.4311  0.1844 -0.1771
 4496SOL    HW124950   0.717   2.551   4.440 -2.7528  1.3732  0.6437
 4496SOL    HW224951   0.710   2.689   4.510 -0.3602 -0.2302  0.3054
 4497SOL     OW24952   4.524   3.441   6.445 -0.3954  0.4949 -0.0680
 4497SOL    HW124953   4.511   3.392   6.526 -0.2517  2.1785  0.9692
 4497SOL    HW224954   4.507   3.532   6.466 -1.5077  0.2128  0.2243
 4498SOL     OW24955   3.964   2.665   3.711  0.4508 -0.1047 -0.4406
 4498SOL    HW124956   4.058   2.653   3.700  0.6255 -0.4802  1.4959
 4498SOL    HW224957   3.965   2.758   3.735 -0.6969 -0.5182  1.2407
 4499SOL     OW24958   4.141   2.085  13.434 -0.1747 -0.0273 -0.3547
 4499SOL    HW124959   4.142   2.136  13.515 -1.9224  0.2680 -0.5368
 4499SOL    HW224960   4.226   2.041  13.437 -0.7669 -1.1034  0.8084
 4500SOL     OW24961   0.760   4.675   6.920 -0.4560  0.1523 -0.2126
 4500SOL    HW124962   0.813   4.595   6.923 -1.3933 -0.5662 -2.4170
 4500SOL    HW224963   0.734   4.692   6.829  0.4897  1.6884 -0.1880
 4501SOL     OW24964   4.700   4.211   6.959  0.5471 -0.7176 -0.1614
 4501SOL    HW124965   0.066   4.232   6.941  0.6086 -2.3163 -1.7539
 4501SOL    HW224966   4.664   4.296   6.982 -2.1413 -2.0732  0.6907
 4502SOL     OW24967   1.200   2.340   8.682  0.4369 -0.4152  0.2395
 4502SOL    HW124968   1.292   2.313   8.688  0.5839  0.2491  0.9891
 4502SOL    HW224969   1.196   2.346   8.587  0.0631 -1.0509  0.2203
 4503SOL     OW24970   1.383   4.197  13.510  0.1971 -0.2916 -0.2998
 4503SOL    HW124971   1.451   4.149  13.557  0.7440 -1.5100 -2.3308
 4503SOL    HW224972   1.306   4.166  13.558 -0.0522  0.8188  0.0275
 4504SOL     OW24973   3.981   4.691   9.084  0.2227  0.0073  0.2358
 4504SOL    HW124974   3.985   4.631   9.158  1.0849  2.0255  1.8095
 4504SOL    HW224975   3.889   4.673   9.062  0.3017 -2.6504  2.1010
 4505SOL     OW24976   0.911   2.406   2.563 -0.6432  0.0605 -0.3690
 4505SOL    HW124977   0.980   2.343   2.546  1.0296  2.5195 -2.7602
 4505SOL    HW224978   0.897   2.429   2.471 -2.8048  0.0321 -0.0481
 4506SOL     OW24979   1.761   4.120   9.471 -0.3609 -0.7838  0.1734
 4506SOL    HW124980   1.738   4.028   9.483  0.0025 -0.9657 -0.5024
 4506SOL    HW224981   1.853   4.132   9.495  0.1049  1.5804 -2.7540
 4507SOL     OW24982   0.156   1.715   5.778 -0.9425  0.1048  0.2736
 4507SOL    HW124983   0.223   1.649   5.796 -1.9872 -0.5173  1.8649
 4507SOL    HW224984   0.121   1.709   5.689 -2.3188 -0.6055  0.8584
 4508SOL     OW24985   1.981   2.999  11.276  0.5435  0.3915  0.0847
 4508SOL    HW124986   1.923   2.945  11.223  2.1545  1.1727 -2.4292
 4508SOL    HW224987   1.920   3.072  11.290  1.0560  0.8911 -0.3147
 4509SOL     OW24988   2.859   1.681   0.144  0.1126 -0.0838 -0.0065
 4509SOL    HW124989   2.822   1.767   0.123 -1.1608 -0.3936  1.0044
 4509SOL    HW224990   2.950   1.691   0.172  0.1254 -0.6573  0.1588
 4510SOL     OW24991   3.076   2.245   7.822 -0.2971  0.0431 -0.2649
 4510SOL    HW124992   3.089   2.284   7.908 -0.8626 -0.6810  0.1556
 4510SOL    HW224993   3.090   2.154   7.849  0.6806  0.4666  0.6544
 4511SOL     OW24994   3.436   1.468   8.270  0.7780  0.1899  0.3633
 4511SOL    HW124995   3.419   1.558   8.245 -0.4296  0.3302  1.7346
 4511SOL    HW224996   3.452   1.482   8.363 -1.0201  1.8845  0.4131
 4512SOL     OW24997   1.609   4.600   3.217 -0.3399  0.3257  0.1701
 4512SOL    HW124998   1.640   4.662   3.150  0.1821 -0.3090 -0.1743
 4512SOL    HW224999   1.560   4.662   3.271 -1.2277 -0.5665  0.3803
 4513SOL     OW25000   2.589   2.478   3.762 -0.0883  0.4747  0.1296
 4513SOL    HW125001   2.646   2.402   3.748 -1.1550 -0.0866 -1.1964
 4513SOL    HW225002   2.648   2.539   3.805  0.5551 -0.3106  0.3776
 4514SOL     OW25003   1.565   2.181  12.889  0.2125 -0.5668 -0.5350
 4514SOL    HW125004   1.481   2.190  12.844  1.3187  2.5519 -1.9238
 4514SOL    HW225005   1.551   2.219  12.976  0.4470 -0.2920 -0.6194
 4515SOL     OW25006   2.771   3.458   4.477 -0.4780 -0.4710 -0.2893
 4515SOL    HW125007   2.747   3.366   4.468  0.9535 -1.0938  2.0947
 4515SOL    HW225008   2.763   3.457   4.573 -2.7440 -1.2589 -0.4788
 4516SOL     OW25009   2.419   1.240   0.560  0.5979  0.0077  0.3798
 4516SOL    HW125010   2.324   1.242   0.547  0.3719 -1.4427  1.7692
 4516SOL    HW225011   2.436   1.213   0.650 -0.6986  0.2302  0.6944
 4517SOL     OW25012   3.677   1.289   3.787  0.2131 -0.0154  0.3541
 4517SOL    HW125013   3.745   1.307   3.852  0.6429  2.9571 -0.9063
 4517SOL    HW225014   3.731   1.295   3.708  0.2107  2.0672  0.5275
 4518SOL     OW25015   1.242   3.498   1.523  0.0325 -0.0313 -0.5228
 4518SOL    HW125016   1.242   3.489   1.428 -0.8885  0.6818 -0.5879
 4518SOL    HW225017   1.237   3.408   1.556 -2.8051  0.2453 -0.1464
 4519SOL     OW25018   2.064   0.910   2.722  0.1172 -0.1766 -0.2118
 4519SOL    HW125019   2.049   0.904   2.816  1.4770  0.1113  0.0209
 4519SOL    HW225020   2.049   1.004   2.709 -0.2569 -0.2793 -0.5416
 4520SOL     OW25021   0.093   3.870   3.684 -0.6519 -0.1992 -0.3202
 4520SOL    HW125022   0.059   3.918   3.759 -3.5432 -1.9394 -0.5343
 4520SOL    HW225023   0.117   3.936   3.619 -1.1970 -0.1805 -0.4986
 4521SOL     OW25024   1.399   2.850  14.777  0.2162 -0.3222 -0.0429
 4521SOL    HW125025   1.364   2.774  14.730  1.4223 -0.1923 -1.1326
 4521SOL    HW225026   1.476   2.812  14.819 -0.1500 -0.0842  0.8474
 4522SOL     OW25027   4.368   4.017  12.906  0.4850 -0.0540 -0.2831
 4522SOL    HW125028   4.431   4.023  12.978 -0.5374 -1.7313  0.7408
 4522SOL    HW225029   4.319   3.939  12.931 -0.2166 -0.2925 -2.4415
 4523SOL     OW25030   4.529   3.189  14.038  0.2307  0.1609  0.2727
 4523SOL    HW125031   4.550   3.269  14.085  0.6838 -0.1301  0.5707
 4523SOL    HW225032   4.556   3.126  14.106  0.7265  0.1130  0.0300
 4524SOL     OW25033   2.298   3.613  14.568 -0.2582  0.4826 -0.1090
 4524SOL    HW125034   2.271   3.528  14.603 -2.3219  0.9468 -0.6160
 4524SOL    HW225035   2.220   3.665  14.586 -0.9702 -0.8790  0.7483
 4525SOL     OW25036   1.445   2.208   8.750 -0.2511 -0.0148  0.3156
 4525SOL    HW125037   1.407   2.180   8.833  2.4598  0.5416  1.7335
 4525SOL    HW225038   1.522   2.261   8.770 -1.3179  1.5308  0.3253
 4526SOL     OW25039   3.854   3.137   7.239  0.1029  0.1087  0.0222
 4526SOL    HW125040   3.915   3.116   7.309  0.3449  0.5973 -0.0410
 4526SOL    HW225041   3.912   3.121   7.164  1.1079 -0.2529  0.8807
 4527SOL     OW25042   4.505   1.482   3.921  0.0871  0.4557 -0.2751
 4527SOL    HW125043   4.549   1.403   3.890 -3.8368 -1.2166 -1.5883
 4527SOL    HW225044   4.412   1.467   3.903  0.3272 -0.2479 -0.9254
 4528SOL     OW25045   0.771   4.028   2.857 -0.2855 -0.3968  0.3263
 4528SOL    HW125046   0.789   3.976   2.779 -2.4210  0.2144 -0.5854
 4528SOL    HW225047   0.688   3.992   2.889 -0.7520  0.0814 -0.3560
 4529SOL     OW25048   0.010   0.215   0.491 -0.2752  0.0692 -0.1068
 4529SOL    HW125049   0.073   0.238   0.423  0.1964 -0.2945  0.2074
 4529SOL    HW225050   4.681   0.294   0.491 -0.8927 -0.3582 -2.9687
 4530SOL     OW25051   2.899   0.774   8.035  0.5375  0.1664  0.0258
 4530SOL    HW125052   2.850   0.839   8.086  2.2193  1.5596 -0.1520
 4530SOL    HW225053   2.860   0.799   7.952  0.6765  1.8355  0.4748
 4531SOL     OW25054   3.692   0.601   8.117  0.6267  0.1023 -0.4133
 4531SOL    HW125055   3.675   0.691   8.088  2.6053  0.1101 -1.5058
 4531SOL    HW225056   3.634   0.552   8.058 -1.6261  0.8796  1.1567
 4532SOL     OW25057   0.051   1.400   3.604  0.3973  0.4131 -0.0596
 4532SOL    HW125058   0.047   1.387   3.509 -0.4239 -0.7728  0.1413
 4532SOL    HW225059   0.081   1.491   3.602  2.3769 -0.2454  0.7841
 4533SOL     OW25060   0.949   4.644   7.659  0.0360  0.3460  0.0823
 4533SOL    HW125061   0.974   4.632   7.750  0.9827  0.6498 -0.1413
 4533SOL    HW225062   1.032   4.652   7.612 -1.2036 -1.1272 -2.3274
 4534SOL     OW25063   2.578   2.594   8.260  0.3409 -0.1080  0.1898
 4534SOL    HW125064   2.634   2.565   8.332  1.7858  1.6646 -0.2158
 4534SOL    HW225065   2.607   2.537   8.189  1.7195 -0.3750  0.9656
 4535SOL     OW25066   3.759   1.487   4.014  0.0169 -0.9850 -0.4769
 4535SOL    HW125067   3.781   1.575   4.043 -0.0053 -0.9183 -0.6574
 4535SOL    HW225068   3.665   1.488   3.995  0.1622  0.7816 -1.0884
 4536SOL     OW25069   1.618   2.777   4.472 -0.0401 -0.2618 -0.0329
 4536SOL    HW125070   1.599   2.787   4.565  2.5444 -0.2367  0.4918
 4536SOL    HW225071   1.658   2.861   4.451  3.0547 -1.8520 -0.5047
 4537SOL     OW25072   2.580   1.824   0.060 -0.2498  0.1707  0.0197
 4537SOL    HW125073   2.622   1.760   0.117 -0.4828  0.2947  0.3316
 4537SOL    HW225074   2.587   1.902   0.115  1.0733  0.9820 -1.2791
 4538SOL     OW25075   4.506   1.963  16.644 -0.3824 -0.4576  0.4160
 4538SOL    HW125076   4.539   1.880  16.610 -1.2128 -0.2941 -0.7669
 4538SOL    HW225077   4.556   2.028  16.595 -0.4080  0.3165  1.3963
 4539SOL     OW25078   0.972   0.630  13.300 -0.3920 -0.4022  0.5569
 4539SOL    HW125079   0.935   0.547  13.329  0.2607 -0.9566 -0.2099
 4539SOL    HW225080   1.025   0.607  13.223  0.5208 -2.3813  1.7965
 4540SOL     OW25081   2.182   1.844   4.147  0.0282  0.8374 -0.1840
 4540SOL    HW125082   2.225   1.758   4.152 -0.4433  0.6041 -0.1630
 4540SOL    HW225083   2.179   1.857   4.241  2.5581 -1.3271  0.2063
 4541SOL     OW25084   3.923   3.920   8.195  0.1700  0.1642 -0.1123
 4541SOL    HW125085   3.892   3.956   8.112  1.2359 -0.7138 -0.8750
 4541SOL    HW225086   4.005   3.876   8.176 -0.2086 -0.4429 -0.3237
 4542SOL     OW25087   4.187   3.304   8.803  0.2737  0.3685 -0.4564
 4542SOL    HW125088   4.112   3.288   8.861  0.9132  1.3288  0.6263
 4542SOL    HW225089   4.242   3.339   8.873  1.9552  1.8929 -2.5461
 4543SOL     OW25090   0.504   2.148   3.439 -0.8074  0.4934  0.3665
 4543SOL    HW125091   0.545   2.102   3.366  1.4910  0.8210  1.4262
 4543SOL    HW225092   0.457   2.219   3.395  0.7042  2.6627  2.2575
 4544SOL     OW25093   3.886   2.169  16.173  0.1614  0.0992 -0.4759
 4544SOL    HW125094   3.827   2.211  16.111 -0.5523  0.6663  0.5953
 4544SOL    HW225095   3.896   2.088  16.122 -1.1327 -0.1114 -0.3880
 4545SOL     OW25096   4.044   1.002  10.798 -0.2197 -0.1951  0.4037
 4545SOL    HW125097   4.076   1.015  10.887 -1.0325 -0.0251  0.6672
 4545SOL    HW225098   4.114   0.966  10.743 -0.1935  1.3550 -0.5718
 4546SOL     OW25099   1.026   3.728  12.668  0.0209  0.2242 -0.6237
 4546SOL    HW125100   1.112   3.760  12.697 -0.2114 -0.1921  0.4939
 4546SOL    HW225101   0.982   3.813  12.674 -0.1927  0.0820 -0.1760
 4547SOL     OW25102   3.439   2.601   6.981  0.0360 -0.0244 -0.3119
 4547SOL    HW125103   3.379   2.535   7.017 -2.9220  2.7679 -0.0774
 4547SOL    HW225104   3.501   2.598   7.054 -0.4753  0.9087  0.1619
 4548SOL     OW25105   0.989   1.939   6.847  0.7671  0.3830  0.2453
 4548SOL    HW125106   1.073   1.976   6.822  2.0257 -0.7315  2.8114
 4548SOL    HW225107   0.940   2.017   6.875  1.3575  0.5649  0.7763
 4549SOL     OW25108   0.679   3.471   9.593 -0.5252 -0.0806  0.1081
 4549SOL    HW125109   0.647   3.390   9.633 -0.5741 -0.2991 -0.3763
 4549SOL    HW225110   0.655   3.542   9.652  1.2241  1.5505 -1.1411
 4550SOL     OW25111   0.296   4.280   2.488 -0.5773 -0.3725  0.4660
 4550SOL    HW125112   0.231   4.304   2.422  1.2156  0.1765 -1.1112
 4550SOL    HW225113   0.337   4.204   2.445 -0.2106  0.5765 -0.8708
 4551SOL     OW25114   2.477   1.738   7.424 -0.7826  0.4173  0.1975
 4551SOL    HW125115   2.558   1.700   7.392 -1.5371 -1.0031 -0.0563
 4551SOL    HW225116   2.476   1.814   7.367 -0.4802 -0.9611 -1.6299
 4552SOL     OW25117   3.306   2.715   3.500  0.4289  0.6911 -0.5863
 4552SOL    HW125118   3.357   2.643   3.462 -0.6517  0.3996 -1.4942
 4552SOL    HW225119   3.222   2.670   3.507  0.3768  0.7479 -0.8438
 4553SOL     OW25120   4.557   3.827   7.254  0.0528 -0.0429  0.0712
 4553SOL    HW125121   4.605   3.861   7.179  1.3273 -0.8673  0.5086
 4553SOL    HW225122   4.470   3.826   7.213 -0.2194  1.4246  0.6301
 4554SOL     OW25123   2.524   0.740   8.412 -0.1775  0.2272  0.5211
 4554SOL    HW125124   2.537   0.756   8.505 -2.1024 -3.5574  1.4676
 4554SOL    HW225125   2.604   0.700   8.379 -0.1870  2.5553 -2.2434
 4555SOL     OW25126   3.230   0.100   5.900 -0.2374 -0.3693  0.1753
 4555SOL    HW125127   3.204   0.010   5.920  1.0842 -0.7388  0.2360
 4555SOL    HW225128   3.189   0.145   5.973 -1.8566  1.8688 -2.1562
 4556SOL     OW25129   1.728   1.321   8.500  0.2319 -0.3686  0.7750
 4556SOL    HW125130   1.778   1.262   8.557  0.0559 -2.4996 -1.2501
 4556SOL    HW225131   1.795   1.385   8.475  1.2911 -2.1529 -0.9958
 4557SOL     OW25132   4.714   0.380  13.148 -0.2281  0.0675 -0.0806
 4557SOL    HW125133   4.662   0.305  13.177  1.0611 -1.1073 -0.7570
 4557SOL    HW225134   4.641   0.440  13.136 -0.3872  0.1231  1.2433
 4558SOL     OW25135   4.676   0.683  10.104  0.5222 -0.6046  0.2759
 4558SOL    HW125136   4.645   0.642  10.185 -0.5548  1.3812  0.8712
 4558SOL    HW225137   4.720   0.760  10.138 -0.8427  0.6554 -0.7853
 4559SOL     OW25138   4.035   4.551   6.398  0.1229  0.1140  0.2133
 4559SOL    HW125139   3.957   4.574   6.346 -1.9587 -2.0929  2.3766
 4559SOL    HW225140   4.050   4.461   6.371 -0.3826 -0.7403  2.8589
 4560SOL     OW25141   4.225   0.314   2.956  0.0120 -0.4814 -0.1821
 4560SOL    HW125142   4.194   0.373   2.887  1.9370  2.0607  1.1363
 4560SOL    HW225143   4.306   0.279   2.919  0.1791  0.1471 -0.4153
 4561SOL     OW25144   4.250   3.787  16.268  0.1840 -0.6664  0.4497
 4561SOL    HW125145   4.267   3.841  16.345  0.9856  0.4662 -0.5240
 4561SOL    HW225146   4.170   3.828  16.233  0.2332 -0.2803  0.7913
 4562SOL     OW25147   0.726   0.496   8.199 -0.0162 -0.4892 -0.0080
 4562SOL    HW125148   0.740   0.588   8.175  0.9791 -0.6581 -0.0598
 4562SOL    HW225149   0.679   0.508   8.281 -2.0805 -3.0133 -0.8226
 4563SOL     OW25150   0.355   0.857  13.671  0.1931  0.0680  0.2194
 4563SOL    HW125151   0.388   0.809  13.595  0.7205 -1.3329  1.3472
 4563SOL    HW225152   0.429   0.915  13.691  0.5252  0.5520 -2.4033
 4564SOL     OW25153   1.024   2.891   5.039  0.1759  0.2446 -0.1086
 4564SOL    HW125154   1.114   2.863   5.024 -0.4305 -1.3380 -0.6946
 4564SOL    HW225155   1.015   2.884   5.134  0.5539  0.2380 -0.0706
 4565SOL     OW25156   3.930   3.718  15.619  0.1968  0.0428  0.1606
 4565SOL    HW125157   4.004   3.767  15.583 -0.7769  0.1509 -1.7056
 4565SOL    HW225158   3.983   3.683  15.689  2.2032  0.3010 -1.2225
 4566SOL     OW25159   1.636   4.186  16.033 -0.9197  0.0226 -0.1425
 4566SOL    HW125160   1.599   4.266  15.995 -1.4989 -0.9361 -1.5923
 4566SOL    HW225161   1.586   4.190  16.114 -0.5779 -0.8393  0.1110
 4567SOL     OW25162   2.067   3.386   5.896  0.0262 -0.1708 -1.0102
 4567SOL    HW125163   2.039   3.399   5.986 -0.8013  2.4852 -1.6653
 4567SOL    HW225164   2.150   3.345   5.921 -0.4061 -0.1061  0.5594
 4568SOL     OW25165   1.641   4.140  14.120 -0.3934  0.2185  0.0746
 4568SOL    HW125166   1.586   4.188  14.182  0.6153  1.2346  0.1789
 4568SOL    HW225167   1.710   4.206  14.114  0.5701 -0.7915  0.1957
 4569SOL     OW25168   4.389   3.056  13.361 -0.2235 -0.8323 -0.0345
 4569SOL    HW125169   4.338   2.988  13.405 -0.4485 -2.4999 -2.8772
 4569SOL    HW225170   4.476   3.038  13.396 -0.1033  1.9871  1.0974
 4570SOL     OW25171   2.039   2.089   8.829  0.3758  0.5281  0.3217
 4570SOL    HW125172   1.943   2.091   8.830  0.3886  0.5497  1.9545
 4570SOL    HW225173   2.043   2.141   8.909 -0.5161  0.6229  0.3010
 4571SOL     OW25174   2.913   3.672   1.309 -0.3496  0.0963  0.2989
 4571SOL    HW125175   2.991   3.624   1.334 -0.6726 -0.0601  1.0065
 4571SOL    HW225176   2.842   3.611   1.328 -0.4458 -0.0448 -0.5233
 4572SOL     OW25177   2.838   2.528  11.040  0.2114 -0.0943 -0.0570
 4572SOL    HW125178   2.827   2.510  11.133 -0.7351 -0.6615 -0.2745
 4572SOL    HW225179   2.907   2.594  11.036 -0.0852  0.1452 -1.1334
 4573SOL     OW25180   1.539   3.419   7.288  0.0433  0.2466 -0.4306
 4573SOL    HW125181   1.483   3.473   7.234  1.9830  3.0107  0.3169
 4573SOL    HW225182   1.620   3.411   7.238 -0.2722 -0.9732 -0.7412
 4574SOL     OW25183   3.342   4.599  15.269 -0.2123  0.0307 -0.3483
 4574SOL    HW125184   3.338   4.683  15.314  0.8548 -1.1574  1.9464
 4574SOL    HW225185   3.258   4.564  15.298  0.5597  0.0241  1.8160
 4575SOL     OW25186   1.929   2.009   5.988  0.5203  0.6539 -0.1766
 4575SOL    HW125187   1.901   1.923   5.957  1.3757  0.3536 -0.1234
 4575SOL    HW225188   1.967   1.986   6.073 -0.3806  0.8834  0.2859
 4576SOL     OW25189   1.824   0.726  16.550  0.1010  0.4380 -0.2862
 4576SOL    HW125190   1.883   0.673  16.497  2.1573  1.6705  0.7829
 4576SOL    HW225191   1.844   0.716  16.643  0.3599 -0.2960 -0.4260
 4577SOL     OW25192   1.090   2.138   7.414  0.0653 -0.4522  0.1659
 4577SOL    HW125193   1.159   2.119   7.478 -1.7823  0.2011  2.3410
 4577SOL    HW225194   1.152   2.164   7.346 -1.8852 -1.2928 -1.9001
 4578SOL     OW25195   1.732   3.481   5.881 -0.4266 -0.0497  0.0699
 4578SOL    HW125196   1.742   3.476   5.786 -2.2351 -1.8466 -0.0148
 4578SOL    HW225197   1.750   3.389   5.896 -0.1662  0.0173  0.1721
 4579SOL     OW25198   3.467   3.418   4.788  0.1762  0.0703 -0.5312
 4579SOL    HW125199   3.406   3.349   4.763  0.8732 -1.0945  0.9652
 4579SOL    HW225200   3.549   3.368   4.793 -0.4331 -0.6727  2.1445
 4580SOL     OW25201   3.534   4.235  13.506 -0.4739 -0.5169 -0.2166
 4580SOL    HW125202   3.585   4.169  13.458  1.1804 -0.1560  1.0334
 4580SOL    HW225203   3.584   4.247  13.586  1.6410 -2.4941 -1.2464
 4581SOL     OW25204   4.544   2.602   4.129 -0.6105  0.4569  0.0775
 4581SOL    HW125205   4.591   2.657   4.065  0.2251 -0.8431 -0.4315
 4581SOL    HW225206   4.513   2.671   4.187 -3.0846 -0.3353 -0.3357
 4582SOL     OW25207   3.273   4.332  12.005  0.6433  0.2034  0.1401
 4582SOL    HW125208   3.301   4.408  12.056 -1.0035  0.3357  0.8540
 4582SOL    HW225209   3.227   4.383  11.939 -1.0415 -1.4465  0.0274
 4583SOL     OW25210   0.773   3.772   9.442  0.4482 -0.6584 -0.4022
 4583SOL    HW125211   0.859   3.790   9.405 -1.1620  0.5489 -3.5158
 4583SOL    HW225212   0.775   3.836   9.513 -2.0058  0.5589 -1.4175
 4584SOL     OW25213   3.948   1.677   8.073  0.1082  0.1437 -0.3594
 4584SOL    HW125214   3.979   1.734   8.143  2.2740 -0.9001 -0.4540
 4584SOL    HW225215   3.901   1.606   8.117 -0.9965  0.2752 -1.3401
 4585SOL     OW25216   2.152   4.027   8.919 -0.1666 -0.0704 -0.1145
 4585SOL    HW125217   2.204   3.994   8.846 -0.8603 -1.0754 -0.1610
 4585SOL    HW225218   2.215   4.086   8.960 -0.0659 -1.4340  1.7189
 4586SOL     OW25219   2.323   1.407   4.012  0.1793 -0.6161 -0.6143
 4586SOL    HW125220   2.232   1.400   4.040  0.6404  0.8237  1.2892
 4586SOL    HW225221   2.352   1.492   4.046 -0.0271 -0.2272 -1.4191
 4587SOL     OW25222   3.227   2.396   3.029 -0.0349 -0.0291  0.1060
 4587SOL    HW125223   3.191   2.319   3.073  0.6244 -0.0483  0.6107
 4587SOL    HW225224   3.158   2.408   2.964 -1.4817  3.7242  2.3396
 4588SOL     OW25225   1.203   1.273   3.056  0.0873 -0.1469 -0.3103
 4588SOL    HW125226   1.294   1.288   3.031 -0.0931  1.7034  0.1386
 4588SOL    HW225227   1.163   1.227   2.982 -0.5913 -0.8506  0.4950
 4589SOL     OW25228   0.688   0.089   2.176 -0.4207 -0.6898  0.3012
 4589SOL    HW125229   0.759   0.125   2.229 -2.4679  3.4041  0.2620
 4589SOL    HW225230   0.723   0.000   2.167 -1.1334 -0.5969 -3.5211
 4590SOL     OW25231   1.935   2.655   4.603 -0.5071 -0.5477 -0.1132
 4590SOL    HW125232   1.997   2.712   4.558 -1.6758  0.6579 -0.2029
 4590SOL    HW225233   1.978   2.661   4.689  1.4375  3.7837 -1.4210
 4591SOL     OW25234   1.032   3.882   8.484  0.0609 -0.2915 -0.1923
 4591SOL    HW125235   1.127   3.871   8.474 -0.2650 -3.2291 -0.1390
 4591SOL    HW225236   1.031   3.896   8.579 -2.3829 -3.7443  0.2961
 4592SOL     OW25237   0.583   1.198   2.123  0.2537  0.1412  0.3027
 4592SOL    HW125238   0.498   1.193   2.166 -0.2291  0.1873 -0.6335
 4592SOL    HW225239   0.570   1.281   2.076  0.7365  0.5360  0.8604
 4593SOL     OW25240   4.614   4.136   9.353  0.0200  0.8848 -0.1305
 4593SOL    HW125241   4.643   4.053   9.391  2.1393  1.4342 -0.5036
 4593SOL    HW225242   4.683   4.156   9.289 -0.4115 -0.7323 -1.0819
 4594SOL     OW25243   3.186   2.067   5.334  0.1126 -0.0230 -0.0371
 4594SOL    HW125244   3.172   2.038   5.245  0.7738  1.8341 -0.7600
 4594SOL    HW225245   3.181   2.163   5.331  0.2387  0.0214  1.1123
 4595SOL     OW25246   1.207   2.031   7.928 -0.1368 -0.2819  0.4570
 4595SOL    HW125247   1.248   1.960   7.978 -0.8398 -1.1532 -0.1921
 4595SOL    HW225248   1.280   2.092   7.920  0.4630 -0.6847  2.8665
 4596SOL     OW25249   4.628   0.949   2.926 -0.1514 -0.4213  0.5117
 4596SOL    HW125250   4.643   0.908   3.011 -2.4847 -0.9534  0.6721
 4596SOL    HW225251   4.671   0.890   2.864  1.1161 -0.0705  1.0520
 4597SOL     OW25252   3.454   4.138   9.727  0.3492 -0.0056 -0.1403
 4597SOL    HW125253   3.474   4.223   9.689 -0.5150  0.1623 -0.2078
 4597SOL    HW225254   3.363   4.126   9.701  0.7298 -0.0852 -1.4394
 4598SOL     OW25255   2.878   1.843  16.080 -0.3458 -0.4588  0.5252
 4598SOL    HW125256   2.928   1.924  16.090 -0.6724 -0.1577 -0.3146
 4598SOL    HW225257   2.854   1.840  15.988  0.3424  1.0531  0.2854
 4599SOL     OW25258   1.696   3.967  10.924  0.0408 -0.1979 -0.6135
 4599SOL    HW125259   1.689   4.033  10.993 -1.5454 -0.7154 -0.2968
 4599SOL    HW225260   1.661   4.014  10.848  0.4514  0.3548 -0.4596
 4600SOL     OW25261   2.845   1.220   6.314  0.3595  0.3057  0.5558
 4600SOL    HW125262   2.895   1.176   6.383 -0.0713 -0.2220  0.5354
 4600SOL    HW225263   2.875   1.310   6.323  2.8137 -0.5666  1.1019
 4601SOL     OW25264   0.878   4.204   7.757  0.1387  0.0466  0.4404
 4601SOL    HW125265   0.947   4.268   7.771 -1.7982  2.5719 -1.7028
 4601SOL    HW225266   0.879   4.165   7.845  0.6787  0.6726  0.7067
 4602SOL     OW25267   0.549   2.577   4.893  0.1514 -0.4195  0.1962
 4602SOL    HW125268   0.586   2.644   4.951 -0.4076 -1.1674  1.4280
 4602SOL    HW225269   0.465   2.619   4.878  0.5671  0.9169  1.5971
 4603SOL     OW25270   3.903   3.907   3.223  0.1948  0.4288 -0.0789
 4603SOL    HW125271   3.958   3.970   3.177 -1.4693  1.0459 -1.2649
 4603SOL    HW225272   3.962   3.893   3.296 -0.5679  1.0018  0.6482
 4604SOL     OW25273   3.167   4.375  14.383 -0.0583  0.0414 -0.0908
 4604SOL    HW125274   3.165   4.451  14.441  0.9086  1.0513 -1.3703
 4604SOL    HW225275   3.210   4.312  14.440  2.4201  0.5887 -1.3301
 4605SOL     OW25276   0.267   3.749  12.060  0.1946 -0.1589 -0.3151
 4605SOL    HW125277   0.247   3.842  12.065 -1.4033 -0.6721  2.4279
 4605SOL    HW225278   0.222   3.725  12.141  1.9756  0.1513  0.7599
 4606SOL     OW25279   1.898   2.505   3.617  0.3433 -0.6657 -0.0828
 4606SOL    HW125280   1.838   2.438   3.647 -0.2918  0.2451  0.6929
 4606SOL    HW225281   1.987   2.469   3.620  0.3425 -0.7356 -0.7817
 4607SOL     OW25282   3.387   0.821   7.927 -0.8173 -0.6241 -0.3186
 4607SOL    HW125283   3.301   0.782   7.912 -0.7513 -1.3847  1.3078
 4607SOL    HW225284   3.365   0.885   7.994  0.4915  0.0495 -0.5230
 4608SOL     OW25285   3.202   4.451   3.251 -0.6742  0.2830 -0.1706
 4608SOL    HW125286   3.118   4.481   3.284 -0.5674 -1.6577  1.8758
 4608SOL    HW225287   3.250   4.456   3.333  0.2547 -0.1064 -0.6907
 4609SOL     OW25288   1.352   0.018   8.266  0.2181  0.5014 -0.1052
 4609SOL    HW125289   1.352   0.114   8.259 -2.1801  0.4923 -0.2169
 4609SOL    HW225290   1.354   0.017   8.362  0.3131 -3.3984 -0.1732
 4610SOL     OW25291   0.452   3.894  17.673 -0.3903 -0.2703 -0.2752
 4610SOL    HW125292   0.460   3.987  17.694 -0.2548 -1.0323  3.0614
 4610SOL    HW225293   0.530   3.880  17.619 -1.1689 -0.5876 -1.3141
 4611SOL     OW25294   0.327   0.918  17.244  0.0875  0.9386  0.3308
 4611SOL    HW125295   0.410   0.959  17.218 -0.1423  1.9977  1.2698
 4611SOL    HW225296   0.326   0.951  17.333 -0.4132 -2.2229  1.4902
 4612SOL     OW25297   1.564   4.291   4.901  0.1505  0.3435 -0.4507
 4612SOL    HW125298   1.497   4.348   4.937 -1.3917 -0.9342 -1.2741
 4612SOL    HW225299   1.621   4.356   4.860  1.2649 -0.8752 -0.8313
 4613SOL     OW25300   3.065   0.836  10.788  0.1985 -0.4778  0.5777
 4613SOL    HW125301   3.135   0.798  10.735 -1.3837 -0.2958 -1.6329
 4613SOL    HW225302   3.116   0.852  10.867 -0.3697  0.0397  0.8363
 4614SOL     OW25303   3.605   1.947   1.491  0.1674  0.2278 -0.0006
 4614SOL    HW125304   3.692   1.952   1.531 -1.2440  2.8233  2.7381
 4614SOL    HW225305   3.573   2.038   1.492 -1.5877 -0.3702 -2.6589
 4615SOL     OW25306   2.835   3.565  14.209 -0.4505  0.0298 -0.1206
 4615SOL    HW125307   2.810   3.567  14.301  0.8639 -2.7043  0.2915
 4615SOL    HW225308   2.899   3.494  14.213 -3.0276 -2.3909 -1.8480
 4616SOL     OW25309   1.003   0.553   6.719 -0.3607  0.3266  0.4410
 4616SOL    HW125310   1.030   0.557   6.627 -0.3386  0.8116  0.4665
 4616SOL    HW225311   1.008   0.459   6.735 -0.8047  0.2609  0.1758
 4617SOL     OW25312   4.483   2.519  16.234 -0.3108 -0.1515  0.1558
 4617SOL    HW125313   4.466   2.462  16.159 -0.9140 -3.3235  2.6933
 4617SOL    HW225314   4.542   2.463  16.284  2.6761  0.3497 -2.8085
 4618SOL     OW25315   2.007   0.536   4.630  0.0370  0.1286 -0.5453
 4618SOL    HW125316   2.009   0.603   4.561 -2.7944  3.2596  2.4540
 4618SOL    HW225317   1.922   0.568   4.659  1.4268  1.9939  1.5024
 4619SOL     OW25318   0.452   1.685   8.910  0.1369 -0.5429 -0.6194
 4619SOL    HW125319   0.497   1.719   8.987 -0.7452 -2.9348  0.9562
 4619SOL    HW225320   0.514   1.704   8.839  0.0132 -0.4446 -0.7028
 4620SOL     OW25321   0.479   4.698   7.047 -0.5065  0.2707  0.0574
 4620SOL    HW125322   0.559   4.665   7.007 -1.1967  0.7360 -1.6849
 4620SOL    HW225323   0.515   0.032   7.113  0.5622 -1.6053  1.1341
 4621SOL     OW25324   4.082   0.498   4.116  0.0356 -0.9053 -0.0253
 4621SOL    HW125325   4.033   0.578   4.101  0.2951 -0.5673  0.9435
 4621SOL    HW225326   4.068   0.497   4.211 -0.2195  0.1821 -0.0569
 4622SOL     OW25327   4.095   3.255   4.473  0.1420 -0.2280  0.2041
 4622SOL    HW125328   4.111   3.332   4.419  1.8318  0.1114  1.1791
 4622SOL    HW225329   4.069   3.302   4.553  0.3079  1.1157 -0.5255
 4623SOL     OW25330   1.098   0.300   5.591  0.3116  0.3944 -0.0417
 4623SOL    HW125331   1.135   0.264   5.510  2.8357 -2.0620  2.1929
 4623SOL    HW225332   1.058   0.382   5.561 -2.2645 -0.5531  0.8041
 4624SOL     OW25333   0.970   0.096  14.126  0.4105  0.3031  0.1518
 4624SOL    HW125334   0.889   0.133  14.160  1.5582 -1.0138  4.3231
 4624SOL    HW225335   0.942   0.042  14.052  0.8271 -0.3169  0.4506
 4625SOL     OW25336   0.643   1.911   6.668  0.2770 -0.1078  0.3862
 4625SOL    HW125337   0.580   1.962   6.718  1.4950  1.1449  0.6344
 4625SOL    HW225338   0.643   1.966   6.590  0.8733 -0.3095  0.2474
 4626SOL     OW25339   2.953   1.834   8.499 -0.3963 -0.0791 -0.0054
 4626SOL    HW125340   2.982   1.918   8.462 -1.1481  0.7943  1.3916
 4626SOL    HW225341   3.006   1.775   8.446 -1.3637  0.2774 -1.3853
 4627SOL     OW25342   1.086   3.701   4.355  0.1702  0.0019 -0.2323
 4627SOL    HW125343   1.081   3.616   4.398  0.2172  1.0369  1.8388
 4627SOL    HW225344   1.151   3.746   4.409 -1.6445  1.8383  0.4299
 4628SOL     OW25345   1.084   4.283   0.846  0.1592 -0.0084 -0.2642
 4628SOL    HW125346   1.024   4.254   0.915  0.7731  2.8998  1.4553
 4628SOL    HW225347   1.034   4.331   0.780  1.3440  1.7099  0.0842
 4629SOL     OW25348   2.073   2.368   0.782 -0.1745 -0.1273 -0.5615
 4629SOL    HW125349   2.053   2.383   0.874  0.9929 -0.9281 -0.1657
 4629SOL    HW225350   2.112   2.454   0.769 -0.4361 -0.0693 -0.9885
 4630SOL     OW25351   0.759   4.595   1.309 -0.1816  0.0804 -0.6461
 4630SOL    HW125352   0.755   4.656   1.235 -1.1118 -0.3509 -0.9591
 4630SOL    HW225353   0.715   4.517   1.274 -1.2587 -0.7967  2.7082
 4631SOL     OW25354   2.612   3.158   1.713  0.2209 -0.3003 -0.0874
 4631SOL    HW125355   2.579   3.183   1.627  0.4374 -1.8644 -0.6206
 4631SOL    HW225356   2.535   3.133   1.765  0.4124 -2.0747 -0.6674
 4632SOL     OW25357   4.377   4.123   6.844 -0.5249 -0.2559  0.1130
 4632SOL    HW125358   4.293   4.142   6.802 -0.0951 -0.6857 -0.9321
 4632SOL    HW225359   4.377   4.173   6.926 -0.2532  0.7226 -0.4906
 4633SOL     OW25360   0.184   1.843   8.953 -0.1205 -0.3367  0.0810
 4633SOL    HW125361   0.273   1.817   8.929 -0.5221  0.1526 -1.9180
 4633SOL    HW225362   0.199   1.851   9.047  2.5067 -1.5660 -0.2211
 4634SOL     OW25363   1.706   3.696  11.086 -0.9084  0.4023 -0.2111
 4634SOL    HW125364   1.642   3.764  11.105 -0.2367  1.0448 -0.2487
 4634SOL    HW225365   1.773   3.727  11.147 -0.8631 -0.9980  0.4551
 4635SOL     OW25366   2.643   1.669  14.400 -0.3785 -0.5133  0.0388
 4635SOL    HW125367   2.583   1.743  14.400 -1.2565 -1.2251 -0.7757
 4635SOL    HW225368   2.729   1.708  14.414 -0.7753 -0.0293  1.1071
 4636SOL     OW25369   3.213   1.319  15.053  0.1056  0.0622 -0.6429
 4636SOL    HW125370   3.275   1.386  15.082  1.4565  0.3673 -4.2589
 4636SOL    HW225371   3.233   1.243  15.108  0.9140 -0.2136 -1.3234
 4637SOL     OW25372   1.940   2.671   1.567 -0.1377 -0.4161  0.5628
 4637SOL    HW125373   1.935   2.733   1.640  1.1516 -0.1516  0.4288
 4637SOL    HW225374   1.952   2.732   1.493  0.6688  0.4256  1.3888
 4638SOL     OW25375   4.155   2.421   5.165 -0.9336  1.0453  0.0247
 4638SOL    HW125376   4.179   2.465   5.246  0.9367  0.8961 -0.4524
 4638SOL    HW225377   4.062   2.442   5.154 -0.6429  1.1873 -2.2129
 4639SOL     OW25378   3.528   3.091   6.404 -0.2337  0.0151 -0.2263
 4639SOL    HW125379   3.472   3.046   6.342 -0.5969 -0.2967  0.3226
 4639SOL    HW225380   3.475   3.080   6.483 -0.2744  0.1632 -0.2325
 4640SOL     OW25381   1.268   0.896  12.133 -0.5354 -0.3469 -0.2547
 4640SOL    HW125382   1.333   0.899  12.204 -1.2238  0.4588  0.3444
 4640SOL    HW225383   1.238   0.806  12.134  1.0784 -0.8635  1.2353
 4641SOL     OW25384   3.591   2.242   8.263 -0.7338  0.2967  0.0503
 4641SOL    HW125385   3.517   2.255   8.204 -0.3782 -1.2291 -0.7312
 4641SOL    HW225386   3.536   2.188   8.320  0.0959  1.4912  2.0083
 4642SOL     OW25387   2.387   0.725  17.103  0.2669 -0.2290  0.1897
 4642SOL    HW125388   2.323   0.692  17.168 -1.3052  1.6509 -0.4076
 4642SOL    HW225389   2.464   0.739  17.158  0.8721 -3.1622  0.1296
 4643SOL     OW25390   2.532   2.175   6.034 -0.3010  0.1301  0.3920
 4643SOL    HW125391   2.543   2.137   6.121 -1.5716  0.4198  0.6750
 4643SOL    HW225392   2.445   2.214   6.038 -0.8836 -1.1078 -0.4297
 4644SOL     OW25393   3.925   3.470   3.389 -0.7774 -0.0318  0.1217
 4644SOL    HW125394   3.945   3.413   3.315  0.0999  1.7925 -1.0660
 4644SOL    HW225395   3.945   3.555   3.349  0.5298 -0.8234 -0.9321
 4645SOL     OW25396   2.599   0.587   0.337  0.0371 -0.9283  0.3577
 4645SOL    HW125397   2.514   0.580   0.380 -0.1286  3.7646  0.7422
 4645SOL    HW225398   2.622   0.677   0.357 -1.1102 -0.2642 -1.2853
 4646SOL     OW25399   0.822   1.610   3.716 -0.6526  0.5101  0.2080
 4646SOL    HW125400   0.843   1.703   3.710  0.1888  0.2856 -0.3423
 4646SOL    HW225401   0.848   1.584   3.628  2.5532  0.4724  1.1917
 4647SOL     OW25402   1.606   0.270   8.913 -0.2655  0.0233 -0.2345
 4647SOL    HW125403   1.513   0.292   8.905 -0.0736  0.4438 -1.3362
 4647SOL    HW225404   1.635   0.308   8.830 -1.0970  0.5421 -0.2837
 4648SOL     OW25405   1.667   3.418   9.585 -0.1648  0.3709 -0.6381
 4648SOL    HW125406   1.670   3.507   9.551  2.7764  0.3017 -0.5313
 4648SOL    HW225407   1.642   3.438   9.676 -0.2304  1.1696 -0.8366
 4649SOL     OW25408   3.568   2.741   5.777 -0.4318 -0.6848 -0.0414
 4649SOL    HW125409   3.587   2.690   5.698 -1.1829  1.0664 -1.3325
 4649SOL    HW225410   3.552   2.662   5.829 -0.6135 -0.6040  0.0228
 4650SOL     OW25411   4.685   3.986   3.916  0.6910 -0.3989  0.3436
 4650SOL    HW125412   4.643   3.963   3.999  1.8542  2.0952  1.6437
 4650SOL    HW225413   4.717   4.073   3.942  0.8795 -0.2976 -0.2442
 4651SOL     OW25414   3.563   4.600   4.434  0.1594 -0.2011  0.4549
 4651SOL    HW125415   3.536   4.514   4.403 -1.1091  0.0121  0.9646
 4651SOL    HW225416   3.657   4.585   4.444  0.3576  0.4277 -0.4220
 4652SOL     OW25417   2.939   2.909   7.662 -0.3183 -0.5118  0.6521
 4652SOL    HW125418   2.922   2.947   7.576 -0.3997 -0.2777  0.7682
 4652SOL    HW225419   2.888   2.958   7.727 -1.8189  0.8790 -1.5940
 4653SOL     OW25420   2.608   4.170   2.662  0.3157  0.1490  0.2652
 4653SOL    HW125421   2.514   4.162   2.643  0.5489 -0.7371 -0.5116
 4653SOL    HW225422   2.649   4.182   2.577  1.1195  1.3154  0.8184
 4654SOL     OW25423   2.878   0.651   5.033  0.7804  0.2566 -0.1960
 4654SOL    HW125424   2.906   0.728   4.984 -0.5227  1.0351  0.2769
 4654SOL    HW225425   2.822   0.686   5.102  1.9829  0.9716  0.4104
 4655SOL     OW25426   0.256   1.173   0.659 -0.1424  0.4078 -0.1308
 4655SOL    HW125427   0.308   1.253   0.661  1.1758 -0.4996  1.8668
 4655SOL    HW225428   0.280   1.134   0.743  1.7770  1.6393 -0.1053
 4656SOL     OW25429   0.646   2.410   8.459 -0.0361 -0.0186 -0.1837
 4656SOL    HW125430   0.595   2.331   8.441 -0.5451 -0.2257  2.1440
 4656SOL    HW225431   0.584   2.483   8.455  0.1193  0.1494  0.6055
 4657SOL     OW25432   0.064   4.219   7.459  0.1236 -0.4111  0.1844
 4657SOL    HW125433   0.102   4.229   7.372  1.0583  3.5691  1.0725
 4657SOL    HW225434   0.018   4.135   7.457 -1.6326  0.6197 -3.6397
 4658SOL     OW25435   2.740   1.724   6.582  0.0374  0.4222  0.2862
 4658SOL    HW125436   2.768   1.718   6.490 -4.3888  0.0813 -1.0266
 4658SOL    HW225437   2.757   1.810   6.620  1.2446  1.3551 -2.3675
 4659SOL     OW25438   1.017   3.301   2.075  0.7606  0.1527  0.0088
 4659SOL    HW125439   1.036   3.382   2.029  1.3136 -0.5087 -0.9186
 4659SOL    HW225440   0.943   3.272   2.021 -0.5222  1.3925  1.0866
 4660SOL     OW25441   1.539   1.140   3.808 -0.0032 -0.1639  0.3421
 4660SOL    HW125442   1.618   1.164   3.857 -0.3274  0.6246  0.4721
 4660SOL    HW225443   1.496   1.225   3.800 -2.0431 -1.4438 -2.0674
 4661SOL     OW25444   2.554   2.693  16.036 -0.1854 -0.1056  0.3131
 4661SOL    HW125445   2.519   2.606  16.017  1.9413 -0.5560 -1.5572
 4661SOL    HW225446   2.596   2.709  15.952  0.9999  0.8087  1.0693
 4662SOL     OW25447   2.816   1.953   3.937  0.2157 -0.0233  0.1692
 4662SOL    HW125448   2.825   1.923   3.847  0.5144 -0.9590  0.5136
 4662SOL    HW225449   2.895   1.910   3.968 -0.8972 -3.1904 -1.4614
 4663SOL     OW25450   1.740   2.492   1.512 -0.1932  0.4329 -0.3614
 4663SOL    HW125451   1.812   2.554   1.526  0.7091 -0.7849  0.3655
 4663SOL    HW225452   1.671   2.540   1.558 -1.4905 -1.3983 -0.4248
 4664SOL     OW25453   0.714   3.942   9.648 -0.2979  0.3211 -0.5460
 4664SOL    HW125454   0.666   3.990   9.581  0.6176 -1.7047 -2.6156
 4664SOL    HW225455   0.646   3.938   9.716  1.0887  0.4078  0.8602
 4665SOL     OW25456   0.383   2.872  10.716  0.4518 -0.0032 -0.0097
 4665SOL    HW125457   0.421   2.871  10.629 -0.4225 -1.2424 -0.3792
 4665SOL    HW225458   0.317   2.940  10.706  0.6838 -0.1189 -2.2547
 4666SOL     OW25459   3.671   2.910   7.413  0.5268  0.3942 -0.0117
 4666SOL    HW125460   3.641   2.888   7.501  1.3819 -0.8955 -0.0462
 4666SOL    HW225461   3.759   2.932   7.442  0.7226 -1.3540  0.7383
 4667SOL     OW25462   1.417   1.435   5.555 -0.0832  0.0479  0.2455
 4667SOL    HW125463   1.394   1.489   5.631 -0.8678  0.2787 -0.1601
 4667SOL    HW225464   1.364   1.356   5.562 -0.7666  0.5591  0.8203
 4668SOL     OW25465   3.578   3.153   2.023  0.3383 -0.7446  0.1189
 4668SOL    HW125466   3.593   3.243   1.993 -1.0328  0.2321  2.3719
 4668SOL    HW225467   3.657   3.117   1.983  0.9541  1.3232 -0.5533
 4669SOL     OW25468   0.460   2.552  10.027  0.6513  0.2645 -0.4007
 4669SOL    HW125469   0.370   2.527  10.050  0.1808  1.3146 -1.0800
 4669SOL    HW225470   0.467   2.625  10.089  0.1769  0.3936 -0.4984
 4670SOL     OW25471   0.215   2.552  15.629 -0.2127  0.1087 -0.2521
 4670SOL    HW125472   0.120   2.537  15.636  0.0809 -0.1604  3.0534
 4670SOL    HW225473   0.231   2.590  15.715 -1.1578  0.6024 -0.2899
 4671SOL     OW25474   4.318   2.979   5.053  0.4504 -0.1940  0.0439
 4671SOL    HW125475   4.227   3.003   5.073  0.5845  1.3133 -1.1509
 4671SOL    HW225476   4.365   3.029   5.119  0.4949 -0.3490  0.1298
 4672SOL     OW25477   2.214   3.501   2.898 -0.4783 -0.2501  0.2194
 4672SOL    HW125478   2.219   3.560   2.973  1.4218  0.5338 -0.5341
 4672SOL    HW225479   2.123   3.471   2.904 -0.4775  0.0403  1.5625
 4673SOL     OW25480   2.816   1.586   1.572  0.4258 -0.0064  0.2373
 4673SOL    HW125481   2.857   1.504   1.597  1.0716  0.6718  1.3958
 4673SOL    HW225482   2.855   1.647   1.634  1.9433 -0.9406  0.2109
 4674SOL     OW25483   0.905   1.850   7.291 -0.4219  0.0694  0.1142
 4674SOL    HW125484   0.959   1.830   7.367 -1.1741 -0.6000  0.4789
 4674SOL    HW225485   0.952   1.815   7.215 -0.3001 -1.2763  0.7917
 4675SOL     OW25486   2.343   3.976   1.651  0.5329  0.3425  0.3576
 4675SOL    HW125487   2.268   3.978   1.711  1.4616  0.1449  1.5473
 4675SOL    HW225488   2.313   4.048   1.596  1.1197  0.2139 -0.1247
 4676SOL     OW25489   0.733   1.281   7.321 -0.2787  0.0703 -0.0843
 4676SOL    HW125490   0.672   1.235   7.262  3.0789 -1.4931 -2.3691
 4676SOL    HW225491   0.663   1.325   7.368  0.4076  1.8482 -0.7389
 4677SOL     OW25492   1.357   0.359   8.970  0.0284 -0.3150  0.2713
 4677SOL    HW125493   1.275   0.406   8.958  0.1580  0.4514  2.4201
 4677SOL    HW225494   1.383   0.375   9.061  1.3316 -0.9688  0.0267
 4678SOL     OW25495   4.357   1.283   4.863  0.0556  0.0845  0.8647
 4678SOL    HW125496   4.419   1.229   4.815 -0.7993  1.6702 -2.0562
 4678SOL    HW225497   4.286   1.296   4.800 -1.1421 -0.5399  2.0880
 4679SOL     OW25498   2.045   3.051   3.304  0.1258  0.6620 -0.1169
 4679SOL    HW125499   1.975   3.053   3.368  1.3874 -2.1777  1.3768
 4679SOL    HW225500   2.002   3.018   3.225 -0.9357  2.4172 -0.2625
 4680SOL     OW25501   1.683   1.530   6.537 -0.6645  0.4997  0.0309
 4680SOL    HW125502   1.746   1.504   6.604  0.1304  1.5566 -0.2988
 4680SOL    HW225503   1.633   1.592   6.590 -3.4554 -2.0880  0.3994
 4681SOL     OW25504   0.046   3.559   2.936 -0.1469  0.4343 -0.1426
 4681SOL    HW125505   4.680   3.530   2.946 -1.6140  4.6319 -1.2362
 4681SOL    HW225506   0.082   3.505   3.007  2.8973  2.9524  0.2275
 4682SOL     OW25507   1.234   3.595   5.308 -0.0313 -0.1511 -0.0083
 4682SOL    HW125508   1.224   3.502   5.329 -0.0160 -0.2049 -0.2390
 4682SOL    HW225509   1.208   3.590   5.216 -0.2456 -1.9730  0.1386
 4683SOL     OW25510   1.622   2.788  16.371  0.0861  0.3544  0.0597
 4683SOL    HW125511   1.561   2.847  16.326  0.2157 -0.5825 -1.3631
 4683SOL    HW225512   1.569   2.709  16.379 -1.7648  1.8281  2.2702
 4684SOL     OW25513   2.349   2.901   9.270 -0.0031  0.1481  0.8039
 4684SOL    HW125514   2.335   2.996   9.275 -1.1036  0.1667 -2.7333
 4684SOL    HW225515   2.276   2.872   9.216 -0.3245 -0.1214  1.3848
 4685SOL     OW25516   2.100   4.295  14.164  0.6576 -0.3405  0.1325
 4685SOL    HW125517   2.010   4.295  14.132 -0.1151 -0.8088  2.2907
 4685SOL    HW225518   2.114   4.390  14.171 -1.7526  0.0432 -0.1389
 4686SOL     OW25519   0.303   1.476   3.154  0.5004  0.5558 -0.5590
 4686SOL    HW125520   0.346   1.392   3.170 -1.3068 -0.3771 -0.5389
 4686SOL    HW225521   0.289   1.503   3.245  1.3403 -0.9206  0.0026
 4687SOL     OW25522   2.996   4.107  17.012 -0.2755 -0.7514  0.0510
 4687SOL    HW125523   2.982   4.048  17.086 -0.0397  0.8655  1.4113
 4687SOL    HW225524   2.971   4.051  16.939  1.1578 -0.0891 -0.9469
 4688SOL     OW25525   1.653   3.030   1.832 -0.2249  0.2450  0.6306
 4688SOL    HW125526   1.596   3.104   1.855 -0.4042  0.8021 -1.6156
 4688SOL    HW225527   1.598   2.953   1.846  0.8583 -0.6306  0.0385
 4689SOL     OW25528   3.560   1.217   3.224 -0.2158  0.3542 -0.0570
 4689SOL    HW125529   3.631   1.204   3.162  0.0590 -0.7017  0.4786
 4689SOL    HW225530   3.490   1.250   3.167 -0.2698 -0.8651 -0.7039
 4690SOL     OW25531   0.651   0.334   7.692  0.0389  0.3199 -0.6261
 4690SOL    HW125532   0.724   0.391   7.668 -0.4612  1.1967 -0.1049
 4690SOL    HW225533   0.639   0.362   7.783 -1.7254 -2.4466 -0.0242
 4691SOL     OW25534   0.942   3.067  10.830 -0.3715  0.0857 -0.0152
 4691SOL    HW125535   0.870   3.118  10.867 -2.0546 -0.4662 -2.5245
 4691SOL    HW225536   1.010   3.133  10.816  1.4045 -1.5166  0.9969
 4692SOL     OW25537   3.872   1.922   6.573 -0.5332  0.0681  0.2902
 4692SOL    HW125538   3.812   1.896   6.643 -0.6775  1.1089  0.5477
 4692SOL    HW225539   3.862   1.852   6.509 -2.6998  0.3999  0.2888
 4693SOL     OW25540   0.138   3.062  14.805  0.3204 -0.2880 -0.4265
 4693SOL    HW125541   0.069   3.019  14.756 -0.2219 -3.0852  2.7491
 4693SOL    HW225542   0.194   2.984  14.810 -0.3422 -0.7129  0.2950
 4694SOL     OW25543   3.442   1.861  15.150 -0.4924  0.4714  0.6853
 4694SOL    HW125544   3.377   1.836  15.215  2.4060 -0.6828  3.1242
 4694SOL    HW225545   3.454   1.952  15.178  2.1945 -0.6871  3.2966
 4695SOL     OW25546   2.295   2.124  11.136 -0.0366 -0.2792  0.5085
 4695SOL    HW125547   2.358   2.072  11.087  1.1981  0.6693  1.0729
 4695SOL    HW225548   2.253   2.061  11.195  0.3927 -2.3257 -1.3877
 4696SOL     OW25549   4.389   4.314   4.980  0.2274  0.6982  0.3642
 4696SOL    HW125550   4.385   4.260   4.901  2.4505 -1.0637  1.4587
 4696SOL    HW225551   4.415   4.401   4.948  0.4918  0.4597 -0.0641
 4697SOL     OW25552   0.882   1.481   7.684 -0.0917  0.0660  0.0572
 4697SOL    HW125553   0.969   1.495   7.722 -0.1534  1.6864 -0.3598
 4697SOL    HW225554   0.913   1.474   7.593  1.6347  0.7273  0.5833
 4698SOL     OW25555   1.639   0.048   8.161  0.4878  0.0478 -0.1148
 4698SOL    HW125556   1.621   0.043   8.254  1.9480 -1.5313  0.0829
 4698SOL    HW225557   1.691   0.128   8.153  2.9162 -1.4464  0.7341
 4699SOL     OW25558   2.837   0.253   2.004  0.3737  0.4453 -0.7900
 4699SOL    HW125559   2.909   0.296   1.958  1.1360 -1.2764 -1.2269
 4699SOL    HW225560   2.893   0.206   2.066 -1.2665  1.2080  1.2728
 4700SOL     OW25561   4.480   0.261   8.440  0.1823 -0.0657 -0.2051
 4700SOL    HW125562   4.444   0.315   8.370  0.0112 -1.4937 -1.2067
 4700SOL    HW225563   4.437   0.180   8.414 -0.3127  0.1070  0.0644
 4701SOL     OW25564   1.257   3.124  10.512 -0.5311 -0.6240  0.1529
 4701SOL    HW125565   1.313   3.180  10.459 -1.4343 -1.0120 -1.1893
 4701SOL    HW225566   1.318   3.102  10.583  1.5134 -0.2729 -1.5111
 4702SOL     OW25567   4.054   1.791   1.914  0.2053  0.5405  0.3895
 4702SOL    HW125568   4.062   1.824   2.003  0.8329  0.1143  0.4913
 4702SOL    HW225569   4.059   1.698   1.932  0.9962  0.2823 -1.1570
 4703SOL     OW25570   3.526   3.191   8.476 -0.7513  0.3564 -0.1376
 4703SOL    HW125571   3.583   3.229   8.408 -0.7156 -1.7192 -1.2372
 4703SOL    HW225572   3.484   3.264   8.522 -2.1862  0.5030 -1.7016
 4704SOL     OW25573   2.877   4.652   2.983 -0.1968 -0.1589 -0.1676
 4704SOL    HW125574   2.863   4.668   2.890  2.6541 -1.8554 -0.8883
 4704SOL    HW225575   2.931   4.573   2.988 -0.0155  0.0621  1.6651
 4705SOL     OW25576   2.851   0.729   1.972 -0.1315  0.2596 -0.0416
 4705SOL    HW125577   2.796   0.671   2.026 -1.4358  2.0277  0.5216
 4705SOL    HW225578   2.821   0.700   1.886  1.5907 -3.8954  0.7559
 4706SOL     OW25579   2.003   4.645   7.985  0.1019 -0.5158 -0.6388
 4706SOL    HW125580   2.078   4.670   8.039  0.2690 -0.2536 -0.9955
 4706SOL    HW225581   1.991   4.717   7.923 -0.5289 -2.3772 -2.7014
 4707SOL     OW25582   1.590   1.873  14.813 -0.0625 -0.5397  0.2596
 4707SOL    HW125583   1.642   1.952  14.823 -0.0261 -0.3228 -1.7221
 4707SOL    HW225584   1.550   1.876  14.900 -0.6413 -2.0794  0.0493
 4708SOL     OW25585   4.549   0.092   2.666  0.4100  0.2359 -0.1475
 4708SOL    HW125586   4.540   4.723   2.685  3.6096  0.1197  0.9546
 4708SOL    HW225587   4.568   0.090   2.573 -2.9991  0.4532 -0.8401
 4709SOL     OW25588   4.366   2.936  12.832  0.1925  0.1485  0.2842
 4709SOL    HW125589   4.290   2.896  12.790 -0.0528 -1.3131  2.1149
 4709SOL    HW225590   4.379   2.879  12.908 -1.5887 -1.1626 -0.4128
 4710SOL     OW25591   0.932   3.430   7.216  0.2363 -0.0582 -1.2247
 4710SOL    HW125592   0.995   3.499   7.239 -0.1861  0.2975 -1.1369
 4710SOL    HW225593   0.871   3.433   7.290  0.7562 -0.9876 -0.7698
 4711SOL     OW25594   0.755   3.180   5.137  0.1677 -0.2661  0.3263
 4711SOL    HW125595   0.792   3.147   5.055 -1.3182  1.5798 -1.1007
 4711SOL    HW225596   0.816   3.149   5.204 -0.2113  1.2986  1.4116
 4712SOL     OW25597   1.080   1.742   7.477 -0.2572  0.1333  0.5768
 4712SOL    HW125598   1.147   1.801   7.511 -0.1208  0.6451 -0.5858
 4712SOL    HW225599   1.132   1.662   7.473 -0.9941 -0.3633  1.0874
 4713SOL     OW25600   1.986   1.898   7.672 -0.2722  0.2818  0.0370
 4713SOL    HW125601   1.989   1.931   7.761  1.2709  0.2269  0.0187
 4713SOL    HW225602   2.035   1.816   7.681  0.2358  0.4472 -1.1238
 4714SOL     OW25603   1.796   2.538   5.658  0.0823 -0.0481 -0.4202
 4714SOL    HW125604   1.787   2.473   5.728 -1.4256 -0.6713 -1.1705
 4714SOL    HW225605   1.704   2.566   5.656 -0.5302 -1.9536  0.7447
 4715SOL     OW25606   1.290   4.110   3.146 -0.4590  0.0276 -0.0962
 4715SOL    HW125607   1.363   4.088   3.089 -0.1137  0.3031  0.2453
 4715SOL    HW225608   1.326   4.186   3.191  0.7205 -0.5000 -0.1501
 4716SOL     OW25609   3.508   1.167   2.805 -0.6842 -0.4168 -0.6553
 4716SOL    HW125610   3.603   1.177   2.802 -0.6778 -0.4202 -0.4488
 4716SOL    HW225611   3.481   1.108   2.734 -0.1529  1.8613 -2.7671
 4717SOL     OW25612   3.106   2.246   7.409  0.5963  0.0897 -0.5126
 4717SOL    HW125613   3.121   2.293   7.491  2.3327 -0.7946 -0.3232
 4717SOL    HW225614   3.054   2.317   7.371 -0.0269 -0.1698 -0.1462
 4718SOL     OW25615   4.212   3.479   9.574  0.2500 -0.4738 -0.3905
 4718SOL    HW125616   4.211   3.488   9.669  0.6571 -1.0659 -0.3357
 4718SOL    HW225617   4.120   3.474   9.549 -0.3756  1.3681  1.4731
 4719SOL     OW25618   4.450   1.170   2.406 -0.4503 -0.0392  0.7242
 4719SOL    HW125619   4.442   1.116   2.328 -3.0887  1.5693 -0.1274
 4719SOL    HW225620   4.456   1.257   2.366  0.4903 -1.5677 -2.4447
 4720SOL     OW25621   3.619   4.143   5.844 -0.0284 -0.3368 -0.3686
 4720SOL    HW125622   3.611   4.064   5.791  0.8093 -0.2870 -0.5756
 4720SOL    HW225623   3.642   4.200   5.770  1.0304 -2.0163 -1.3418
 4721SOL     OW25624   1.463   0.977   0.423  0.5786 -0.0555  0.4570
 4721SOL    HW125625   1.470   1.068   0.453 -1.0692 -0.4600  2.0447
 4721SOL    HW225626   1.481   0.939   0.508  1.9411  0.6222  0.4836
 4722SOL     OW25627   4.553   3.062   2.332  0.0594  0.1899 -0.1809
 4722SOL    HW125628   4.522   2.977   2.365  2.2365  0.4591  2.6493
 4722SOL    HW225629   4.519   3.058   2.243 -1.2043  0.9848  0.2795
 4723SOL     OW25630   1.987   3.358   7.013  0.0989 -0.2943  0.4944
 4723SOL    HW125631   2.045   3.430   7.039 -0.5908  0.0495  1.0987
 4723SOL    HW225632   1.977   3.367   6.919  0.0778 -0.6134  0.4638
 4724SOL     OW25633   2.140   0.477   6.860 -0.1333 -0.0952  0.1484
 4724SOL    HW125634   2.215   0.536   6.855  0.7143 -1.2700 -0.7384
 4724SOL    HW225635   2.080   0.536   6.906 -1.4039 -1.2273 -0.0411
 4725SOL     OW25636   3.222   2.987   3.867 -0.8842 -0.1494  0.8326
 4725SOL    HW125637   3.272   3.051   3.815 -0.1453 -0.7069  0.8730
 4725SOL    HW225638   3.175   3.050   3.922 -0.9924 -0.3458  0.9618
 4726SOL     OW25639   4.456   2.582   5.451 -0.0787  0.0024  0.0813
 4726SOL    HW125640   4.523   2.517   5.432 -1.2429 -0.7753 -1.4524
 4726SOL    HW225641   4.486   2.618   5.535 -0.4946  0.8061 -0.1105
 4727SOL     OW25642   0.171   2.480  10.513  0.0160 -0.0699  0.1612
 4727SOL    HW125643   0.085   2.501  10.476 -0.8241 -1.7976  1.1423
 4727SOL    HW225644   0.153   2.517  10.599 -0.2627 -2.0380  0.9661
 4728SOL     OW25645   4.690   0.467   3.342 -0.6022 -1.2178  0.2802
 4728SOL    HW125646   4.691   0.396   3.278  0.6861 -0.0347 -1.0061
 4728SOL    HW225647   4.705   0.420   3.424 -1.4619 -1.4994  0.2781
 4729SOL     OW25648   0.177   1.652   2.801  0.8017 -0.2268 -0.2855
 4729SOL    HW125649   0.179   1.691   2.713 -0.6256  0.7995  0.1263
 4729SOL    HW225650   0.254   1.598   2.811  0.7264 -0.3330 -0.2782
 4730SOL     OW25651   1.452   3.655   2.703  0.1624  0.3114  0.1677
 4730SOL    HW125652   1.392   3.726   2.680 -2.4696 -1.5320  1.1989
 4730SOL    HW225653   1.532   3.706   2.699 -0.4070  1.1994  0.0174
 4731SOL     OW25654   1.870   1.835   3.408 -0.3505  0.5332 -0.4459
 4731SOL    HW125655   1.794   1.833   3.349 -0.3747  1.2058 -0.4438
 4731SOL    HW225656   1.863   1.930   3.420  1.0775  0.7206 -1.1652
 4732SOL     OW25657   4.210   0.519  13.619 -0.2743 -0.3739 -0.3378
 4732SOL    HW125658   4.258   0.597  13.590 -1.3443  0.0065 -1.0856
 4732SOL    HW225659   4.278   0.482  13.675  0.0666  0.1384 -0.4052
 4733SOL     OW25660   1.352   2.598   9.221 -0.4807  0.2826  0.6557
 4733SOL    HW125661   1.310   2.593   9.308  0.4248 -1.0965  1.0229
 4733SOL    HW225662   1.307   2.522   9.182  2.8643  0.3567 -3.2572
 4734SOL     OW25663   2.024   0.665  10.249  0.1703 -0.2345  0.1326
 4734SOL    HW125664   2.096   0.727  10.260  1.2277 -1.7258  1.4852
 4734SOL    HW225665   1.969   0.710  10.184 -0.2886 -2.0615 -0.7426
 4735SOL     OW25666   3.572   0.492   8.349 -0.6192 -0.0600  0.5599
 4735SOL    HW125667   3.606   0.530   8.269 -2.0891  1.6760  0.7541
 4735SOL    HW225668   3.639   0.424   8.355 -1.6395 -1.1891 -0.9074
 4736SOL     OW25669   0.448   0.155  11.973 -0.3335 -0.2757 -0.0490
 4736SOL    HW125670   0.362   0.195  11.976 -0.4135 -0.4927  0.4659
 4736SOL    HW225671   0.471   0.172  11.881  1.5721 -0.6126  0.3558
 4737SOL     OW25672   2.289   2.179   2.291 -0.2033 -0.0340  1.0553
 4737SOL    HW125673   2.226   2.109   2.280 -1.2102  1.1174 -0.4769
 4737SOL    HW225674   2.243   2.242   2.235 -0.3395 -1.9712 -1.0168
 4738SOL     OW25675   3.872   1.378  12.541 -0.4516 -0.0110 -0.3278
 4738SOL    HW125676   3.842   1.295  12.503 -0.4059 -0.8571  1.4997
 4738SOL    HW225677   3.866   1.344  12.630 -1.2685  0.6535 -0.1220
 4739SOL     OW25678   3.081   2.328   8.083  0.1213 -0.1038 -0.2300
 4739SOL    HW125679   3.021   2.274   8.135  1.3747 -2.7164 -1.4518
 4739SOL    HW225680   3.067   2.417   8.114  2.6919  0.0364  0.5613
 4740SOL     OW25681   1.099   0.297   6.831 -0.1645  0.1273 -0.3198
 4740SOL    HW125682   1.125   0.250   6.752 -1.1816  0.9334 -1.1378
 4740SOL    HW225683   1.165   0.281   6.899 -0.8496 -0.2834  0.2574
 4741SOL     OW25684   2.191   0.266   3.619 -0.0057 -0.6972 -0.1550
 4741SOL    HW125685   2.240   0.310   3.550  1.3236  0.7916  1.7231
 4741SOL    HW225686   2.118   0.326   3.634 -0.0997 -0.5385 -1.3109
 4742SOL     OW25687   3.513   1.539   9.229 -0.2158  0.6007 -0.5234
 4742SOL    HW125688   3.465   1.458   9.211  2.3322 -1.1807  0.8277
 4742SOL    HW225689   3.473   1.600   9.167 -1.4196  2.9146  2.5352
 4743SOL     OW25690   3.689   0.013   2.269 -0.4234 -0.4275 -0.1344
 4743SOL    HW125691   3.645   0.098   2.266 -0.4454 -0.5588 -3.1979
 4743SOL    HW225692   3.765   0.018   2.211 -1.6668  1.8405 -1.5627
 4744SOL     OW25693   1.901   3.760   4.758  0.7548 -0.0719 -0.6371
 4744SOL    HW125694   1.833   3.813   4.718 -0.1783 -0.3840  0.5250
 4744SOL    HW225695   1.856   3.697   4.815  1.2458 -0.8936 -1.1463
 4745SOL     OW25696   1.703   2.939   0.156 -0.3883 -0.0855  0.0516
 4745SOL    HW125697   1.693   3.033   0.171  0.8079  0.4600 -2.5897
 4745SOL    HW225698   1.613   2.911   0.141 -0.3423 -0.8546  1.1943
 4746SOL     OW25699   1.522   0.952  15.404 -0.2602  0.1173  0.5693
 4746SOL    HW125700   1.553   0.984  15.319 -1.0281  0.5569  0.4587
 4746SOL    HW225701   1.532   1.031  15.457  2.7599  0.9926 -1.2900
 4747SOL     OW25702   4.478   1.132   5.788  0.1456 -0.1338 -0.2837
 4747SOL    HW125703   4.433   1.105   5.708 -0.3924 -0.3897  0.1055
 4747SOL    HW225704   4.469   1.227   5.797  0.9225 -0.0634 -0.2758
 4748SOL     OW25705   2.401   4.152   8.339  0.6459  0.5035  0.1741
 4748SOL    HW125706   2.447   4.073   8.365 -1.7224 -0.7378  0.5808
 4748SOL    HW225707   2.343   4.121   8.269  0.5972 -2.3800  1.5190
 4749SOL     OW25708   0.765   1.234   9.752  0.1511  0.7459  0.1512
 4749SOL    HW125709   0.714   1.314   9.764 -1.9448 -0.4429 -0.9124
 4749SOL    HW225710   0.857   1.260   9.765  0.0522  0.3945  1.5799
 4750SOL     OW25711   0.978   3.730   6.730 -0.0804 -0.5434  0.0956
 4750SOL    HW125712   0.991   3.811   6.778  2.2143  0.2209 -1.8348
 4750SOL    HW225713   1.041   3.745   6.660  1.1178 -0.4009  1.2031
 4751SOL     OW25714   0.841   4.095   3.102 -0.2162  0.1249 -0.4910
 4751SOL    HW125715   0.927   4.131   3.122 -1.0183  1.0772  1.2306
 4751SOL    HW225716   0.843   4.079   3.008 -2.9280  0.8909 -0.6917
 4752SOL     OW25717   1.688   4.384  10.886 -0.5595  0.2837 -0.0478
 4752SOL    HW125718   1.708   4.310  10.944  0.2976  0.4602 -0.1131
 4752SOL    HW225719   1.774   4.419  10.861 -1.1871  2.2172  0.4839
 4753SOL     OW25720   4.497   2.097   4.169  0.5160  0.5341 -0.0839
 4753SOL    HW125721   4.442   2.175   4.176  1.6160  1.2278  0.7122
 4753SOL    HW225722   4.431   2.062   4.109  1.7576  1.2705 -1.8949
 4754SOL     OW25723   3.699   1.670   9.752 -0.2453  0.1063  0.1932
 4754SOL    HW125724   3.773   1.678   9.812  0.3930 -1.0106 -0.4342
 4754SOL    HW225725   3.714   1.752   9.704 -0.0500 -0.5296 -0.8434
 4755SOL     OW25726   2.922   0.092   3.306  0.2227  0.7513 -0.2556
 4755SOL    HW125727   3.008   0.080   3.345  0.2552  0.3002 -0.4661
 4755SOL    HW225728   2.931   0.032   3.232  0.0302  0.9686 -0.4584
 4756SOL     OW25729   3.691   3.592   5.100 -0.2797  0.1089  0.2843
 4756SOL    HW125730   3.633   3.624   5.169  3.1434  0.0701  3.1684
 4756SOL    HW225731   3.706   3.500   5.120 -0.8132  0.1086  0.7075
 4757SOL     OW25732   2.391   1.417   8.173 -0.2722  0.2341 -0.0579
 4757SOL    HW125733   2.382   1.472   8.250  0.2809  0.1713  0.0540
 4757SOL    HW225734   2.455   1.470   8.125 -1.2915  1.2801 -0.2693
 4758SOL     OW25735   1.541   2.838  12.896 -0.6685 -0.4593  0.3805
 4758SOL    HW125736   1.454   2.877  12.890 -0.0955  0.6958 -0.5328
 4758SOL    HW225737   1.559   2.857  12.988 -2.9966  1.1851  0.4804
 4759SOL     OW25738   2.750   3.358  15.684  0.0132  0.0141  0.1053
 4759SOL    HW125739   2.740   3.439  15.734  2.4631  0.0418  0.5623
 4759SOL    HW225740   2.819   3.382  15.621 -1.2674 -0.6389 -1.5372
 4760SOL     OW25741   1.680   2.519  10.653  0.1817  0.0556  0.2208
 4760SOL    HW125742   1.625   2.585  10.612  1.9361  1.5059  0.2293
 4760SOL    HW225743   1.764   2.553  10.624 -0.9714  2.4913 -0.2518
 4761SOL     OW25744   2.634   3.009   8.099 -0.0060  0.5539 -0.6745
 4761SOL    HW125745   2.588   2.953   8.162 -1.8238 -0.2478 -2.7224
 4761SOL    HW225746   2.643   3.088   8.152  0.4880 -0.3215  0.5672
 4762SOL     OW25747   3.928   4.456   5.761  0.3307  0.9869 -0.8341
 4762SOL    HW125748   3.994   4.387   5.752 -0.7917 -0.3700  1.1945
 4762SOL    HW225749   3.951   4.501   5.842  0.9666  0.1205 -0.5341
 4763SOL     OW25750   3.411   3.453   6.832 -0.2682  0.2480  0.2046
 4763SOL    HW125751   3.342   3.394   6.802 -1.8034  2.2444 -0.1690
 4763SOL    HW225752   3.429   3.503   6.753  2.6581 -0.5308  0.3929
 4764SOL     OW25753   4.066   2.704   7.838 -0.2684  0.1019  0.2103
 4764SOL    HW125754   4.112   2.782   7.807  1.3972 -0.2985  1.6796
 4764SOL    HW225755   4.014   2.666   7.767 -0.7535 -0.0738  0.6576
 4765SOL     OW25756   4.698   1.725  16.281 -0.1415 -0.6446  0.6573
 4765SOL    HW125757   0.005   1.813  16.263 -0.6810 -1.1120 -2.6273
 4765SOL    HW225758   4.689   1.711  16.376 -0.6586 -0.3966  0.6427
 4766SOL     OW25759   3.920   3.881   7.634  0.2514  0.2702  0.1206
 4766SOL    HW125760   4.000   3.881   7.687  0.9507 -0.8153 -0.9433
 4766SOL    HW225761   3.849   3.859   7.694 -1.2641  2.8716 -0.7106
 4767SOL     OW25762   1.690   1.126   3.264  0.6571  0.5705 -0.5542
 4767SOL    HW125763   1.778   1.154   3.289 -0.1290  2.4041  0.1442
 4767SOL    HW225764   1.661   1.196   3.205 -0.9006  0.2576 -0.1361
 4768SOL     OW25765   3.277   0.732   5.065 -0.7758  0.2861  0.2671
 4768SOL    HW125766   3.269   0.736   4.969 -0.6863 -0.6277  0.2144
 4768SOL    HW225767   3.296   0.638   5.075  0.3835  0.5414  0.4026
 4769SOL     OW25768   1.218   1.202  10.387  0.3097 -0.5842 -0.0898
 4769SOL    HW125769   1.234   1.122  10.337  1.6066 -0.6344  0.4118
 4769SOL    HW225770   1.161   1.166  10.454 -1.8214  0.6970 -1.2140
 4770SOL     OW25771   0.807   2.083   3.446 -0.1745  0.0816  0.0185
 4770SOL    HW125772   0.846   2.124   3.368 -1.0129  4.3313  1.8350
 4770SOL    HW225773   0.720   2.097   3.409 -0.6966  1.0231  1.6434
 4771SOL     OW25774   2.384   2.529  17.290  0.0507  0.1951  0.1207
 4771SOL    HW125775   2.328   2.451  17.291  0.0778  0.1932  1.3332
 4771SOL    HW225776   2.370   2.570  17.376  0.4134  1.8339 -0.6003
 4772SOL     OW25777   2.759   1.664   7.444  0.0394 -0.0486 -0.0496
 4772SOL    HW125778   2.753   1.595   7.511 -1.3376 -0.0514 -0.1867
 4772SOL    HW225779   2.813   1.616   7.380 -0.1331 -0.0765 -0.1747
 4773SOL     OW25780   0.563   0.071   4.135 -0.1387  0.6151 -0.0965
 4773SOL    HW125781   0.497   0.131   4.101  1.3179  0.5252 -3.0495
 4773SOL    HW225782   0.637   0.129   4.157  0.7948 -0.2328 -1.0128
 4774SOL     OW25783   0.636   0.912   6.345 -0.1289 -0.2090  0.4510
 4774SOL    HW125784   0.601   0.852   6.411 -2.8147  2.0313  1.0507
 4774SOL    HW225785   0.702   0.963   6.390  0.6397 -1.0030  0.2224
 4775SOL     OW25786   1.606   3.753   3.541  0.4920 -0.1110 -0.2141
 4775SOL    HW125787   1.548   3.827   3.520 -0.8398 -0.6153  1.7333
 4775SOL    HW225788   1.537   3.687   3.548  0.1016  0.1177 -1.8259
 4776SOL     OW25789   1.853   4.621  11.808  0.0632  0.4118 -0.5362
 4776SOL    HW125790   1.830   4.679  11.880 -2.5651 -0.1404 -0.9251
 4776SOL    HW225791   1.935   4.658  11.775 -0.1140 -0.4623 -1.9885
 4777SOL     OW25792   0.296   1.759  14.144  0.3285  0.1877  0.1010
 4777SOL    HW125793   0.293   1.665  14.161  1.5552 -0.3323 -2.5208
 4777SOL    HW225794   0.367   1.762  14.080  0.5854 -3.2172  0.2229
 4778SOL     OW25795   3.895   2.284   8.744 -0.6457  0.7598  0.4408
 4778SOL    HW125796   3.936   2.255   8.663 -1.2561 -1.1386  0.8259
 4778SOL    HW225797   3.911   2.379   8.744  0.5298  0.5531 -1.9856
 4779SOL     OW25798   4.007   3.475   9.814 -0.3468 -0.2854 -0.1534
 4779SOL    HW125799   3.916   3.495   9.790 -0.0494  0.3958 -0.6636
 4779SOL    HW225800   4.020   3.388   9.777 -0.0140  0.8157 -2.5601
 4780SOL     OW25801   0.217   3.137   0.000  0.1936  0.0326  0.2463
 4780SOL    HW125802   0.238   3.229   0.018  0.7171 -0.1275  0.4699
 4780SOL    HW225803   0.175   3.122   0.085 -0.2310 -0.6200 -0.0883
 4781SOL     OW25804   3.005   2.975   3.315 -0.1002 -0.2220 -0.2484
 4781SOL    HW125805   3.092   3.013   3.299 -0.1840 -0.9906 -2.6219
 4781SOL    HW225806   2.961   2.965   3.230 -0.7605 -0.3067  0.1017
 4782SOL     OW25807   3.635   0.298   8.595  0.4280  0.2314 -0.9458
 4782SOL    HW125808   3.662   0.323   8.507 -0.4427 -0.5382 -1.4351
 4782SOL    HW225809   3.659   0.206   8.599  1.9187  0.6451 -0.6147
 4783SOL     OW25810   0.794   0.294  16.773 -0.3725 -0.0061  0.4968
 4783SOL    HW125811   0.812   0.314  16.865  0.4172  0.7209  0.1823
 4783SOL    HW225812   0.722   0.233  16.784 -1.6606  1.5346  0.5368
 4784SOL     OW25813   4.062   2.350   2.933 -0.0579 -0.3992  0.1828
 4784SOL    HW125814   4.082   2.288   3.004  1.2105  0.5487  0.6609
 4784SOL    HW225815   3.995   2.402   2.977  0.5987  1.4714 -1.0605
 4785SOL     OW25816   1.651   0.634   6.530  0.2712 -0.3349 -0.2334
 4785SOL    HW125817   1.699   0.556   6.503 -0.3915 -1.0309  0.5937
 4785SOL    HW225818   1.657   0.685   6.450  1.5911 -0.1060  0.0090
 4786SOL     OW25819   1.639   0.806  10.609 -0.2308  0.2297 -0.4940
 4786SOL    HW125820   1.651   0.871  10.540  0.5654 -0.6057 -1.1266
 4786SOL    HW225821   1.549   0.789  10.581  0.4472 -0.8296 -1.9724
 4787SOL     OW25822   3.713   4.037   9.428 -0.0948 -0.1591 -0.0765
 4787SOL    HW125823   3.700   4.030   9.333 -0.4061 -0.6647  0.0066
 4787SOL    HW225824   3.632   3.996   9.457 -0.4052 -0.4943 -1.4159
 4788SOL     OW25825   3.813   4.195  17.688 -0.7452 -0.0316 -0.2589
 4788SOL    HW125826   3.861   4.114  17.670  1.6528  1.7371 -1.7990
 4788SOL    HW225827   3.760   4.200  17.609  0.3870  2.1126 -0.8648
 4789SOL     OW25828   1.175   3.539   6.311  0.1050 -0.2645  0.6949
 4789SOL    HW125829   1.219   3.543   6.396 -1.0552 -1.0703  1.3213
 4789SOL    HW225830   1.225   3.605   6.262 -1.4648 -0.3140 -0.9813
 4790SOL     OW25831   1.013   2.331   9.346  0.2721  0.2753 -0.0618
 4790SOL    HW125832   1.021   2.246   9.390  2.4128 -0.0113 -0.9741
 4790SOL    HW225833   0.974   2.388   9.412  0.1146  0.6036 -0.4442
 4791SOL     OW25834   3.185   0.601  10.672  0.5455  0.8600  0.3115
 4791SOL    HW125835   3.277   0.611  10.647  0.2632 -0.8853 -1.4356
 4791SOL    HW225836   3.191   0.580  10.765  2.3222  0.7985  0.1987
 4792SOL     OW25837   2.708   2.142  17.579 -0.5987 -0.0488 -0.2943
 4792SOL    HW125838   2.776   2.159  17.514 -1.5568 -0.8531 -1.5107
 4792SOL    HW225839   2.749   2.072  17.630  2.3505  0.3476 -2.1234
 4793SOL     OW25840   2.987   4.006   5.177  0.6050 -0.2823 -0.3214
 4793SOL    HW125841   3.054   4.062   5.216  0.7823 -0.7156  0.0070
 4793SOL    HW225842   2.965   3.960   5.258  0.9435 -1.2108 -0.7470
 4794SOL     OW25843   4.051   2.470   3.275 -0.4130 -0.8776 -0.7708
 4794SOL    HW125844   4.006   2.395   3.236 -1.3932 -0.4506 -0.4555
 4794SOL    HW225845   4.132   2.479   3.225 -1.4620 -1.1514 -2.5531
 4795SOL     OW25846   1.892   2.174   5.779  0.0454  0.0397  0.0850
 4795SOL    HW125847   1.985   2.173   5.757 -0.2651  1.1081 -1.2066
 4795SOL    HW225848   1.891   2.105   5.845  1.2024 -0.4310 -0.3780
 4796SOL     OW25849   4.136   1.140  12.391 -0.1017  0.4276  0.4027
 4796SOL    HW125850   4.050   1.132  12.350 -0.0275 -1.9151  0.6515
 4796SOL    HW225851   4.144   1.235  12.397 -0.6127  0.4088  1.4267
 4797SOL     OW25852   0.661   1.731   6.325 -0.1192  0.1271  0.0507
 4797SOL    HW125853   0.713   1.706   6.401  0.9070 -0.0004 -0.6905
 4797SOL    HW225854   0.586   1.778   6.362 -1.2526 -2.3734  0.8881
 4798SOL     OW25855   2.001   3.925   8.154 -0.1107  0.0116 -0.2367
 4798SOL    HW125856   2.059   3.867   8.105 -1.0484 -2.0009  1.0078
 4798SOL    HW225857   1.916   3.882   8.147 -0.2281  0.2610 -0.3191
 4799SOL     OW25858   0.366   4.688  13.793  0.3027 -0.2016  0.3786
 4799SOL    HW125859   0.405   4.614  13.746 -0.5960 -2.6659  3.4845
 4799SOL    HW225860   0.280   4.696  13.752  0.7470 -0.1151 -0.5287
 4800SOL     OW25861   0.235   0.383   3.180 -0.6232 -0.2967  0.4471
 4800SOL    HW125862   0.309   0.364   3.123 -1.9244 -1.5053 -0.8643
 4800SOL    HW225863   0.169   0.391   3.111 -1.8344  0.5782  1.7062
 4801SOL     OW25864   0.198   1.276   8.879 -0.3744  0.5461 -0.2200
 4801SOL    HW125865   0.217   1.366   8.851  0.1770  0.6165  0.3876
 4801SOL    HW225866   0.192   1.229   8.795 -2.9878 -1.6148  1.1726
 4802SOL     OW25867   3.384   2.054   6.505 -0.4171 -0.2605  0.0764
 4802SOL    HW125868   3.464   2.107   6.511  0.3343 -1.5363  1.2312
 4802SOL    HW225869   3.420   1.977   6.463 -0.4797 -0.9169  1.2281
 4803SOL     OW25870   3.402   3.608   6.343  0.1851  1.4426 -0.2539
 4803SOL    HW125871   3.399   3.577   6.253  0.3163 -1.9802  0.9397
 4803SOL    HW225872   3.348   3.687   6.344 -0.7481  0.8039 -0.1024
 4804SOL     OW25873   2.305   2.483  15.204 -0.2553  0.1881 -0.1364
 4804SOL    HW125874   2.313   2.433  15.286  2.0918 -0.5046 -0.7793
 4804SOL    HW225875   2.391   2.525  15.207 -0.8720  1.5143 -0.7419
 4805SOL     OW25876   4.510   3.314   6.201  0.0502  0.1581 -0.1033
 4805SOL    HW125877   4.484   3.231   6.240 -0.3223  0.7729  0.9425
 4805SOL    HW225878   4.550   3.360   6.275 -0.7644 -1.1275  1.1321
 4806SOL     OW25879   0.913   4.713   9.217 -0.1061  0.4125  0.1619
 4806SOL    HW125880   0.927   0.081   9.198 -0.4659 -0.0206 -2.2349
 4806SOL    HW225881   0.896   0.002   9.311  0.3605 -0.4877  0.3806
 4807SOL     OW25882   2.189   0.026  15.027  0.3155  0.4631 -0.0147
 4807SOL    HW125883   2.240   4.674  15.005  1.0848  0.6765  1.0431
 4807SOL    HW225884   2.220   0.092  14.965 -0.3613  1.5282  0.7561
 4808SOL     OW25885   1.493   1.384   4.382 -0.3201 -0.0274 -0.8761
 4808SOL    HW125886   1.429   1.369   4.312 -2.0559  3.4647 -0.0414
 4808SOL    HW225887   1.578   1.399   4.340  0.3636  0.6676  0.7434
 4809SOL     OW25888   2.584   2.680   0.509 -0.5952  0.0924  0.3042
 4809SOL    HW125889   2.585   2.735   0.431  3.1460 -2.0410 -1.1592
 4809SOL    HW225890   2.535   2.734   0.571 -0.6142 -0.3627  0.6882
 4810SOL     OW25891   2.919   3.318   7.048  0.3072  0.6123  0.0646
 4810SOL    HW125892   2.972   3.387   7.008  2.4225 -0.7326  0.5081
 4810SOL    HW225893   2.957   3.315   7.136 -1.5553 -2.4553  0.7725
 4811SOL     OW25894   2.916   2.825   0.371  0.1997  0.7668  0.1690
 4811SOL    HW125895   2.857   2.817   0.296  1.0961 -0.6165 -0.3846
 4811SOL    HW225896   2.997   2.779   0.348 -0.6774 -1.3445  1.3144
 4812SOL     OW25897   0.059   3.467  11.875  0.2509  0.2420  0.4000
 4812SOL    HW125898   0.103   3.387  11.903 -0.3968  0.8335  3.2035
 4812SOL    HW225899   4.699   3.459  11.919  1.8979 -0.5581  3.4085
 4813SOL     OW25900   2.544   3.163   7.217  0.3520  0.0615  0.4353
 4813SOL    HW125901   2.570   3.100   7.150  0.1562  2.2883 -1.7421
 4813SOL    HW225902   2.468   3.205   7.176  1.6395  0.6278 -1.4050
 4814SOL     OW25903   2.085   0.562   9.045  0.6133  0.2230 -0.1293
 4814SOL    HW125904   2.041   0.500   9.103  0.3797  0.4714 -0.0376
 4814SOL    HW225905   2.011   0.610   9.008  0.0418 -0.7651 -0.2379
 4815SOL     OW25906   1.789   4.657  16.816  0.2105  0.0330 -0.4096
 4815SOL    HW125907   1.699   4.672  16.846  0.2616 -0.5970  0.0533
 4815SOL    HW225908   1.842   4.706  16.879  1.1076 -1.2533 -0.1629
 4816SOL     OW25909   2.110   3.203   6.389  0.3662  0.5203 -0.1877
 4816SOL    HW125910   2.083   3.263   6.319  1.3476  0.2154 -0.8247
 4816SOL    HW225911   2.203   3.189   6.376  0.3015 -1.7101  1.6573
 4817SOL     OW25912   2.024   3.924  10.910 -0.1599 -0.1153  0.5987
 4817SOL    HW125913   1.930   3.933  10.925 -0.9601 -3.3095 -2.3187
 4817SOL    HW225914   2.045   4.016  10.929 -1.5962 -0.5952  4.2868
 4818SOL     OW25915   0.986   3.945   1.374  0.6329  0.2748  0.3750
 4818SOL    HW125916   1.024   4.029   1.349  0.6988 -0.7765 -3.0742
 4818SOL    HW225917   1.055   3.890   1.411  3.0508  2.2930 -1.1596
 4819SOL     OW25918   3.682   3.066   4.094 -0.0928  0.2205 -0.1868
 4819SOL    HW125919   3.765   3.113   4.086 -1.0009  1.6460 -1.1600
 4819SOL    HW225920   3.621   3.137   4.074  1.5075  1.9941  1.2429
 4820SOL     OW25921   1.701   0.476   6.316  0.5104  0.6053  0.6727
 4820SOL    HW125922   1.636   0.494   6.248 -1.3594 -0.0124  2.2911
 4820SOL    HW225923   1.729   0.387   6.295 -2.0887 -0.3452  1.2197
 4821SOL     OW25924   0.928   3.175  14.289 -0.0997 -0.5574 -0.0326
 4821SOL    HW125925   0.886   3.097  14.252 -0.0472 -0.3612 -0.4978
 4821SOL    HW225926   0.925   3.223  14.207  0.0320  0.7671  0.7436
 4822SOL     OW25927   2.438   1.080   1.760  0.2165  0.0321  0.0647
 4822SOL    HW125928   2.396   1.137   1.825  0.4069 -1.9082  1.9057
 4822SOL    HW225929   2.359   1.048   1.716  0.3298 -0.1468 -0.0058
 4823SOL     OW25930   3.560   1.805   4.605  0.4159  0.3526 -0.4997
 4823SOL    HW125931   3.634   1.746   4.623 -0.5361 -0.6576  0.1005
 4823SOL    HW225932   3.540   1.772   4.517 -2.4744 -1.7135  0.9345
 4824SOL     OW25933   3.519   0.456   7.984  0.5841  0.2974  0.5534
 4824SOL    HW125934   3.554   0.391   7.923  0.5493  0.1814  0.6569
 4824SOL    HW225935   3.442   0.483   7.934 -0.8517  1.1318  3.2396
 4825SOL     OW25936   3.222   1.026   8.795  0.1085  0.4127  0.3239
 4825SOL    HW125937   3.217   1.086   8.721 -0.0092  0.3006  0.2391
 4825SOL    HW225938   3.173   1.072   8.863 -0.4157 -0.2494  0.3909
 4826SOL     OW25939   0.313   0.322   9.843  0.0728 -0.7712 -0.7107
 4826SOL    HW125940   0.350   0.321   9.931 -0.5377 -0.1118 -0.4476
 4826SOL    HW225941   0.352   0.402   9.808  1.9335 -0.1201  2.8647
 4827SOL     OW25942   3.038   1.147   8.984 -0.2145 -0.1112  0.2570
 4827SOL    HW125943   2.973   1.201   8.940  0.4571 -1.3884 -2.2748
 4827SOL    HW225944   3.072   1.206   9.052  0.6921  0.4794 -0.7153
 4828SOL     OW25945   2.484   3.394   3.466 -0.2631  0.6073 -0.2898
 4828SOL    HW125946   2.433   3.350   3.398 -0.3926 -1.3223  1.0437
 4828SOL    HW225947   2.492   3.320   3.527  2.3345  0.5299 -0.7157
 4829SOL     OW25948   2.398   0.835   5.995 -0.7990  0.6994  0.3830
 4829SOL    HW125949   2.313   0.807   6.031 -0.6115 -0.1547  0.1602
 4829SOL    HW225950   2.385   0.809   5.904 -0.0565 -2.0020  1.0546
 4830SOL     OW25951   3.294   0.828   6.099  0.6863 -0.7072 -0.5460
 4830SOL    HW125952   3.326   0.903   6.049  1.8033 -0.1593  0.9921
 4830SOL    HW225953   3.256   0.780   6.026  0.6486 -0.2578 -0.8176
 4831SOL     OW25954   3.430   1.037   5.971  0.1049  0.3678 -0.1969
 4831SOL    HW125955   3.423   1.125   6.007  0.5406 -0.0463  0.9275
 4831SOL    HW225956   3.515   1.044   5.928 -1.0236  0.0759 -2.4877
 4832SOL     OW25957   2.241   2.323   8.787 -0.3566 -0.5208  0.1335
 4832SOL    HW125958   2.188   2.310   8.708 -0.3921  0.7935 -0.0673
 4832SOL    HW225959   2.188   2.381   8.841  0.9715  1.1253 -0.3195
 4833SOL     OW25960   0.377   1.705  11.067 -0.3003 -0.2708 -0.6302
 4833SOL    HW125961   0.288   1.708  11.034  0.1629 -1.0767 -1.9573
 4833SOL    HW225962   0.430   1.737  10.994  1.2465  1.8916  1.4346
 4834SOL     OW25963   2.286   0.332   8.940  0.2480 -0.5661  0.4875
 4834SOL    HW125964   2.357   0.332   9.005 -0.5187  1.1818  1.3495
 4834SOL    HW225965   2.208   0.306   8.990 -0.7784  0.2565 -0.6946
 4835SOL     OW25966   3.647   1.083   9.593  0.2335 -0.1760  0.2795
 4835SOL    HW125967   3.686   1.159   9.550 -1.5571  0.7179  0.2639
 4835SOL    HW225968   3.582   1.114   9.656 -0.4631  1.1655 -1.1042
 4836SOL     OW25969   4.443   2.353   3.332  0.5602 -0.7088  0.5540
 4836SOL    HW125970   4.364   2.387   3.289  0.2923 -0.2484  1.3918
 4836SOL    HW225971   4.440   2.265   3.297  1.2865  0.0384 -1.3792
 4837SOL     OW25972   1.201   1.622   3.417 -0.1980 -0.2737  0.1003
 4837SOL    HW125973   1.257   1.696   3.444  0.4028 -0.9266  0.6359
 4837SOL    HW225974   1.262   1.554   3.388  1.7615  1.1842  0.7805
 4838SOL     OW25975   3.027   0.208   5.425 -0.4251 -0.0223 -0.2473
 4838SOL    HW125976   2.978   0.290   5.423  1.1549  0.9033 -0.1407
 4838SOL    HW225977   3.084   0.213   5.501  0.3780 -3.0119 -0.6435
 4839SOL     OW25978   4.431   1.404   2.297  0.5382 -0.3031  0.0076
 4839SOL    HW125979   4.354   1.409   2.241  0.0981  1.6731  0.8039
 4839SOL    HW225980   4.501   1.459   2.260  0.9963 -1.9612 -1.6080
 4840SOL     OW25981   2.001   1.027  14.456  0.5029 -0.4109 -0.0995
 4840SOL    HW125982   1.928   0.994  14.403  0.8423 -1.7136  0.2423
 4840SOL    HW225983   1.984   1.115  14.490 -1.0406 -1.1314  1.0126
 4841SOL     OW25984   2.837   1.619   8.955  0.0174  0.3280 -0.1769
 4841SOL    HW125985   2.923   1.596   8.988  1.0169  3.6300 -0.4805
 4841SOL    HW225986   2.853   1.684   8.886 -0.2190  0.6631  0.0839
 4842SOL     OW25987   2.655   2.380   6.150 -0.2879  0.0359  0.1288
 4842SOL    HW125988   2.628   2.312   6.089  4.5689 -0.8431 -1.0300
 4842SOL    HW225989   2.739   2.341   6.173 -0.2704 -1.6190 -2.7783
 4843SOL     OW25990   0.890   0.932   9.224  0.1837  0.0278  0.1964
 4843SOL    HW125991   0.934   0.860   9.270 -0.0550 -0.5662 -0.4981
 4843SOL    HW225992   0.883   0.984   9.304  3.6942  2.3128 -1.0227
 4844SOL     OW25993   3.351   2.619   6.218 -0.2928 -0.1154  0.2295
 4844SOL    HW125994   3.320   2.550   6.159 -0.3527 -0.0583  0.1943
 4844SOL    HW225995   3.433   2.582   6.251  0.4086  2.1944  1.0815
 4845SOL     OW25996   4.418   3.831   4.029 -0.6027  0.0309 -0.0517
 4845SOL    HW125997   4.338   3.845   4.079 -0.9645  0.9781 -0.8995
 4845SOL    HW225998   4.472   3.905   4.056  2.6541 -2.1504 -0.5536
 4846SOL     OW25999   1.345   1.224  13.036  0.3470 -0.0099  0.1250
 4846SOL    HW126000   1.403   1.271  13.096  1.3246 -0.1912 -0.6730
 4846SOL    HW226001   1.262   1.249  13.077 -0.1137 -0.0853 -0.7608
 4847SOL     OW26002   0.916   1.740   8.927  0.1786  0.5336 -0.3611
 4847SOL    HW126003   0.898   1.688   8.850  0.3939  1.4052 -1.0080
 4847SOL    HW226004   0.952   1.814   8.878 -0.0666  1.7806  1.3037
 4848SOL     OW26005   1.000   3.191  11.576 -0.3468  0.0662 -0.1279
 4848SOL    HW126006   1.052   3.271  11.566  2.3042 -1.7786 -0.7822
 4848SOL    HW226007   1.006   3.167  11.668 -1.8878 -0.7900 -0.2496
 4849SOL     OW26008   3.475   4.292   6.794 -0.0282 -0.8501 -0.0314
 4849SOL    HW126009   3.434   4.278   6.879  0.4623 -0.9823  0.1845
 4849SOL    HW226010   3.565   4.294   6.828  0.0549 -3.1806 -0.1135
 4850SOL     OW26011   3.715   1.460   4.911  0.1264  0.2672 -0.3718
 4850SOL    HW126012   3.711   1.464   5.007 -2.5865  0.7579 -0.4992
 4850SOL    HW226013   3.629   1.495   4.888 -0.5194 -0.1617  1.3844
 4851SOL     OW26014   2.174   2.793   5.994 -0.3555 -0.6767  0.1993
 4851SOL    HW126015   2.225   2.724   6.035 -1.8361 -0.7888  1.8781
 4851SOL    HW226016   2.095   2.747   5.964 -0.7475  0.3883 -0.3701
 4852SOL     OW26017   0.468   3.845   3.676 -0.0644 -0.0398  0.2395
 4852SOL    HW126018   0.435   3.835   3.586 -2.3265  2.1762  0.8114
 4852SOL    HW226019   0.549   3.895   3.676  0.4998 -0.9567  0.2134
 4853SOL     OW26020   3.418   2.622  10.381 -0.4205  0.6510  0.6635
 4853SOL    HW126021   3.469   2.604  10.460  1.2192 -0.8499 -0.7373
 4853SOL    HW226022   3.343   2.567  10.404 -0.6751  1.0509  0.7789
 4854SOL     OW26023   3.825   0.575   6.908  0.6695  0.0228 -0.3639
 4854SOL    HW126024   3.860   0.548   6.823  0.6389  0.0181 -0.3751
 4854SOL    HW226025   3.779   0.495   6.933  0.7321  0.2353  0.4529
 4855SOL     OW26026   0.273   4.642   8.742 -0.0131 -0.0019  0.1166
 4855SOL    HW126027   0.182   4.639   8.712  0.2588  0.1302 -0.7315
 4855SOL    HW226028   0.307   4.700   8.674 -3.3980 -0.5877 -2.0727
 4856SOL     OW26029   1.171   2.273   5.440  0.1395 -0.5143  0.0174
 4856SOL    HW126030   1.205   2.236   5.358 -0.1787  0.0534 -0.3742
 4856SOL    HW226031   1.142   2.198   5.491 -1.0746  0.6067  0.9599
 4857SOL     OW26032   4.671   0.661  15.033  0.5760 -0.2479  0.1599
 4857SOL    HW126033   4.678   0.598  14.961  1.9398 -0.7076  0.6991
 4857SOL    HW226034   4.581   0.648  15.062  0.2089  1.6407 -0.1203
 4858SOL     OW26035   3.129   1.025   5.840 -0.3622  0.1513  0.4835
 4858SOL    HW126036   3.102   1.062   5.924 -1.5388  1.2808 -0.4096
 4858SOL    HW226037   3.211   1.069   5.820  0.6121 -2.2063 -0.7911
 4859SOL     OW26038   3.722   2.440   6.836 -0.3399  0.5236  0.5595
 4859SOL    HW126039   3.632   2.407   6.847 -0.6931  1.5136  0.5861
 4859SOL    HW226040   3.752   2.377   6.770 -0.2126  2.1403 -0.9096
 4860SOL     OW26041   1.355   0.797   6.485  0.1020  0.8482 -0.5567
 4860SOL    HW126042   1.384   0.742   6.412  0.8304 -1.7505  1.6803
 4860SOL    HW226043   1.350   0.885   6.448  0.5088  1.2093  0.2516
 4861SOL     OW26044   3.979   1.832   5.333  0.1337  0.2953 -0.5922
 4861SOL    HW126045   3.922   1.898   5.294  0.0960  0.4581 -0.2554
 4861SOL    HW226046   4.064   1.874   5.341 -0.7506  2.1044 -0.5733
 4862SOL     OW26047   3.053   4.190  17.321  0.0305  0.1212 -0.2086
 4862SOL    HW126048   2.968   4.147  17.330 -0.3659  0.7360 -1.0215
 4862SOL    HW226049   3.086   4.171  17.409 -0.3792  1.9602  0.3341
 4863SOL     OW26050   2.946   2.587   8.367 -0.7828 -0.0630 -0.6974
 4863SOL    HW126051   2.999   2.598   8.288  0.0967  1.0163  0.0376
 4863SOL    HW226052   2.903   2.673   8.364 -0.3165  0.2313  0.9610
 4864SOL     OW26053   2.767   2.213   5.493 -0.3628 -0.1222 -0.1680
 4864SOL    HW126054   2.822   2.135   5.487 -0.8615 -0.3747 -1.4292
 4864SOL    HW226055   2.789   2.257   5.411 -0.9758  0.9282  0.2209
 4865SOL     OW26056   1.777   3.109   1.370  0.3891  0.1743 -0.1992
 4865SOL    HW126057   1.756   3.039   1.308  0.1735  0.4907 -0.4825
 4865SOL    HW226058   1.743   3.182   1.319 -2.2817  1.5391  3.6254
 4866SOL     OW26059   0.700   2.672  11.187 -0.5955  0.0341 -0.2918
 4866SOL    HW126060   0.662   2.584  11.180  1.3592 -0.7400 -1.0877
 4866SOL    HW226061   0.621   2.725  11.185 -0.4574  0.2165 -0.8029
 4867SOL     OW26062   3.272   3.159   9.269  0.4455  0.1894  0.0249
 4867SOL    HW126063   3.256   3.117   9.353 -1.5243  0.6400 -0.1305
 4867SOL    HW226064   3.235   3.102   9.202  1.7137 -0.0078 -0.5203
 4868SOL     OW26065   4.271   1.023   4.728 -0.2636 -0.9081 -0.1041
 4868SOL    HW126066   4.184   1.002   4.762 -0.1148 -0.7761  0.3550
 4868SOL    HW226067   4.328   0.977   4.789  2.3853  2.0672 -0.3424
 4869SOL     OW26068   3.940   1.016   5.522  0.5110  0.3334 -0.9677
 4869SOL    HW126069   3.966   0.995   5.612 -0.2455 -2.5388 -1.4006
 4869SOL    HW226070   4.023   1.048   5.487  0.5277  1.6397  0.2757
 4870SOL     OW26071   0.034   1.934   6.653 -0.4778 -0.3226 -0.1028
 4870SOL    HW126072   0.052   1.845   6.684 -0.5727  0.0603  1.0565
 4870SOL    HW226073   0.120   1.975   6.644 -0.9338  0.6641  0.0388
 4871SOL     OW26074   0.932   2.949   3.713  0.0593 -0.1622 -0.0647
 4871SOL    HW126075   1.021   2.945   3.747  0.0827  0.9885  0.0151
 4871SOL    HW226076   0.891   2.997   3.784 -0.2119 -0.8333  0.2356
 4872SOL     OW26077   4.586   4.007   4.171 -0.2439 -0.3786 -0.4176
 4872SOL    HW126078   4.541   4.080   4.214 -0.0637  0.7396 -2.1505
 4872SOL    HW226079   4.664   4.016   4.226  0.5427 -1.8034 -1.2998
 4873SOL     OW26080   1.588   3.793   4.781 -0.7158 -0.1516 -0.1672
 4873SOL    HW126081   1.509   3.742   4.767 -0.1121 -0.7660 -1.3309
 4873SOL    HW226082   1.559   3.879   4.749 -1.6161  0.4834  2.3598
 4874SOL     OW26083   2.343   1.690   2.783  0.5466  0.6260  0.3533
 4874SOL    HW126084   2.420   1.746   2.771 -0.3852  1.7268 -0.4150
 4874SOL    HW226085   2.335   1.653   2.696  1.1295 -0.3471  0.7123
 4875SOL     OW26086   4.593   4.700   9.487  0.3111  0.1615  0.2166
 4875SOL    HW126087   4.592   4.621   9.542  0.5529 -0.1216 -0.1853
 4875SOL    HW226088   4.598   0.042   9.554 -0.9990  2.0849 -1.6267
 4876SOL     OW26089   3.433   1.175   0.615 -0.3485 -0.0276 -0.7767
 4876SOL    HW126090   3.419   1.090   0.657 -0.1175  1.1275  1.6620
 4876SOL    HW226091   3.522   1.197   0.643 -0.3454 -1.1135  0.0522
 4877SOL     OW26092   2.395   2.801   3.872 -0.3774 -0.4278 -0.0646
 4877SOL    HW126093   2.384   2.719   3.921 -0.7056 -0.8009 -0.7702
 4877SOL    HW226094   2.365   2.776   3.785 -4.0839 -1.7124  1.6011
 4878SOL     OW26095   0.284   3.494   3.447 -0.2720 -0.2916 -0.0758
 4878SOL    HW126096   0.214   3.547   3.486 -2.0735 -0.2880 -3.3753
 4878SOL    HW226097   0.234   3.461   3.373 -0.9611  1.4007 -0.3623
 4879SOL     OW26098   0.741   0.149   1.624  0.1398  0.7526 -0.9079
 4879SOL    HW126099   0.647   0.159   1.609 -0.1453  0.5631  0.7320
 4879SOL    HW226100   0.737   0.151   1.720 -0.2368 -1.3121 -0.8899
 4880SOL     OW26101   1.186   4.368   7.679  0.6106 -0.6301  0.0438
 4880SOL    HW126102   1.188   4.391   7.772  0.1495 -0.6303  0.0535
 4880SOL    HW226103   1.255   4.418   7.636  1.2462  1.0409  3.0498
 4881SOL     OW26104   3.909   3.931   6.630  0.0383 -0.3821 -0.1685
 4881SOL    HW126105   3.857   4.012   6.633 -0.3285 -0.6087 -0.3038
 4881SOL    HW226106   3.912   3.909   6.537  0.3326 -1.3490  0.0656
 4882SOL     OW26107   2.350   2.385   4.926 -0.3475  0.3165  0.3156
 4882SOL    HW126108   2.272   2.353   4.970 -1.7772  0.8286 -1.8506
 4882SOL    HW226109   2.315   2.428   4.848 -3.2666  0.9841  2.0205
 4883SOL     OW26110   3.227   0.115   5.140  0.2839  0.1201  0.6601
 4883SOL    HW126111   3.243   0.187   5.202  1.2459  1.6118 -1.3081
 4883SOL    HW226112   3.312   0.101   5.098  0.3282  1.5073  0.2843
 4884SOL     OW26113   4.129   3.287   6.890 -1.2372  0.2008  0.1736
 4884SOL    HW126114   4.070   3.335   6.947  0.3103  0.1142  1.8539
 4884SOL    HW226115   4.079   3.214   6.853 -0.5902 -0.0775 -0.1646
 4885SOL     OW26116   3.363   2.570   4.635 -0.1959  0.0590 -0.2587
 4885SOL    HW126117   3.346   2.663   4.654 -0.4344 -0.3453  1.4719
 4885SOL    HW226118   3.454   2.569   4.607  0.0329  2.7905  0.3758
 4886SOL     OW26119   1.562   0.638   7.735 -0.2511  0.7754 -0.0535
 4886SOL    HW126120   1.626   0.709   7.741  1.0191 -0.2781 -1.1712
 4886SOL    HW226121   1.492   0.668   7.794 -0.7864  1.9607 -1.2939
 4887SOL     OW26122   0.707   0.149   4.475  0.0483  0.3784  0.2012
 4887SOL    HW126123   0.748   0.064   4.461  1.6067  1.4551 -1.8491
 4887SOL    HW226124   0.775   0.196   4.524 -0.6697  1.5871  0.0425
 4888SOL     OW26125   0.455   4.604   2.623 -0.6497 -0.1530 -0.7751
 4888SOL    HW126126   0.499   4.687   2.606  0.5154 -0.2734  1.7259
 4888SOL    HW226127   0.512   4.541   2.581  1.3400  0.3025  1.2619
 4889SOL     OW26128   2.264   1.495   1.628  0.0311 -0.4785  0.2509
 4889SOL    HW126129   2.349   1.540   1.632  0.1234 -0.5415 -1.2747
 4889SOL    HW226130   2.256   1.474   1.535 -0.4776  0.0760  0.1692
 4890SOL     OW26131   4.084   2.680  14.955  0.1398  0.5713 -0.4951
 4890SOL    HW126132   4.080   2.689  15.050  1.3909 -0.9639 -0.3051
 4890SOL    HW226133   4.084   2.586  14.941  0.5363  0.4226  0.5135
 4891SOL     OW26134   3.920   4.466   1.487  0.0878 -0.0815  0.0050
 4891SOL    HW126135   4.000   4.422   1.457  0.8968  2.0318 -0.9122
 4891SOL    HW226136   3.887   4.404   1.552 -1.3676  0.3455 -0.3421
 4892SOL     OW26137   1.326   1.044  14.309  0.3737 -0.0744 -0.6047
 4892SOL    HW126138   1.321   0.974  14.244 -2.9239 -0.9332  0.5981
 4892SOL    HW226139   1.260   1.007  14.367  0.6507  0.0448 -0.2095
 4893SOL     OW26140   1.654   3.733   5.047 -0.1971  0.7658 -0.2287
 4893SOL    HW126141   1.562   3.728   5.076 -0.3857  0.8864 -0.8083
 4893SOL    HW226142   1.647   3.803   4.982 -1.2518 -1.5108 -2.5804
 4894SOL     OW26143   1.393   2.022   0.571 -0.2960 -0.0165 -0.0856
 4894SOL    HW126144   1.453   2.089   0.538 -0.3421  0.8110  1.5275
 4894SOL    HW226145   1.448   1.974   0.633  2.2555  1.5071 -1.1265
 4895SOL     OW26146   1.890   4.113  15.144 -0.3847 -0.3244  0.2486
 4895SOL    HW126147   1.966   4.055  15.152 -0.1290  0.1312  1.1848
 4895SOL    HW226148   1.919   4.175  15.077  1.3633 -0.1475  1.1736
 4896SOL     OW26149   3.504   2.247   0.457 -0.0303  0.4470 -0.7080
 4896SOL    HW126150   3.477   2.323   0.508  1.8445  1.0086 -0.5295
 4896SOL    HW226151   3.416   2.209   0.451  0.0676  0.1046  0.1014
 4897SOL     OW26152   1.292   4.104   0.599  0.3060  0.6261 -0.1332
 4897SOL    HW126153   1.211   4.070   0.561  1.4327 -0.8670 -1.1675
 4897SOL    HW226154   1.278   4.088   0.693  0.0890  0.8982 -0.1203
 4898SOL     OW26155   4.330   1.489   7.210  0.5009  0.0769 -0.3218
 4898SOL    HW126156   4.284   1.424   7.157 -1.2614 -0.0941  1.4168
 4898SOL    HW226157   4.249   1.530   7.240  1.4983  2.2018 -0.5619
 4899SOL     OW26158   0.222   1.023  16.779  0.2767 -0.4686 -0.8348
 4899SOL    HW126159   0.143   1.076  16.770 -0.3048 -1.0629  0.8817
 4899SOL    HW226160   0.240   0.999  16.688 -0.1418 -1.8492 -0.5521
 4900SOL     OW26161   2.773   3.863   5.635  0.1634 -0.3532  0.4385
 4900SOL    HW126162   2.784   3.768   5.637 -3.3829 -0.7426  0.9178
 4900SOL    HW226163   2.701   3.883   5.576  0.9384 -1.3586 -0.8341
 4901SOL     OW26164   4.057   2.258  16.880 -0.1323  0.0270 -0.0375
 4901SOL    HW126165   4.076   2.301  16.797 -1.5859  1.2027  0.2500
 4901SOL    HW226166   4.133   2.290  16.929  0.8868 -0.4610 -1.2963
 4902SOL     OW26167   3.746   0.182   4.833 -0.5798  0.1699  0.2597
 4902SOL    HW126168   3.662   0.143   4.807  0.0124  0.8546 -2.6000
 4902SOL    HW226169   3.756   0.147   4.922  2.4593  1.6496  0.4888
 4903SOL     OW26170   0.068   4.220  11.553 -0.3064  0.0548 -0.1904
 4903SOL    HW126171   0.025   4.197  11.471 -2.7041 -1.5709  1.5151
 4903SOL    HW226172   0.037   4.147  11.607 -0.7494  0.0977 -0.3880
 4904SOL     OW26173   1.072   1.923   4.983  0.1304 -0.3506  0.3662
 4904SOL    HW126174   1.056   1.955   4.894  1.3208 -0.1068  0.2316
 4904SOL    HW226175   0.995   1.866   4.990 -0.2075  0.2206  1.2843
 4905SOL     OW26176   1.157   0.582   5.013 -0.0157 -0.3418 -0.2274
 4905SOL    HW126177   1.220   0.611   4.948 -2.2180  2.8499 -0.9373
 4905SOL    HW226178   1.096   0.655   5.022 -1.1301 -1.4787  1.7824
 4906SOL     OW26179   1.624   1.837   3.275 -0.4761 -0.1199  0.5620
 4906SOL    HW126180   1.579   1.919   3.254 -0.9503  0.4625  3.7953
 4906SOL    HW226181   1.557   1.802   3.334 -0.1785 -0.5252  0.6606
 4907SOL     OW26182   4.051   0.751  11.682  0.0965 -0.3147  0.1720
 4907SOL    HW126183   4.107   0.684  11.646 -1.3738 -0.0911 -2.5276
 4907SOL    HW226184   4.119   0.817  11.695  0.1750 -1.0865  3.7342
 4908SOL     OW26185   3.988   1.929  16.033  0.6167 -0.0924  0.2222
 4908SOL    HW126186   4.057   1.955  16.093 -0.1295  0.7330  0.7203
 4908SOL    HW226187   4.015   1.839  16.015  2.7711  0.8767 -1.2691
 4909SOL     OW26188   3.979   2.531   8.713  0.1963 -0.5574  0.2124
 4909SOL    HW126189   3.916   2.581   8.661 -0.5492 -1.1688  0.5374
 4909SOL    HW226190   4.051   2.522   8.650 -0.0323 -2.1410  0.1804
 4910SOL     OW26191   0.499   3.718   4.414 -0.2054  0.3833 -0.1638
 4910SOL    HW126192   0.542   3.776   4.477  0.3876 -1.4589  1.1237
 4910SOL    HW226193   0.576   3.703   4.359 -0.5826 -0.5076 -0.4459
 4911SOL     OW26194   3.193   2.492   0.484 -0.6741  0.2695 -0.1264
 4911SOL    HW126195   3.269   2.486   0.542  1.5442  2.1963 -2.8676
 4911SOL    HW226196   3.184   2.585   0.461 -1.6502  1.0022  3.1671
 4912SOL     OW26197   2.491   1.944  14.695  0.0216 -0.7335  0.0215
 4912SOL    HW126198   2.397   1.926  14.707  0.0041 -0.8529 -0.2917
 4912SOL    HW226199   2.497   2.025  14.746 -0.4894 -1.7053  1.6232
 4913SOL     OW26200   0.013   2.863   8.434 -0.0403 -0.1414 -0.5739
 4913SOL    HW126201   4.657   2.866   8.385  0.2525 -1.8616 -1.1697
 4913SOL    HW226202   0.015   2.769   8.454 -2.6127  0.0085  0.3928
 4914SOL     OW26203   2.451   0.011   9.414 -0.5927  0.1258  0.2449
 4914SOL    HW126204   2.530   0.005   9.360  0.1088 -1.2867  1.4243
 4914SOL    HW226205   2.455   0.105   9.432  1.3835 -0.1415  1.2510
 4915SOL     OW26206   1.300   3.144   5.123 -0.0638 -0.4814 -0.0488
 4915SOL    HW126207   1.298   3.162   5.029  0.2672  0.4877  0.1319
 4915SOL    HW226208   1.212   3.170   5.151  0.2652 -0.9666  1.4343
 4916SOL     OW26209   0.940   2.764   2.545 -0.2917 -0.0422  0.7213
 4916SOL    HW126210   0.989   2.781   2.625  0.7961 -1.2567  0.3161
 4916SOL    HW226211   0.922   2.847   2.503 -0.0566  0.3602  1.4206
 4917SOL     OW26212   3.438   3.422  14.969  0.1290  0.4105  0.2910
 4917SOL    HW126213   3.385   3.484  14.918 -0.9216 -1.0470 -0.3879
 4917SOL    HW226214   3.507   3.399  14.907 -0.4781  0.6721 -0.4835
 4918SOL     OW26215   3.576   3.887   4.759 -0.3946 -0.2222  0.0370
 4918SOL    HW126216   3.549   3.931   4.678 -1.3750  0.0236  0.5047
 4918SOL    HW226217   3.511   3.819   4.774  0.4501 -1.2960 -1.1361
 4919SOL     OW26218   3.054   3.317   8.925 -0.4041  0.2767  0.0049
 4919SOL    HW126219   3.144   3.329   8.955 -0.5692 -0.5157  0.8132
 4919SOL    HW226220   3.030   3.236   8.970  0.5447 -0.0895 -0.1559
 4920SOL     OW26221   3.291   2.569   5.670 -0.1619  0.5078  0.0972
 4920SOL    HW126222   3.257   2.643   5.720  2.5695  1.1475  1.0131
 4920SOL    HW226223   3.213   2.526   5.635 -0.0741  1.1235 -0.8801
 4921SOL     OW26224   3.246   1.399   2.621  0.3750  0.1507 -0.1617
 4921SOL    HW126225   3.278   1.444   2.543  1.5654 -0.8644 -0.2599
 4921SOL    HW226226   3.254   1.312   2.581  0.0258 -0.0092  0.1090
 4922SOL     OW26227   1.374   1.467   5.281  0.0137  0.1257 -0.0711
 4922SOL    HW126228   1.392   1.470   5.375  2.9070 -0.8330 -0.6144
 4922SOL    HW226229   1.293   1.517   5.269  1.2780  2.8169  2.5572
 4923SOL     OW26230   4.387   2.584  12.314  0.2637  0.0280  0.1844
 4923SOL    HW126231   4.468   2.623  12.280 -1.0210  3.0669  0.5558
 4923SOL    HW226232   4.388   2.494  12.283  0.4252 -0.1427  0.6907
 4924SOL     OW26233   0.153   2.340  16.714  0.4270  0.0216  0.3768
 4924SOL    HW126234   0.121   2.416  16.667 -0.4382  0.3019  1.4218
 4924SOL    HW226235   0.128   2.368  16.802  0.5489 -0.2734  0.5056
 4925SOL     OW26236   2.511   1.426   0.912  0.0895  0.2885  0.2276
 4925SOL    HW126237   2.446   1.468   0.855 -1.1032 -1.8910 -0.0221
 4925SOL    HW226238   2.571   1.499   0.918  1.4689 -0.8933  0.6997
 4926SOL     OW26239   2.334   1.334   5.681  0.1509 -0.2473 -0.0751
 4926SOL    HW126240   2.398   1.263   5.672 -0.3072 -0.7172  0.3541
 4926SOL    HW226241   2.386   1.384   5.743  1.0037 -0.0499 -0.9494
 4927SOL     OW26242   3.922   2.476   4.704  0.4707 -0.3535 -0.0734
 4927SOL    HW126243   3.888   2.441   4.786  0.8989 -2.8710 -0.9735
 4927SOL    HW226244   3.944   2.566   4.729  3.0848 -1.1496  0.5323
 4928SOL     OW26245   3.998   2.108   5.456  0.3257  0.2102  0.5133
 4928SOL    HW126246   4.015   2.110   5.550  1.4301  1.7710  0.2822
 4928SOL    HW226247   4.078   2.072   5.417  1.4975 -0.6895  3.7688
 4929SOL     OW26248   3.356   3.421   3.559 -0.0793  0.0765 -0.3820
 4929SOL    HW126249   3.422   3.364   3.519 -1.5441 -0.4746 -2.0753
 4929SOL    HW226250   3.339   3.487   3.492 -0.5557 -1.1262 -1.4497
 4930SOL     OW26251   4.240   2.110  13.152  0.2505 -0.4526 -0.4659
 4930SOL    HW126252   4.260   2.042  13.088 -1.8529 -2.1953  0.7177
 4930SOL    HW226253   4.195   2.048  13.210  1.5504  0.6257  1.6801
 4931SOL     OW26254   0.787   0.189   3.602  0.3190 -0.6414 -0.0080
 4931SOL    HW126255   0.775   0.108   3.651 -2.3624  0.8330  1.7426
 4931SOL    HW226256   0.832   0.244   3.666  0.9658 -0.0181 -0.9984
 4932SOL     OW26257   3.812   4.264  15.066 -0.5485 -1.1099 -0.3955
 4932SOL    HW126258   3.794   4.184  15.116  0.5800 -0.9289  0.2860
 4932SOL    HW226259   3.833   4.231  14.979 -2.2821  1.9160 -1.9372
 4933SOL     OW26260   1.905   2.304   4.718 -0.1378 -0.3194  0.1243
 4933SOL    HW126261   1.894   2.307   4.814 -0.9714 -1.0343  0.0508
 4933SOL    HW226262   1.838   2.365   4.687  0.5210  0.3681  0.0541
 4934SOL     OW26263   2.674   2.384   8.107  0.3196  0.0580  0.6224
 4934SOL    HW126264   2.693   2.326   8.034 -1.3437  0.0138  0.2230
 4934SOL    HW226265   2.598   2.341   8.147 -1.0073  2.2823  0.4830
 4935SOL     OW26266   2.923   2.964  11.548 -0.1729 -0.3260  0.0643
 4935SOL    HW126267   2.923   2.987  11.455  0.8081 -1.7608 -0.2802
 4935SOL    HW226268   2.893   2.874  11.551  0.7471 -0.6603 -0.7170
 4936SOL     OW26269   4.171   3.027   2.949  0.0160 -0.5997  0.1713
 4936SOL    HW126270   4.149   2.973   2.873 -1.1471  0.4842 -0.2679
 4936SOL    HW226271   4.232   2.973   2.999  0.7624  1.4278  1.4671
 4937SOL     OW26272   1.615   3.569   0.622 -0.0031 -0.2411  0.5835
 4937SOL    HW126273   1.539   3.604   0.575 -0.9873  0.9185  3.0103
 4937SOL    HW226274   1.631   3.632   0.692 -1.2390 -2.2364  2.6454
 4938SOL     OW26275   2.035   1.891   7.269 -0.2443 -0.3331 -0.3059
 4938SOL    HW126276   2.091   1.935   7.334  0.5858 -0.1168 -1.1623
 4938SOL    HW226277   1.961   1.951   7.267 -0.2588 -0.3710 -0.9035
 4939SOL     OW26278   2.594   3.840   0.900 -0.3481 -0.7373  0.1232
 4939SOL    HW126279   2.584   3.878   0.813 -0.0529  1.6977  1.1597
 4939SOL    HW226280   2.659   3.900   0.937  1.2624 -1.4033 -1.6351
 4940SOL     OW26281   4.602   3.581   8.607  0.3672 -0.0967 -0.3878
 4940SOL    HW126282   4.598   3.641   8.682 -1.7871 -0.9466  0.1621
 4940SOL    HW226283   4.615   3.494   8.645 -1.2740 -0.9121 -1.7378
 4941SOL     OW26284   0.462   0.823   9.185 -0.1356  0.3862 -0.2446
 4941SOL    HW126285   0.373   0.828   9.220  0.5053  0.3844  1.3869
 4941SOL    HW226286   0.446   0.861   9.098 -2.6194 -0.0469  0.0213
 4942SOL     OW26287   1.579   2.730   2.988 -0.7121  0.4556 -0.6778
 4942SOL    HW126288   1.555   2.808   2.937  0.4207 -0.3799 -2.4942
 4942SOL    HW226289   1.495   2.705   3.026 -0.1842 -0.4616 -0.1255
 4943SOL     OW26290   2.122   1.665   7.731 -0.1966 -0.2334  0.0662
 4943SOL    HW126291   2.132   1.608   7.655 -0.2342 -1.0614  0.6875
 4943SOL    HW226292   2.208   1.686   7.768 -0.4948 -0.6616  0.9968
 4944SOL     OW26293   0.588   2.760   5.488 -0.3998 -0.0229  0.3631
 4944SOL    HW126294   0.633   2.772   5.571  0.7011  1.5123 -0.4450
 4944SOL    HW226295   0.523   2.697   5.517 -0.2213  0.0162  0.8398
 4945SOL     OW26296   0.249   2.987   8.526  0.2030 -0.6171  0.4160
 4945SOL    HW126297   0.319   2.952   8.471  1.9242  0.1554  2.0940
 4945SOL    HW226298   0.167   2.950   8.494 -0.2069  0.2603  0.4447
 4946SOL     OW26299   3.635   2.071   4.661 -0.2650 -0.1738  0.4213
 4946SOL    HW126300   3.610   1.982   4.636 -0.6461 -0.0889  0.4966
 4946SOL    HW226301   3.555   2.122   4.675  0.3402  0.5114  1.3262
 4947SOL     OW26302   1.969   2.743   5.760 -0.1374  0.1826 -0.2886
 4947SOL    HW126303   1.979   2.682   5.833  1.8641 -0.9993 -1.5405
 4947SOL    HW226304   1.917   2.686   5.703 -0.2112 -0.7938  0.7662
 4948SOL     OW26305   1.839   2.008   4.693  0.8765 -0.2838  0.2458
 4948SOL    HW126306   1.763   2.012   4.635  0.9919 -1.4149  0.0158
 4948SOL    HW226307   1.852   2.098   4.722 -2.0033  0.6441 -1.3531
 4949SOL     OW26308   1.736   3.172  11.325  0.2603  0.1218 -0.2062
 4949SOL    HW126309   1.676   3.098  11.330  3.4573 -2.4270  0.6929
 4949SOL    HW226310   1.748   3.201  11.235  0.8322 -0.4769 -0.3197
 4950SOL     OW26311   0.306   4.665   5.434 -0.4160 -0.3994 -0.0888
 4950SOL    HW126312   0.313   4.569   5.430 -1.8724 -0.4574 -1.6962
 4950SOL    HW226313   0.222   4.666   5.479  0.2683 -2.5246  1.2504
 4951SOL     OW26314   1.328   1.247   5.914 -0.0389 -0.0972 -0.1428
 4951SOL    HW126315   1.371   1.202   5.842  1.4426 -2.8121  2.4433
 4951SOL    HW226316   1.397   1.311   5.932  0.5742 -0.1437 -2.3220
 4952SOL     OW26317   1.410   0.007   6.423  0.0636 -0.0195 -0.2160
 4952SOL    HW126318   1.440   4.678   6.350  2.1065  1.0039 -0.1399
 4952SOL    HW226319   1.493   0.016   6.471 -1.5152 -2.2549  2.9198
 4953SOL     OW26320   0.361   2.558   3.112  0.2000  0.5291  0.4893
 4953SOL    HW126321   0.411   2.528   3.036 -1.8453  0.8514 -0.9801
 4953SOL    HW226322   0.392   2.648   3.122  0.0170  0.5523  0.8388
 4954SOL     OW26323   4.183   0.624   5.975  0.4269  0.0819 -0.0496
 4954SOL    HW126324   4.241   0.699   5.981 -0.1912  0.5073  0.6790
 4954SOL    HW226325   4.100   0.653   6.013  1.9764  3.6110  0.6406
 4955SOL     OW26326   3.121   2.885   1.350 -0.2295  0.0741  0.5477
 4955SOL    HW126327   3.111   2.850   1.261 -1.1200  2.0110 -0.1079
 4955SOL    HW226328   3.198   2.942   1.353 -0.5582  0.5691 -0.5339
 4956SOL     OW26329   2.427   1.882   5.469  0.0653 -0.0637  0.1521
 4956SOL    HW126330   2.345   1.860   5.512  0.6568 -2.9328 -0.1795
 4956SOL    HW226331   2.431   1.977   5.485  1.5328 -0.0948 -0.0483
 4957SOL     OW26332   1.572   3.615  10.829 -0.0279 -0.1095 -0.1874
 4957SOL    HW126333   1.512   3.624  10.904  0.6109 -0.0275  0.3135
 4957SOL    HW226334   1.652   3.645  10.872 -0.6954  2.8098 -0.9946
 4958SOL     OW26335   0.238   2.070   4.465 -0.6302 -0.2534 -0.6260
 4958SOL    HW126336   0.262   1.977   4.465  0.8027  0.1298 -0.0959
 4958SOL    HW226337   0.252   2.082   4.559  2.9317  2.7433 -1.5767
 4959SOL     OW26338   3.401   0.995   6.339  0.5774 -0.0590 -0.0382
 4959SOL    HW126339   3.459   1.065   6.368  0.9978  0.0187 -1.0602
 4959SOL    HW226340   3.344   1.054   6.290  0.7700 -0.5381 -0.8465
 4960SOL     OW26341   1.840   1.860   5.495  0.0658  0.5304  0.0233
 4960SOL    HW126342   1.770   1.923   5.509 -0.1348  0.0075  1.3227
 4960SOL    HW226343   1.903   1.925   5.463 -1.0354  1.0242 -1.1367
 4961SOL     OW26344   1.143   2.381   6.916  0.2545 -0.4808  0.2623
 4961SOL    HW126345   1.080   2.448   6.944 -0.1175 -0.9793  0.6471
 4961SOL    HW226346   1.178   2.429   6.841  1.1862  0.6895  1.4422
 4962SOL     OW26347   4.433   0.392  11.491  0.2177 -0.2725 -0.2322
 4962SOL    HW126348   4.430   0.435  11.406  1.0410 -0.6228 -0.4363
 4962SOL    HW226349   4.486   0.459  11.534 -0.4747 -0.4102  0.8319
 4963SOL     OW26350   4.476   3.776   0.224  0.4131  0.2799 -0.7674
 4963SOL    HW126351   4.518   3.860   0.240 -1.9655  1.3678 -0.2091
 4963SOL    HW226352   4.527   3.742   0.150  0.8841 -0.2434 -0.1987
 4964SOL     OW26353   0.043   2.666   7.139 -0.5381 -0.1580 -0.2348
 4964SOL    HW126354   0.129   2.644   7.104 -0.0515  0.0673  0.8003
 4964SOL    HW226355   4.721   2.705   7.066  0.1561 -2.6632 -1.9952
 4965SOL     OW26356   1.665   0.952   4.612 -0.0480  0.1312  0.2407
 4965SOL    HW126357   1.682   0.950   4.518 -0.5069  2.5736  0.1211
 4965SOL    HW226358   1.673   1.044   4.635  1.7276  0.1359 -0.4119
 4966SOL     OW26359   0.204   4.209   0.642  0.2836  0.2400 -0.2054
 4966SOL    HW126360   0.160   4.161   0.572 -1.8149 -0.0309  1.3066
 4966SOL    HW226361   0.288   4.164   0.652  0.3926  0.2115 -1.1834
 4967SOL     OW26362   4.277   1.141   6.048 -0.2413 -0.4116 -0.5050
 4967SOL    HW126363   4.327   1.207   5.999  0.6701 -0.7137  0.0255
 4967SOL    HW226364   4.276   1.174   6.138  0.5968  0.2405 -0.7373
 4968SOL     OW26365   2.027   4.213   3.421  0.4093 -0.0644  0.1972
 4968SOL    HW126366   2.116   4.181   3.433 -0.5703 -3.1182 -0.7412
 4968SOL    HW226367   1.998   4.225   3.511  0.0623  0.5830  0.0013
 4969SOL     OW26368   3.422   0.163   8.785 -0.2988  0.5649  0.5880
 4969SOL    HW126369   3.506   0.133   8.750 -0.6658 -1.1252  1.1192
 4969SOL    HW226370   3.401   0.222   8.713 -2.9178 -0.9913  0.0769
 4970SOL     OW26371   1.638   0.040   3.008 -0.0955 -0.6483 -0.0386
 4970SOL    HW126372   1.564   0.061   2.952  1.4504  0.1729 -1.7761
 4970SOL    HW226373   1.689   4.709   2.948  1.7154  0.4609  0.4472
 4971SOL     OW26374   1.406   1.012   3.092  0.3892  0.1227 -0.6197
 4971SOL    HW126375   1.416   0.996   2.998  0.3598 -0.7864 -0.4638
 4971SOL    HW226376   1.346   1.087   3.091 -0.8937 -0.9135 -1.4949
 4972SOL     OW26377   1.910   0.465  16.414  0.0890  0.2743 -0.7787
 4972SOL    HW126378   1.825   0.437  16.380 -1.4602  1.3403  2.2572
 4972SOL    HW226379   1.960   0.385  16.400  1.3560  1.0608 -0.7610
 4973SOL     OW26380   3.501   3.965   1.945  0.1197 -0.1184 -0.2657
 4973SOL    HW126381   3.562   3.946   1.873 -0.5137  0.2689 -0.8990
 4973SOL    HW226382   3.566   4.004   2.004  1.3203 -1.7069 -0.5416
 4974SOL     OW26383   3.954   1.549   2.989  0.5095 -0.2604 -0.2548
 4974SOL    HW126384   3.913   1.467   2.962 -3.3425  2.2960 -2.0451
 4974SOL    HW226385   3.892   1.620   2.973 -0.2135 -0.6107  1.0149
 4975SOL     OW26386   4.563   4.312   0.133  0.9115  0.0475 -0.4799
 4975SOL    HW126387   4.596   4.400   0.151 -4.7749  1.3876  3.4096
 4975SOL    HW226388   4.578   4.274   0.220 -0.9950 -1.3473 -0.7595
 4976SOL     OW26389   2.189   0.541  12.807  0.0780 -0.5271  0.3815
 4976SOL    HW126390   2.200   0.635  12.791  0.5032 -0.5144  0.7551
 4976SOL    HW226391   2.248   0.520  12.879 -0.3889  0.2660  1.0019
 4977SOL     OW26392   1.879   4.695   7.099  0.6607  0.2881 -0.1787
 4977SOL    HW126393   1.881   0.047   7.156  1.2351  1.1612 -1.3828
 4977SOL    HW226394   1.791   4.663   7.119  0.4749 -0.3330 -1.9957
 4978SOL     OW26395   4.685   4.042   5.472  0.0282 -0.2501  0.6082
 4978SOL    HW126396   4.680   4.067   5.564  0.2315 -2.2763  1.1817
 4978SOL    HW226397   4.698   3.947   5.479 -0.9800 -0.5828 -1.8012
 4979SOL     OW26398   4.587   4.450   9.650 -0.2153 -0.3684  0.2354
 4979SOL    HW126399   4.592   4.502   9.730 -1.4362 -0.2919  0.2665
 4979SOL    HW226400   4.515   4.389   9.667  2.2487 -2.8832  1.4899
 4980SOL     OW26401   2.244   1.547   3.225 -0.1767 -0.4711 -0.3226
 4980SOL    HW126402   2.294   1.629   3.223 -1.4624  0.3445  1.6444
 4980SOL    HW226403   2.149   1.559   3.230 -0.0580 -0.8870  2.5152
 4981SOL     OW26404   1.261   2.475   0.954 -0.1501  0.2427  0.1988
 4981SOL    HW126405   1.332   2.539   0.943  0.8620 -0.4328  2.7955
 4981SOL    HW226406   1.205   2.532   1.007  0.0233 -0.1032  0.7572
 4982SOL     OW26407   3.337   0.352   8.280 -0.3904  0.0412  0.1562
 4982SOL    HW126408   3.409   0.415   8.281 -1.2486  1.0285 -0.6558
 4982SOL    HW226409   3.270   0.399   8.330  1.5891  1.5419  1.4161
 4983SOL     OW26410   1.893   3.956   6.850 -0.3581  0.0827 -0.2900
 4983SOL    HW126411   1.943   3.885   6.809  0.3617  0.3425  0.1310
 4983SOL    HW226412   1.826   3.966   6.782 -1.3183 -2.1155  0.3373
 4984SOL     OW26413   0.806   4.274   2.380 -0.5383  0.1634 -0.5594
 4984SOL    HW126414   0.822   4.368   2.377 -0.0562  0.0555 -1.2628
 4984SOL    HW226415   0.763   4.261   2.465  0.6918 -0.2933 -0.0053
 4985SOL     OW26416   1.421   3.536   3.579  0.1630 -0.7804 -0.0047
 4985SOL    HW126417   1.480   3.461   3.588  1.4118  0.2046 -0.0111
 4985SOL    HW226418   1.334   3.495   3.580 -0.6625  0.9498 -0.6343
 4986SOL     OW26419   2.276   3.006   3.409 -0.6436  0.4711 -0.1507
 4986SOL    HW126420   2.193   3.014   3.362 -1.5387 -2.0595  1.0203
 4986SOL    HW226421   2.299   2.913   3.402 -2.4119  0.0274 -0.1122
 4987SOL     OW26422   0.542   0.688   6.132  0.0461  1.0442 -0.1801
 4987SOL    HW126423   0.575   0.748   6.199  1.1167  0.9047 -0.5821
 4987SOL    HW226424   0.457   0.673   6.174 -0.6418  0.3012 -1.8317
 4988SOL     OW26425   0.982   0.630   9.043 -0.0963 -0.0726  0.0871
 4988SOL    HW126426   1.065   0.675   9.032  0.2239 -0.2522  1.6697
 4988SOL    HW226427   0.974   0.631   9.139  1.4132  4.0501  0.1638
 4989SOL     OW26428   4.517   3.024   3.311 -0.1141  0.0879  0.8271
 4989SOL    HW126429   4.523   3.119   3.303 -0.3373  0.1220  1.0559
 4989SOL    HW226430   4.556   2.984   3.233  0.8714 -0.5757  1.6636
 4990SOL     OW26431   2.737   1.404   2.911  0.0334 -0.6770  0.1964
 4990SOL    HW126432   2.805   1.446   2.963 -0.9161  2.2286 -0.8641
 4990SOL    HW226433   2.658   1.451   2.940  0.1500 -0.1094 -0.3906
 4991SOL     OW26434   3.069   0.958  15.249  0.1105  0.3535  0.1770
 4991SOL    HW126435   3.036   0.874  15.282  1.0890  0.2260  0.8078
 4991SOL    HW226436   3.111   0.922  15.171  0.0225 -1.0814  0.8015
 4992SOL     OW26437   2.920   4.136   7.616 -0.4404 -0.2361 -0.1756
 4992SOL    HW126438   2.914   4.081   7.538 -0.6937  1.0940 -1.0796
 4992SOL    HW226439   2.996   4.089   7.651 -0.3084  1.5741  1.9481
 4993SOL     OW26440   3.117   4.472   5.081 -0.0312 -0.2303 -0.2329
 4993SOL    HW126441   3.080   4.400   5.029 -0.7999  0.1427 -0.2108
 4993SOL    HW226442   3.049   4.535   5.057 -0.1533 -0.6449 -1.0010
 4994SOL     OW26443   1.228   1.701   4.995 -0.3235  0.4391  0.1465
 4994SOL    HW126444   1.193   1.786   5.021  0.2352  0.1365  1.9261
 4994SOL    HW226445   1.221   1.652   5.077 -2.2032  0.6894  0.1243
 4995SOL     OW26446   0.196   3.414   7.455 -0.3277 -0.8882  0.5385
 4995SOL    HW126447   0.258   3.454   7.393  1.2387 -3.1186  0.6797
 4995SOL    HW226448   0.111   3.447   7.427  0.3085 -0.6559 -1.1665
 4996SOL     OW26449   4.131   3.052   2.281  0.0539 -0.1509 -0.1558
 4996SOL    HW126450   4.182   3.122   2.322 -0.1456  0.8575 -1.6610
 4996SOL    HW226451   4.083   3.024   2.359  0.8015  0.8104  0.6419
 4997SOL     OW26452   3.872   1.133   1.015 -0.4834 -0.1996  0.5068
 4997SOL    HW126453   3.851   1.081   1.092 -1.0298 -0.2388  0.3267
 4997SOL    HW226454   3.946   1.087   0.975  1.2757  1.0120  2.3107
 4998SOL     OW26455   1.424   1.528   9.172 -0.6763 -0.5278  0.1062
 4998SOL    HW126456   1.422   1.585   9.095  1.9267 -0.1343  0.3202
 4998SOL    HW226457   1.501   1.565   9.216 -1.1731 -0.1018  0.6133
 4999SOL     OW26458   4.458   0.047   1.980 -0.9172 -0.8673  0.1288
 4999SOL    HW126459   4.451   0.074   2.071 -0.5986  0.8625 -0.3591
 4999SOL    HW226460   4.405   0.114   1.937 -1.1793  0.4414  2.4944
 5000SOL     OW26461   0.654   0.533   3.637 -0.6634 -0.0642  0.3587
 5000SOL    HW126462   0.627   0.517   3.547  1.3673  0.8268 -0.4121
 5000SOL    HW226463   0.584   0.495   3.690 -1.3484  0.4054 -0.2230
 5001SOL     OW26464   4.425   4.661   4.556  0.1978  0.4959 -0.3409
 5001SOL    HW126465   4.374   4.593   4.599 -1.2398  0.5899 -1.8839
 5001SOL    HW226466   4.358   4.719   4.520 -0.7188 -0.7693 -0.6636
 5002SOL     OW26467   1.317   2.679  17.436  0.0715 -0.4204 -0.0815
 5002SOL    HW126468   1.357   2.764  17.417 -0.2576  0.7590  4.6582
 5002SOL    HW226469   1.345   2.666  17.526 -0.7382  0.3143  0.2720
 5003SOL     OW26470   2.993   1.884   1.028  0.2382  0.0183  0.0492
 5003SOL    HW126471   3.019   1.794   1.011 -3.1591 -1.0502  0.5378
 5003SOL    HW226472   2.985   1.890   1.123  0.6985  1.6024 -0.0118
 5004SOL     OW26473   2.405   0.832   4.091 -0.5437 -0.0211  0.4730
 5004SOL    HW126474   2.354   0.890   4.035  0.3347  0.4966  0.2070
 5004SOL    HW226475   2.379   0.747   4.055  0.4622 -0.1575  0.0845
 5005SOL     OW26476   3.408   2.006   4.872  0.7112  0.0623  0.4226
 5005SOL    HW126477   3.406   1.947   4.797  0.9130  1.4240 -0.6529
 5005SOL    HW226478   3.314   1.999   4.889  0.1425  1.0687 -2.2975
 5006SOL     OW26479   1.246   4.621   4.225  0.0512  0.2553  0.2030
 5006SOL    HW126480   1.284   4.706   4.247  2.8131 -1.3196  1.4910
 5006SOL    HW226481   1.153   4.627   4.245 -0.2274  2.1986 -1.5985
 5007SOL     OW26482   3.920   2.226   7.907  0.4245 -0.2769  0.9092
 5007SOL    HW126483   3.888   2.197   7.822 -1.5335  0.1044  1.5154
 5007SOL    HW226484   3.856   2.294   7.926 -0.3776 -0.7670 -0.0509
 5008SOL     OW26485   1.906   4.278   8.976  0.3678  0.5957 -0.0046
 5008SOL    HW126486   1.973   4.334   8.937  0.2835  0.5056 -0.2781
 5008SOL    HW226487   1.923   4.202   8.921 -2.9663  0.2704 -0.6018
 5009SOL     OW26488   2.032   2.376   6.802  0.0036 -0.2522  0.3340
 5009SOL    HW126489   2.117   2.397   6.763 -0.2479  0.2565  0.0623
 5009SOL    HW226490   1.974   2.440   6.761  0.7005  0.2832  0.1730
 5010SOL     OW26491   4.699   2.402  16.371 -0.0845 -0.1536 -0.1071
 5010SOL    HW126492   0.047   2.343  16.391 -0.1016 -0.9375 -2.2499
 5010SOL    HW226493   0.003   2.478  16.420 -1.5827 -0.5247  1.3480
 5011SOL     OW26494   0.945   1.903  11.133  0.4044 -0.8199 -0.0455
 5011SOL    HW126495   1.012   1.892  11.066  1.6424 -0.3554  1.1336
 5011SOL    HW226496   0.864   1.892  11.083 -0.1412  0.7100  0.4993
 5012SOL     OW26497   3.267   3.560   4.921 -0.9245  0.5642  0.1397
 5012SOL    HW126498   3.339   3.527   4.867 -1.5738  0.2908 -0.5589
 5012SOL    HW226499   3.208   3.591   4.853 -0.2559  2.1266  0.2760
 5013SOL     OW26500   3.807   2.711  12.591 -0.1803 -0.7790  0.3608
 5013SOL    HW126501   3.782   2.626  12.628  0.3019 -0.9511  0.2850
 5013SOL    HW226502   3.770   2.772  12.655  0.9246 -1.6856  1.8290
 5014SOL     OW26503   3.697   1.474   6.528 -0.5862 -0.3363 -0.1199
 5014SOL    HW126504   3.605   1.499   6.526 -1.4360 -3.0043  4.5342
 5014SOL    HW226505   3.689   1.380   6.547  0.7796 -0.0644  1.8606
 5015SOL     OW26506   1.711   3.339   1.194 -0.2615 -0.3595  0.2464
 5015SOL    HW126507   1.720   3.372   1.104 -1.2294 -1.0028 -0.0867
 5015SOL    HW226508   1.617   3.354   1.206 -0.7375 -2.9522 -0.2878
 5016SOL     OW26509   2.819   3.308   9.493  0.0194  0.7041 -0.2472
 5016SOL    HW126510   2.887   3.364   9.457  0.3649  0.5250  0.1340
 5016SOL    HW226511   2.739   3.346   9.456  0.2064  1.3119 -0.0242
 5017SOL     OW26512   3.500   1.673   3.228  0.7666  0.4213 -0.1433
 5017SOL    HW126513   3.419   1.633   3.197 -0.1693  1.5050  0.9471
 5017SOL    HW226514   3.559   1.643   3.158 -1.2640 -3.1489 -0.3323
 5018SOL     OW26515   0.039   3.047   4.794 -0.1003 -0.0237 -0.5670
 5018SOL    HW126516   0.022   3.069   4.702  1.7185  1.3539 -0.5795
 5018SOL    HW226517   4.700   3.101   4.840  1.4237  0.6444  0.7687
 5019SOL     OW26518   1.260   1.779  11.479  0.5149  0.1829  0.5199
 5019SOL    HW126519   1.355   1.791  11.487  0.8181 -1.0230 -1.2962
 5019SOL    HW226520   1.243   1.747  11.391  0.5830  1.0397  0.1939
 5020SOL     OW26521   2.275   2.049   0.527 -0.1344 -0.1907  0.0447
 5020SOL    HW126522   2.262   2.017   0.616 -1.2749  0.4191  0.0951
 5020SOL    HW226523   2.283   2.145   0.530  2.0511 -0.4728  2.7496
 5021SOL     OW26524   2.792   4.333   5.363 -0.3877 -0.3413 -0.2507
 5021SOL    HW126525   2.876   4.371   5.335 -1.2360  1.7310 -0.0316
 5021SOL    HW226526   2.772   4.389   5.438  1.8222 -0.2665  0.2869
 5022SOL     OW26527   3.703   2.246   8.944  0.2608  0.1757 -0.0757
 5022SOL    HW126528   3.743   2.171   8.987 -0.0692  1.5644  2.7277
 5022SOL    HW226529   3.767   2.266   8.876  1.1871  0.4056  0.8621
 5023SOL     OW26530   0.048   0.552   7.189  0.1053  0.4417 -0.3056
 5023SOL    HW126531   0.108   0.576   7.260  0.5197  0.4665 -0.6632
 5023SOL    HW226532   4.723   0.478   7.222  2.3218 -0.2676  1.5004
 5024SOL     OW26533   0.428   2.459   5.202 -0.3833  0.4009  0.2049
 5024SOL    HW126534   0.521   2.481   5.196  0.0682 -1.6962 -0.3099
 5024SOL    HW226535   0.439   2.377   5.156  1.2511 -0.0159  1.3149
 5025SOL     OW26536   2.396   0.554   2.789  0.0980  0.3133  0.1731
 5025SOL    HW126537   2.464   0.610   2.825 -1.2555 -0.2338  3.5449
 5025SOL    HW226538   2.367   0.508   2.868 -1.0617  0.0779 -0.3887
 5026SOL     OW26539   3.844   2.164   3.674  0.0269  0.5677 -0.0106
 5026SOL    HW126540   3.760   2.180   3.632  0.8520 -1.2866 -2.4165
 5026SOL    HW226541   3.898   2.236   3.644  2.0236 -1.5821 -1.5964
 5027SOL     OW26542   1.808   1.556   8.203 -0.6015  0.0712  0.3586
 5027SOL    HW126543   1.840   1.561   8.293 -0.4699 -1.7900  0.4021
 5027SOL    HW226544   1.841   1.469   8.180 -2.9261 -0.6286 -0.3461
 5028SOL     OW26545   3.907   3.869  12.262  0.6870 -0.2951  0.0651
 5028SOL    HW126546   3.980   3.835  12.209  0.8233 -2.5201  1.7063
 5028SOL    HW226547   3.905   3.802  12.330 -2.9966 -0.9269 -0.6502
 5029SOL     OW26548   4.091   3.332   7.621 -0.2676  0.0884 -0.2517
 5029SOL    HW126549   4.007   3.335   7.666  2.1129 -1.3075  4.2150
 5029SOL    HW226550   4.159   3.351   7.685  2.9771  0.6399 -3.9001
 5030SOL     OW26551   1.344   1.896   0.954  0.2815  0.0130 -0.5394
 5030SOL    HW126552   1.257   1.935   0.949 -0.0553 -0.7187 -0.4435
 5030SOL    HW226553   1.315   1.807   0.933 -2.0892  0.9103 -0.9537
 5031SOL     OW26554   4.532   3.339   4.682 -0.2104  0.4687 -0.0962
 5031SOL    HW126555   4.599   3.391   4.726 -2.3326 -1.5290  5.3859
 5031SOL    HW226556   4.464   3.341   4.749 -0.2409  2.2405 -0.1602
 5032SOL     OW26557   2.506   0.420   5.982  0.4904  0.1702  0.7306
 5032SOL    HW126558   2.548   0.496   6.024  2.0555  0.0403 -0.5952
 5032SOL    HW226559   2.583   0.364   5.969  0.8181  0.5834  0.8611
 5033SOL     OW26560   0.223   1.312  11.117 -0.6674  0.6252  0.3108
 5033SOL    HW126561   0.310   1.348  11.100 -0.5254 -0.2770 -0.8728
 5033SOL    HW226562   0.240   1.246  11.184  0.5852  1.6219  0.9790
 5034SOL     OW26563   2.579   2.631   5.319 -0.1668 -0.2704 -0.6957
 5034SOL    HW126564   2.522   2.646   5.395  0.2344  0.5453 -0.5601
 5034SOL    HW226565   2.592   2.715   5.275 -1.9203  1.1625  1.5370
 5035SOL     OW26566   3.623   1.758   8.687 -0.0541 -0.1148 -0.0888
 5035SOL    HW126567   3.695   1.815   8.659  1.3890 -2.4733 -1.1797
 5035SOL    HW226568   3.554   1.779   8.624 -0.7407 -0.6862  0.4734
 5036SOL     OW26569   1.694   2.975   3.177 -0.0355  0.6014  0.1753
 5036SOL    HW126570   1.694   2.880   3.163 -0.8885  0.9570 -2.1684
 5036SOL    HW226571   1.780   2.998   3.140  1.1722 -1.3561  1.7401
 5037SOL     OW26572   1.351   3.037  14.550  0.2225  0.2119  0.5153
 5037SOL    HW126573   1.405   3.113  14.572  2.2546 -1.7538  2.3656
 5037SOL    HW226574   1.349   2.991  14.634 -0.0894 -0.8035 -0.0456
 5038SOL     OW26575   4.142   3.459   0.406  0.6902  0.2244 -0.3227
 5038SOL    HW126576   4.198   3.524   0.449  1.3545 -1.2498  1.0637
 5038SOL    HW226577   4.066   3.480   0.460 -0.8604 -2.2546 -1.5543
 5039SOL     OW26578   3.090   3.933  14.718 -0.6126 -0.3008  0.3695
 5039SOL    HW126579   3.121   3.849  14.684  0.8275 -0.1799  1.3886
 5039SOL    HW226580   3.013   3.944  14.662  0.5046 -1.1273 -1.3027
 5040SOL     OW26581   4.545   3.435  12.001  0.2697 -0.5515 -0.1706
 5040SOL    HW126582   4.515   3.458  11.913  1.6656  3.6930  0.4573
 5040SOL    HW226583   4.525   3.341  12.001  1.4540 -0.8049 -2.0111
 5041SOL     OW26584   0.470   0.598  10.710  0.2945  0.1456 -0.0215
 5041SOL    HW126585   0.442   0.620  10.799  1.0657 -0.2974  0.3300
 5041SOL    HW226586   0.487   0.683  10.671 -0.4491  0.1968 -0.2313
 5042SOL     OW26587   3.205   1.118   3.807 -0.9028  0.2962  0.1883
 5042SOL    HW126588   3.123   1.137   3.762 -0.1738  0.7950 -0.9311
 5042SOL    HW226589   3.253   1.171   3.744 -1.7455  1.6346  0.6620
 5043SOL     OW26590   3.987   1.800   3.767 -0.5533  0.0568  1.0459
 5043SOL    HW126591   4.010   1.817   3.858  0.1450  0.7253  0.7504
 5043SOL    HW226592   3.913   1.740   3.778 -0.1012 -0.5000  1.0860
 5044SOL     OW26593   3.898   4.520   8.088  0.2617  0.3832 -0.8393
 5044SOL    HW126594   3.830   4.582   8.112  1.6556  0.3359  3.1481
 5044SOL    HW226595   3.849   4.440   8.067  1.2969 -0.4411 -0.1079
 5045SOL     OW26596   0.789   3.593  15.786  0.8627 -0.1302  0.6702
 5045SOL    HW126597   0.851   3.573  15.716  2.3184  0.1773  1.8802
 5045SOL    HW226598   0.850   3.579  15.859  0.9205  0.0053  0.6465
 5046SOL     OW26599   1.270   3.852  12.266 -0.5518  0.2709 -0.1699
 5046SOL    HW126600   1.214   3.901  12.326  1.2105  1.1512  0.7354
 5046SOL    HW226601   1.250   3.763  12.293  0.7064  0.5070  1.5167
 5047SOL     OW26602   1.592   3.736   5.487 -0.4808  0.1792 -0.3999
 5047SOL    HW126603   1.537   3.666   5.453  1.1879 -1.1337 -0.4202
 5047SOL    HW226604   1.673   3.732   5.436  0.5860  1.2225  1.2266
 5048SOL     OW26605   4.230   1.269  16.893  0.9049  0.0159  0.3540
 5048SOL    HW126606   4.308   1.289  16.945  0.7347 -0.0248  0.6227
 5048SOL    HW226607   4.241   1.176  16.875 -0.2748 -0.3929  1.6954
 5049SOL     OW26608   2.391   3.336  16.793 -0.5005  0.0722 -0.1120
 5049SOL    HW126609   2.361   3.410  16.740  1.9360  0.7954 -0.4925
 5049SOL    HW226610   2.447   3.388  16.851 -0.0420 -2.3469  1.6123
 5050SOL     OW26611   0.941   3.672   5.146  0.5477 -0.0482 -0.3221
 5050SOL    HW126612   0.847   3.660   5.141  0.4588  0.4866  0.0375
 5050SOL    HW226613   0.953   3.614   5.221 -5.4957  1.1941  1.6316
 5051SOL     OW26614   1.065   4.408  12.534  0.0982 -0.4971  0.3213
 5051SOL    HW126615   1.142   4.356  12.558  0.7381  0.4363  0.3324
 5051SOL    HW226616   1.037   4.435  12.621 -0.9487  0.7780 -0.4097
 5052SOL     OW26617   3.059   1.167   6.055  0.1487  0.3245 -0.6537
 5052SOL    HW126618   3.098   1.138   6.138  0.5891 -0.9624 -1.3217
 5052SOL    HW226619   3.014   1.245   6.088 -0.3349  1.0410 -2.9952
 5053SOL     OW26620   0.798   1.191  15.459  0.0663  0.5227  0.3226
 5053SOL    HW126621   0.865   1.236  15.407  0.2837 -1.5301 -1.1770
 5053SOL    HW226622   0.748   1.270  15.479 -1.1819  0.2383 -1.7367
 5054SOL     OW26623   4.092   1.266   3.156  0.0555 -0.4877  0.3451
 5054SOL    HW126624   4.128   1.341   3.204  0.7556  0.6517 -1.9344
 5054SOL    HW226625   4.063   1.199   3.218 -1.6172  0.5222  0.6693
 5055SOL     OW26626   0.158   3.398   4.025  0.3687 -0.3332  0.8430
 5055SOL    HW126627   0.110   3.477   3.998 -0.5418 -1.1638 -0.0086
 5055SOL    HW226628   0.240   3.422   3.982 -1.3508  1.6008 -1.3717
 5056SOL     OW26629   2.536   3.568   5.921 -0.2027  0.7568  0.1477
 5056SOL    HW126630   2.483   3.631   5.873  1.5212  0.9884 -1.4615
 5056SOL    HW226631   2.597   3.546   5.850 -0.6046  0.9061 -0.2424
 5057SOL     OW26632   0.982   1.268   0.787 -0.0559 -0.3318  0.0589
 5057SOL    HW126633   1.024   1.353   0.772  0.4338 -0.2972  1.6532
 5057SOL    HW226634   1.062   1.220   0.764 -0.2591 -0.0767 -1.2151
 5058SOL     OW26635   3.883   3.340   7.825 -0.1429 -0.3192 -0.1273
 5058SOL    HW126636   3.958   3.349   7.883  0.0698  2.0086 -0.7502
 5058SOL    HW226637   3.813   3.313   7.885 -2.1457 -0.3889 -2.4758
 5059SOL     OW26638   2.328   1.270  13.225  0.0682  0.2234 -0.1258
 5059SOL    HW126639   2.249   1.230  13.188  0.6427 -1.2996  0.3026
 5059SOL    HW226640   2.288   1.333  13.286 -0.3827 -0.8451  0.6689
 5060SOL     OW26641   3.089   0.895   6.805  0.1565 -0.1712  0.1553
 5060SOL    HW126642   3.046   0.816   6.773 -1.2492  0.2668  0.9687
 5060SOL    HW226643   3.162   0.854   6.852 -0.3084  0.6505  1.5697
 5061SOL     OW26644   1.387   1.392   6.902 -0.1411 -0.2894 -0.8292
 5061SOL    HW126645   1.330   1.334   6.952 -0.9293 -0.2703 -1.6943
 5061SOL    HW226646   1.422   1.445   6.973  0.9309 -0.7790 -0.9856
 5062SOL     OW26647   3.470   3.832   8.810 -0.1668 -0.0667  0.6629
 5062SOL    HW126648   3.471   3.738   8.825  1.9170 -0.2524 -0.6238
 5062SOL    HW226649   3.562   3.858   8.811 -0.6036  1.5312 -1.5799
 5063SOL     OW26650   3.976   4.256  13.673  0.1295  0.3710  0.6327
 5063SOL    HW126651   3.964   4.164  13.651 -0.9013  0.5808  0.3178
 5063SOL    HW226652   4.032   4.245  13.750  0.6609 -0.3552  0.1345
 5064SOL     OW26653   2.897   2.134   2.813 -0.5734  0.4002 -0.5716
 5064SOL    HW126654   2.940   2.219   2.820  0.4959 -0.1964  0.0189
 5064SOL    HW226655   2.938   2.092   2.739 -0.8942 -2.9095  1.1411
 5065SOL     OW26656   0.116   1.384   9.595 -0.1912 -0.1514  0.3151
 5065SOL    HW126657   0.086   1.294   9.580 -1.9564  0.7141 -1.2705
 5065SOL    HW226658   0.174   1.372   9.671  0.0943 -1.1399 -0.0555
 5066SOL     OW26659   2.961   2.735   8.717 -0.4612  0.3203 -0.1471
 5066SOL    HW126660   2.875   2.698   8.701  1.0680 -2.0822 -2.7679
 5066SOL    HW226661   2.990   2.679   8.790 -0.6373  0.0938 -0.2502
 5067SOL     OW26662   1.612   0.187  13.448 -0.1308  0.0414 -0.0203
 5067SOL    HW126663   1.620   0.092  13.442  1.2565  0.1391  0.2705
 5067SOL    HW226664   1.518   0.200  13.461 -0.1782 -0.2562 -0.0662
 5068SOL     OW26665   2.999   1.206  14.951  0.0677  0.3138 -0.0396
 5068SOL    HW126666   2.979   1.248  14.868 -0.3081  1.3941  0.5944
 5068SOL    HW226667   3.083   1.245  14.975  0.6982 -1.7831  1.1782
 5069SOL     OW26668   4.497   0.123   6.535 -0.4223  0.2834  0.2324
 5069SOL    HW126669   4.514   0.031   6.515 -0.7346  0.1137  0.7628
 5069SOL    HW226670   4.402   0.122   6.544 -0.3167 -2.8629  0.9718
 5070SOL     OW26671   0.718   3.465   2.527  0.2683  0.2312 -0.1358
 5070SOL    HW126672   0.671   3.403   2.583  0.1407  0.7948  0.3877
 5070SOL    HW226673   0.792   3.475   2.588  0.1947  1.5639 -0.2684
 5071SOL     OW26674   2.603   3.072   8.785 -0.4598 -0.1823 -0.2344
 5071SOL    HW126675   2.581   3.162   8.763  1.0565  0.3351  0.4267
 5071SOL    HW226676   2.621   3.024   8.704  0.6661 -0.4145  0.1599
 5072SOL     OW26677   0.681   2.526   3.093  0.1402 -0.0054 -0.4887
 5072SOL    HW126678   0.645   2.612   3.116  0.1085 -0.2144  0.2544
 5072SOL    HW226679   0.667   2.481   3.177 -2.0361  1.7271  0.0749
 5073SOL     OW26680   0.040   3.253   2.697  0.4793  0.3541 -0.2898
 5073SOL    HW126681   0.055   3.224   2.607 -0.8517 -0.7280 -0.1761
 5073SOL    HW226682   4.670   3.265   2.698  0.2272 -1.4799 -2.3865
 5074SOL     OW26683   1.862   3.985  16.901 -0.4314 -0.5700  0.1491
 5074SOL    HW126684   1.838   4.075  16.881 -1.0647 -0.6204  0.6654
 5074SOL    HW226685   1.847   3.939  16.819 -2.3495  1.3426 -0.5621
 5075SOL     OW26686   3.585   3.754   7.467  0.3902 -0.1798 -0.1195
 5075SOL    HW126687   3.515   3.701   7.428  0.6613 -1.4956  1.1628
 5075SOL    HW226688   3.640   3.788   7.396 -0.3447  0.1938 -0.5085
 5076SOL     OW26689   1.476   2.614   4.736 -0.1818 -0.5364  1.0027
 5076SOL    HW126690   1.394   2.565   4.733  0.2495 -1.2097  0.2212
 5076SOL    HW226691   1.542   2.558   4.695  0.8059  0.9837  0.5212
 5077SOL     OW26692   2.754   1.970  10.010  0.3672 -0.2423  0.6396
 5077SOL    HW126693   2.782   1.881   9.988 -1.4270 -0.7002  0.2147
 5077SOL    HW226694   2.661   1.957  10.028 -0.0953  2.1837  0.0181
 5078SOL     OW26695   4.409   2.392   8.423 -0.2294 -0.4474  0.2474
 5078SOL    HW126696   4.357   2.469   8.448 -1.8085 -0.6544 -2.4926
 5078SOL    HW226697   4.486   2.428   8.379 -1.3602 -0.5748 -1.8147
 5079SOL     OW26698   3.401   0.061   8.061 -0.2130 -0.0311  0.4473
 5079SOL    HW126699   3.340   0.064   7.987 -1.2244  1.4222  1.3586
 5079SOL    HW226700   3.431   4.696   8.046 -3.9949 -1.3897  1.0870
 5080SOL     OW26701   0.043   3.153   8.240 -0.3982 -0.3194 -0.4508
 5080SOL    HW126702   0.131   3.189   8.247 -0.1985 -0.7652 -0.6736
 5080SOL    HW226703   0.005   3.203   8.168  0.9760  2.9070  1.0938
 5081SOL     OW26704   3.575   1.795   3.856  0.3184  0.4391 -0.2602
 5081SOL    HW126705   3.621   1.848   3.922  0.6688  1.2888 -1.2001
 5081SOL    HW226706   3.526   1.856   3.802 -0.3251  1.4545  1.4735
 5082SOL     OW26707   2.299   0.105  11.120 -0.0953  0.2403  0.1793
 5082SOL    HW126708   2.223   0.072  11.072 -0.5459  2.8749 -0.8932
 5082SOL    HW226709   2.268   0.103  11.211  0.4581  0.0210  0.3608
 5083SOL     OW26710   3.875   4.643   6.197  0.0864 -0.5428 -0.4106
 5083SOL    HW126711   3.816   4.571   6.175 -0.0767 -0.8623  1.0324
 5083SOL    HW226712   3.829   4.702   6.137 -0.7933 -1.3811 -0.5681
 5084SOL     OW26713   4.086   2.057  12.880 -0.1194  0.6381 -0.9676
 5084SOL    HW126714   4.027   2.033  12.951  0.6252 -0.3336 -0.6901
 5084SOL    HW226715   4.160   1.998  12.892  0.3323  1.3854 -0.1187
 5085SOL     OW26716   1.824   0.101  14.819  0.2445  0.4958  0.3889
 5085SOL    HW126717   1.826   0.148  14.736  1.5329  0.1714  0.2366
 5085SOL    HW226718   1.874   0.165  14.870 -0.3369 -0.2000  1.8323
 5086SOL     OW26719   1.888   4.355  17.396  0.3839  0.0766  0.1448
 5086SOL    HW126720   1.846   4.270  17.383  0.9726 -0.4122  1.3883
 5086SOL    HW226721   1.976   4.321  17.414  0.2447  0.2683  1.1718
 5087SOL     OW26722   3.698   1.902   5.526 -0.2568 -0.4746 -0.2041
 5087SOL    HW126723   3.724   1.990   5.498 -1.8890  0.0090 -0.2498
 5087SOL    HW226724   3.645   1.906   5.606 -1.7288 -1.7762 -1.1146
 5088SOL     OW26725   3.761   1.954  15.655  0.6342  0.5146  0.2837
 5088SOL    HW126726   3.763   1.858  15.662 -1.7770  0.2426 -2.6306
 5088SOL    HW226727   3.714   1.965  15.572 -0.9536  0.4380  1.1564
 5089SOL     OW26728   3.603   3.945   5.431  0.2604  0.3213 -0.2956
 5089SOL    HW126729   3.665   4.016   5.450  0.7428 -0.3532  0.6411
 5089SOL    HW226730   3.640   3.902   5.354 -0.9791  0.1322 -0.7940
 5090SOL     OW26731   4.701   3.239   6.604 -0.4493  0.0620 -0.0468
 5090SOL    HW126732   4.660   3.155   6.622  0.1614 -0.6176 -1.8340
 5090SOL    HW226733   4.720   3.231   6.510  1.0208 -1.8276  0.4289
 5091SOL     OW26734   2.178   2.016  15.744 -0.2056  0.4053 -0.0494
 5091SOL    HW126735   2.172   2.028  15.649  0.3063  2.6049  0.2004
 5091SOL    HW226736   2.236   1.940  15.740 -1.6084 -0.5699 -2.1940
 5092SOL     OW26737   2.230   0.422   3.348  0.0209 -0.0685 -0.1815
 5092SOL    HW126738   2.142   0.426   3.311 -0.9809  1.3973  2.3205
 5092SOL    HW226739   2.229   0.517   3.362 -0.5546 -0.1053  0.0218
 5093SOL     OW26740   4.058   2.749   5.295  0.4413 -0.8010 -0.4147
 5093SOL    HW126741   4.081   2.682   5.360 -0.0099  0.7214  1.3318
 5093SOL    HW226742   4.137   2.803   5.303 -0.9473  1.5190 -2.4766
 5094SOL     OW26743   2.730   0.873   5.720  0.0704  0.3555 -0.4690
 5094SOL    HW126744   2.809   0.873   5.667  0.2318  1.0516 -0.2237
 5094SOL    HW226745   2.765   0.925   5.792 -1.6439 -1.0488  1.3943
 5095SOL     OW26746   1.770   0.844   1.905 -0.6528 -0.2190 -0.0284
 5095SOL    HW126747   1.858   0.805   1.915 -0.1166  0.7925 -0.8736
 5095SOL    HW226748   1.756   0.877   1.994  0.9343 -0.1713  0.2185
 5096SOL     OW26749   0.678   3.597   8.395  0.0472  0.4083  0.8713
 5096SOL    HW126750   0.647   3.651   8.323  1.8291 -0.2538 -0.3909
 5096SOL    HW226751   0.766   3.635   8.400 -0.3810  1.4166  0.7909
 5097SOL     OW26752   3.666   4.305   7.441 -0.3549  0.3062 -0.1395
 5097SOL    HW126753   3.734   4.279   7.503  0.4236  0.9886 -0.6877
 5097SOL    HW226754   3.596   4.325   7.503 -0.2841 -1.1512  0.4075
 5098SOL     OW26755   4.139   1.554   6.235  0.3038  0.4709 -0.1062
 5098SOL    HW126756   4.069   1.581   6.295  0.3441 -0.7556  0.5001
 5098SOL    HW226757   4.179   1.631   6.196  0.8425  0.0885 -0.3085
 5099SOL     OW26758   2.840   1.591  16.077  0.4013  0.6056 -0.0268
 5099SOL    HW126759   2.874   1.676  16.105  0.7965 -0.0298  1.3994
 5099SOL    HW226760   2.744   1.597  16.076  0.4034  0.6794  1.0656
 5100SOL     OW26761   1.437   2.362   2.649  0.3595  0.6472 -0.0017
 5100SOL    HW126762   1.390   2.341   2.730 -0.3627 -0.2087 -0.6402
 5100SOL    HW226763   1.489   2.440   2.669 -0.1957  1.1908 -0.6999
 5101SOL     OW26764   0.624   0.084   2.601 -0.4130 -0.2903  0.0746
 5101SOL    HW126765   0.707   0.050   2.569 -0.3369  0.5418 -0.5992
 5101SOL    HW226766   0.639   0.144   2.673  0.7260  0.9754 -1.2203
 5102SOL     OW26767   0.322   3.676   2.884 -0.4189 -0.2833  0.0491
 5102SOL    HW126768   0.353   3.594   2.922  0.5187  0.1421  0.1985
 5102SOL    HW226769   0.252   3.644   2.827 -1.9033  0.7474  1.2882
 5103SOL     OW26770   1.587   1.810  17.167 -0.9602  0.0232 -0.6041
 5103SOL    HW126771   1.556   1.858  17.243 -1.4024 -0.7818 -0.2762
 5103SOL    HW226772   1.513   1.754  17.141  0.2108 -0.0549 -3.8337
 5104SOL     OW26773   0.867   1.571   4.229 -0.3891  0.6025  0.0015
 5104SOL    HW126774   0.919   1.493   4.212 -0.2794  0.6708  0.0229
 5104SOL    HW226775   0.805   1.570   4.156 -0.9465 -0.9974  0.4873
 5105SOL     OW26776   3.188   1.693   8.891 -0.7659  0.2659  1.0475
 5105SOL    HW126777   3.116   1.753   8.872 -0.2368  0.2727 -0.8664
 5105SOL    HW226778   3.163   1.611   8.848 -3.0910  0.0602  2.7873
 5106SOL     OW26779   2.799   3.109   8.374  0.3356  0.1104 -0.2916
 5106SOL    HW126780   2.841   3.130   8.291  0.1362 -1.1830 -0.7316
 5106SOL    HW226781   2.706   3.120   8.352  0.3240  1.1348  0.3123
 5107SOL     OW26782   3.210   3.341  16.835  0.4719 -0.5363  0.3516
 5107SOL    HW126783   3.128   3.323  16.789  1.7510 -3.1879 -0.9004
 5107SOL    HW226784   3.255   3.392  16.769  2.5753 -3.4561 -0.4820
 5108SOL     OW26785   2.111   0.493   1.194  0.3791  0.1994 -0.0065
 5108SOL    HW126786   2.089   0.444   1.274 -1.3026 -1.0500 -1.2453
 5108SOL    HW226787   2.203   0.466   1.198 -0.2338 -1.6069  2.0692
 5109SOL     OW26788   0.356   4.455   0.663 -0.0269 -0.0238  0.2155
 5109SOL    HW126789   0.368   4.444   0.758 -1.2950 -2.2432  0.1166
 5109SOL    HW226790   0.290   4.387   0.651  0.8782 -1.2944  2.2970
 5110SOL     OW26791   0.517   1.985  16.768 -0.0157 -0.0072 -0.1753
 5110SOL    HW126792   0.562   2.049  16.713  0.8713  1.3071  2.0682
 5110SOL    HW226793   0.452   1.940  16.715  1.6090 -0.9503 -1.3611
 5111SOL     OW26794   1.119   2.484   0.265 -0.3859  0.5803 -0.4489
 5111SOL    HW126795   1.188   2.417   0.263 -0.0685  0.9999 -3.9436
 5111SOL    HW226796   1.060   2.439   0.325 -2.3901  0.8654 -2.2349
 5112SOL     OW26797   1.485   3.406   5.413  0.5958 -0.1792  0.3771
 5112SOL    HW126798   1.423   3.423   5.484  1.4170  1.7795  0.6388
 5112SOL    HW226799   1.559   3.377   5.466  1.2974  0.4701 -0.2544
 5113SOL     OW26800   0.236   4.493   8.485  0.2965 -0.4086 -0.1703
 5113SOL    HW126801   0.187   4.530   8.411 -1.3399 -0.1577  1.0429
 5113SOL    HW226802   0.190   4.538   8.556  0.0061  0.4126 -0.8781
 5114SOL     OW26803   4.082   1.237   2.245 -0.5077  0.6142  0.0977
 5114SOL    HW126804   4.066   1.190   2.163  0.1875 -2.4044  1.6956
 5114SOL    HW226805   4.142   1.309   2.225 -1.2146  0.4545 -2.6316
 5115SOL     OW26806   1.873   3.684   3.652 -0.0491 -0.2116 -0.3749
 5115SOL    HW126807   1.890   3.775   3.678  2.7271 -1.2956  1.5439
 5115SOL    HW226808   1.777   3.680   3.648 -0.2037  1.0366  2.5483
 5116SOL     OW26809   2.531   0.021   8.574 -0.0421 -0.4398  0.2843
 5116SOL    HW126810   2.496   0.019   8.663  0.0256 -1.4171  0.2812
 5116SOL    HW226811   2.568   0.110   8.575 -0.9827 -0.0618  1.6619
 5117SOL     OW26812   3.425   0.289  11.322 -0.2456 -0.0324 -0.0761
 5117SOL    HW126813   3.445   0.225  11.255  0.2962 -0.6208  0.6461
 5117SOL    HW226814   3.461   0.376  11.307 -1.8976  0.4409 -1.3134
 5118SOL     OW26815   4.344   1.755  10.602 -0.3010  0.3741 -0.3615
 5118SOL    HW126816   4.359   1.694  10.674 -1.4412  1.8581  1.1229
 5118SOL    HW226817   4.427   1.748  10.554  0.1612  1.8298  0.2474
 5119SOL     OW26818   2.318   1.527   1.991  0.3967 -0.2744 -0.1190
 5119SOL    HW126819   2.295   1.600   1.933 -0.0510  0.7980  1.4114
 5119SOL    HW226820   2.296   1.456   1.931  0.0920 -0.7161  0.5125
 5120SOL     OW26821   3.721   4.670   1.370 -0.4682  0.1026  0.1419
 5120SOL    HW126822   3.753   4.628   1.449  0.4863  2.5479  1.0538
 5120SOL    HW226823   3.633   4.698   1.392 -1.6926 -3.6443  0.0048
 5121SOL     OW26824   3.324   0.569   5.417  0.2207  0.2113 -0.2409
 5121SOL    HW126825   3.383   0.644   5.428  0.0736 -0.0813  2.3571
 5121SOL    HW226826   3.245   0.614   5.385  2.1379  3.1510 -0.8982
 5122SOL     OW26827   0.020   2.249   2.147 -0.5745 -0.2932  0.4263
 5122SOL    HW126828   0.005   2.271   2.239  0.5855  0.2242  0.4872
 5122SOL    HW226829   0.100   2.302   2.142 -0.6547 -0.3701 -1.4566
 5123SOL     OW26830   1.176   3.497   3.765 -0.3805  0.1063  0.5245
 5123SOL    HW126831   1.097   3.461   3.724  0.2027 -0.4879 -0.0701
 5123SOL    HW226832   1.160   3.468   3.855  0.1923 -2.5133 -0.2402
 5124SOL     OW26833   2.717   3.838  15.870  0.3417 -0.4162 -0.2779
 5124SOL    HW126834   2.739   3.838  15.776  1.4528  0.6090 -0.0219
 5124SOL    HW226835   2.636   3.888  15.863  1.1727  0.6671 -2.4080
 5125SOL     OW26836   0.679   0.065  16.336  0.1849  0.4352 -0.0608
 5125SOL    HW126837   0.667   4.722  16.401 -0.2073 -1.2001 -1.8339
 5125SOL    HW226838   0.774   0.068  16.320  0.3334  1.1181  0.9708
 5126SOL     OW26839   3.406   4.546  12.149 -0.5464  0.5652 -0.6151
 5126SOL    HW126840   3.443   4.595  12.075 -0.3895 -0.7752 -1.4285
 5126SOL    HW226841   3.383   4.612  12.215 -0.2965 -0.1281  0.1704
 5127SOL     OW26842   3.482   3.285   4.043 -0.0788  0.3321  0.0330
 5127SOL    HW126843   3.411   3.295   3.979  0.7894  2.4915 -0.5991
 5127SOL    HW226844   3.540   3.356   4.016 -2.6643  2.5473  0.2406
 5128SOL     OW26845   3.290   3.955   3.852 -0.0140 -0.4677  0.1360
 5128SOL    HW126846   3.250   3.883   3.803  0.3785  0.0242 -0.8960
 5128SOL    HW226847   3.361   3.985   3.795 -0.1318 -0.3554  0.0484
 5129SOL     OW26848   4.441   3.245  10.248 -0.0118 -0.0726  0.2078
 5129SOL    HW126849   4.361   3.280  10.208  0.0736 -0.6959 -0.5113
 5129SOL    HW226850   4.443   3.165  10.195 -1.4002  0.2116 -0.2844
 5130SOL     OW26851   4.623   4.671   7.650 -1.0365 -0.1038  0.0138
 5130SOL    HW126852   4.641   4.597   7.591  3.1571  1.2436 -0.3471
 5130SOL    HW226853   4.643   4.637   7.737  1.7856  0.8371 -0.2807
 5131SOL     OW26854   3.365   3.533   7.520  0.2004  0.1789 -0.7755
 5131SOL    HW126855   3.384   3.621   7.553 -2.2817 -1.4137  4.8169
 5131SOL    HW226856   3.270   3.526   7.507  0.1019 -2.6764  1.5712
 5132SOL     OW26857   2.759   2.655   0.808 -0.0232  0.3648 -0.4916
 5132SOL    HW126858   2.807   2.692   0.882 -2.0094  0.7193  0.6281
 5132SOL    HW226859   2.826   2.681   0.746  1.7547 -0.5979  1.0426
 5133SOL     OW26860   4.476   1.951   8.854  0.3839  0.0515  0.2495
 5133SOL    HW126861   4.548   1.893   8.828 -0.9350 -1.9915  1.1528
 5133SOL    HW226862   4.530   2.007   8.909 -2.0889  0.8586  1.8746
 5134SOL     OW26863   2.312   2.600   7.031 -0.2653 -0.0486 -0.2608
 5134SOL    HW126864   2.311   2.506   7.049 -1.2677  0.3594  1.7410
 5134SOL    HW226865   2.397   2.620   7.072 -0.7705 -2.0707  1.7749
 5135SOL     OW26866   2.960   3.788   5.384  0.1549  0.0224  0.4133
 5135SOL    HW126867   3.034   3.814   5.438  1.3300  0.0358 -1.1740
 5135SOL    HW226868   2.889   3.808   5.445  0.1744  3.1616 -0.6051
 5136SOL     OW26869   3.267   0.967   9.234  0.3401  0.1135 -0.1671
 5136SOL    HW126870   3.231   1.047   9.197 -1.9676 -0.5502  0.6480
 5136SOL    HW226871   3.266   0.982   9.329 -0.8414 -1.2892  0.0455
 5137SOL     OW26872   4.133   1.504   7.477 -0.0521  0.1680  0.4123
 5137SOL    HW126873   4.217   1.543   7.497  0.6392 -1.6166  0.9401
 5137SOL    HW226874   4.117   1.571   7.410 -0.6823  0.3837  0.7774
 5138SOL     OW26875   2.942   0.308   0.409  0.1579  0.5548 -0.0819
 5138SOL    HW126876   3.009   0.321   0.477  0.9211 -2.7940 -0.1786
 5138SOL    HW226877   2.923   0.217   0.429 -0.8555  1.1121  1.5433
 5139SOL     OW26878   2.583   0.736   7.226 -0.7024 -0.0100 -0.2376
 5139SOL    HW126879   2.498   0.739   7.269 -1.3362  1.0927 -1.5642
 5139SOL    HW226880   2.626   0.679   7.289  1.4345  0.2403 -1.4626
 5140SOL     OW26881   3.098   3.060   5.862  0.0143  0.3877  0.0570
 5140SOL    HW126882   3.007   3.031   5.872 -0.3832  1.3985 -0.6343
 5140SOL    HW226883   3.107   3.144   5.906  0.4684  0.5451 -0.3360
 5141SOL     OW26884   0.869   2.611   2.782  0.0081  0.3432  0.6814
 5141SOL    HW126885   0.808   2.540   2.763  2.1440 -1.6132  1.1425
 5141SOL    HW226886   0.936   2.599   2.714 -2.5188 -1.1404 -1.5383
 5142SOL     OW26887   0.836   4.583   2.132  0.0032 -0.3981  0.5258
 5142SOL    HW126888   0.928   4.559   2.123  0.0897 -1.2037  3.5837
 5142SOL    HW226889   0.812   4.533   2.210 -2.0191 -0.3316 -0.0388
 5143SOL     OW26890   0.570   3.234   8.133  0.6508  0.1815 -0.0827
 5143SOL    HW126891   0.604   3.183   8.207  1.3442  0.8670  0.0755
 5143SOL    HW226892   0.567   3.171   8.061  1.4034 -0.3149  0.3179
 5144SOL     OW26893   4.021   0.616  14.360  0.0710 -0.3886 -0.5057
 5144SOL    HW126894   3.976   0.697  14.336  0.1531 -0.1577  0.1137
 5144SOL    HW226895   3.944   0.562  14.379 -1.2702  1.6150 -0.1311
 5145SOL     OW26896   2.115   3.224   1.780 -0.2896 -0.0022 -0.1315
 5145SOL    HW126897   2.035   3.260   1.818 -0.2247  0.3497 -0.3252
 5145SOL    HW226898   2.080   3.212   1.691 -1.1149  0.7760  0.0889
 5146SOL     OW26899   1.769   3.242   4.204 -0.0161  0.3518 -0.4342
 5146SOL    HW126900   1.853   3.215   4.242  0.6854  1.2711 -1.2970
 5146SOL    HW226901   1.743   3.172   4.144  0.4195 -2.5949  2.8704
 5147SOL     OW26902   3.163   4.592   8.892 -0.3629 -0.3062 -0.0560
 5147SOL    HW126903   3.116   4.665   8.852 -1.9559 -1.4629 -0.2555
 5147SOL    HW226904   3.107   4.521   8.862  0.5099 -1.4202  0.9508
 5148SOL     OW26905   1.051   2.037  12.458  0.0272  0.1286 -0.4948
 5148SOL    HW126906   1.034   2.130  12.477 -0.7093 -0.0688 -0.1924
 5148SOL    HW226907   0.974   2.000  12.502  1.1179 -0.0949  1.2609
 5149SOL     OW26908   2.533   4.093   4.834  0.1459 -0.0404 -0.5890
 5149SOL    HW126909   2.490   4.076   4.918  0.6175 -1.0155 -0.5374
 5149SOL    HW226910   2.544   4.187   4.845  0.9619 -0.2476  0.4188
 5150SOL     OW26911   2.139   1.683  10.988  0.3163 -0.0892 -0.1077
 5150SOL    HW126912   2.048   1.673  11.017  0.4992 -0.2207  0.4207
 5150SOL    HW226913   2.141   1.752  10.922  1.3772 -1.2189 -1.2787
 5151SOL     OW26914   0.539   1.439   5.028 -0.1800 -0.3337 -0.7550
 5151SOL    HW126915   0.536   1.506   4.959  1.0311 -0.3619 -0.8225
 5151SOL    HW226916   0.506   1.493   5.100 -0.0484 -0.7871 -0.3570
 5152SOL     OW26917   2.170   2.223   4.647  0.6794  0.0634  0.0177
 5152SOL    HW126918   2.146   2.168   4.573  0.6113 -0.3762  0.3643
 5152SOL    HW226919   2.088   2.206   4.694  0.8169  0.8830  0.5567
 5153SOL     OW26920   2.198   1.480   0.998  0.0594  0.1200  0.2571
 5153SOL    HW126921   2.283   1.520   1.017 -0.1653  0.9371 -0.4183
 5153SOL    HW226922   2.178   1.441   1.083 -1.5663  1.1933  0.3648
 5154SOL     OW26923   1.210   3.894   0.314 -0.1683 -0.8906 -0.1414
 5154SOL    HW126924   1.241   3.968   0.262 -0.2026  1.4106  3.0848
 5154SOL    HW226925   1.154   3.933   0.381  0.8721  0.0264  0.1946
 5155SOL     OW26926   4.700   4.420  11.844 -0.5628 -0.0305  0.4507
 5155SOL    HW126927   0.057   4.382  11.874  0.7307  0.9522 -1.8214
 5155SOL    HW226928   4.698   4.390  11.753  1.2803 -0.8494  0.6897
 5156SOL     OW26929   3.350   1.052   8.074  0.1101 -0.6371  0.1376
 5156SOL    HW126930   3.410   1.070   8.147  0.4418  1.1495 -0.5744
 5156SOL    HW226931   3.332   1.142   8.045  0.2812 -0.9163 -0.8191
 5157SOL     OW26932   3.662   2.224  16.551  0.0145  0.3071 -0.0639
 5157SOL    HW126933   3.650   2.131  16.530  0.5857  0.3700 -0.6487
 5157SOL    HW226934   3.745   2.229  16.597  0.0531 -1.8358  0.1109
 5158SOL     OW26935   4.695   1.530   3.313 -0.4707 -0.0891 -0.0735
 5158SOL    HW126936   4.704   1.613   3.266 -1.8243  0.1764  0.1354
 5158SOL    HW226937   4.637   1.552   3.386  0.3807 -0.3997  0.7129
 5159SOL     OW26938   1.088   3.417   4.000  0.3516  0.0471 -0.3927
 5159SOL    HW126939   1.071   3.498   4.048 -0.1165 -0.7893  0.8557
 5159SOL    HW226940   1.029   3.356   4.044 -1.9686  1.1062 -2.0845
 5160SOL     OW26941   2.927   0.803  11.566 -0.0895 -0.3847  0.5097
 5160SOL    HW126942   2.975   0.875  11.607 -0.1083 -1.3397  2.2129
 5160SOL    HW226943   2.966   0.794  11.479 -0.7377 -0.0491  0.1902
 5161SOL     OW26944   3.811   0.238  14.004 -0.1475  0.0155  0.2222
 5161SOL    HW126945   3.842   0.318  13.961  1.7583 -1.7917 -1.7406
 5161SOL    HW226946   3.892   0.187  13.995  1.1661  2.0990  0.2742
 5162SOL     OW26947   2.954   0.007   4.049 -0.1907  1.0989  0.0253
 5162SOL    HW126948   2.881   0.027   3.991  0.1749 -2.8609 -1.8009
 5162SOL    HW226949   2.933   0.060   4.126  3.2020  0.9804  1.0684
 5163SOL     OW26950   3.636   3.332   8.253 -0.0346  0.7092 -0.5166
 5163SOL    HW126951   3.725   3.365   8.267  0.0871  1.3422 -2.8069
 5163SOL    HW226952   3.590   3.403   8.209 -1.8733  0.6685  1.3645
 5164SOL     OW26953   4.419   0.443  13.798 -0.4602 -0.0769 -0.1352
 5164SOL    HW126954   4.411   0.417  13.889  1.1633  0.6495  0.2124
 5164SOL    HW226955   4.505   0.484  13.795  0.8753 -2.8814 -1.1587
 5165SOL     OW26956   4.039   3.831   4.776 -0.2714  0.7709  0.1190
 5165SOL    HW126957   4.019   3.864   4.689  1.3041 -1.2206 -0.9793
 5165SOL    HW226958   3.969   3.766   4.789 -1.1958  2.3165  3.0267
 5166SOL     OW26959   3.477   1.840  14.143 -0.2707 -0.0916  0.4056
 5166SOL    HW126960   3.486   1.861  14.237 -1.1639  0.9705  0.2613
 5166SOL    HW226961   3.564   1.804  14.131 -0.4040 -0.6033  0.9451
 5167SOL     OW26962   1.731   1.421   6.296 -0.2154 -0.2469 -0.4810
 5167SOL    HW126963   1.718   1.434   6.390  0.5522 -0.4637 -0.3464
 5167SOL    HW226964   1.725   1.326   6.298 -1.8476 -0.1353  0.5408
 5168SOL     OW26965   0.529   2.229  16.630 -0.0008  0.2858  0.4551
 5168SOL    HW126966   0.593   2.293  16.598  1.3454 -1.1518  0.3060
 5168SOL    HW226967   0.520   2.255  16.722 -2.6441  0.7383  0.0890
 5169SOL     OW26968   0.137   2.195  11.587 -0.3783  0.5836 -0.8030
 5169SOL    HW126969   0.109   2.280  11.554 -1.1387 -0.2050 -2.1754
 5169SOL    HW226970   0.231   2.206  11.605 -0.2152 -0.1558 -1.2068
 5170SOL     OW26971   4.169   3.493   4.358  0.2075 -0.2001 -0.4465
 5170SOL    HW126972   4.191   3.517   4.268  0.3685  1.2110 -0.0336
 5170SOL    HW226973   4.250   3.500   4.407 -0.7221 -0.7035  1.1714
 5171SOL     OW26974   0.002   1.312  16.240 -0.5174 -0.2184  0.4497
 5171SOL    HW126975   0.049   1.357  16.309 -0.9232 -0.7282  1.0616
 5171SOL    HW226976   0.021   1.220  16.260  0.2986 -0.6797 -2.4648
 5172SOL     OW26977   1.554   2.323  11.571  0.2123 -0.2685 -0.1320
 5172SOL    HW126978   1.644   2.321  11.539  0.2078 -1.0464 -0.0936
 5172SOL    HW226979   1.526   2.411  11.547  2.6663  0.6429  0.4194
 5173SOL     OW26980   2.826   1.545   5.668  0.5135  0.1555 -0.0675
 5173SOL    HW126981   2.771   1.621   5.686  2.0773  0.8692  1.7618
 5173SOL    HW226982   2.827   1.553   5.573 -0.7917 -3.0709 -0.3409
 5174SOL     OW26983   1.958   4.065  16.546  0.5792 -0.8681 -0.1358
 5174SOL    HW126984   1.920   3.996  16.600  1.0891 -1.7900 -0.9491
 5174SOL    HW226985   2.027   4.095  16.605  0.2446 -2.6714  1.1860
 5175SOL     OW26986   3.450   4.294   5.996  0.0527  0.5488 -0.1118
 5175SOL    HW126987   3.376   4.255   5.951  0.5740  1.1537 -1.4796
 5175SOL    HW226988   3.520   4.245   5.952  0.4639  1.7926 -0.8288
 5176SOL     OW26989   4.679   0.919   9.689  0.3070  0.8967 -0.0097
 5176SOL    HW126990   4.599   0.870   9.706  0.4302  1.1822  1.4343
 5176SOL    HW226991   4.717   0.901   9.775  0.5257 -2.3453 -0.7984
 5177SOL     OW26992   1.212   4.153   5.675  0.9047 -0.6432 -0.2536
 5177SOL    HW126993   1.208   4.083   5.610 -0.3575 -1.0473  0.2549
 5177SOL    HW226994   1.283   4.124   5.732  1.3747  0.0821 -0.4705
 5178SOL     OW26995   3.271   3.725   3.008 -0.3591 -0.4425 -0.4317
 5178SOL    HW126996   3.275   3.770   2.924 -0.0515 -0.0496 -0.2076
 5178SOL    HW226997   3.323   3.645   2.998 -2.8874 -2.1890  0.3294
 5179SOL     OW26998   4.283   1.515   4.636 -0.5336  0.3163 -0.1263
 5179SOL    HW126999   4.206   1.560   4.602 -2.2677 -3.7530 -1.5238
 5179SOL    HW227000   4.240   1.434   4.662 -2.4981  1.0422 -1.0887
 5180SOL     OW27001   2.768   0.393  12.621  0.3812 -0.4347 -0.1907
 5180SOL    HW127002   2.679   0.394  12.585 -0.1086  0.8622  1.0478
 5180SOL    HW227003   2.749   0.379  12.713  0.1183  0.3191 -0.1303
 5181SOL     OW27004   2.114   4.263   4.144 -0.8450  0.8370  0.3556
 5181SOL    HW127005   2.137   4.234   4.233 -0.3521  1.7407  0.5294
 5181SOL    HW227006   2.150   4.352   4.146 -0.1200  0.5470  0.1214
 5182SOL     OW27007   2.724   2.459   0.598 -0.3743 -0.3945  0.6485
 5182SOL    HW127008   2.678   2.511   0.532  0.3990 -0.8870 -0.2784
 5182SOL    HW227009   2.760   2.523   0.658  0.1554  0.5223 -0.6503
 5183SOL     OW27010   1.359   3.818   3.102  0.3767  0.1341  0.2348
 5183SOL    HW127011   1.324   3.730   3.111  0.1357  0.5515  3.3664
 5183SOL    HW227012   1.454   3.814   3.119  0.2304 -2.0090  0.4798
 5184SOL     OW27013   1.775   0.296  16.601  0.0552 -0.1719  0.4129
 5184SOL    HW127014   1.835   0.329  16.668  2.1455 -4.2563  0.5658
 5184SOL    HW227015   1.819   0.228  16.550 -1.7146 -0.0135 -1.3277
 5185SOL     OW27016   0.262   0.656   6.590 -0.0897 -0.4347 -0.4524
 5185SOL    HW127017   0.176   0.697   6.591  0.4208  0.5639  1.3196
 5185SOL    HW227018   0.270   0.626   6.680 -0.2144 -0.4695 -0.4538
 5186SOL     OW27019   2.127   0.863   6.142 -0.4171 -0.6913  0.4459
 5186SOL    HW127020   2.060   0.841   6.208 -1.0674  1.9996  0.6534
 5186SOL    HW227021   2.074   0.931   6.101 -0.8259 -0.5856  1.1309
 5187SOL     OW27022   1.514   1.295   7.204  0.2796 -0.5766  0.3379
 5187SOL    HW127023   1.596   1.265   7.165 -0.0006 -1.8924  0.7524
 5187SOL    HW227024   1.486   1.213   7.243  1.2327 -1.3170 -0.5474
 5188SOL     OW27025   0.578   3.881   4.667  0.7178  0.3155 -0.0063
 5188SOL    HW127026   0.515   3.938   4.622 -0.4699 -2.4324 -1.8888
 5188SOL    HW227027   0.641   3.946   4.695  1.8619  0.2782 -2.4420
 5189SOL     OW27028   0.662   0.632   0.084  0.1218 -0.1494 -0.0524
 5189SOL    HW127029   0.640   0.543   0.057 -1.8208 -0.0755  1.2971
 5189SOL    HW227030   0.749   0.620   0.121  0.4143  0.7872 -0.4545
 5190SOL     OW27031   0.951   2.973   7.241 -0.0294  0.5672 -0.1590
 5190SOL    HW127032   0.989   2.909   7.302  1.5318  2.1385  0.5173
 5190SOL    HW227033   0.939   3.047   7.302 -0.0097  0.9508 -0.6245
 5191SOL     OW27034   0.693   3.969  11.985  0.5430  0.2008  0.5240
 5191SOL    HW127035   0.616   4.024  11.971  1.2232  0.9961 -0.0591
 5191SOL    HW227036   0.651   3.884  11.970 -2.7986  1.7170  1.2489
 5192SOL     OW27037   1.057   4.249   3.184 -0.4066 -0.3985  0.1403
 5192SOL    HW127038   1.133   4.196   3.162 -0.4992 -0.5454  0.1754
 5192SOL    HW227039   1.083   4.286   3.269  1.4954 -1.4309 -0.0120
 5193SOL     OW27040   0.656   3.631   5.119 -0.1573  0.1021 -0.0609
 5193SOL    HW127041   0.630   3.541   5.137  2.3112 -0.8638 -1.3584
 5193SOL    HW227042   0.594   3.662   5.053  0.1867 -0.9759 -0.8754
 5194SOL     OW27043   0.488   2.119   5.509 -0.0687 -0.0068  0.9701
 5194SOL    HW127044   0.425   2.164   5.452  0.6937  0.6913  0.6914
 5194SOL    HW227045   0.434   2.047   5.543 -1.4387 -0.7453 -2.6616
 5195SOL     OW27046   1.567   4.365   3.966 -0.1935  0.4180 -0.2048
 5195SOL    HW127047   1.472   4.372   3.973 -0.6519 -1.0891 -4.9887
 5195SOL    HW227048   1.588   4.380   4.059  2.2982 -3.4540 -0.1340
 5196SOL     OW27049   2.971   0.400   3.230  0.0675  0.2298  0.7078
 5196SOL    HW127050   2.924   0.351   3.163 -0.9653  0.7929  1.0127
 5196SOL    HW227051   2.939   0.491   3.229  0.2463  0.2934  0.7125
 5197SOL     OW27052   2.106   2.409   5.727 -0.4588  0.7057 -0.4722
 5197SOL    HW127053   2.198   2.428   5.744 -0.7957 -0.2288  2.3377
 5197SOL    HW227054   2.063   2.455   5.799  1.9359 -0.4274  1.6822
 5198SOL     OW27055   4.073   3.090   5.092  0.2363  0.7006 -0.4054
 5198SOL    HW127056   4.124   3.159   5.050  0.8980  0.9983  0.9095
 5198SOL    HW227057   4.022   3.061   5.016 -1.5537  0.6381  0.8214
 5199SOL     OW27058   3.245   2.113   0.385  0.2392  0.1337 -0.0833
 5199SOL    HW127059   3.252   2.037   0.443  0.0727  1.0697  1.1716
 5199SOL    HW227060   3.151   2.108   0.369 -0.0733 -0.0708  1.7836
 5200SOL     OW27061   0.915   3.146   7.431 -0.2409 -0.1186 -0.1665
 5200SOL    HW127062   0.973   3.215   7.464  0.0720  0.2767 -1.5026
 5200SOL    HW227063   0.853   3.201   7.384 -1.5494 -0.1178  1.5654
 5201SOL     OW27064   3.966   0.025  13.953 -0.1161  0.2027 -0.2217
 5201SOL    HW127065   3.908   0.022  13.876  0.5827 -2.2768 -0.6788
 5201SOL    HW227066   4.051   0.034  13.909 -0.0065 -2.1654 -0.5330
 5202SOL     OW27067   2.184   2.959   2.933  0.5326 -0.3998  0.4901
 5202SOL    HW127068   2.227   3.043   2.953  0.0764 -0.2718  0.9185
 5202SOL    HW227069   2.261   2.902   2.938  1.5655  1.1264  2.1372
 5203SOL     OW27070   4.625   0.420   2.580  0.0455 -0.8683  0.2998
 5203SOL    HW127071   4.602   0.484   2.647  0.8702  0.1970 -0.4294
 5203SOL    HW227072   4.627   0.335   2.624  0.4169 -1.6292 -1.1644
 5204SOL     OW27073   4.571   3.969  13.095  0.1430 -0.4688  0.0918
 5204SOL    HW127074   4.570   3.986  13.189  1.8269  1.1905 -0.1793
 5204SOL    HW227075   4.597   3.877  13.091 -1.3778 -0.8837 -0.6278
 5205SOL     OW27076   0.044   0.647  12.339  0.5320  0.2449 -0.6029
 5205SOL    HW127077   4.675   0.662  12.354  0.6208  0.9255 -0.7342
 5205SOL    HW227078   0.074   0.722  12.289 -0.7861 -0.0761 -1.8761
 5206SOL     OW27079   2.266   0.320   4.240  0.5694 -0.3749 -0.1158
 5206SOL    HW127080   2.186   0.372   4.252  0.3921 -0.4586 -0.9351
 5206SOL    HW227081   2.285   0.300   4.331  0.4520 -0.3007 -0.0755
 5207SOL     OW27082   4.265   0.088   5.489  0.2221  0.4246 -0.0183
 5207SOL    HW127083   4.226   0.029   5.424 -0.0716  0.6640 -0.0580
 5207SOL    HW227084   4.214   0.166   5.468 -1.9517 -1.3014 -1.2390
 5208SOL     OW27085   4.611   4.158   6.706 -0.3350  0.5127 -0.3710
 5208SOL    HW127086   4.529   4.129   6.745 -0.4215  2.0219  0.5776
 5208SOL    HW227087   4.670   4.169   6.781 -1.8897 -2.5020  1.2978
 5209SOL     OW27088   1.891   1.075  15.513  0.1972 -0.5408 -0.0718
 5209SOL    HW127089   1.822   1.027  15.559 -1.6502  1.8351 -0.3638
 5209SOL    HW227090   1.964   1.016  15.526  1.5310  1.1504  0.0831
 5210SOL     OW27091   4.506   1.846   0.907  0.7696  0.3493  0.1628
 5210SOL    HW127092   4.439   1.841   0.839  0.1653 -1.0969  0.8644
 5210SOL    HW227093   4.551   1.925   0.876  0.6790  0.8815  1.4126
 5211SOL     OW27094   0.065   4.652   3.053  0.0740 -0.3179 -0.5510
 5211SOL    HW127095   0.077   4.581   2.991  1.2600  0.8125 -1.6372
 5211SOL    HW227096   0.127   4.719   3.024 -0.8577  0.2021 -1.3514
 5212SOL     OW27097   4.012   0.161  14.532  0.3287 -0.3729 -0.2623
 5212SOL    HW127098   3.930   0.136  14.573  1.3041 -2.9570  0.1276
 5212SOL    HW227099   4.076   0.141  14.600  0.0194 -2.2033 -0.5086
 5213SOL     OW27100   3.476   4.441   4.991  0.2147  0.3016  0.2969
 5213SOL    HW127101   3.447   4.379   5.058  1.7590 -1.9913 -1.1484
 5213SOL    HW227102   3.392   4.478   4.965  0.1923 -1.3421 -1.9298
 5214SOL     OW27103   3.461   4.542   2.060 -0.2093  0.6802 -0.4298
 5214SOL    HW127104   3.467   4.497   1.976 -1.4872  1.0340 -0.7183
 5214SOL    HW227105   3.463   4.634   2.035  2.6876  0.8367  0.4617
 5215SOL     OW27106   1.613   3.801   3.858  0.1274  0.3034  0.3085
 5215SOL    HW127107   1.539   3.741   3.851 -2.4721  3.8375 -2.4224
 5215SOL    HW227108   1.568   3.867   3.911 -0.3838  1.1353 -1.1573
 5216SOL     OW27109   2.219   1.346  12.549  0.4555  0.1756  0.6201
 5216SOL    HW127110   2.295   1.307  12.505  0.6273  0.5245  0.6090
 5216SOL    HW227111   2.168   1.267  12.570 -0.0341 -0.3651 -2.6246
 5217SOL     OW27112   1.816   0.915   5.783 -0.1514  0.1348 -0.0206
 5217SOL    HW127113   1.867   0.841   5.749 -0.3078 -1.7124  3.8094
 5217SOL    HW227114   1.827   0.983   5.716 -1.0333 -1.2150 -1.5182
 5218SOL     OW27115   1.605   1.375   2.263  0.5988  0.3470 -0.0763
 5218SOL    HW127116   1.554   1.396   2.341  0.2333 -0.4557 -0.1011
 5218SOL    HW227117   1.575   1.436   2.195  0.9225 -0.6011 -1.0703
 5219SOL     OW27118   3.253   1.379   5.497 -0.3144  0.8068  0.2093
 5219SOL    HW127119   3.177   1.434   5.479 -0.7222 -0.2864 -1.3611
 5219SOL    HW227120   3.312   1.432   5.443 -1.1643  0.6701 -0.8476
 5220SOL     OW27121   3.296   3.177  11.934 -0.1907  0.2353 -0.2751
 5220SOL    HW127122   3.342   3.094  11.924  1.2250  0.8068  1.4586
 5220SOL    HW227123   3.230   3.169  11.865  0.1793 -0.2388 -0.5751
 5221SOL     OW27124   4.505   1.400   4.538 -0.3505  0.7861 -0.3236
 5221SOL    HW127125   4.483   1.319   4.492 -1.3661  1.3055 -0.7613
 5221SOL    HW227126   4.424   1.434   4.578 -0.2391  3.1301 -2.1417
 5222SOL     OW27127   0.930   1.212  17.169 -0.3083 -0.3728  0.7325
 5222SOL    HW127128   0.905   1.124  17.198  2.5726 -2.1826 -2.3465
 5222SOL    HW227129   0.888   1.197  17.084  0.2864 -1.0502  0.5670
 5223SOL     OW27130   3.964   0.644  13.004 -0.2354  0.0878 -0.5392
 5223SOL    HW127131   3.903   0.641  13.077 -1.2906 -3.8846 -1.5536
 5223SOL    HW227132   3.992   0.732  13.026  2.1054 -0.2977 -1.9987
 5224SOL     OW27133   2.484   1.063   3.130 -0.5521  0.2619  0.1974
 5224SOL    HW127134   2.545   0.999   3.164 -2.5325 -1.4498  0.5349
 5224SOL    HW227135   2.460   1.119   3.204  1.0771  1.2455 -0.0193
 5225SOL     OW27136   0.452   0.642   3.861 -0.1377  0.2620 -0.7908
 5225SOL    HW127137   0.368   0.597   3.855  0.1618 -0.5647  1.1724
 5225SOL    HW227138   0.437   0.733   3.836  1.1530  0.6561 -0.1531
 5226SOL     OW27139   0.166   1.298   5.684  0.1102  0.0098  0.1323
 5226SOL    HW127140   0.112   1.366   5.725  1.0496  1.4325 -1.0135
 5226SOL    HW227141   0.106   1.227   5.706  0.1882  0.4656  1.7770
 5227SOL     OW27142   0.438   4.481   1.164 -0.3273  0.2419 -0.1414
 5227SOL    HW127143   0.436   4.400   1.216  0.4346 -1.0691 -2.1420
 5227SOL    HW227144   0.431   4.548   1.231 -1.8180  0.7532 -0.8013
 5228SOL     OW27145   1.103   1.249  13.143  0.8328  0.6366 -0.1784
 5228SOL    HW127146   1.092   1.188  13.070  0.6703 -0.0230  0.4051
 5228SOL    HW227147   1.010   1.264  13.161  1.1334  0.0658  1.8464
 5229SOL     OW27148   1.314   2.809   8.982 -0.2638  0.0444 -0.0053
 5229SOL    HW127149   1.248   2.742   8.997 -0.6676  0.3240 -0.5433
 5229SOL    HW227150   1.314   2.799   8.887 -0.5757  0.0660 -0.0063
 5230SOL     OW27151   2.613   0.837   2.662 -0.1544 -0.4019  0.4021
 5230SOL    HW127152   2.676   0.875   2.723  1.9189  0.4135 -2.2132
 5230SOL    HW227153   2.648   0.748   2.654  0.4876 -0.3900  3.0167
 5231SOL     OW27154   4.477   0.439   4.163  0.1197  0.4921 -0.1182
 5231SOL    HW127155   4.433   0.446   4.248 -1.1415  2.7752 -0.9375
 5231SOL    HW227156   4.405   0.473   4.109  0.2525  2.1394  0.7113
 5232SOL     OW27157   3.373   0.481   0.650 -0.1739  0.3679  0.0188
 5232SOL    HW127158   3.441   0.546   0.631  0.0936 -0.2700 -1.1592
 5232SOL    HW227159   3.383   0.470   0.745 -0.4976  0.0343  0.0107
 5233SOL     OW27160   2.974   2.343   0.337  0.2321  0.1657 -0.2062
 5233SOL    HW127161   2.943   2.388   0.258  1.4622 -0.4505 -1.0578
 5233SOL    HW227162   3.049   2.402   0.346  0.0952  0.3611 -0.3426
 5234SOL     OW27163   2.041   0.779   0.110  0.4436  0.3125 -0.2532
 5234SOL    HW127164   1.953   0.742   0.104  0.4125  0.5879 -1.5684
 5234SOL    HW227165   2.076   0.748   0.193 -0.0886  0.1833 -0.0783
 5235SOL     OW27166   2.167   4.071   1.454  0.2470  0.2014 -0.1185
 5235SOL    HW127167   2.169   4.041   1.363  1.2226  1.6642 -0.5866
 5235SOL    HW227168   2.104   4.009   1.490 -2.0037  1.8229 -1.2143
 5236SOL     OW27169   1.867   3.922   3.833 -0.2261 -0.3578  0.0313
 5236SOL    HW127170   1.828   4.004   3.864  0.0913  0.1181 -0.8375
 5236SOL    HW227171   1.784   3.877   3.820  1.5950 -3.2660 -1.7557
 5237SOL     OW27172   1.502   1.362   4.854  0.0761 -0.1954  0.0398
 5237SOL    HW127173   1.517   1.449   4.818  3.7033 -0.7478  0.2664
 5237SOL    HW227174   1.422   1.377   4.905 -0.3825 -1.6856 -0.2401
 5238SOL     OW27175   1.928   0.876   4.810  0.2950 -0.1536  0.7980
 5238SOL    HW127176   1.977   0.851   4.731  0.8732  1.9359  0.5099
 5238SOL    HW227177   2.002   0.917   4.853 -0.5104  1.8185  0.2873
 5239SOL     OW27178   3.428   2.084   3.055 -0.4391 -0.7053 -0.2317
 5239SOL    HW127179   3.357   2.128   3.101  0.4784 -1.0117  1.4772
 5239SOL    HW227180   3.482   2.163   3.051 -2.3781  0.7155  2.3320
 5240SOL     OW27181   3.180   1.975   3.657  0.6552 -0.5091  0.5892
 5240SOL    HW127182   3.166   2.069   3.663  0.3505 -0.5738  0.9181
 5240SOL    HW227183   3.152   1.954   3.746  3.0487  0.8962  1.6621
 5241SOL     OW27184   2.672   4.515  13.981 -0.2314 -0.1764 -0.5330
 5241SOL    HW127185   2.738   4.471  14.035  0.7505  1.1860 -0.6366
 5241SOL    HW227186   2.708   4.488  13.897 -0.0908  2.3618 -1.2691
 5242SOL     OW27187   0.527   3.939   3.174 -0.1402 -0.1752 -0.7066
 5242SOL    HW127188   0.506   3.947   3.081 -1.6409 -1.5340 -0.4860
 5242SOL    HW227189   0.543   4.031   3.198  0.3988 -0.7996  1.3145
 5243SOL     OW27190   1.364   1.005   0.167  0.5385  0.2533 -0.1486
 5243SOL    HW127191   1.414   1.000   0.249 -0.6788 -0.5220  0.5392
 5243SOL    HW227192   1.313   0.926   0.185  1.0317  0.2911  1.3952
 5244SOL     OW27193   4.013   4.522   2.351  0.6004  0.1248  0.1187
 5244SOL    HW127194   4.022   4.555   2.440  0.8359  0.3694  0.0034
 5244SOL    HW227195   4.012   4.428   2.371 -1.3107  0.5035  1.7708
 5245SOL     OW27196   3.351   4.008   7.953 -0.2178 -0.0937 -0.5628
 5245SOL    HW127197   3.387   3.919   7.950  1.4245  0.5478 -0.1572
 5245SOL    HW227198   3.298   4.013   7.874 -1.2435 -0.9312  0.0723
 5246SOL     OW27199   4.050   3.537   4.602 -0.2478 -0.0293 -0.1392
 5246SOL    HW127200   3.961   3.571   4.594  0.8962  2.0838 -3.6304
 5246SOL    HW227201   4.082   3.544   4.513 -2.5595 -2.0121 -1.1436
 5247SOL     OW27202   3.762   2.918   5.782  0.5425  0.2739  0.0685
 5247SOL    HW127203   3.820   2.886   5.851  0.3593  4.3687  2.1282
 5247SOL    HW227204   3.682   2.867   5.787  0.6604  0.1046  0.2656
 5248SOL     OW27205   2.031   2.929  11.988 -0.0556 -0.9478  0.3314
 5248SOL    HW127206   2.106   2.983  12.014  0.3902 -0.6951 -1.4154
 5248SOL    HW227207   2.056   2.855  12.043 -0.1265 -2.4941 -1.7189
 5249SOL     OW27208   0.458   2.907   8.351  0.5141  0.0081 -0.2532
 5249SOL    HW127209   0.413   2.840   8.300  1.7056 -2.1924  1.5703
 5249SOL    HW227210   0.524   2.942   8.291 -0.9309  2.2959 -0.5210
 5250SOL     OW27211   3.733   0.032   1.876 -0.7347  0.2608 -0.1369
 5250SOL    HW127212   3.663   0.095   1.857  0.6429  1.7732 -0.1573
 5250SOL    HW227213   3.742   0.037   1.971 -1.5854  0.3034 -0.0520
 5251SOL     OW27214   0.673   3.038  17.190 -0.0529  0.3644  0.2133
 5251SOL    HW127215   0.680   2.981  17.113  1.7579  2.3540 -1.0972
 5251SOL    HW227216   0.656   2.972  17.257 -0.4475 -0.0939 -0.3374
 5252SOL     OW27217   2.270   2.789  11.704  0.2232 -0.0327 -0.1302
 5252SOL    HW127218   2.330   2.832  11.643  0.8572  0.3121  0.7380
 5252SOL    HW227219   2.235   2.733  11.635  0.8836 -0.8336  0.1802
 5253SOL     OW27220   3.575   1.779   9.336  0.0906  0.5887  0.2914
 5253SOL    HW127221   3.559   1.687   9.317  1.1731  0.8109 -1.6477
 5253SOL    HW227222   3.529   1.777   9.420 -1.6946 -1.9863 -0.7672
 5254SOL     OW27223   1.417   1.119   4.761 -0.8785  0.6556 -0.2961
 5254SOL    HW127224   1.355   1.148   4.693 -2.7940 -2.8270 -0.0385
 5254SOL    HW227225   1.465   1.199   4.782 -1.7903  0.7693  1.3927
 5255SOL     OW27226   4.045   2.917   3.404  0.5442  0.9352 -0.5023
 5255SOL    HW127227   3.968   2.937   3.457  0.8096  1.1894 -0.2123
 5255SOL    HW227228   4.101   2.887   3.475 -1.4468  0.4213  0.8462
 5256SOL     OW27229   3.452   4.248  15.263  0.3523  0.0425  0.1347
 5256SOL    HW127230   3.462   4.168  15.212  1.6949  0.6870 -0.6214
 5256SOL    HW227231   3.362   4.265  15.235  0.1815 -2.1624 -0.6012
 5257SOL     OW27232   1.000   1.504   7.001  0.5403  0.2879 -0.3884
 5257SOL    HW127233   1.045   1.484   6.918  1.6426  2.3298 -0.2745
 5257SOL    HW227234   0.906   1.491   6.988  0.6906 -1.2223  0.0094
 5258SOL     OW27235   3.178   1.184   1.200 -0.1786  0.1187  0.1716
 5258SOL    HW127236   3.184   1.183   1.295 -1.9874 -0.0594  0.2663
 5258SOL    HW227237   3.179   1.093   1.173 -3.4227 -0.5230  2.3808
 5259SOL     OW27238   3.840   3.965   9.726  0.2839 -0.0051  0.1999
 5259SOL    HW127239   3.886   4.049   9.735 -1.3639  0.6188  2.7195
 5259SOL    HW227240   3.882   3.929   9.648  0.5387  0.5262  0.0853
 5260SOL     OW27241   3.428   1.317   9.518 -0.4143 -0.0574  0.8566
 5260SOL    HW127242   3.446   1.409   9.537  2.5888  0.4174 -4.2949
 5260SOL    HW227243   3.340   1.300   9.550 -0.3412  1.3386  1.7754
 5261SOL     OW27244   4.588   1.473  11.568  0.0040 -0.2140 -0.1507
 5261SOL    HW127245   4.669   1.462  11.518 -0.4498 -1.5908 -0.5819
 5261SOL    HW227246   4.590   1.561  11.605  0.6308 -0.7077  1.0010
 5262SOL     OW27247   0.300   2.179   1.750 -0.9464 -0.2991 -0.0163
 5262SOL    HW127248   0.249   2.138   1.680 -1.9055 -0.1066  0.5710
 5262SOL    HW227249   0.383   2.198   1.707  0.0101 -2.8537  0.7159
 5263SOL     OW27250   0.086   0.865   3.959  0.1127  0.8825 -0.0030
 5263SOL    HW127251   0.155   0.849   3.895  0.0405  0.2976  0.0645
 5263SOL    HW227252   0.062   0.953   3.929 -2.3846 -0.0379 -0.7372
 5264SOL     OW27253   1.856   4.289   4.699  0.4175  0.5360  0.5085
 5264SOL    HW127254   1.835   4.357   4.763 -1.4311 -0.2395  0.7392
 5264SOL    HW227255   1.946   4.321   4.706  0.7024 -0.1396 -0.0491
 5265SOL     OW27256   4.299   0.865   7.889  0.4005 -0.7450  0.1558
 5265SOL    HW127257   4.327   0.910   7.969 -0.0245  1.1849 -0.7710
 5265SOL    HW227258   4.208   0.893   7.889  0.4421 -0.5802 -1.0984
 5266SOL     OW27259   2.717   2.851   3.127 -0.1430  0.3229 -0.1946
 5266SOL    HW127260   2.781   2.918   3.103 -1.1736  0.5715 -2.2242
 5266SOL    HW227261   2.638   2.905   3.132 -2.5919 -3.2471 -0.5155
 5267SOL     OW27262   2.259   2.230   7.739  0.6245 -0.5974  0.2281
 5267SOL    HW127263   2.190   2.273   7.688  0.2497  1.2523  2.2718
 5267SOL    HW227264   2.210   2.155   7.773 -0.9439  0.3940  0.1835
 5268SOL     OW27265   1.811   1.462  17.089 -0.0757 -0.0229  0.0937
 5268SOL    HW127266   1.817   1.450  17.184 -1.5115  0.6833  0.2701
 5268SOL    HW227267   1.807   1.373  17.054 -1.1597 -0.0954  0.3947
 5269SOL     OW27268   2.831   1.423  10.443  0.0144 -0.0241 -0.3226
 5269SOL    HW127269   2.920   1.451  10.423 -0.5927  1.6550 -0.6792
 5269SOL    HW227270   2.823   1.465  10.529  0.5756 -1.7396  0.5619
 5270SOL     OW27271   0.744   3.876  15.843 -0.1579 -0.4715 -0.5790
 5270SOL    HW127272   0.748   3.869  15.939 -0.1922  0.8027 -0.4775
 5270SOL    HW227273   0.752   3.788  15.807  2.5363  1.0684 -3.6487
 5271SOL     OW27274   2.054   1.001   3.129  0.4195  0.3217 -0.4042
 5271SOL    HW127275   2.037   0.907   3.120 -0.6154  0.6337 -1.7139
 5271SOL    HW227276   2.131   1.011   3.186  0.1800  1.0805 -0.2111
 5272SOL     OW27277   1.594   0.855   8.149 -0.0567 -0.1757 -0.2725
 5272SOL    HW127278   1.598   0.923   8.216 -1.4215 -0.4935  0.1331
 5272SOL    HW227279   1.677   0.874   8.107  0.7450 -1.7425  0.6171
 5273SOL     OW27280   0.373   4.055  12.512 -0.1529 -0.1186 -0.0187
 5273SOL    HW127281   0.429   4.128  12.487  0.5042 -0.7260 -0.3375
 5273SOL    HW227282   0.424   3.984  12.471  0.6611  0.7050 -0.4136
 5274SOL     OW27283   1.040   2.880   1.060  0.0933  0.2585 -0.6734
 5274SOL    HW127284   0.981   2.925   1.120  1.3694 -0.2392  0.9221
 5274SOL    HW227285   1.084   2.959   1.027 -1.6898  1.7909  0.6226
 5275SOL     OW27286   4.519   3.054   7.969  0.2862 -0.0737 -0.2482
 5275SOL    HW127287   4.517   2.969   7.924  0.8475  1.1426 -2.5512
 5275SOL    HW227288   4.561   3.110   7.903 -3.3305  0.4326 -2.1034
 5276SOL     OW27289   1.482   3.474   4.406  0.0783 -0.1226  0.2363
 5276SOL    HW127290   1.466   3.548   4.464  0.1283  0.5612 -0.6236
 5276SOL    HW227291   1.576   3.457   4.418 -0.0851 -0.9612  0.3188
 5277SOL     OW27292   1.908   1.547   1.439  0.1693  0.3769 -0.0365
 5277SOL    HW127293   1.942   1.580   1.522 -1.1900  0.5910  0.4346
 5277SOL    HW227294   1.936   1.613   1.376 -0.3595  1.1522  0.5418
 5278SOL     OW27295   0.006   1.569   5.004 -0.3449 -0.0341  0.0346
 5278SOL    HW127296   0.003   1.639   4.938 -0.4637 -1.1542 -1.1416
 5278SOL    HW227297   4.637   1.555   5.015  0.2425 -1.5852  3.1190
 5279SOL     OW27298   0.448   4.394   4.741 -0.5742 -0.4642 -0.3733
 5279SOL    HW127299   0.511   4.356   4.680 -0.4176  0.5193 -0.8171
 5279SOL    HW227300   0.471   4.486   4.753 -0.0581 -0.6061 -0.2697
 5280SOL     OW27301   2.225   1.124  14.745  0.8586 -0.4346 -0.4976
 5280SOL    HW127302   2.301   1.090  14.792  1.2880 -1.5260 -2.0135
 5280SOL    HW227303   2.252   1.190  14.682 -0.6806 -0.6660 -1.4080
 5281SOL     OW27304   2.570   0.205   1.948 -0.6077 -0.5658  0.2013
 5281SOL    HW127305   2.546   0.295   1.927 -0.0305 -0.6277 -0.6988
 5281SOL    HW227306   2.663   0.217   1.966  0.1414 -0.6626 -3.6351
 5282SOL     OW27307   2.716   3.386   8.178 -0.5832 -0.7588  0.3411
 5282SOL    HW127308   2.793   3.331   8.164  0.0517  0.1774  0.1573
 5282SOL    HW227309   2.755   3.459   8.225 -0.3585 -2.3106  2.5547
 5283SOL     OW27310   1.193   3.010   2.558  0.1516  0.2159  0.0343
 5283SOL    HW127311   1.162   2.949   2.625 -0.6038 -0.1985 -0.6964
 5283SOL    HW227312   1.103   3.026   2.528 -0.1430 -0.9110  0.3322
 5284SOL     OW27313   0.293   3.354   2.820  0.3449 -0.0160  0.3136
 5284SOL    HW127314   0.211   3.314   2.791 -0.3685  1.6270  0.0675
 5284SOL    HW227315   0.300   3.397   2.734  2.8960  0.6753  0.8566
 5285SOL     OW27316   2.800   2.064  11.581  0.2308 -0.0511 -1.0190
 5285SOL    HW127317   2.888   2.075  11.617 -0.3678  0.1917  0.3693
 5285SOL    HW227318   2.747   2.067  11.661 -1.2692 -1.0241 -1.9817
 5286SOL     OW27319   2.844   3.213   1.857 -0.2215 -0.2882  0.4794
 5286SOL    HW127320   2.767   3.204   1.801  0.1518  1.2650 -0.2988
 5286SOL    HW227321   2.897   3.142   1.822 -2.6083 -2.7644  1.9036
 5287SOL     OW27322   0.566   2.648   3.527 -0.2056  0.0036  0.5425
 5287SOL    HW127323   0.554   2.737   3.492 -2.0367 -1.0447 -1.4994
 5287SOL    HW227324   0.476   2.618   3.536 -0.1630  0.5012  2.5505
 5288SOL     OW27325   0.703   3.121   6.427 -0.3050 -0.1117 -0.3763
 5288SOL    HW127326   0.766   3.129   6.499 -0.4649  1.4373 -0.4124
 5288SOL    HW227327   0.748   3.046   6.388 -2.9399 -1.9198  0.0491
 5289SOL     OW27328   4.453   0.342  14.076 -0.3979 -0.4166 -0.1631
 5289SOL    HW127329   4.525   0.293  14.116 -1.3946 -1.0058  0.9155
 5289SOL    HW227330   4.388   0.361  14.143 -1.2973 -1.0628 -0.8481
 5290SOL     OW27331   1.458   3.421  10.661  0.0517 -0.0066 -1.0594
 5290SOL    HW127332   1.491   3.496  10.710  1.2639 -0.8845 -0.5467
 5290SOL    HW227333   1.448   3.451  10.571  0.0870  2.5778 -0.2196
 5291SOL     OW27334   4.404   0.886   3.258  0.5424 -0.0585  0.0361
 5291SOL    HW127335   4.484   0.864   3.210  1.1314  1.7411  0.1732
 5291SOL    HW227336   4.336   0.835   3.213 -0.0900 -0.2699  1.2342
 5292SOL     OW27337   0.977   3.811  11.482 -0.1992 -0.2610 -0.5523
 5292SOL    HW127338   0.931   3.827  11.564  0.1332  1.4542 -0.6960
 5292SOL    HW227339   0.905   3.780  11.427 -0.5187  0.4590 -0.5483
 5293SOL     OW27340   1.214   2.550   9.432 -0.4005  0.3299 -0.2298
 5293SOL    HW127341   1.170   2.512   9.508  0.9071 -0.5492  0.0754
 5293SOL    HW227342   1.295   2.570   9.479  0.1829  0.2498 -1.1923
 5294SOL     OW27343   3.602   0.901  13.028 -0.0498  0.1639  0.1037
 5294SOL    HW127344   3.653   0.865  12.956 -3.2645 -3.5714 -0.2986
 5294SOL    HW227345   3.666   0.924  13.095 -0.5419 -0.2220  0.7077
 5295SOL     OW27346   1.816   2.757   4.216  0.0143  0.3518  0.4834
 5295SOL    HW127347   1.896   2.727   4.260  0.1493 -1.3122 -0.9072
 5295SOL    HW227348   1.757   2.686   4.241 -0.5160  1.0755  1.2949
 5296SOL     OW27349   3.934   3.332   4.806  0.6829  0.2016 -0.4586
 5296SOL    HW127350   4.006   3.361   4.861  0.0206 -2.9240  2.0284
 5296SOL    HW227351   3.944   3.385   4.727 -2.2364  0.7939 -0.4249
 5297SOL     OW27352   4.507   2.741   5.121 -0.7247  0.2819 -0.2589
 5297SOL    HW127353   4.597   2.768   5.106 -0.0821 -1.1378  1.0531
 5297SOL    HW227354   4.469   2.764   5.036 -2.4266  0.4953  0.5504
 5298SOL     OW27355   0.638   4.414   9.195 -0.1764 -0.6408  0.3715
 5298SOL    HW127356   0.721   4.446   9.161  0.2665 -1.8374  0.3352
 5298SOL    HW227357   0.636   4.327   9.157 -0.4327 -0.1285 -0.7695
 5299SOL     OW27358   0.479   2.164   9.004 -0.2326  0.4435 -0.2500
 5299SOL    HW127359   0.462   2.184   8.912 -2.1145 -1.3975 -0.3108
 5299SOL    HW227360   0.563   2.118   9.002  0.1962  1.2563 -0.6845
 5300SOL     OW27361   0.780   1.723  10.852 -0.2330  0.3244 -0.2990
 5300SOL    HW127362   0.804   1.667  10.926  2.5824  2.7757  0.6997
 5300SOL    HW227363   0.747   1.805  10.891  0.8740  0.1332  1.0754
 5301SOL     OW27364   3.265   0.759  13.266 -0.6532 -0.3568  0.2128
 5301SOL    HW127365   3.299   0.749  13.355  0.8029  0.1101 -0.2928
 5301SOL    HW227366   3.173   0.763  13.290 -0.4444 -0.0867  0.9615
 5302SOL     OW27367   1.224   4.703   3.944  0.2281  0.0988 -0.3421
 5302SOL    HW127368   1.250   4.675   4.032  2.9593  0.8681 -0.9404
 5302SOL    HW227369   1.140   4.656   3.943  0.9755 -1.2866  2.3065
 5303SOL     OW27370   4.606   0.508   4.585 -0.6260  0.2178  0.1225
 5303SOL    HW127371   4.589   0.415   4.572  1.2787 -0.2911  1.2729
 5303SOL    HW227372   4.627   0.550   4.502 -3.2921 -1.1541 -1.2467
 5304SOL     OW27373   4.014   2.919   9.936  0.3353 -0.1659  0.1638
 5304SOL    HW127374   4.035   2.879  10.021 -3.2071  1.0404  1.6362
 5304SOL    HW227375   3.940   2.979   9.947  0.9300  0.5857  0.0152
 5305SOL     OW27376   1.332   4.036   6.750  0.4921 -0.0098 -0.6205
 5305SOL    HW127377   1.291   4.077   6.673 -0.5426 -0.0303 -0.0829
 5305SOL    HW227378   1.413   4.086   6.752 -0.2322  1.0671  1.8172
 5306SOL     OW27379   4.275   2.402  16.998 -0.1075  0.2745 -0.6146
 5306SOL    HW127380   4.303   2.487  17.030  0.5652 -0.2587  0.2162
 5306SOL    HW227381   4.303   2.342  17.067 -0.0783  1.8318  0.7179
 5307SOL     OW27382   4.034   0.952   7.350 -0.0899 -0.0444  0.1311
 5307SOL    HW127383   4.022   0.873   7.403  1.7097 -0.8056 -0.5768
 5307SOL    HW227384   4.042   0.912   7.263  2.3648  1.0927 -0.1775
 5308SOL     OW27385   0.188   3.255  14.609  0.1263  0.0745  0.6692
 5308SOL    HW127386   0.265   3.298  14.646  1.3814  0.7038 -2.7403
 5308SOL    HW227387   0.187   3.176  14.664  0.2254 -0.6606 -0.3882
 5309SOL     OW27388   0.561   0.264   3.872 -0.0887  0.0489 -0.6622
 5309SOL    HW127389   0.623   0.302   3.933 -1.4110 -0.8107  1.2012
 5309SOL    HW227390   0.586   0.314   3.794  1.8481 -1.9221 -1.3139
 5310SOL     OW27391   2.252   1.624   8.791  0.2683 -0.5032 -0.0617
 5310SOL    HW127392   2.293   1.622   8.877 -0.7849  1.2429  0.5033
 5310SOL    HW227393   2.219   1.714   8.788  0.7416 -0.2834  1.1666
 5311SOL     OW27394   0.010   4.232  17.626 -0.5229  0.5049 -0.4415
 5311SOL    HW127395   4.706   4.289  17.554  0.3310  0.3130 -0.9401
 5311SOL    HW227396   4.677   4.269  17.692 -1.2175 -2.8747  0.8285
 5312SOL     OW27397   3.887   1.101   4.668 -0.0241 -0.3093  0.7950
 5312SOL    HW127398   3.857   1.023   4.621 -0.5247  0.2808  0.1341
 5312SOL    HW227399   3.825   1.108   4.740 -0.6025  0.8342  0.1797
 5313SOL     OW27400   4.632   2.522   9.500  0.0481  0.1873  0.5592
 5313SOL    HW127401   4.688   2.481   9.434  0.4352  0.8733  0.4604
 5313SOL    HW227402   4.655   2.615   9.498  0.6777  0.0199  0.0159
 5314SOL     OW27403   0.884   2.925  12.591  0.1114 -0.0454  0.1581
 5314SOL    HW127404   0.852   2.947  12.504 -1.3935 -0.7213  0.5449
 5314SOL    HW227405   0.925   3.004  12.626  1.8575 -1.0869  0.4711
 5315SOL     OW27406   1.384   1.148  17.602  0.1441 -0.5935  0.2333
 5315SOL    HW127407   1.477   1.126  17.591  0.0456 -1.0874  0.3802
 5315SOL    HW227408   1.358   1.112  17.687  0.9203  1.7204  1.4496
 5316SOL     OW27409   3.903   0.429   8.145 -0.4035  0.0495 -0.0698
 5316SOL    HW127410   3.848   0.508   8.151 -0.3603  0.3050 -2.6829
 5316SOL    HW227411   3.898   0.414   8.050 -1.1796  1.2554 -0.2201
 5317SOL     OW27412   0.578   2.706   6.176  0.5190 -0.0083  0.5912
 5317SOL    HW127413   0.594   2.678   6.266  1.2468 -0.7607  0.2239
 5317SOL    HW227414   0.664   2.681   6.141  0.7702  1.3861  0.2149
 5318SOL     OW27415   0.632   0.904   8.074  0.2464  0.2324  0.4758
 5318SOL    HW127416   0.674   0.979   8.031  2.3108  1.3754  4.5293
 5318SOL    HW227417   0.675   0.836   8.022 -2.7409 -1.5857  0.3815
 5319SOL     OW27418   1.138   4.678  15.856  0.0477 -0.2057  0.1358
 5319SOL    HW127419   1.177   4.592  15.842  3.0240  1.3989 -1.4254
 5319SOL    HW227420   1.102   4.664  15.943 -0.0994  0.4429  0.1799
 5320SOL     OW27421   4.368   3.570  13.663  0.0019 -0.1034  0.1027
 5320SOL    HW127422   4.300   3.506  13.683 -1.0304  1.3198  1.1995
 5320SOL    HW227423   4.451   3.526  13.676 -0.2935 -0.3806  1.0202
 5321SOL     OW27424   1.678   1.806   8.820 -0.4312  0.2789 -0.4405
 5321SOL    HW127425   1.743   1.857   8.868 -1.0003  0.0131  0.6001
 5321SOL    HW227426   1.603   1.808   8.879  0.8616 -1.9087  1.2679
 5322SOL     OW27427   1.773   0.864   0.047  0.2885 -0.9096 -0.4018
 5322SOL    HW127428   1.758   0.910   0.130  0.7258  1.6679 -1.7522
 5322SOL    HW227429   1.705   0.798   0.057  0.4534 -0.9171  0.6859
 5323SOL     OW27430   3.853   4.125   1.018  0.2957  0.2645 -1.0948
 5323SOL    HW127431   3.894   4.155   0.937 -0.3767  0.8285 -1.2265
 5323SOL    HW227432   3.907   4.050   1.042 -0.5870 -1.1075 -3.3609
 5324SOL     OW27433   0.261   2.074   3.587  0.1012 -0.1162  0.0756
 5324SOL    HW127434   0.352   2.085   3.561  0.1677 -1.8217 -0.4098
 5324SOL    HW227435   0.283   2.044   3.675  0.6768 -2.9270 -1.0072
 5325SOL     OW27436   3.184   1.960   7.405 -0.2547  0.5592  0.0642
 5325SOL    HW127437   3.169   2.054   7.409 -1.1180  0.3670  1.5637
 5325SOL    HW227438   3.096   1.924   7.418  1.4802 -3.1391  1.4398
 5326SOL     OW27439   3.310   1.590   1.035  0.2688  0.4524 -0.6844
 5326SOL    HW127440   3.349   1.513   1.077  1.3401 -0.3055 -3.0473
 5326SOL    HW227441   3.229   1.546   1.009  2.1381 -2.6081 -1.4258
 5327SOL     OW27442   0.658   4.203  17.591  0.3588  0.2714  0.0120
 5327SOL    HW127443   0.723   4.265  17.624 -0.3103  0.6948  0.5220
 5327SOL    HW227444   0.715   4.127  17.579  0.9237  0.4907  1.2713
 5328SOL     OW27445   0.350   3.381  10.427  0.5075 -0.0709 -0.2368
 5328SOL    HW127446   0.435   3.421  10.442 -0.3669  0.9842  1.9875
 5328SOL    HW227447   0.381   3.293  10.406 -0.0158 -0.0253 -1.2033
 5329SOL     OW27448   2.170   1.234  11.308 -0.7454  0.2631 -0.0416
 5329SOL    HW127449   2.128   1.291  11.244 -2.9529 -0.4560  0.7463
 5329SOL    HW227450   2.249   1.200  11.267 -1.8064 -0.3084 -1.5792
 5330SOL     OW27451   2.504   0.358   4.484  0.0580  0.5197 -0.2863
 5330SOL    HW127452   2.452   0.438   4.476  0.7384  0.8485 -1.3025
 5330SOL    HW227453   2.498   0.346   4.579  1.9655  2.4987  0.0842
 5331SOL     OW27454   3.668   1.478   8.480 -0.0783 -0.0266 -0.5136
 5331SOL    HW127455   3.741   1.447   8.532 -1.3701  0.1506  1.4028
 5331SOL    HW227456   3.632   1.546   8.536  0.8268  0.3429 -0.3851
 5332SOL     OW27457   2.298   4.371   3.220  0.2210  0.2466 -0.6613
 5332SOL    HW127458   2.315   4.445   3.162  1.5403  0.5133  0.0834
 5332SOL    HW227459   2.203   4.380   3.220  0.4046  2.0919 -0.0186
 5333SOL     OW27460   1.549   3.190  12.529 -0.0976  0.1399 -0.3957
 5333SOL    HW127461   1.578   3.271  12.570 -0.8769  0.4062 -0.3661
 5333SOL    HW227462   1.473   3.161  12.581 -0.2898  1.5956  0.1381
 5334SOL     OW27463   4.356   1.342  16.080 -0.0379 -0.7726 -0.0226
 5334SOL    HW127464   4.318   1.290  16.009 -0.4270 -0.4428 -0.0543
 5334SOL    HW227465   4.283   1.402  16.096  0.5442  0.4182 -1.8062
 5335SOL     OW27466   1.923   3.523   6.526  0.6465  0.3272  0.2533
 5335SOL    HW127467   1.861   3.512   6.453 -1.2544 -1.1794  2.1010
 5335SOL    HW227468   1.988   3.583   6.489 -0.7654  0.8538 -1.4151
 5336SOL     OW27469   1.779   3.387   4.476 -0.4085  0.0931  0.0294
 5336SOL    HW127470   1.801   3.386   4.569  0.3942  0.3958 -0.1608
 5336SOL    HW227471   1.851   3.336   4.440  0.3580 -0.4296  2.3038
 5337SOL     OW27472   1.062   1.929   3.633  0.2519 -0.3897  0.3283
 5337SOL    HW127473   1.076   1.951   3.541 -0.0671 -1.0353  0.1219
 5337SOL    HW227474   1.110   2.005   3.664 -0.9054  0.8574 -0.9132
 5338SOL     OW27475   1.396   3.627   3.870 -0.5289  0.7526  0.2374
 5338SOL    HW127476   1.387   3.553   3.810  2.4479  1.2051 -0.7465
 5338SOL    HW227477   1.360   3.594   3.953 -1.4108  0.4812 -0.2519
 5339SOL     OW27478   4.123   3.909   0.615  0.1721  0.3675 -0.3249
 5339SOL    HW127479   4.190   3.892   0.682 -0.4740  1.3353  0.5706
 5339SOL    HW227480   4.175   3.948   0.545 -0.6487 -0.6592 -1.4839
 5340SOL     OW27481   0.237   2.550  16.387  0.2144  0.1031 -0.0262
 5340SOL    HW127482   0.221   2.642  16.407  0.9433  0.2195  0.0443
 5340SOL    HW227483   0.330   2.543  16.363  0.9194  2.3676  2.0349
 5341SOL     OW27484   2.710   0.109   1.161  0.2887 -0.0903 -0.1373
 5341SOL    HW127485   2.664   0.049   1.220  2.8090 -0.5126  1.3905
 5341SOL    HW227486   2.765   0.044   1.119  1.3110 -0.1721  1.3218
 5342SOL     OW27487   2.236   1.790   4.475  0.3537  0.1774 -0.2313
 5342SOL    HW127488   2.325   1.822   4.465  0.3031 -0.3814 -2.4692
 5342SOL    HW227489   2.249   1.759   4.564 -2.2141  0.1702  0.1633
 5343SOL     OW27490   1.443   1.713   7.756  0.6305 -0.1281 -0.0008
 5343SOL    HW127491   1.388   1.726   7.679 -0.2619  0.1521  0.6795
 5343SOL    HW227492   1.535   1.718   7.729  0.0798  2.3661 -1.4059
 5344SOL     OW27493   1.249   0.708   9.003  0.3502  0.3879  0.4656
 5344SOL    HW127494   1.309   0.729   9.075 -0.2468 -0.2322  1.1435
 5344SOL    HW227495   1.229   0.797   8.973 -1.2854  0.0773  0.6100
 5345SOL     OW27496   3.077   3.142   7.884  0.0242  0.5632  0.1804
 5345SOL    HW127497   3.120   3.059   7.862  0.5909  0.3460  2.0957
 5345SOL    HW227498   3.141   3.186   7.940 -1.0635  2.3231  0.0481
 5346SOL     OW27499   4.470   4.091  17.373  0.5876  0.0559  0.1751
 5346SOL    HW127500   4.506   4.065  17.458 -1.0544 -0.3060  0.7720
 5346SOL    HW227501   4.382   4.113  17.403 -0.0361  0.1405 -1.6733
 5347SOL     OW27502   2.252   0.867   3.841 -0.5196  0.1013 -0.4139
 5347SOL    HW127503   2.337   0.839   3.808 -0.8567  0.1732 -1.3384
 5347SOL    HW227504   2.288   0.944   3.885  0.7780 -0.8737  0.2039
 5348SOL     OW27505   1.271   3.586  15.446  0.4522 -0.1037  0.1776
 5348SOL    HW127506   1.236   3.581  15.535 -1.3526  0.7276 -0.4892
 5348SOL    HW227507   1.223   3.663  15.415 -0.3462 -0.8907 -0.5416
 5349SOL     OW27508   2.853   3.383   3.544 -0.2869  0.6395 -0.2702
 5349SOL    HW127509   2.857   3.289   3.525 -0.9290  0.4540  0.5021
 5349SOL    HW227510   2.797   3.373   3.621 -0.5002 -0.1256 -0.5293
 5350SOL     OW27511   2.872   1.775   9.423  0.3220 -0.0655 -0.4041
 5350SOL    HW127512   2.884   1.801   9.332 -1.6763 -0.2644 -0.7210
 5350SOL    HW227513   2.909   1.853   9.464 -2.4204  0.8063  0.4116
 5351SOL     OW27514   3.646   2.804   3.651 -0.6430 -0.7098 -0.4336
 5351SOL    HW127515   3.551   2.800   3.666 -0.6890 -0.7347 -0.7301
 5351SOL    HW227516   3.665   2.898   3.648 -0.9626 -0.6072  0.6463
 5352SOL     OW27517   3.180   3.595   5.301 -0.2266  0.0151  0.2590
 5352SOL    HW127518   3.109   3.655   5.280  2.5004  2.2247 -2.6165
 5352SOL    HW227519   3.187   3.558   5.213 -0.6389  0.7326 -0.0748
 5353SOL     OW27520   1.231   4.455  11.602  1.0050 -0.5657 -0.0221
 5353SOL    HW127521   1.161   4.440  11.539  0.1031 -2.0157  1.3071
 5353SOL    HW227522   1.181   4.483  11.678 -1.9655  1.2773 -2.6935
 5354SOL     OW27523   0.497   3.706  11.195 -0.6472 -0.4216 -0.0947
 5354SOL    HW127524   0.434   3.635  11.209  0.2636 -1.1660  0.1949
 5354SOL    HW227525   0.515   3.690  11.102 -0.6978  0.9541 -0.3464
 5355SOL     OW27526   2.358   4.344   9.845  0.4600 -0.5225  0.0006
 5355SOL    HW127527   2.309   4.299   9.776  0.3507 -0.1867 -0.1372
 5355SOL    HW227528   2.297   4.364   9.915 -0.2407 -0.3187 -0.6727
 5356SOL     OW27529   2.052   0.026   8.749 -0.1736 -0.1434 -0.1387
 5356SOL    HW127530   1.974   0.075   8.774 -1.1186 -0.5526 -2.2795
 5356SOL    HW227531   2.098   0.096   8.704  0.1770 -0.0995  0.2801
 5357SOL     OW27532   3.782   0.699  13.192  0.0170 -0.0661  0.2292
 5357SOL    HW127533   3.788   0.794  13.188  0.7951 -0.1637 -0.9661
 5357SOL    HW227534   3.775   0.696  13.287  2.1438  2.5110  0.4507
 5358SOL     OW27535   0.039   3.705   4.923 -0.2744 -0.0108 -0.3849
 5358SOL    HW127536   4.680   3.751   4.918  0.0068  0.9121  3.3577
 5358SOL    HW227537   0.085   3.770   4.871 -2.7981 -0.2154 -2.8793
 5359SOL     OW27538   4.281   0.155   3.562  0.3313  0.4319  0.2741
 5359SOL    HW127539   4.189   0.140   3.538  0.9536 -1.2021 -1.1016
 5359SOL    HW227540   4.315   0.069   3.537 -0.5788  0.6359 -1.7272
 5360SOL     OW27541   3.917   4.718   9.496 -0.2553 -0.2290 -0.3097
 5360SOL    HW127542   4.005   4.692   9.525 -1.3564 -2.7519  0.6916
 5360SOL    HW227543   3.902   0.063   9.560  0.7931  0.4092 -0.7644
 5361SOL     OW27544   1.344   3.819   8.672 -0.1932  0.0831 -0.2865
 5361SOL    HW127545   1.326   3.801   8.580 -0.0670  2.4140 -0.7794
 5361SOL    HW227546   1.295   3.902   8.674  0.0248  0.1049  4.2816
 5362SOL     OW27547   4.628   2.605   9.178 -0.6250  0.1994 -0.1235
 5362SOL    HW127548   4.628   2.666   9.104  1.6723 -1.1484 -1.2379
 5362SOL    HW227549   4.689   2.651   9.235 -0.1155  0.5335 -0.9415
 5363SOL     OW27550   4.510   3.730   7.683 -0.1752 -0.3385 -0.0195
 5363SOL    HW127551   4.459   3.805   7.651 -1.3835 -0.9399  0.4790
 5363SOL    HW227552   4.509   3.758   7.775 -2.3832  0.2147 -0.2195
 5364SOL     OW27553   2.896   4.104  14.832 -0.2776 -0.2511  0.3462
 5364SOL    HW127554   2.961   4.039  14.807  0.2904  0.8870 -1.1694
 5364SOL    HW227555   2.930   4.178  14.781  0.8175 -1.1103 -0.1665
 5365SOL     OW27556   0.063   2.353   8.946 -0.9705  0.0540 -0.3801
 5365SOL    HW127557   0.099   2.266   8.963 -1.8595 -0.2976 -0.2974
 5365SOL    HW227558   0.105   2.372   8.862 -0.9888  1.2703 -0.1216
 5366SOL     OW27559   1.004   1.623  12.045 -0.5854  0.7092 -0.2077
 5366SOL    HW127560   0.926   1.677  12.030 -2.2101 -1.7475 -0.7587
 5366SOL    HW227561   0.959   1.555  12.095  0.1344  1.1220  1.0003
 5367SOL     OW27562   0.496   2.222   4.320  0.5503  0.4023 -0.1650
 5367SOL    HW127563   0.432   2.193   4.255  0.3543 -1.8223  1.0122
 5367SOL    HW227564   0.568   2.194   4.264  1.9242  2.4874  0.5674
 5368SOL     OW27565   2.308   2.690  17.020 -0.3868 -0.5409 -0.1017
 5368SOL    HW127566   2.251   2.685  17.097 -2.9790  2.3174 -1.8478
 5368SOL    HW227567   2.300   2.599  16.992 -1.4934  0.1571 -2.0007
 5369SOL     OW27568   2.096   0.343   5.945 -0.2737  0.4340 -0.1356
 5369SOL    HW127569   2.043   0.347   6.025  0.0455 -0.6559  0.1342
 5369SOL    HW227570   2.150   0.269   5.976 -1.4527 -0.2956  0.1772
 5370SOL     OW27571   1.707   3.220   2.609  0.2693 -0.0780  0.1622
 5370SOL    HW127572   1.623   3.206   2.653  0.3170  1.6805  0.7997
 5370SOL    HW227573   1.671   3.282   2.545 -1.3493  1.5851  2.6928
 5371SOL     OW27574   0.515   4.609  16.511 -0.2034  0.2808  0.7202
 5371SOL    HW127575   0.493   4.564  16.592 -1.5710  1.2596  0.8893
 5371SOL    HW227576   0.434   4.594  16.461 -0.5918  1.4575  1.0026
 5372SOL     OW27577   3.616   4.720  13.900 -0.1026  0.2756  0.0089
 5372SOL    HW127578   3.640   0.072  13.951  1.5980  1.1292 -2.0755
 5372SOL    HW227579   3.556   0.032  13.835  0.4860  0.2864 -0.5223
 5373SOL     OW27580   1.143   0.237   9.152 -0.4977 -0.2862 -0.2021
 5373SOL    HW127581   1.214   0.174   9.160 -1.1273 -1.3331 -2.7815
 5373SOL    HW227582   1.179   0.319   9.186  0.5770 -0.7563 -0.2394
 5374SOL     OW27583   3.479   2.002   0.920 -0.8561 -0.5380  0.5842
 5374SOL    HW127584   3.445   2.029   1.005 -3.1537  0.6698 -0.6986
 5374SOL    HW227585   3.570   2.030   0.917 -0.7734 -0.9786 -1.2088
 5375SOL     OW27586   0.471   2.978  10.087 -0.1446  0.2515 -0.3445
 5375SOL    HW127587   0.485   2.888  10.117  1.1335 -0.2299 -2.3513
 5375SOL    HW227588   0.559   3.010  10.107 -0.0696 -1.8345  2.5804
 5376SOL     OW27589   2.084   1.175   3.976  0.0908 -0.1060 -0.6245
 5376SOL    HW127590   2.167   1.185   3.930 -0.1914  0.9937 -0.9073
 5376SOL    HW227591   2.069   1.268   3.993 -0.4090 -0.3841  0.4659
 5377SOL     OW27592   0.598   1.549   6.687 -0.2743  0.5483 -0.2151
 5377SOL    HW127593   0.513   1.587   6.707 -0.7933 -1.4359  1.3043
 5377SOL    HW227594   0.574   1.472   6.635  0.5197 -0.4185  0.8454
 5378SOL     OW27595   3.119   4.131   6.721 -0.2630  0.1166 -0.2713
 5378SOL    HW127596   3.144   4.221   6.739  1.5588 -0.2596 -0.9458
 5378SOL    HW227597   3.197   4.081   6.743 -0.7902 -1.6496 -2.3240
 5379SOL     OW27598   3.239   3.212   7.616  0.5273 -0.0806 -0.3276
 5379SOL    HW127599   3.265   3.304   7.611 -1.3011  0.4788  0.8750
 5379SOL    HW227600   3.144   3.210   7.619  0.5553  0.5509  0.8408
 5380SOL     OW27601   4.336   0.276   7.096  0.3115 -0.2889 -0.7899
 5380SOL    HW127602   4.328   0.253   7.003 -0.9996 -0.4787 -0.6286
 5380SOL    HW227603   4.264   0.337   7.112 -0.1500 -0.7583 -1.0681
 5381SOL     OW27604   1.171   1.803   5.722 -0.3080 -0.3127  0.1080
 5381SOL    HW127605   1.182   1.897   5.706  0.3147 -0.3150  0.5150
 5381SOL    HW227606   1.125   1.792   5.805 -0.9412 -0.9578 -0.3236
 5382SOL     OW27607   1.753   4.464   2.601 -0.1184 -0.5860  0.1532
 5382SOL    HW127608   1.744   4.408   2.524 -3.3087  1.7484 -1.1466
 5382SOL    HW227609   1.668   4.507   2.598 -0.0814 -0.5910 -0.7821
 5383SOL     OW27610   1.111   2.529   4.903 -0.3349  0.1967 -0.0267
 5383SOL    HW127611   1.146   2.618   4.904 -0.8333  0.4027 -1.0218
 5383SOL    HW227612   1.064   2.519   4.986  0.9583  1.6846  0.8696
 5384SOL     OW27613   3.861   0.573   8.934  0.5150 -0.2748  0.0189
 5384SOL    HW127614   3.922   0.500   8.940  0.9895  0.0558 -0.8254
 5384SOL    HW227615   3.779   0.524   8.931 -0.4258  1.3012  0.0692
 5385SOL     OW27616   0.322   2.316   0.457  0.4560  0.4131  0.1328
 5385SOL    HW127617   0.340   2.410   0.449 -0.4884  0.5978  0.1949
 5385SOL    HW227618   0.404   2.270   0.441  0.7333  0.6344  0.9262
 5386SOL     OW27619   0.830   2.099   0.686 -0.0788 -0.1141  0.1053
 5386SOL    HW127620   0.885   2.098   0.764  0.1288  0.9865 -0.0420
 5386SOL    HW227621   0.838   2.190   0.659  0.9658  0.2026  1.5284
 5387SOL     OW27622   2.348   1.898   6.156  0.3182  0.3706  0.1003
 5387SOL    HW127623   2.426   1.884   6.209  0.6241  1.1648 -0.1337
 5387SOL    HW227624   2.297   1.826   6.191 -0.8612  0.9395 -0.4542
 5388SOL     OW27625   0.888   3.718   7.686 -0.0161 -0.2761 -0.1830
 5388SOL    HW127626   0.793   3.719   7.695  0.1090  3.2514  0.6018
 5388SOL    HW227627   0.896   3.772   7.607  0.7977 -0.5003 -0.2598
 5389SOL     OW27628   1.496   0.558  11.535  0.4477  0.3634 -0.2376
 5389SOL    HW127629   1.549   0.605  11.600  1.6188 -1.6178  0.2169
 5389SOL    HW227630   1.555   0.566  11.460  0.0096 -1.8859 -0.7980
 5390SOL     OW27631   3.104   2.296  17.214  0.1839 -0.1128 -0.5058
 5390SOL    HW127632   3.113   2.237  17.140 -3.3301  0.0334 -1.0449
 5390SOL    HW227633   3.056   2.365  17.169 -2.7767 -2.7386 -1.3846
 5391SOL     OW27634   1.370   0.735  11.843  0.1229  0.0565  0.4822
 5391SOL    HW127635   1.353   0.642  11.824  3.4696 -0.8859  2.0752
 5391SOL    HW227636   1.464   0.735  11.824 -0.0455 -1.9677 -0.3835
 5392SOL     OW27637   3.383   1.707   5.666  0.2174 -0.0614 -0.4844
 5392SOL    HW127638   3.347   1.732   5.581  1.1066  0.0322 -0.8376
 5392SOL    HW227639   3.312   1.658   5.707  0.2556 -0.5763 -1.0185
 5393SOL     OW27640   3.316   1.336   8.061 -0.3134 -0.4161  0.6646
 5393SOL    HW127641   3.355   1.382   7.987 -1.4450  0.1560  0.4184
 5393SOL    HW227642   3.350   1.377   8.140  1.6590 -2.2852  0.7755
 5394SOL     OW27643   3.506   4.643   6.035  0.3212 -0.2483  0.1969
 5394SOL    HW127644   3.579   4.598   6.079  0.1480 -0.8091 -0.0811
 5394SOL    HW227645   3.542   0.006   6.027  1.7236 -0.7138  1.3489
 5395SOL     OW27646   3.206   1.189  12.531  0.3645 -0.5804 -0.0331
 5395SOL    HW127647   3.147   1.137  12.587 -1.3365 -2.3582 -3.4720
 5395SOL    HW227648   3.261   1.229  12.598 -1.0719  0.7689  0.3665
 5396SOL     OW27649   3.920   1.850  14.655 -0.4063 -0.1004  0.1182
 5396SOL    HW127650   3.942   1.935  14.693  3.4049 -0.7892 -0.5793
 5396SOL    HW227651   3.841   1.865  14.602  0.9512  1.3823 -1.4497
 5397SOL     OW27652   2.184   4.505   2.223  0.1220 -0.5206 -0.5661
 5397SOL    HW127653   2.090   4.520   2.218  0.0072 -0.0685  2.9301
 5397SOL    HW227654   2.229   4.543   2.148 -0.3692  1.5660  0.2113
 5398SOL     OW27655   2.425   3.427   4.482  0.1099  0.1347 -0.0133
 5398SOL    HW127656   2.348   3.480   4.458  1.5247  1.9855 -0.4446
 5398SOL    HW227657   2.477   3.431   4.402 -1.7601 -1.6406 -1.3274
 5399SOL     OW27658   3.782   0.356  14.449 -0.1942 -0.7042 -0.2254
 5399SOL    HW127659   3.774   0.442  14.491 -2.2730 -1.6472  1.3466
 5399SOL    HW227660   3.763   0.302  14.526  0.3582  0.9301  1.0866
 5400SOL     OW27661   0.346   1.376  16.795 -0.2760 -0.7230  0.0242
 5400SOL    HW127662   0.275   1.312  16.804  1.4930 -2.5929  0.6341
 5400SOL    HW227663   0.429   1.328  16.801 -1.2470 -2.1747  2.2807
 5401SOL     OW27664   2.006   0.688   1.342  0.0936  0.6884  0.2546
 5401SOL    HW127665   1.916   0.709   1.314 -0.5926 -0.5600  1.5839
 5401SOL    HW227666   2.032   0.629   1.271  2.3669  0.1932  1.5215
 5402SOL     OW27667   1.354   3.638   4.720 -0.6810 -0.1610  0.4634
 5402SOL    HW127668   1.365   3.562   4.776  2.0467 -1.0040 -1.2279
 5402SOL    HW227669   1.278   3.601   4.676  0.2776 -0.5251 -0.8777
 5403SOL     OW27670   2.147   4.286  10.046  0.2215  0.2798  0.0974
 5403SOL    HW127671   2.160   4.201  10.004 -1.9528 -0.3544  0.7420
 5403SOL    HW227672   2.069   4.268  10.098 -0.8552  1.4210 -1.1246
 5404SOL     OW27673   0.027   0.734   3.375  0.2477 -0.9994 -0.8179
 5404SOL    HW127674   0.021   0.639   3.364  1.1632 -1.2022  0.4666
 5404SOL    HW227675   0.036   0.744   3.469  1.0553  0.2884 -1.0463
 5405SOL     OW27676   2.400   0.062   8.814 -0.5094 -0.6413  0.1183
 5405SOL    HW127677   2.415   0.044   8.907 -0.2256  0.8286  0.3481
 5405SOL    HW227678   2.376   0.154   8.827 -1.6546 -0.6318 -2.0147
 5406SOL     OW27679   4.606   2.771  12.455 -0.4868  0.4829  0.2479
 5406SOL    HW127680   4.675   2.789  12.391 -2.0345  0.4933 -1.4169
 5406SOL    HW227681   4.594   2.855  12.500  0.2193  0.7376 -0.0444
 5407SOL     OW27682   1.566   2.970   7.018  0.1620 -0.1272  0.5399
 5407SOL    HW127683   1.499   3.007   7.075 -2.0757 -0.8968 -1.5930
 5407SOL    HW227684   1.521   2.886   7.014  1.1016 -0.5022 -2.4964
 5408SOL     OW27685   1.473   4.379  15.939 -0.3788 -0.3167  0.5242
 5408SOL    HW127686   1.384   4.399  15.968 -0.7228 -0.4393 -0.4441
 5408SOL    HW227687   1.511   4.466  15.920 -0.3415  0.0446  2.2812
 5409SOL     OW27688   1.455   3.608  12.778  0.3682 -0.1355  0.3653
 5409SOL    HW127689   1.384   3.672  12.773 -0.8436 -1.4579  0.6947
 5409SOL    HW227690   1.489   3.603  12.688 -3.3761  0.7738 -1.1161
 5410SOL     OW27691   0.055   1.740   7.127 -0.1464 -0.9022  0.0099
 5410SOL    HW127692   0.073   1.803   7.197 -1.1079 -2.7233  1.8856
 5410SOL    HW227693   4.684   1.747   7.130 -0.0658  0.1992  0.0545
 5411SOL     OW27694   3.384   0.404  16.001 -0.0536 -0.1948  0.0361
 5411SOL    HW127695   3.325   0.476  16.021  0.5077  0.0552  0.8231
 5411SOL    HW227696   3.432   0.447  15.930  0.4982 -2.4613 -0.9799
 5412SOL     OW27697   1.285   2.290   2.880  0.3071  0.0973 -0.1404
 5412SOL    HW127698   1.270   2.197   2.898  3.7479 -0.4192  0.2152
 5412SOL    HW227699   1.352   2.305   2.947 -1.8040  0.8315  1.7955
 5413SOL     OW27700   2.822   0.666   6.325 -0.1095 -0.2014 -0.3142
 5413SOL    HW127701   2.758   0.654   6.255 -0.0883  1.7732 -0.6779
 5413SOL    HW227702   2.896   0.629   6.278  0.0429 -1.4969  0.9364
 5414SOL     OW27703   0.212   3.119  10.716  0.3131 -0.0314  0.2611
 5414SOL    HW127704   0.155   3.190  10.688  1.3951  1.0526  0.8359
 5414SOL    HW227705   0.147   3.048  10.716 -1.0384  1.2029 -0.3965
 5415SOL     OW27706   1.480   1.853   5.707 -0.3460  0.2831 -0.2671
 5415SOL    HW127707   1.440   1.861   5.620 -1.5277  1.1295  0.3472
 5415SOL    HW227708   1.524   1.769   5.702  1.2176  1.0914 -0.1175
 5416SOL     OW27709   4.439   1.852   8.415  0.7603 -0.6374  0.2689
 5416SOL    HW127710   4.440   1.829   8.322  0.4735  1.5546 -0.2941
 5416SOL    HW227711   4.411   1.944   8.415  3.4171  0.1654  1.3050
 5417SOL     OW27712   0.931   2.736  11.051  0.0812  0.0925 -0.1465
 5417SOL    HW127713   0.891   2.814  11.011 -0.3886 -1.0267 -1.8647
 5417SOL    HW227714   0.864   2.706  11.113  0.1209 -0.8301 -0.5595
 5418SOL     OW27715   4.588   4.586  12.786  0.2710 -0.5872 -0.6031
 5418SOL    HW127716   4.621   4.663  12.739 -1.7607  0.9765  0.5190
 5418SOL    HW227717   4.653   4.519  12.765 -0.2843 -1.3037 -0.0497
 5419SOL     OW27718   1.013   2.743   5.567  0.1959  0.2475 -0.0569
 5419SOL    HW127719   0.947   2.682   5.602  1.2217 -0.7193  0.1805
 5419SOL    HW227720   1.097   2.707   5.594 -0.0679 -0.0691  0.3329
 5420SOL     OW27721   1.564   4.489   7.457 -0.1758 -0.1638 -0.3078
 5420SOL    HW127722   1.480   4.446   7.438  0.0300  0.2027 -1.9914
 5420SOL    HW227723   1.562   4.487   7.553  0.0840  2.3327 -0.2553
 5421SOL     OW27724   4.417   2.807   7.265  0.0527 -0.2267  0.0013
 5421SOL    HW127725   4.355   2.865   7.308 -1.1098 -0.0345 -1.9187
 5421SOL    HW227726   4.373   2.726   7.238 -1.0994  0.4990 -0.2786
 5422SOL     OW27727   3.706   1.622  12.525  0.4370 -0.0309 -0.2765
 5422SOL    HW127728   3.741   1.677  12.595  1.2500  0.2895 -0.9286
 5422SOL    HW227729   3.755   1.540  12.533  2.1631  1.1398  1.1248
 5423SOL     OW27730   0.726   3.670  11.738  0.2234 -0.3855  0.6543
 5423SOL    HW127731   0.674   3.592  11.719  0.2297 -0.3263  0.3938
 5423SOL    HW227732   0.700   3.691  11.828 -1.9247  0.4493 -0.1604
 5424SOL     OW27733   0.401   3.263   3.546  0.1185  0.0919 -0.0606
 5424SOL    HW127734   0.353   3.221   3.475  0.9122  0.3989 -0.7763
 5424SOL    HW227735   0.405   3.352   3.512  1.1151  0.0486 -0.0562
 5425SOL     OW27736   3.247   3.836   4.791 -0.3981 -0.3239 -0.2833
 5425SOL    HW127737   3.243   3.770   4.722  0.1341 -1.3667  0.6832
 5425SOL    HW227738   3.216   3.921   4.759  1.2881  0.3159 -0.2256
 5426SOL     OW27739   0.489   1.671   2.524  0.3055  0.1631 -0.3984
 5426SOL    HW127740   0.563   1.614   2.544 -1.1240 -2.7254 -3.3182
 5426SOL    HW227741   0.476   1.724   2.603  0.5424 -4.1991  2.5686
 5427SOL     OW27742   3.585   2.689   7.222 -0.3464  0.7523  0.2511
 5427SOL    HW127743   3.518   2.696   7.290 -0.2252  3.0124  0.1548
 5427SOL    HW227744   3.640   2.619   7.256 -0.8101  0.6927  0.8702
 5428SOL     OW27745   3.534   3.535   9.562  0.0644 -0.0532  0.3825
 5428SOL    HW127746   3.580   3.452   9.545 -0.9093 -0.5792  0.3318
 5428SOL    HW227747   3.455   3.487   9.586 -0.4163  0.6709  0.2456
 5429SOL     OW27748   3.053   0.446  15.639  0.5087 -0.4014 -0.4602
 5429SOL    HW127749   2.986   0.462  15.572 -1.1044  0.9191  1.4516
 5429SOL    HW227750   3.092   0.533  15.637  0.0105 -0.1838 -0.8893
 5430SOL     OW27751   4.657   1.211   9.030 -0.3820  0.2643  0.0481
 5430SOL    HW127752   4.607   1.238   8.953 -1.6554  0.2130  0.8644
 5430SOL    HW227753   4.684   1.126   8.995 -0.8127 -0.3458  1.2188
 5431SOL     OW27754   1.058   0.439  14.171 -0.1475  0.3791  0.0662
 5431SOL    HW127755   1.030   0.396  14.251  0.5535 -2.6296 -1.2883
 5431SOL    HW227756   0.973   0.469  14.139  0.2254 -0.0542 -1.3450
 5432SOL     OW27757   3.558   3.643   5.549 -0.6182 -0.0490  0.3126
 5432SOL    HW127758   3.580   3.677   5.636 -0.5484  0.2677  0.1738
 5432SOL    HW227759   3.466   3.619   5.556 -0.0918 -1.8855  0.8672
 5433SOL     OW27760   1.257   2.351  13.820  0.1567  0.6625  0.5253
 5433SOL    HW127761   1.317   2.426  13.826 -0.2586  0.9944  0.4494
 5433SOL    HW227762   1.219   2.342  13.908  0.2202  1.7322  0.6551
 5434SOL     OW27763   1.095   0.718   6.271  0.0926 -0.0407 -0.0212
 5434SOL    HW127764   1.133   0.636   6.303  1.9318 -0.0546 -2.2227
 5434SOL    HW227765   1.014   0.717   6.321  0.4930 -2.1243  0.5982
 5435SOL     OW27766   3.645   2.315   7.601  0.6107  0.1003 -0.1783
 5435SOL    HW127767   3.637   2.227   7.637 -0.0893  0.0875 -0.3546
 5435SOL    HW227768   3.716   2.348   7.656  0.8771 -1.3700  0.3671
 5436SOL     OW27769   4.173   3.107   6.586 -0.1137 -0.0225  0.8559
 5436SOL    HW127770   4.163   3.202   6.581  0.5825  0.0558  0.9612
 5436SOL    HW227771   4.138   3.067   6.507 -2.8244 -1.4155  2.7432
 5437SOL     OW27772   2.909   1.585   7.218 -0.8139  0.5037  0.3123
 5437SOL    HW127773   2.927   1.663   7.166  0.2946 -0.6435 -1.0252
 5437SOL    HW227774   2.847   1.539   7.162  1.9137 -0.7495 -1.6531
 5438SOL     OW27775   1.916   2.319  14.159 -0.4176  0.4860 -0.0107
 5438SOL    HW127776   1.989   2.261  14.180 -1.0790 -0.8887 -1.4706
 5438SOL    HW227777   1.934   2.354  14.072  0.0516  0.5227  0.1035
 5439SOL     OW27778   4.220   3.407   5.345 -0.0147  0.1396  0.5413
 5439SOL    HW127779   4.135   3.364   5.355 -0.4986  0.9926  0.1023
 5439SOL    HW227780   4.199   3.474   5.279 -0.3515  0.6711  1.1845
 5440SOL     OW27781   0.745   0.693   7.970  0.3036 -0.2996 -0.0998
 5440SOL    HW127782   0.824   0.667   8.016  0.7875  1.3789 -0.0016
 5440SOL    HW227783   0.785   0.714   7.885  0.1708 -2.0846 -0.6029
 5441SOL     OW27784   0.123   2.176  16.981  0.1076 -0.1065  0.6726
 5441SOL    HW127785   0.032   2.145  16.976 -0.2649  1.0470  0.1654
 5441SOL    HW227786   0.116   2.261  17.024  0.4066 -1.4440  3.3526
 5442SOL     OW27787   2.891   1.069  15.438 -0.1379 -0.4347  0.8226
 5442SOL    HW127788   2.953   1.027  15.377 -0.1078  0.5792  0.1440
 5442SOL    HW227789   2.816   1.012  15.423  0.4370 -0.6455 -1.3805
 5443SOL     OW27790   1.515   4.077   4.740  0.6137  0.1537 -0.5404
 5443SOL    HW127791   1.547   4.158   4.781  0.2675 -0.2769  0.5719
 5443SOL    HW227792   1.511   4.091   4.645  1.1426  2.0907 -0.2885
 5444SOL     OW27793   0.988   3.488   8.008 -0.1415  0.2735  0.7856
 5444SOL    HW127794   0.896   3.475   7.983 -0.0731 -0.9368  1.1614
 5444SOL    HW227795   1.028   3.520   7.928  0.4042  1.0829  1.3862
 5445SOL     OW27796   0.566   0.287  13.838 -0.0771 -0.1863 -0.1952
 5445SOL    HW127797   0.621   0.236  13.778 -1.8929 -2.2665 -0.0820
 5445SOL    HW227798   0.619   0.280  13.917 -0.8072 -0.3854  0.2733
 5446SOL     OW27799   0.293   1.071   7.712 -0.0539 -0.4697 -0.1631
 5446SOL    HW127800   0.357   1.068   7.641  1.1415 -0.1908  0.8961
 5446SOL    HW227801   0.228   1.124   7.667  1.0418  0.9783 -0.0418
 5447SOL     OW27802   3.405   3.995  10.154 -0.1358  0.3296 -0.0635
 5447SOL    HW127803   3.498   4.018  10.159  0.4823 -0.9506 -5.3415
 5447SOL    HW227804   3.403   3.915  10.206 -0.2399  0.2773 -0.1475
 5448SOL     OW27805   4.333   2.995   4.111 -0.7180 -0.2095  0.5054
 5448SOL    HW127806   4.342   3.078   4.158  1.0919  0.0218 -0.2546
 5448SOL    HW227807   4.410   3.002   4.054 -1.5745  0.9870 -0.4868
 5449SOL     OW27808   2.863   4.060   8.005 -0.5371 -0.0565 -0.0404
 5449SOL    HW127809   2.936   4.066   8.068 -0.5972 -0.2495  0.0479
 5449SOL    HW227810   2.845   4.152   7.986  2.7983  0.9187  1.4991
 5450SOL     OW27811   4.060   4.148   2.574  0.1889  0.4054  0.1896
 5450SOL    HW127812   4.156   4.154   2.578  0.3944 -1.3806 -2.3460
 5450SOL    HW227813   4.046   4.183   2.486 -0.3341  1.6544  0.7613
 5451SOL     OW27814   1.690   1.080   0.946  0.0573 -0.0505 -0.7750
 5451SOL    HW127815   1.613   1.131   0.924 -0.9852 -1.3875 -0.1973
 5451SOL    HW227816   1.762   1.138   0.920  0.8302 -1.1127 -1.0102
 5452SOL     OW27817   3.393   0.148  15.867 -0.0057 -0.3858  0.1451
 5452SOL    HW127818   3.409   0.182  15.954 -0.4974 -0.0318  0.0975
 5452SOL    HW227819   3.362   0.224  15.818  0.4125  0.0780  0.6078
 5453SOL     OW27820   4.217   2.272  16.643 -0.1175 -0.4359  0.2885
 5453SOL    HW127821   4.283   2.203  16.655  0.4135  0.5493  2.7817
 5453SOL    HW227822   4.273   2.337  16.601 -0.1923 -0.4569  0.1558
 5454SOL     OW27823   3.957   1.237   8.410  0.0916 -0.2626 -0.3310
 5454SOL    HW127824   3.938   1.203   8.497  0.1764 -0.5977 -0.4413
 5454SOL    HW227825   4.034   1.293   8.417 -0.4965  0.4992 -0.0190
 5455SOL     OW27826   4.227   2.162   9.575  0.5808 -0.5143  0.2112
 5455SOL    HW127827   4.248   2.222   9.646  0.7441 -0.5423  0.1852
 5455SOL    HW227828   4.306   2.110   9.565  1.3777  0.4238  1.7065
 5456SOL     OW27829   2.326   0.754   5.752  0.3890 -0.4309  0.4516
 5456SOL    HW127830   2.261   0.810   5.710  2.5168  1.0806 -0.8404
 5456SOL    HW227831   2.296   0.666   5.730 -2.1599  0.0860  1.9652
 5457SOL     OW27832   2.709   0.792  15.706  0.2234 -0.5176  0.9358
 5457SOL    HW127833   2.769   0.734  15.659  0.9820  0.6310  0.4838
 5457SOL    HW227834   2.711   0.875  15.658 -1.2437  0.0559  1.8713
 5458SOL     OW27835   1.981   4.440   2.946 -0.1302  0.1378  0.4323
 5458SOL    HW127836   1.984   4.432   3.042 -2.3898  0.4297  0.5352
 5458SOL    HW227837   2.056   4.389   2.917  0.4324  3.0567 -3.1489
 5459SOL     OW27838   1.605   0.293  14.832  0.1938  0.1465 -0.1484
 5459SOL    HW127839   1.584   0.205  14.800  1.3530 -0.8457  1.8685
 5459SOL    HW227840   1.670   0.319  14.767 -0.3143  2.4856  0.2851
 5460SOL     OW27841   0.363   0.241   8.285  0.6871 -0.1873  0.2155
 5460SOL    HW127842   0.445   0.198   8.260  1.0555  0.6952 -0.1293
 5460SOL    HW227843   0.313   0.196   8.217  2.0679  0.2750 -1.1160
 5461SOL     OW27844   3.277   3.854   7.100 -0.1073 -0.3301  0.2474
 5461SOL    HW127845   3.286   3.775   7.153 -1.2111 -0.7270 -0.1457
 5461SOL    HW227846   3.341   3.916   7.135 -0.5102  1.6540 -2.5721
 5462SOL     OW27847   0.428   2.589  14.914 -0.5201  0.6051  0.5361
 5462SOL    HW127848   0.398   2.578  15.004 -1.1894 -3.3647 -0.1838
 5462SOL    HW227849   0.517   2.617  14.936 -0.5644  0.2388  1.1728
 5463SOL     OW27850   2.370   1.065   2.093 -0.3542  0.9854  0.2244
 5463SOL    HW127851   2.333   0.985   2.056 -3.6380  1.9599  1.4002
 5463SOL    HW227852   2.462   1.045   2.080 -0.4803 -0.3573  1.3623
 5464SOL     OW27853   2.335   1.048   4.772 -0.6828  0.3445  0.3159
 5464SOL    HW127854   2.396   0.977   4.753 -1.3171 -0.6059  1.8461
 5464SOL    HW227855   2.366   1.126   4.726 -2.3174 -0.6624 -2.4856
 5465SOL     OW27856   2.928   2.484   7.710 -0.1604 -0.1014 -0.3382
 5465SOL    HW127857   2.920   2.398   7.751  2.5037  0.0375  0.4771
 5465SOL    HW227858   2.902   2.536   7.786  0.0784  0.2974 -0.5301
 5466SOL     OW27859   0.039   2.384   0.673  0.4639  0.2850 -0.3682
 5466SOL    HW127860   4.718   2.367   0.591 -2.3587  0.2549  1.2310
 5466SOL    HW227861   4.711   2.352   0.746 -0.3978 -2.3179 -2.1404
 5467SOL     OW27862   2.061   0.523  14.965 -0.2786 -0.4967 -0.2526
 5467SOL    HW127863   2.007   0.587  15.012  1.3493 -0.3861  1.4881
 5467SOL    HW227864   2.139   0.534  15.020  0.9845  1.7510 -2.4927
 5468SOL     OW27865   2.216   0.732   7.571  0.4306 -0.6648  0.1598
 5468SOL    HW127866   2.282   0.754   7.506  1.5550  0.0597  1.5515
 5468SOL    HW227867   2.191   0.816   7.609  0.4201  0.0155 -1.3632
 5469SOL     OW27868   0.692   1.333  10.249  0.5541 -1.1300 -0.7894
 5469SOL    HW127869   0.706   1.263  10.312  0.3305  0.8701  1.4737
 5469SOL    HW227870   0.762   1.394  10.273 -3.3036  3.3409 -1.0290
 5470SOL     OW27871   2.678   3.548   7.254  0.7906 -0.0053 -0.1053
 5470SOL    HW127872   2.713   3.518   7.338 -1.2571  2.7196  1.7167
 5470SOL    HW227873   2.688   3.466   7.204  0.1390  0.4691 -1.0073
 5471SOL     OW27874   1.501   4.154   0.196 -0.2291 -0.1344 -0.4702
 5471SOL    HW127875   1.484   4.086   0.261  2.3425  0.3460  0.6935
 5471SOL    HW227876   1.588   4.130   0.165 -0.5536  0.3276 -1.7691
 5472SOL     OW27877   1.189   2.813   1.738 -0.1457  0.3583  0.0273
 5472SOL    HW127878   1.135   2.740   1.705 -0.3963  0.6341 -0.1801
 5472SOL    HW227879   1.231   2.848   1.659  3.4096  0.5231  2.0276
 5473SOL     OW27880   4.031   0.825   3.366  0.1069 -0.3331 -0.0283
 5473SOL    HW127881   4.034   0.731   3.381  0.2530 -0.3939 -0.4490
 5473SOL    HW227882   4.104   0.835   3.305 -0.5873  0.9025 -0.6616
 5474SOL     OW27883   0.714   2.794   9.224  0.6351  0.3040 -0.2763
 5474SOL    HW127884   0.644   2.731   9.243  2.4244 -1.0856  1.7256
 5474SOL    HW227885   0.774   2.727   9.193  1.5467  0.9523  0.1007
 5475SOL     OW27886   1.702   3.341  12.829  0.9500 -0.0404 -0.0193
 5475SOL    HW127887   1.757   3.398  12.775 -0.8710  2.3032  0.6087
 5475SOL    HW227888   1.761   3.266  12.838  1.2570 -0.0688 -2.2400
 5476SOL     OW27889   3.727   2.396  16.307  0.6051 -0.1009  0.2990
 5476SOL    HW127890   3.666   2.431  16.371 -0.1590  0.9917 -1.0253
 5476SOL    HW227891   3.740   2.308  16.341 -0.2389  0.7932  2.8705
 5477SOL     OW27892   3.225   2.129   6.222 -0.0890  0.1584  0.2395
 5477SOL    HW127893   3.299   2.171   6.180 -0.2802 -3.2024 -3.5387
 5477SOL    HW227894   3.249   2.153   6.311 -1.2011  1.9778  0.0485
 5478SOL     OW27895   2.545   0.571  11.346  0.0265  0.3439  0.0061
 5478SOL    HW127896   2.508   0.504  11.403 -0.2744 -0.4415 -1.0950
 5478SOL    HW227897   2.616   0.608  11.398 -0.3940  0.2088  0.6746
 5479SOL     OW27898   3.706   2.449   8.410  0.0924  0.2163 -0.0434
 5479SOL    HW127899   3.705   2.363   8.367  0.1708  0.2694 -0.1503
 5479SOL    HW227900   3.634   2.439   8.473  0.0626  0.9230  0.0329
 5480SOL     OW27901   4.637   1.829  10.700 -0.0359 -0.6340 -0.4142
 5480SOL    HW127902   4.698   1.903  10.701 -0.6888 -0.0698 -1.7616
 5480SOL    HW227903   4.568   1.863  10.757  2.0947  1.1705  1.0892
 5481SOL     OW27904   1.117   1.873   2.439  0.4434  0.1562  0.3684
 5481SOL    HW127905   1.173   1.941   2.475  0.0625  0.6033  0.1161
 5481SOL    HW227906   1.071   1.853   2.520  1.6796  2.5878  1.6934
 5482SOL     OW27907   0.834   4.469   2.669 -0.1215  0.2815  0.8293
 5482SOL    HW127908   0.802   4.488   2.581  2.7874  0.1056 -0.2531
 5482SOL    HW227909   0.891   4.543   2.687  0.4556  0.5116 -1.9615
 5483SOL     OW27910   2.929   0.705   8.613 -0.1942  0.3432  0.4869
 5483SOL    HW127911   2.949   0.617   8.644 -0.4711  0.5410  1.2244
 5483SOL    HW227912   3.001   0.761   8.643 -2.0661  2.5963  0.7677
 5484SOL     OW27913   3.832   2.000   8.957 -0.2470 -0.1564  0.1698
 5484SOL    HW127914   3.914   1.985   9.005  1.4861  0.3160 -2.6753
 5484SOL    HW227915   3.778   1.939   9.007 -1.3972  1.5143  0.9475
 5485SOL     OW27916   1.735   3.983   6.342  0.0647  0.1042 -0.2349
 5485SOL    HW127917   1.777   3.969   6.257  0.3204 -2.6084  0.3327
 5485SOL    HW227918   1.649   3.945   6.322  0.9332 -2.8570  1.7163
 5486SOL     OW27919   1.168   1.243  12.194 -0.1926 -0.0120  0.2053
 5486SOL    HW127920   1.100   1.309  12.188  1.0204  1.2598  0.5574
 5486SOL    HW227921   1.126   1.188  12.128 -1.5648 -2.0688  2.7892
 5487SOL     OW27922   1.888   0.465   3.523 -0.5216 -0.3435 -0.2354
 5487SOL    HW127923   1.846   0.548   3.547 -0.5529  0.2228 -2.2493
 5487SOL    HW227924   1.920   0.432   3.607  0.0434  2.7684  0.7677
 5488SOL     OW27925   1.190   2.600   1.523  0.5034  0.0530  0.4544
 5488SOL    HW127926   1.115   2.636   1.476 -0.2262 -0.6969  1.0393
 5488SOL    HW227927   1.185   2.509   1.494 -0.2059  0.2571 -0.0711
 5489SOL     OW27928   0.189   4.129   7.170  0.0767  0.0215  0.2032
 5489SOL    HW127929   0.174   4.035   7.182 -0.4083  0.0304 -0.2933
 5489SOL    HW227930   0.105   4.142   7.126 -0.4804 -2.2568  0.6202
 5490SOL     OW27931   4.040   3.945   3.451 -0.9488  0.4274  0.1723
 5490SOL    HW127932   4.065   3.882   3.518  2.1673  2.0358  0.5431
 5490SOL    HW227933   4.124   3.962   3.407 -1.2051 -1.2674 -0.9891
 5491SOL     OW27934   4.320   4.550   6.079 -0.1011 -0.2485 -0.0074
 5491SOL    HW127935   4.406   4.514   6.057 -0.0774 -0.9273  1.2022
 5491SOL    HW227936   4.328   4.581   6.170 -0.1570 -0.9745  0.2480
 5492SOL     OW27937   3.651   4.682  14.659  0.1175 -0.1475 -0.2787
 5492SOL    HW127938   3.695   4.614  14.608  0.0236  1.7473 -2.8936
 5492SOL    HW227939   3.576   4.629  14.689  1.3725 -0.4899  2.2564
 5493SOL     OW27940   1.653   2.712  10.970  0.1272  0.5762  0.0951
 5493SOL    HW127941   1.625   2.727  11.060 -0.9561 -0.9433  0.0162
 5493SOL    HW227942   1.607   2.629  10.960 -1.2662  1.3866 -0.1644
 5494SOL     OW27943   3.252   3.439   2.846  0.6056 -0.0598 -0.4802
 5494SOL    HW127944   3.236   3.371   2.781  0.6005 -0.5643  0.0472
 5494SOL    HW227945   3.168   3.483   2.834  0.7723  0.2498 -0.5080
 5495SOL     OW27946   0.429   3.090   6.580 -0.1951 -0.3235 -0.1859
 5495SOL    HW127947   0.473   3.135   6.508  0.8425 -0.4384  0.3847
 5495SOL    HW227948   0.455   3.001   6.561  1.1034 -0.2146  1.0761
 5496SOL     OW27949   0.529   0.267   4.719 -0.2608 -0.0512 -0.2431
 5496SOL    HW127950   0.562   0.288   4.632  1.0127 -1.1295 -0.0220
 5496SOL    HW227951   0.444   0.310   4.723 -0.5444 -0.7777  1.5360
 5497SOL     OW27952   0.932   1.039  16.566 -0.0703 -0.2146 -0.0146
 5497SOL    HW127953   0.960   0.988  16.643  0.5467 -1.7758 -1.2730
 5497SOL    HW227954   0.841   1.060  16.588 -0.4337 -0.0914 -1.6692
 5498SOL     OW27955   1.054   1.837   0.973 -0.1224  0.0569  0.4400
 5498SOL    HW127956   0.967   1.808   1.001  0.1484 -2.4184 -1.2427
 5498SOL    HW227957   1.038   1.848   0.880 -2.5271  0.8020  0.9504
 5499SOL     OW27958   2.899   1.897   5.866 -0.2212  0.2767  0.3148
 5499SOL    HW127959   2.929   1.975   5.913 -0.1458  0.6342 -0.3251
 5499SOL    HW227960   2.980   1.887   5.817 -0.3739  0.3425  0.0524
 5500SOL     OW27961   2.976   2.838  12.857 -0.0285 -0.4666 -0.0343
 5500SOL    HW127962   3.048   2.871  12.803 -1.3707  2.5778  0.0421
 5500SOL    HW227963   3.008   2.748  12.863 -0.9677 -0.6972  1.6443
 5501SOL     OW27964   0.621   3.167   8.894 -0.0957  0.3745 -0.1767
 5501SOL    HW127965   0.655   3.078   8.900  0.4971  0.5574 -0.8451
 5501SOL    HW227966   0.537   3.150   8.937  0.1951  1.2490  0.7318
 5502SOL     OW27967   0.386   2.666   0.222  0.6321  0.3647  0.2941
 5502SOL    HW127968   0.439   2.593   0.191 -1.8761 -1.2342 -0.2331
 5502SOL    HW227969   0.366   2.640   0.312  1.2689  3.5137  1.3514
 5503SOL     OW27970   2.653   4.191   1.350  0.1690  0.0590  0.5161
 5503SOL    HW127971   2.559   4.207   1.357 -0.0676 -1.2159  0.3077
 5503SOL    HW227972   2.647   4.112   1.296 -1.8072 -1.0911  2.4001
 5504SOL     OW27973   0.928   3.117   9.062 -0.1747  0.0243 -0.3099
 5504SOL    HW127974   0.884   3.201   9.069 -0.7309 -0.2119 -0.9740
 5504SOL    HW227975   0.867   3.073   9.002 -0.6009 -1.5952  1.2984
 5505SOL     OW27976   2.933   0.933   2.175  0.2036 -0.0631 -0.3320
 5505SOL    HW127977   2.939   0.867   2.106 -0.5140 -0.1912 -0.2652
 5505SOL    HW227978   2.896   1.003   2.121  1.1384 -0.8074 -1.9496
 5506SOL     OW27979   2.451   0.942  11.944 -0.0133  0.0989 -0.0952
 5506SOL    HW127980   2.454   1.033  11.975 -0.3861  0.7473 -1.9355
 5506SOL    HW227981   2.356   0.938  11.936 -0.1203  2.9422 -0.4300
 5507SOL     OW27982   0.913   4.003   6.339  0.3339 -0.4272 -0.8139
 5507SOL    HW127983   0.968   3.971   6.268  1.1318  1.7191 -1.1439
 5507SOL    HW227984   0.968   4.053   6.400  1.7497 -1.4650 -1.2567
 5508SOL     OW27985   2.781   2.999   2.160  0.6890 -0.0947  0.3087
 5508SOL    HW127986   2.722   3.051   2.106  1.1315  0.1951  0.1095
 5508SOL    HW227987   2.834   2.964   2.088  0.6244 -0.6484  0.5279
 5509SOL     OW27988   2.086   2.439  11.361 -0.0383 -0.4471 -0.2491
 5509SOL    HW127989   2.107   2.446  11.268  2.4369 -1.5164  0.2389
 5509SOL    HW227990   2.036   2.357  11.358 -2.5358  1.0746 -0.3674
 5510SOL     OW27991   0.453   4.113   5.567  1.4669  0.1826  1.1243
 5510SOL    HW127992   0.416   4.197   5.592 -1.2609 -0.8186  0.3910
 5510SOL    HW227993   0.462   4.128   5.473  0.1872  0.8767  1.1215
 5511SOL     OW27994   3.856   4.160   3.467 -0.0686 -0.4549 -0.0278
 5511SOL    HW127995   3.914   4.085   3.456 -1.2187 -1.4438  0.7055
 5511SOL    HW227996   3.857   4.172   3.562 -0.5557 -0.2118 -0.0534
 5512SOL     OW27997   0.784   4.693   5.482  0.3172  0.2195 -0.0054
 5512SOL    HW127998   0.713   4.683   5.418  0.1477 -0.0369  0.2234
 5512SOL    HW227999   0.728   4.661   5.552 -0.9762 -1.0843 -1.6181
 5513SOL     OW28000   3.555   1.790   5.321  0.3122 -0.0713  0.0531
 5513SOL    HW128001   3.570   1.865   5.263  0.8459 -1.7547 -2.0004
 5513SOL    HW228002   3.611   1.815   5.394 -0.7498 -0.9474  1.1695
 5514SOL     OW28003   0.133   3.056  14.282  0.1811  0.0554  0.2449
 5514SOL    HW128004   0.048   3.035  14.243  1.1021  0.5298 -2.0309
 5514SOL    HW228005   0.150   3.135  14.231  2.3972 -0.7050 -0.1840
 5515SOL     OW28006   2.465   3.195   4.002 -0.5266  0.0195  0.0811
 5515SOL    HW128007   2.381   3.230   4.033 -0.2022  0.0232  0.9215
 5515SOL    HW228008   2.430   3.153   3.923  0.8962 -0.0169 -0.5290
 5516SOL     OW28009   3.244   0.952  16.912 -0.2151 -0.2504 -0.1816
 5516SOL    HW128010   3.235   1.026  16.972 -0.4337  0.3511 -0.9496
 5516SOL    HW228011   3.230   0.880  16.974  0.3688 -0.2951 -0.1003
 5517SOL     OW28012   1.786   1.487   6.048  0.2950  0.5704  0.3487
 5517SOL    HW128013   1.767   1.482   6.141 -0.0090  0.2771  0.2742
 5517SOL    HW228014   1.821   1.576   6.047  1.2305  0.1815 -1.2139
 5518SOL     OW28015   2.589   2.289  15.817  0.0446  0.8045 -1.1628
 5518SOL    HW128016   2.574   2.314  15.908  2.3821  2.5215 -1.2573
 5518SOL    HW228017   2.514   2.230  15.803  1.3314 -0.9247 -0.8149
 5519SOL     OW28018   0.791   0.579   1.748  0.5572  0.2949 -0.3428
 5519SOL    HW128019   0.851   0.629   1.693 -1.1566  3.3607  0.5776
 5519SOL    HW228020   0.836   0.602   1.829 -0.1312 -1.1003  0.4307
 5520SOL     OW28021   2.909   3.418  15.446 -0.7324  0.0246  0.3565
 5520SOL    HW128022   2.856   3.423  15.367 -0.9325 -1.0836  0.4110
 5520SOL    HW228023   2.958   3.500  15.438 -1.2064  0.3623  0.8896
 5521SOL     OW28024   0.360   1.995   8.269 -0.2239  0.2320 -0.3138
 5521SOL    HW128025   0.372   1.949   8.186 -0.8356 -1.2384  0.4207
 5521SOL    HW228026   0.265   1.987   8.273 -0.1054 -0.3149  1.3873
 5522SOL     OW28027   2.799   2.449   8.572  0.0721 -0.1178  0.5115
 5522SOL    HW128028   2.842   2.496   8.500  0.3956  0.0245  0.8000
 5522SOL    HW228029   2.786   2.508   8.646 -0.4059  2.6317 -1.7459
 5523SOL     OW28030   3.715   4.380   2.950 -0.3963 -0.4117 -0.2689
 5523SOL    HW128031   3.670   4.303   2.916  0.3169 -1.5261  1.3056
 5523SOL    HW228032   3.800   4.338   2.967 -0.7154 -1.0142 -0.1569
 5524SOL     OW28033   0.685   1.708   7.384  0.2838  0.1544 -0.1211
 5524SOL    HW128034   0.729   1.792   7.373 -0.1533  0.2614 -1.0545
 5524SOL    HW228035   0.759   1.647   7.391 -1.9032 -2.4864  0.1065
 5525SOL     OW28036   2.692   3.828   4.848 -0.1851 -0.2883  0.2947
 5525SOL    HW128037   2.737   3.827   4.764 -1.7200  2.0837 -0.5633
 5525SOL    HW228038   2.638   3.904   4.825 -0.1075 -0.4806 -0.5176
 5526SOL     OW28039   2.879   4.392  14.092  0.4609  0.0695  0.7009
 5526SOL    HW128040   2.938   4.317  14.088 -0.2432 -0.3951 -1.2793
 5526SOL    HW228041   2.852   4.377  14.182  2.0529  0.0760  1.1746
 5527SOL     OW28042   1.906   3.301   8.866 -0.6942 -0.1332  0.6312
 5527SOL    HW128043   1.996   3.270   8.859 -0.6704  0.2671 -0.7427
 5527SOL    HW228044   1.858   3.235   8.817  2.4362 -0.1435 -2.4512
 5528SOL     OW28045   2.455   0.739  11.757  0.2808  0.4945  0.2561
 5528SOL    HW128046   2.463   0.809  11.822 -0.1135 -0.7587  1.6565
 5528SOL    HW228047   2.537   0.756  11.710  0.5217 -2.4344 -0.3985
 5529SOL     OW28048   3.356   3.845   2.749  0.4061 -0.1708 -0.1461
 5529SOL    HW128049   3.388   3.758   2.723 -0.9113 -1.2359  1.8327
 5529SOL    HW228050   3.438   3.894   2.743  0.7774 -0.6044  1.3318
 5530SOL     OW28051   1.086   3.515   8.706  0.0900 -0.2050  0.1249
 5530SOL    HW128052   1.132   3.484   8.628 -0.2868 -2.2916  0.7321
 5530SOL    HW228053   1.010   3.458   8.720 -0.3644  0.3614 -0.0589
 5531SOL     OW28054   1.080   1.408   2.748 -0.1505  0.0663 -0.1280
 5531SOL    HW128055   1.175   1.413   2.745 -0.2061  2.4171  2.0810
 5531SOL    HW228056   1.057   1.349   2.676 -0.6866  0.1046  0.0089
 5532SOL     OW28057   3.637   0.773   4.878 -0.3857  0.2563 -0.4941
 5532SOL    HW128058   3.604   0.733   4.958 -0.2599  0.7052 -0.2139
 5532SOL    HW228059   3.597   0.709   4.819 -1.0347  1.4659 -1.3646
 5533SOL     OW28060   0.409   2.940   6.141 -0.1680 -0.2872 -0.4050
 5533SOL    HW128061   0.470   2.867   6.138 -1.7410 -1.7280  2.2235
 5533SOL    HW228062   0.473   3.008   6.163  2.2251 -2.8665  0.5907
 5534SOL     OW28063   0.226   0.443   3.849  0.4372 -0.5559  0.0607
 5534SOL    HW128064   0.131   0.447   3.838  0.4105 -2.5096 -0.3879
 5534SOL    HW228065   0.226   0.384   3.925  1.8119  0.5544  0.9329
 5535SOL     OW28066   1.533   2.868   8.475 -0.1810 -0.1204 -0.1441
 5535SOL    HW128067   1.622   2.845   8.448 -1.1209 -3.5953 -0.2727
 5535SOL    HW228068   1.500   2.928   8.408 -3.5257 -0.0792  1.5487
 5536SOL     OW28069   3.692   3.441   8.972  0.2925 -0.4871  0.3080
 5536SOL    HW128070   3.693   3.350   8.942  1.7457  0.2615 -1.8348
 5536SOL    HW228071   3.720   3.427   9.063  0.4034 -1.1613  0.1756
 5537SOL     OW28072   3.645   2.678   8.228 -0.4820  0.0193  0.4244
 5537SOL    HW128073   3.711   2.740   8.260  1.0604 -0.7922 -1.2003
 5537SOL    HW228074   3.665   2.600   8.279  1.0212 -0.1551 -0.4166
 5538SOL     OW28075   2.894   1.947   6.740 -0.0141  0.1280  0.2911
 5538SOL    HW128076   2.828   1.965   6.807 -1.9149 -0.1994 -1.5006
 5538SOL    HW228077   2.971   1.979   6.786  0.0796  0.7183 -0.2763
 5539SOL     OW28078   2.686   3.467   9.240 -0.0613 -0.1970  0.0918
 5539SOL    HW128079   2.718   3.385   9.201  0.7066 -0.3733  1.1019
 5539SOL    HW228080   2.746   3.529   9.199  0.9036  0.1699  2.0736
 5540SOL     OW28081   1.946   0.126   0.869 -0.3098  0.0882  0.0050
 5540SOL    HW128082   1.918   0.156   0.783 -1.4085  1.2605  0.7578
 5540SOL    HW228083   1.861   0.105   0.908 -0.3257  0.4027  0.1412
 5541SOL     OW28084   2.871   2.410   6.797 -0.3822  0.2722 -0.1809
 5541SOL    HW128085   2.948   2.458   6.767 -0.2993 -0.7679 -1.6527
 5541SOL    HW228086   2.898   2.377   6.883 -0.4593 -0.0711 -0.2878
 5542SOL     OW28087   1.827   0.313  14.655  0.1114  0.0957 -0.5978
 5542SOL    HW128088   1.909   0.308  14.606  0.8415  0.3405  0.6136
 5542SOL    HW228089   1.791   0.401  14.659 -0.3046 -0.1167  0.4759
 5543SOL     OW28090   1.259   2.756   7.746 -0.3162 -0.6184  0.0992
 5543SOL    HW128091   1.205   2.779   7.822 -2.1250 -3.9732 -0.1550
 5543SOL    HW228092   1.314   2.832   7.727  0.2007 -0.7259  1.1354
 5544SOL     OW28093   0.203   3.786   7.056 -0.0085 -0.5805  0.0248
 5544SOL    HW128094   0.149   3.809   6.981  0.0667  1.3336  0.5585
 5544SOL    HW228095   0.191   3.691   7.051 -2.2244 -0.3347  0.7673
 5545SOL     OW28096   3.885   3.746   5.535 -0.2763  0.0635  0.5971
 5545SOL    HW128097   3.800   3.702   5.549  1.3107 -3.4191 -0.5953
 5545SOL    HW228098   3.949   3.679   5.556 -0.5789 -0.5481 -0.3858
 5546SOL     OW28099   1.160   4.553   5.704  0.2447 -0.2516 -0.1471
 5546SOL    HW128100   1.118   4.552   5.790 -1.8699  1.1324 -1.1666
 5546SOL    HW228101   1.224   4.619   5.730  0.0630 -0.4458  0.8027
 5547SOL     OW28102   0.120   3.331  15.743 -0.8576 -0.2983  0.2041
 5547SOL    HW128103   0.063   3.404  15.721  1.1316  1.5310  1.1536
 5547SOL    HW228104   0.088   3.262  15.684 -1.4370 -1.3252  1.7334
 5548SOL     OW28105   4.713   1.649  12.236 -0.4820 -0.3616 -0.0043
 5548SOL    HW128106   0.036   1.619  12.159 -0.0565  1.0322 -0.2927
 5548SOL    HW228107   4.631   1.677  12.195 -0.2458 -1.0011 -0.9203
 5549SOL     OW28108   0.692   1.793   2.691 -0.8530  0.7568  0.0452
 5549SOL    HW128109   0.702   1.737   2.767  0.7746 -3.5088 -3.3143
 5549SOL    HW228110   0.624   1.853   2.721  0.0554  1.8903 -0.1478
 5550SOL     OW28111   0.762   4.158   7.529 -0.3386  0.2302  0.4757
 5550SOL    HW128112   0.800   4.241   7.499 -1.5669  0.9123  0.7989
 5550SOL    HW228113   0.791   4.165   7.620 -0.2262  0.1411  0.4460
 5551SOL     OW28114   4.125   2.474   7.035 -0.3393 -0.2589  0.6702
 5551SOL    HW128115   4.207   2.476   7.084  0.3795 -0.5272 -0.5187
 5551SOL    HW228116   4.136   2.557   6.988 -1.2177  0.1938  1.2522
 5552SOL     OW28117   0.330   0.906   3.809 -0.1377 -0.1942 -0.4143
 5552SOL    HW128118   0.323   0.878   3.718 -0.6828  0.2692 -0.5105
 5552SOL    HW228119   0.392   0.979   3.809  0.4249 -0.6694  0.1920
 5553SOL     OW28120   2.311   1.138  17.237 -0.3240 -0.0699 -0.1246
 5553SOL    HW128121   2.354   1.182  17.310  1.7186 -0.9441 -0.7838
 5553SOL    HW228122   2.289   1.052  17.275 -0.2884  0.2435  0.6113
 5554SOL     OW28123   0.310   3.194   6.999  0.2713  0.9569  0.5942
 5554SOL    HW128124   0.225   3.234   6.983 -0.5626 -0.6852  0.9012
 5554SOL    HW228125   0.333   3.163   6.911 -0.7230  0.6591  0.4390
 5555SOL     OW28126   4.027   0.577  11.926  0.6152 -0.0251  0.4898
 5555SOL    HW128127   4.066   0.516  11.989  0.1827 -0.9825 -0.1656
 5555SOL    HW228128   4.024   0.526  11.845 -0.0473  3.4223 -1.6245
 5556SOL     OW28129   3.951   3.198   9.705 -0.2798  0.0094  0.3257
 5556SOL    HW128130   3.991   3.142   9.638 -0.6120 -1.1578  1.1061
 5556SOL    HW228131   3.885   3.143   9.749 -0.4923  0.6531  0.8043
 5557SOL     OW28132   0.858   2.136   7.264  1.0995  0.0523  0.7450
 5557SOL    HW128133   0.846   2.043   7.243 -1.4769 -0.5634  4.9755
 5557SOL    HW228134   0.941   2.130   7.311  0.8865  0.1962  1.1372
 5558SOL     OW28135   2.577   1.919   6.292  0.1185  0.5159 -0.6691
 5558SOL    HW128136   2.633   1.964   6.355 -1.7210 -0.7069  1.8526
 5558SOL    HW228137   2.611   1.830   6.282  1.8623  0.9811  1.1949
 5559SOL     OW28138   1.076   0.950   6.099  0.2134 -0.2399  0.0784
 5559SOL    HW128139   1.102   0.903   6.020  1.2483 -0.4901  0.5678
 5559SOL    HW228140   1.095   0.886   6.167 -1.7954  0.0209  0.8950
 5560SOL     OW28141   4.320   0.024  12.669  0.2364 -0.2405 -0.1672
 5560SOL    HW128142   4.389   4.683  12.668 -1.6196 -2.2057  1.1151
 5560SOL    HW228143   4.322   0.055  12.759 -0.9748  1.0755 -0.5926
 5561SOL     OW28144   0.933   2.205   8.337 -0.0853  0.5647 -0.0712
 5561SOL    HW128145   0.920   2.210   8.432  0.1080  3.0551 -0.1798
 5561SOL    HW228146   0.986   2.282   8.317  1.8980 -0.7925  0.0284
 5562SOL     OW28147   2.868   0.907   6.435  0.0530  0.7120 -0.0097
 5562SOL    HW128148   2.805   0.873   6.371  2.2919 -2.1928 -0.6897
 5562SOL    HW228149   2.935   0.838   6.428 -1.0004 -0.3453  0.3145
 5563SOL     OW28150   3.993   0.711   4.646  0.1102 -0.0827  0.2804
 5563SOL    HW128151   3.918   0.767   4.627  0.3680  0.0048 -0.4675
 5563SOL    HW228152   4.006   0.725   4.740  2.1379 -0.0414  0.0057
 5564SOL     OW28153   1.052   0.308   9.624 -0.4268  0.2097 -0.1202
 5564SOL    HW128154   1.130   0.294   9.677 -2.4965 -1.4036  2.5475
 5564SOL    HW228155   1.078   0.368   9.554  3.2258 -2.6736 -1.1493
 5565SOL     OW28156   4.405   2.169   5.860  0.4138  0.5799 -0.6439
 5565SOL    HW128157   4.369   2.252   5.830 -0.8901  0.1293 -0.3359
 5565SOL    HW228158   4.500   2.180   5.865  0.4440 -0.7003  2.1250
 5566SOL     OW28159   4.340   3.815   5.663 -0.2104  0.7553 -0.0291
 5566SOL    HW128160   4.329   3.724   5.635  0.9626  0.2176  1.2919
 5566SOL    HW228161   4.392   3.797   5.741 -0.3706  3.3120  0.6680
 5567SOL     OW28162   0.093   1.041  16.162 -0.1148  0.6516 -0.3252
 5567SOL    HW128163   0.021   0.982  16.137  1.3273 -0.9859 -0.6315
 5567SOL    HW228164   0.160   0.975  16.142 -1.7439 -0.5387 -1.9008
 5568SOL     OW28165   4.032   0.334   8.960  0.4378  0.2577 -0.6486
 5568SOL    HW128166   4.021   0.299   9.049 -1.7482  1.1542 -0.5737
 5568SOL    HW228167   4.127   0.327   8.948  0.2568  0.4682 -2.1441
 5569SOL     OW28168   4.548   1.721  16.523  0.0302 -0.1094 -0.0075
 5569SOL    HW128169   4.475   1.662  16.505 -1.9778  2.4474 -0.3907
 5569SOL    HW228170   4.577   1.678  16.604 -1.0048  0.4536  0.6669
 5570SOL     OW28171   2.194   2.817  11.275 -0.0428  0.3278  0.4820
 5570SOL    HW128172   2.117   2.873  11.287  0.4725  0.9813  0.7455
 5570SOL    HW228173   2.250   2.880  11.228  0.3105 -0.5165 -0.2373
 5571SOL     OW28174   4.682   4.455   7.475 -0.4298 -0.3792 -0.6907
 5571SOL    HW128175   0.003   4.373   7.494 -1.8645 -1.1859 -0.7610
 5571SOL    HW228176   4.710   4.466   7.384  2.5907  0.1024  0.2701
 5572SOL     OW28177   2.555   2.166  14.054 -0.1536 -0.6288  0.0199
 5572SOL    HW128178   2.628   2.130  14.104  2.3985  1.6032 -2.0843
 5572SOL    HW228179   2.503   2.088  14.071 -2.9532  1.4245  0.7938
 5573SOL     OW28180   2.922   2.497   1.676  0.2077  0.2731  0.3138
 5573SOL    HW128181   2.832   2.478   1.649  0.5655 -0.0493 -0.6724
 5573SOL    HW228182   2.940   2.579   1.629 -1.1993  0.0228 -0.6489
 5574SOL     OW28183   1.076   2.130   5.951  0.1835  0.2909  0.3237
 5574SOL    HW128184   0.986   2.162   5.953 -0.4476 -1.5803  2.1873
 5574SOL    HW228185   1.107   2.132   6.042 -1.6651  1.0280  0.9389
 5575SOL     OW28186   3.531   0.119   6.259 -0.2864 -0.2256  0.3008
 5575SOL    HW128187   3.566   0.046   6.311 -0.3307  0.2236  0.9581
 5575SOL    HW228188   3.441   0.098   6.285 -0.3391  0.5589  0.7273
 5576SOL     OW28189   0.960   3.521  13.547 -0.4162  0.1962  0.5807
 5576SOL    HW128190   1.047   3.490  13.572 -1.4647 -1.0637  2.6254
 5576SOL    HW228191   0.983   3.605  13.508  2.9618 -0.2187  1.6480
 5577SOL     OW28192   1.780   0.726   5.099  0.9093  0.1974  0.4618
 5577SOL    HW128193   1.723   0.734   5.176 -0.9448  0.2125 -0.9295
 5577SOL    HW228194   1.728   0.659   5.055 -0.9102  1.5741  0.5385
 5578SOL     OW28195   0.288   2.732   8.739  0.1832  0.8742  0.4059
 5578SOL    HW128196   0.295   2.750   8.833 -0.8703  0.2282  0.6143
 5578SOL    HW228197   0.338   2.805   8.704 -0.0555 -0.1480 -2.0675
 5579SOL     OW28198   0.823   0.628   6.467  0.3589 -0.1199 -0.0661
 5579SOL    HW128199   0.830   0.720   6.491 -1.7170  0.3073 -1.0500
 5579SOL    HW228200   0.751   0.606   6.527  0.2606 -1.6255 -0.7466
 5580SOL     OW28201   2.924   0.346   5.914 -0.0568 -0.4435  0.0902
 5580SOL    HW128202   2.883   0.351   5.828 -0.0091 -0.3301  0.0733
 5580SOL    HW228203   2.879   0.420   5.954 -0.3326 -0.5682  0.0059
 5581SOL     OW28204   3.582   1.504   2.208 -0.1010 -0.1706 -0.2128
 5581SOL    HW128205   3.652   1.448   2.241  0.5153  1.1632  0.7524
 5581SOL    HW228206   3.639   1.581   2.213  2.5420 -2.0200 -1.9712
 5582SOL     OW28207   1.365   2.627   3.165 -0.3233 -0.4897 -0.0297
 5582SOL    HW128208   1.355   2.622   3.260  1.7644 -1.0160  0.1708
 5582SOL    HW228209   1.292   2.569   3.145 -0.0481 -1.0400  0.5714
 5583SOL     OW28210   2.074   0.670   5.949 -0.6130  0.5741  0.0362
 5583SOL    HW128211   2.118   0.720   6.018 -0.4097 -0.5523  0.7198
 5583SOL    HW228212   2.031   0.608   6.007 -0.9781  0.5924 -0.2147
 5584SOL     OW28213   2.490   0.823   2.307 -0.1051  0.3305  0.6276
 5584SOL    HW128214   2.493   0.847   2.400 -0.8527  2.1668  0.1772
 5584SOL    HW228215   2.498   0.728   2.309  0.2884  0.3370 -0.6619
 5585SOL     OW28216   2.091   0.570   7.826  0.7961 -0.4675  0.7363
 5585SOL    HW128217   2.168   0.616   7.861  0.4910  1.3294 -0.9415
 5585SOL    HW228218   2.048   0.636   7.771  2.6208 -0.1720 -0.3298
 5586SOL     OW28219   2.360   1.359  15.038 -0.2562  0.1520 -0.0997
 5586SOL    HW128220   2.412   1.439  15.029 -1.9875  1.1043 -1.6332
 5586SOL    HW228221   2.389   1.317  14.958 -0.2342 -1.0284  0.5394
 5587SOL     OW28222   4.550   0.759   9.863 -0.3093  0.2987 -0.0397
 5587SOL    HW128223   4.464   0.752   9.903 -0.8742  3.7018 -0.6631
 5587SOL    HW228224   4.600   0.736   9.941 -2.0099 -0.1425  0.9101
 5588SOL     OW28225   1.206   0.484   8.431  0.2789  0.6408  0.3169
 5588SOL    HW128226   1.122   0.522   8.456 -0.7761 -1.0202 -0.6965
 5588SOL    HW228227   1.257   0.503   8.510  0.5636  1.5381 -0.0861
 5589SOL     OW28228   0.308   2.099   4.166  0.1577  0.4459 -0.3173
 5589SOL    HW128229   0.320   2.005   4.170  0.4541  0.5166  0.6515
 5589SOL    HW228230   0.213   2.102   4.163  0.0460 -1.4704  1.5679
 5590SOL     OW28231   0.318   1.870  17.532  1.0342  0.3399 -0.6493
 5590SOL    HW128232   0.291   1.955  17.498 -1.7745 -0.5923 -0.6806
 5590SOL    HW228233   0.277   1.880  17.618  0.9267 -2.1145 -0.4187
 5591SOL     OW28234   1.469   2.341   1.129  0.2166 -0.4377 -0.1513
 5591SOL    HW128235   1.433   2.277   1.190  0.0077 -0.0099  0.1725
 5591SOL    HW228236   1.389   2.366   1.083 -0.0632  0.2818  0.7235
 5592SOL     OW28237   3.224   1.859   4.339  0.0912 -0.6434  0.0223
 5592SOL    HW128238   3.240   1.767   4.317 -1.1438 -1.2747  1.7410
 5592SOL    HW228239   3.237   1.853   4.433  2.1735 -1.2345 -0.2994
 5593SOL     OW28240   1.330   1.016   8.370  0.3812  0.1072  0.2206
 5593SOL    HW128241   1.259   1.080   8.375  1.1687  0.9560  0.5460
 5593SOL    HW228242   1.294   0.942   8.321 -0.1140  1.7739 -1.8818
 5594SOL     OW28243   0.594   0.972  17.127 -0.0891  0.2020  0.1811
 5594SOL    HW128244   0.573   0.916  17.053  0.2142 -1.8964  1.6674
 5594SOL    HW228245   0.529   1.042  17.117 -0.0965  0.6505  3.2300
 5595SOL     OW28246   2.148   0.738   8.545  0.2370  0.7918 -0.0370
 5595SOL    HW128247   2.067   0.698   8.577  1.1826 -0.5649  0.6757
 5595SOL    HW228248   2.203   0.659   8.541 -2.9766 -1.2870 -2.7675
 5596SOL     OW28249   4.012   1.860   6.884 -0.0048  0.3165  0.2081
 5596SOL    HW128250   3.938   1.802   6.899  0.4976 -0.2644  0.4471
 5596SOL    HW228251   3.988   1.936   6.937 -0.6107  0.0717  0.2874
 5597SOL     OW28252   0.580   1.658   2.252  0.1505 -0.7147  0.4178
 5597SOL    HW128253   0.664   1.704   2.262 -0.3085  0.5630 -1.5938
 5597SOL    HW228254   0.544   1.676   2.339  0.7523 -0.3778  0.6029
 5598SOL     OW28255   2.385   0.922   5.098  0.1279  0.6460 -0.3065
 5598SOL    HW128256   2.405   0.849   5.040 -2.3804  0.3371 -0.7676
 5598SOL    HW228257   2.460   0.920   5.158  1.9420 -1.8964 -2.6874
 5599SOL     OW28258   0.466   3.718  16.549  0.5972 -0.3098 -0.1606
 5599SOL    HW128259   0.472   3.641  16.493 -0.0362  0.2695 -1.0112
 5599SOL    HW228260   0.545   3.764  16.524 -0.4860  1.7493  0.2310
 5600SOL     OW28261   2.087   1.300   0.828 -0.8856 -0.5107  0.1380
 5600SOL    HW128262   2.134   1.227   0.868  0.2308  0.1162 -0.0321
 5600SOL    HW228263   2.132   1.371   0.874 -0.0126 -0.3249 -0.9926
 5601SOL     OW28264   0.880   3.153   6.649 -0.0727  0.1730  0.5701
 5601SOL    HW128265   0.921   3.239   6.653 -1.3257  0.8458 -0.7605
 5601SOL    HW228266   0.877   3.135   6.742 -0.5221  0.2493  0.5698
 5602SOL     OW28267   0.959   3.782   2.512  0.0398 -0.2051 -0.2044
 5602SOL    HW128268   0.918   3.831   2.441  0.3806  1.2392  0.6040
 5602SOL    HW228269   0.986   3.852   2.572 -2.4137  1.2758 -0.8351
 5603SOL     OW28270   2.239   2.314  17.327  0.0376  0.1348  0.2842
 5603SOL    HW128271   2.257   2.272  17.411 -1.1630 -1.0625 -0.0460
 5603SOL    HW228272   2.221   2.231  17.283  0.5724 -0.3715  1.0209
 5604SOL     OW28273   1.172   3.236   7.242  0.2408 -0.5544 -0.0610
 5604SOL    HW128274   1.205   3.319   7.208  3.2484 -1.2096  1.3355
 5604SOL    HW228275   1.164   3.265   7.332  1.1534 -1.7250  0.3944
 5605SOL     OW28276   1.555   4.636  10.027 -0.3229 -0.3390  0.2476
 5605SOL    HW128277   1.587   4.549  10.001  0.2207 -0.2632  0.6460
 5605SOL    HW228278   1.635   4.664  10.071 -0.6274 -1.8124  1.7628
 5606SOL     OW28279   2.553   2.694   0.165 -0.7045  0.3759 -0.1501
 5606SOL    HW128280   2.468   2.686   0.122 -1.0006 -0.8236  0.6528
 5606SOL    HW228281   2.534   2.761   0.231  2.3427 -0.3301  1.4419
 5607SOL     OW28282   3.149   2.132   9.780  0.4105  0.5186  0.1946
 5607SOL    HW128283   3.120   2.065   9.842  0.2635  0.5663  0.1772
 5607SOL    HW228284   3.198   2.194   9.834 -1.0359  1.9649 -0.1645
 5608SOL     OW28285   2.748   1.454   7.000  0.5642 -0.4915  0.5945
 5608SOL    HW128286   2.707   1.414   7.077  1.0764 -0.2541  0.9956
 5608SOL    HW228287   2.678   1.512   6.970  1.4712  0.7857  0.9560
 5609SOL     OW28288   4.593   4.112   4.807  0.4974  0.1219 -0.1161
 5609SOL    HW128289   4.501   4.117   4.779 -0.0597  0.9512  1.8503
 5609SOL    HW228290   4.623   4.046   4.745 -1.3300 -1.7882  1.0325
 5610SOL     OW28291   0.787   0.768   8.244 -0.2535  0.1829  0.4290
 5610SOL    HW128292   0.727   0.836   8.212 -0.7802 -0.2372  0.5295
 5610SOL    HW228293   0.858   0.791   8.184 -0.1726  1.6431  1.0827
 5611SOL     OW28294   0.798   3.026   8.662  0.8367 -0.3872 -0.6956
 5611SOL    HW128295   0.877   2.982   8.629  0.8688 -0.1228 -0.9752
 5611SOL    HW228296   0.768   2.963   8.727 -0.7718  1.2498  0.1461
 5612SOL     OW28297   0.181   4.563   4.769  0.1782  0.1598  0.4836
 5612SOL    HW128298   0.146   4.476   4.790  0.8765 -0.2918 -0.2489
 5612SOL    HW228299   0.265   4.559   4.814 -0.6241 -1.6957  1.8472
 5613SOL     OW28300   4.050   2.113  14.655  0.1535 -0.0236 -0.1492
 5613SOL    HW128301   4.076   2.107  14.747  1.9328  0.9889 -0.5982
 5613SOL    HW228302   4.034   2.205  14.635 -2.9122 -0.8064 -1.2334
 5614SOL     OW28303   4.314   3.411   2.186 -0.3897  0.0249 -0.1193
 5614SOL    HW128304   4.305   3.344   2.254  0.2990 -0.9174 -0.9611
 5614SOL    HW228305   4.225   3.444   2.170 -0.4704 -0.7369 -1.2331
 5615SOL     OW28306   1.391   2.695   6.277  0.1370 -0.0634  0.3371
 5615SOL    HW128307   1.359   2.633   6.343 -0.0539 -1.7154 -1.3121
 5615SOL    HW228308   1.362   2.775   6.319 -1.5775  1.2918 -3.4707
 5616SOL     OW28309   1.227   2.429   4.519 -0.4875  0.3016  0.5217
 5616SOL    HW128310   1.151   2.486   4.528 -1.1776 -0.7162  1.1404
 5616SOL    HW228311   1.213   2.387   4.434  0.7461 -1.9891  1.4406
 5617SOL     OW28312   0.768   2.502   3.901  0.0427 -0.0766  0.2583
 5617SOL    HW128313   0.707   2.446   3.948 -0.9064 -0.2470 -1.1740
 5617SOL    HW228314   0.708   2.570   3.871 -0.1176 -0.3034  0.0674
 5618SOL     OW28315   0.067   3.469  14.504 -0.2214  0.1408 -0.3640
 5618SOL    HW128316   0.100   3.388  14.543  0.1613 -1.3941 -3.8888
 5618SOL    HW228317   4.701   3.443  14.490 -1.0697  4.3594 -2.4882
 5619SOL     OW28318   3.456   3.797  16.408 -0.4680 -0.0627  1.2145
 5619SOL    HW128319   3.460   3.795  16.504 -0.5101  0.2577  1.2242
 5619SOL    HW228320   3.384   3.859  16.397 -0.1114 -0.1330 -1.4997
 5620SOL     OW28321   0.588   1.752   9.187 -0.1344  0.3077  0.1389
 5620SOL    HW128322   0.661   1.813   9.198 -1.3585  1.7920 -0.0337
 5620SOL    HW228323   0.509   1.805   9.179  0.0553  0.2371 -2.1321
 5621SOL     OW28324   0.571   1.196   4.298  0.0133  0.1032 -0.5405
 5621SOL    HW128325   0.630   1.155   4.361 -1.0908  0.0411  0.4603
 5621SOL    HW228326   0.600   1.161   4.214 -1.6925 -2.4034 -0.0841
 5622SOL     OW28327   2.791   2.152   2.131 -0.4878 -0.3018 -0.3610
 5622SOL    HW128328   2.831   2.230   2.169 -1.0775  0.4288 -1.2295
 5622SOL    HW228329   2.779   2.163   2.037 -2.2482  0.8089 -0.0241
 5623SOL     OW28330   3.729   0.949  13.672 -0.0935 -0.0374 -0.2510
 5623SOL    HW128331   3.740   0.951  13.577  1.3492  0.4609 -0.0785
 5623SOL    HW228332   3.808   0.895  13.680 -0.9405 -0.9825  1.7361
 5624SOL     OW28333   1.964   3.922   1.598  0.4906  1.0676  0.3917
 5624SOL    HW128334   1.893   3.881   1.646  1.5475 -0.4930  0.6317
 5624SOL    HW228335   2.032   3.932   1.665  0.8682  2.6016 -0.2241
 5625SOL     OW28336   1.421   0.637   6.265  0.3362  0.0680  0.3011
 5625SOL    HW128337   1.372   0.637   6.183 -0.8599 -3.8860  1.0207
 5625SOL    HW228338   1.377   0.560   6.300  0.6719  0.2780  1.1874
 5626SOL     OW28339   1.480   2.200  14.891  0.0767  0.1279 -0.0573
 5626SOL    HW128340   1.435   2.196  14.806 -0.3757  0.5822  0.1570
 5626SOL    HW228341   1.559   2.151  14.868  0.0368 -0.4838  1.1256
 5627SOL     OW28342   3.785   3.239  14.388 -0.1782  0.0197  0.2069
 5627SOL    HW128343   3.810   3.331  14.399  0.2170 -0.0089 -0.4214
 5627SOL    HW228344   3.830   3.210  14.309 -1.2843  2.8720 -1.4536
 5628SOL     OW28345   4.294   1.063  11.599  0.5468 -0.1733 -0.8466
 5628SOL    HW128346   4.328   1.012  11.526 -1.5443  0.5937 -2.3610
 5628SOL    HW228347   4.289   1.152  11.563  0.4020  1.3394  2.8621
 5629SOL     OW28348   2.190   2.015   3.291 -0.2820  0.1457  0.6198
 5629SOL    HW128349   2.205   2.088   3.351 -0.9223  0.9144 -0.1576
 5629SOL    HW228350   2.276   1.973   3.289 -0.1530  0.4079  0.6329
 5630SOL     OW28351   2.408   2.739   7.799 -0.5908  0.0760  0.6565
 5630SOL    HW128352   2.338   2.676   7.783 -0.4028  0.4589 -1.7042
 5630SOL    HW228353   2.480   2.698   7.752 -1.0000  0.3687 -0.2362
 5631SOL     OW28354   1.479   1.342   3.013 -0.2198  0.0512 -0.1205
 5631SOL    HW128355   1.565   1.305   2.993  0.4520  0.7607  1.5026
 5631SOL    HW228356   1.501   1.395   3.089  0.9557 -1.1628  0.3846
 5632SOL     OW28357   1.077   3.308  15.166  0.4619 -0.8105 -0.4600
 5632SOL    HW128358   1.073   3.379  15.103 -3.4720  0.1288  0.8293
 5632SOL    HW228359   1.004   3.339  15.220  1.2344  0.2940 -0.0430
 5633SOL     OW28360   1.029   1.258   3.631  0.5372 -0.5969  0.0908
 5633SOL    HW128361   0.957   1.210   3.672 -0.0789  0.0200 -0.2667
 5633SOL    HW228362   1.039   1.218   3.545  3.2018  1.2861 -0.4792
 5634SOL     OW28363   0.021   3.883   0.889 -0.0506  0.0983 -0.1799
 5634SOL    HW128364   4.710   3.908   0.804  0.5212 -2.9199 -1.2981
 5634SOL    HW228365   0.089   3.818   0.871 -0.8930 -1.2309  1.4848
 5635SOL     OW28366   1.193   2.000   3.354  0.2106 -0.2642 -0.0188
 5635SOL    HW128367   1.146   1.935   3.301 -0.5725  1.9077 -1.9555
 5635SOL    HW228368   1.180   2.083   3.308 -2.1466 -1.5706 -1.7226
 5636SOL     OW28369   4.450   3.082   0.894 -0.1634  0.5839  0.0096
 5636SOL    HW128370   4.515   3.104   0.827  0.8247  0.2493  0.8656
 5636SOL    HW228371   4.378   3.144   0.877  0.1157  1.4903  2.1130
 5637SOL     OW28372   1.846   0.475  10.387  0.2547  0.0307 -0.1900
 5637SOL    HW128373   1.883   0.550  10.339  1.3182 -0.9363 -0.8634
 5637SOL    HW228374   1.904   0.464  10.462  1.0221  0.7731 -0.6694
 5638SOL     OW28375   0.295   0.472   3.451 -0.1122  0.1616  0.1303
 5638SOL    HW128376   0.228   0.440   3.389 -0.1810 -1.0036  0.8071
 5638SOL    HW228377   0.377   0.458   3.404 -0.1452 -0.3276  0.2227
 5639SOL     OW28378   0.536   0.179   7.217 -0.0632 -0.0626 -0.2321
 5639SOL    HW128379   0.530   0.174   7.313  1.1638 -0.0930 -0.1641
 5639SOL    HW228380   0.604   0.245   7.212 -0.0794 -0.0506 -0.2878
 5640SOL     OW28381   0.967   3.784   0.624  0.1358 -0.1402  0.3674
 5640SOL    HW128382   0.918   3.702   0.631  0.3530 -0.1322  1.9503
 5640SOL    HW228383   0.888   3.831   0.595  0.6599  0.8263  0.5243
 5641SOL     OW28384   1.992   1.629   4.278  0.1256 -0.0262 -0.3413
 5641SOL    HW128385   1.912   1.681   4.268 -1.5725 -2.4241  0.6661
 5641SOL    HW228386   1.978   1.590   4.364  1.6644 -0.2311 -0.1769
 5642SOL     OW28387   2.068   1.726   2.108 -0.0300 -0.2585  0.0477
 5642SOL    HW128388   2.002   1.690   2.166 -0.6743 -1.0125 -1.1449
 5642SOL    HW228389   2.075   1.653   2.046  1.3869  0.0109 -0.1162
 5643SOL     OW28390   2.029   3.740   2.104 -0.7042  0.1691  0.1759
 5643SOL    HW128391   2.019   3.658   2.055  1.1056 -0.0330  0.1664
 5643SOL    HW228392   2.121   3.732   2.129 -0.4019 -0.5872 -1.1385
 5644SOL     OW28393   0.480   3.569   2.456  0.0547  0.0837 -0.3166
 5644SOL    HW128394   0.486   3.601   2.366  0.3727  0.4306 -0.1740
 5644SOL    HW228395   0.569   3.542   2.480 -1.3592 -2.6464  1.7986
 5645SOL     OW28396   0.258   2.145   7.253 -0.7596  0.4120  0.0229
 5645SOL    HW128397   0.206   2.192   7.188 -0.4130  0.5472 -0.1550
 5645SOL    HW228398   0.332   2.206   7.248  1.4307 -2.3477 -0.8556
 5646SOL     OW28399   2.528   0.490   7.419 -0.2234  0.0188  0.3496
 5646SOL    HW128400   2.518   0.525   7.508  1.3997 -0.7464  0.8463
 5646SOL    HW228401   2.459   0.425   7.424  0.0938 -0.3349  0.1095
 5647SOL     OW28402   3.464   2.938   4.916  1.0179 -0.6224  0.6898
 5647SOL    HW128403   3.442   2.898   4.831 -2.1561  1.1776  0.6357
 5647SOL    HW228404   3.462   2.856   4.967  2.4648  0.0754  1.8362
 5648SOL     OW28405   1.646   2.238   6.838 -0.9054  0.3465 -0.1660
 5648SOL    HW128406   1.669   2.189   6.758 -0.2283 -2.4313  1.7094
 5648SOL    HW228407   1.725   2.286   6.861 -0.0067 -2.0146  1.6356
 5649SOL     OW28408   2.502   0.625  14.740  0.4642  0.1509 -0.0479
 5649SOL    HW128409   2.489   0.546  14.687 -0.9335  0.3701 -0.0227
 5649SOL    HW228410   2.542   0.602  14.824 -0.9787 -3.7059 -0.4009
 5650SOL     OW28411   3.150   3.089   1.774  0.1099 -0.2869 -0.0654
 5650SOL    HW128412   3.150   3.000   1.740 -1.4743 -0.4648  0.3889
 5650SOL    HW228413   3.115   3.130   1.695 -1.1649  2.3238  1.8620
 5651SOL     OW28414   0.401   4.459   8.127 -0.6371 -0.1656 -0.9800
 5651SOL    HW128415   0.356   4.456   8.043 -0.2149  1.6780 -1.2688
 5651SOL    HW228416   0.336   4.507   8.178 -3.3727 -1.0311 -3.6132
 5652SOL     OW28417   0.743   0.283   5.933 -0.6851 -0.0618 -0.3334
 5652SOL    HW128418   0.690   0.208   5.908 -0.6174 -0.8684  1.9705
 5652SOL    HW228419   0.832   0.273   5.898 -0.8235 -5.2016  0.7553
 5653SOL     OW28420   0.088   4.355   8.129  0.4782  0.3593  0.1981
 5653SOL    HW128421   0.153   4.391   8.190  0.6176  2.1792 -1.0098
 5653SOL    HW228422   0.131   4.357   8.043 -0.7806 -0.8597 -0.4578
 5654SOL     OW28423   4.688   4.304   8.658  0.3126  0.0409 -0.1504
 5654SOL    HW128424   4.647   4.298   8.744  2.1652  0.3935  0.7639
 5654SOL    HW228425   4.635   4.369   8.613  1.0401  1.6065  1.2866
 5655SOL     OW28426   2.907   4.330   5.733 -0.1932 -0.0845  0.0730
 5655SOL    HW128427   2.909   4.305   5.825 -0.4465 -1.5049 -0.3192
 5655SOL    HW228428   2.828   4.285   5.705 -0.1022  0.3638 -0.9034
 5656SOL     OW28429   4.026   2.192  15.304 -0.4996  0.1354 -0.1563
 5656SOL    HW128430   3.933   2.205  15.284  0.2070  1.3890 -2.6796
 5656SOL    HW228431   4.053   2.133  15.233 -0.0606  0.7736 -0.5146
 5657SOL     OW28432   2.200   4.103  11.428  0.7637  0.2192  0.0285
 5657SOL    HW128433   2.292   4.117  11.405  0.7822  1.2390  0.7400
 5657SOL    HW228434   2.163   4.116  11.341 -1.1546 -3.3445  0.3345
 5658SOL     OW28435   0.413   0.874   8.231  0.1685 -0.3189  0.0197
 5658SOL    HW128436   0.479   0.871   8.161  0.8311 -1.6471  0.6907
 5658SOL    HW228437   0.471   0.832   8.296  0.3334  2.5231  1.6827
 5659SOL     OW28438   4.280   1.218  12.985  0.2347 -0.4643 -0.3989
 5659SOL    HW128439   4.230   1.151  12.939  1.0195 -1.2961 -0.0453
 5659SOL    HW228440   4.259   1.287  12.922  0.7763  0.1150  0.0568
 5660SOL     OW28441   1.628   3.275   8.065 -0.1887 -0.3696 -0.3533
 5660SOL    HW128442   1.710   3.267   8.115 -1.6779 -0.9053  2.0263
 5660SOL    HW228443   1.565   3.312   8.127 -0.1741 -0.9127 -0.0135
 5661SOL     OW28444   2.341   2.227  15.793 -0.6922 -0.0307  0.1396
 5661SOL    HW128445   2.284   2.151  15.791 -2.1930  1.0759  0.9835
 5661SOL    HW228446   2.275   2.296  15.800 -2.9604 -2.0181 -1.9395
 5662SOL     OW28447   1.419   1.018   6.351 -0.2127 -0.1124 -0.4637
 5662SOL    HW128448   1.455   1.053   6.269 -0.4520 -0.2056 -0.6075
 5662SOL    HW228449   1.351   1.085   6.353 -1.2751 -1.2336  0.5747
 5663SOL     OW28450   2.108   1.184  10.165  0.3373  0.0345  0.1784
 5663SOL    HW128451   2.085   1.163  10.256 -2.4099 -0.3062 -0.6219
 5663SOL    HW228452   2.072   1.107  10.121 -1.3407  1.2004 -0.4435
 5664SOL     OW28453   1.588   4.352   1.426 -0.0582  0.3529  0.3094
 5664SOL    HW128454   1.577   4.428   1.368 -1.3202  1.2512  1.7306
 5664SOL    HW228455   1.546   4.279   1.380 -1.7386  1.6114 -0.1484
 5665SOL     OW28456   3.303   1.399   0.490  0.4495  0.0422  0.0930
 5665SOL    HW128457   3.349   1.317   0.512  1.1158  0.2771 -0.4353
 5665SOL    HW228458   3.348   1.456   0.552  1.5222 -1.2581  0.5176
 5666SOL     OW28459   0.235   4.154   9.353  0.3268 -0.5530 -0.0161
 5666SOL    HW128460   0.295   4.229   9.358  0.8127 -0.9356 -0.0279
 5666SOL    HW228461   0.269   4.135   9.266 -0.8139 -0.7950 -0.4058
 5667SOL     OW28462   3.468   2.269   3.925 -0.8751 -0.1810  0.0150
 5667SOL    HW128463   3.497   2.178   3.931 -0.6961 -0.0781  0.7951
 5667SOL    HW228464   3.547   2.315   3.897 -0.6080 -0.9493 -0.4973
 5668SOL     OW28465   1.277   2.582   6.748 -0.5338  0.0856  0.0880
 5668SOL    HW128466   1.253   2.578   6.656 -0.1190 -1.6211  0.0606
 5668SOL    HW228467   1.220   2.653   6.779  0.0901  1.1096 -1.1373
 5669SOL     OW28468   0.584   0.754  13.525  0.0195  0.0175  0.6362
 5669SOL    HW128469   0.581   0.674  13.577 -0.5628  0.0516  0.6456
 5669SOL    HW228470   0.666   0.790  13.560  0.5824  0.0512 -0.7188
 5670SOL     OW28471   1.634   2.475   3.849 -0.0279  0.0051  0.3556
 5670SOL    HW128472   1.613   2.567   3.866 -0.0074 -0.1302  1.0856
 5670SOL    HW228473   1.652   2.446   3.938 -0.7112 -1.7138 -0.0612
 5671SOL     OW28474   0.047   3.838  14.413 -0.2058  0.5991  0.5576
 5671SOL    HW128475   0.084   3.838  14.501  0.8528 -1.9294  0.1105
 5671SOL    HW228476   0.112   3.782  14.371 -0.0939  2.3611 -1.6915
 5672SOL     OW28477   2.093   2.619   6.625  0.3317  0.5535  0.2375
 5672SOL    HW128478   2.037   2.697   6.627 -3.1712 -1.9010 -2.7180
 5672SOL    HW228479   2.173   2.670   6.612  0.7315 -0.0333  0.4167
 5673SOL     OW28480   3.803   1.170   7.720 -0.0262 -0.6418 -0.6766
 5673SOL    HW128481   3.807   1.157   7.815  1.8770  0.8784 -0.5547
 5673SOL    HW228482   3.853   1.251   7.715  0.6621 -1.0334 -0.1749
 5674SOL     OW28483   3.417   1.470  15.176  0.5879 -0.8355 -0.4127
 5674SOL    HW128484   3.500   1.438  15.210  0.6866 -0.0034  0.1234
 5674SOL    HW228485   3.368   1.470  15.258 -0.2182 -0.3502 -0.8827
 5675SOL     OW28486   1.122   0.079   6.094 -0.0611 -0.7055  0.8176
 5675SOL    HW128487   1.211   0.072   6.057 -0.9724 -1.7379 -1.1824
 5675SOL    HW228488   1.082   0.005   6.048 -2.5889  0.8281  0.5747
 5676SOL     OW28489   1.771   1.475   7.796  0.4081 -1.2333 -0.1421
 5676SOL    HW128490   1.717   1.434   7.863 -0.0321 -0.0740  0.2038
 5676SOL    HW228491   1.842   1.505   7.853 -1.2433 -0.2173  1.3588
 5677SOL     OW28492   1.490   3.830  11.423 -0.1383 -0.1645  0.9633
 5677SOL    HW128493   1.405   3.869  11.442  0.0515  1.4229 -1.3568
 5677SOL    HW228494   1.516   3.874  11.342  1.0652 -1.7805  0.4723
 5678SOL     OW28495   2.162   4.275   7.772  0.0075 -0.1669 -0.1460
 5678SOL    HW128496   2.075   4.308   7.792  0.3450  1.5625 -1.5354
 5678SOL    HW228497   2.213   4.314   7.843  0.8945 -1.3548 -0.1270
 5679SOL     OW28498   3.787   3.801   6.815 -0.0179  0.6272  0.0106
 5679SOL    HW128499   3.825   3.850   6.743  1.5872  1.1884  1.2358
 5679SOL    HW228500   3.748   3.726   6.770 -0.0342  0.1322  0.8463
 5680SOL     OW28501   1.871   2.978   1.667  0.4634 -0.2274  0.6233
 5680SOL    HW128502   1.788   2.995   1.712  0.8350  3.8721 -0.2998
 5680SOL    HW228503   1.901   3.067   1.650 -0.6694 -0.0821 -0.6041
 5681SOL     OW28504   0.955   0.033  11.329  0.3642  0.1813 -0.2330
 5681SOL    HW128505   0.953   0.124  11.356 -1.1069  0.5646 -1.6137
 5681SOL    HW228506   1.051   0.026  11.324  0.4391  1.1414 -0.0502
 5682SOL     OW28507   4.713   4.452   4.123 -0.3257  0.8645  0.3200
 5682SOL    HW128508   0.027   4.463   4.210 -2.9811 -0.4141  1.6668
 5682SOL    HW228509   4.711   4.539   4.083  0.2658  1.5492  1.7829
 5683SOL     OW28510   3.917   1.064   8.610 -0.2567  0.2195 -0.4114
 5683SOL    HW128511   3.912   1.037   8.702 -1.6568 -3.6821 -1.6243
 5683SOL    HW228512   3.966   0.989   8.575 -0.1248 -0.4518  1.2068
 5684SOL     OW28513   3.527   1.024   6.727 -0.1206  0.1225  0.2374
 5684SOL    HW128514   3.483   1.098   6.768  0.0320  0.0089  0.6055
 5684SOL    HW228515   3.470   0.956   6.761 -3.4466  1.9564 -1.6954
 5685SOL     OW28516   0.969   4.034  15.171 -0.6491 -0.6321 -0.0112
 5685SOL    HW128517   0.888   4.068  15.209  0.1267  1.8510 -0.5817
 5685SOL    HW228518   1.038   4.068  15.228 -3.1161 -0.5263  2.9134
 5686SOL     OW28519   1.538   2.195   5.659  0.2394 -0.2953  0.0582
 5686SOL    HW128520   1.607   2.174   5.596 -1.2608  0.5412 -1.8671
 5686SOL    HW228521   1.542   2.112   5.708  2.2962 -0.3321 -0.1521
 5687SOL     OW28522   4.008   0.000   1.615  0.0692 -0.0514 -0.1802
 5687SOL    HW128523   4.092   4.683   1.630  0.3786  0.8080  0.5250
 5687SOL    HW228524   4.019   0.007   1.520 -1.3370  0.7406 -0.2956
 5688SOL     OW28525   1.028   3.906   6.135  0.2007 -0.0575 -0.1395
 5688SOL    HW128526   1.070   3.825   6.163 -1.0964 -0.0554  1.7399
 5688SOL    HW228527   0.977   3.863   6.066 -1.4415 -1.4035  1.9061
 5689SOL     OW28528   1.172   2.624   2.207 -0.0012 -0.2482 -0.1208
 5689SOL    HW128529   1.214   2.544   2.174 -0.2557  0.0465 -1.1629
 5689SOL    HW228530   1.166   2.685   2.133 -1.3623  0.1275  0.2981
 5690SOL     OW28531   4.652   1.103  16.462 -0.3555 -0.2526  0.1988
 5690SOL    HW128532   4.622   1.085  16.551  0.2045 -1.5308  0.1292
 5690SOL    HW228533   4.605   1.044  16.405  0.3608 -0.7255  0.0943
 5691SOL     OW28534   4.342   0.175   3.962 -0.2675 -0.1606  0.8506
 5691SOL    HW128535   4.406   0.229   3.915 -1.0487  1.6764  1.9061
 5691SOL    HW228536   4.261   0.226   3.954  0.4436  0.6326 -1.4538
 5692SOL     OW28537   4.482   3.590   2.034  0.8017 -0.1234 -0.1559
 5692SOL    HW128538   4.541   3.536   1.980 -1.4441 -0.8908 -1.8287
 5692SOL    HW228539   4.417   3.528   2.068  1.8118 -0.4161  1.2490
 5693SOL     OW28540   0.189   3.053   5.048 -0.3484 -0.0929  0.4496
 5693SOL    HW128541   0.144   3.013   4.974 -0.2301 -0.3426  0.5145
 5693SOL    HW228542   0.147   3.139   5.055 -1.9965 -0.8613 -0.0353
 5694SOL     OW28543   4.396   3.074   6.750  0.2540  0.0927  0.2362
 5694SOL    HW128544   4.321   3.080   6.691  0.4633 -2.1152 -0.2486
 5694SOL    HW228545   4.440   3.158   6.744 -1.4593  0.9473 -0.3730
 5695SOL     OW28546   3.871   3.852  14.990  0.5112  0.8592  0.3243
 5695SOL    HW128547   3.895   3.923  14.931  2.3205 -0.8187 -0.9378
 5695SOL    HW228548   3.840   3.897  15.069  3.6340 -1.1951  2.7402
 5696SOL     OW28549   0.726   4.441   8.339  0.0059  0.1072 -0.2207
 5696SOL    HW128550   0.804   4.493   8.360  0.3273 -0.8498  0.9102
 5696SOL    HW228551   0.764   4.354   8.349  1.1268  0.2583 -3.2349
 5697SOL     OW28552   3.696   3.560   6.698  0.2862 -0.4819  0.2062
 5697SOL    HW128553   3.792   3.552   6.694  0.2596 -1.2271  1.0737
 5697SOL    HW228554   3.670   3.469   6.703 -0.5038 -0.1992  1.2198
 5698SOL     OW28555   1.678   2.986   2.454  0.1343  0.2422  0.4305
 5698SOL    HW128556   1.704   3.059   2.511  0.3426  0.9675 -0.6060
 5698SOL    HW228557   1.765   2.946   2.447  0.5444  1.5415 -1.7971
 5699SOL     OW28558   2.793   2.806  15.578 -0.5879 -0.2984  0.4675
 5699SOL    HW128559   2.719   2.777  15.630 -2.0121 -2.6345 -2.8509
 5699SOL    HW228560   2.837   2.723  15.559  0.5413  0.0605  1.4740
 5700SOL     OW28561   2.630   3.677   4.440 -0.0299 -0.0654  0.1506
 5700SOL    HW128562   2.693   3.741   4.473  1.6616 -0.9078 -1.4415
 5700SOL    HW228563   2.679   3.594   4.449  0.5190  0.1596 -0.7754
 5701SOL     OW28564   2.294   4.022   7.302 -0.7287  0.4918 -0.3823
 5701SOL    HW128565   2.217   3.977   7.268  0.2307 -1.2634 -0.2355
 5701SOL    HW228566   2.261   4.112   7.307  0.3591  0.9480 -1.4657
 5702SOL     OW28567   2.451   4.124  15.498 -0.1014 -0.3110 -0.1516
 5702SOL    HW128568   2.517   4.119  15.567 -1.2752 -1.2006  0.8993
 5702SOL    HW228569   2.488   4.180  15.430  0.5273 -1.0629 -0.4215
 5703SOL     OW28570   0.675   3.481  14.966 -0.0899  0.5808 -0.2409
 5703SOL    HW128571   0.664   3.542  14.893  0.5178  1.1639  0.1541
 5703SOL    HW228572   0.677   3.398  14.919  2.4100  0.4162  0.1502
 5704SOL     OW28573   2.238   0.993  12.218 -0.0304  0.3997  0.0279
 5704SOL    HW128574   2.171   1.058  12.197  0.6905  0.6867 -1.4064
 5704SOL    HW228575   2.191   0.910  12.227  0.4994 -0.0198 -1.1032
 5705SOL     OW28576   0.679   2.680   2.159 -0.2019 -0.3435  0.3121
 5705SOL    HW128577   0.713   2.768   2.150  2.1460 -1.0497  2.5359
 5705SOL    HW228578   0.751   2.639   2.206 -0.1235 -0.3363  0.1980
 5706SOL     OW28579   1.482   1.216   8.173 -0.3909  0.0086 -0.3076
 5706SOL    HW128580   1.388   1.209   8.157 -0.3650  2.5899 -1.5571
 5706SOL    HW228581   1.497   1.161   8.250 -0.3835  1.0552  0.4390
 5707SOL     OW28582   4.592   3.414   5.576  0.0502  0.3336 -0.3253
 5707SOL    HW128583   4.504   3.442   5.600 -1.1710  0.2790 -4.8518
 5707SOL    HW228584   4.576   3.368   5.494  1.7867 -0.6384 -0.1152
 5708SOL     OW28585   2.576   1.961  17.037 -0.6384 -0.3615 -0.2943
 5708SOL    HW128586   2.617   2.042  17.066  0.9592 -2.1301  2.3542
 5708SOL    HW228587   2.544   1.930  17.122 -1.3297  0.7442 -0.1641
 5709SOL     OW28588   1.599   3.954  16.760  1.1857  0.0797 -0.4812
 5709SOL    HW128589   1.527   3.895  16.742  0.1849  0.9604  0.6500
 5709SOL    HW228590   1.604   3.975  16.854 -0.6325 -0.4488 -0.2841
 5710SOL     OW28591   3.141   2.951   0.106  0.4530 -0.1747  0.2778
 5710SOL    HW128592   3.230   2.948   0.071 -0.3419 -0.2866 -1.6936
 5710SOL    HW228593   3.153   3.000   0.188 -0.8156  0.7324 -0.0792
 5711SOL     OW28594   1.321   2.085   8.267  0.5051 -0.1653 -0.0572
 5711SOL    HW128595   1.363   2.118   8.347  1.5360  0.0017 -0.6633
 5711SOL    HW228596   1.391   2.022   8.248 -1.1551 -1.5048 -1.7288
 5712SOL     OW28597   1.734   3.596   2.144  0.3244 -0.7188  0.1620
 5712SOL    HW128598   1.751   3.684   2.109  0.1581 -0.7650 -0.0331
 5712SOL    HW228599   1.696   3.604   2.232 -1.2724  2.1784 -0.8070
 5713SOL     OW28600   2.142   3.009   5.831 -0.4191  0.1123  0.5644
 5713SOL    HW128601   2.067   3.057   5.865  1.1629  2.0040  1.3821
 5713SOL    HW228602   2.144   2.931   5.886 -0.5458  0.5283  1.1622
 5714SOL     OW28603   3.093   0.861   2.944  0.0319 -0.4751 -0.2038
 5714SOL    HW128604   3.137   0.945   2.931  0.5915 -1.0396 -2.0270
 5714SOL    HW228605   3.062   0.828   2.860 -1.8158  3.0584 -0.9077
 5715SOL     OW28606   4.567   4.459   2.959 -0.0555 -0.1583  0.6347
 5715SOL    HW128607   4.661   4.446   2.971 -0.0746 -0.5505  0.3618
 5715SOL    HW228608   4.579   4.501   2.874  1.7762 -3.0718 -0.5439
 5716SOL     OW28609   4.631   4.541   2.698 -0.3999 -0.4963 -0.2011
 5716SOL    HW128610   0.001   4.542   2.702 -0.4850 -1.4812  2.3127
 5716SOL    HW228611   4.626   4.467   2.637  0.2226  0.3008 -1.2103
 5717SOL     OW28612   4.323   2.548   7.208 -1.0563  0.0794  0.3363
 5717SOL    HW128613   4.327   2.522   7.300  0.0172 -0.3347  0.1737
 5717SOL    HW228614   4.412   2.528   7.180 -0.7164 -0.3383  1.6972
 5718SOL     OW28615   3.145   1.707   7.813  0.2121  0.7419 -0.4381
 5718SOL    HW128616   3.144   1.686   7.720  1.4836  1.5660 -0.6447
 5718SOL    HW228617   3.086   1.639   7.846  0.0743 -0.3973 -3.0016
 5719SOL     OW28618   0.031   1.115  11.646  0.0080  0.2384 -0.4624
 5719SOL    HW128619   4.692   1.067  11.594 -0.2072  0.3175 -0.2688
 5719SOL    HW228620   0.032   1.207  11.618  2.2083  0.7130  1.1557
 5720SOL     OW28621   3.086   4.369  16.380 -0.2524  0.0333 -0.0487
 5720SOL    HW128622   2.992   4.373  16.360 -0.2114 -2.8484 -0.7879
 5720SOL    HW228623   3.115   4.392  16.291 -2.1871 -0.9891 -0.9497
 5721SOL     OW28624   1.194   0.542   6.483 -0.1021  0.3694 -0.4339
 5721SOL    HW128625   1.260   0.607   6.509 -0.9779  1.1168 -0.1080
 5721SOL    HW228626   1.251   0.476   6.443 -3.1881 -1.8460 -1.0948
 5722SOL     OW28627   3.763   2.900  13.444  0.3888 -0.4594 -0.2640
 5722SOL    HW128628   3.710   2.826  13.413  0.1051 -0.8943  1.2730
 5722SOL    HW228629   3.844   2.867  13.405 -0.2154 -2.1407 -0.1154
 5723SOL     OW28630   0.760   1.925  13.858  0.8562 -0.3534  0.1258
 5723SOL    HW128631   0.720   1.969  13.933  0.6721  0.0610 -0.2184
 5723SOL    HW228632   0.722   1.965  13.780  2.3262  0.1024 -0.3589
 5724SOL     OW28633   3.546   0.807  13.307 -0.0461 -0.5124 -0.3188
 5724SOL    HW128634   3.535   0.758  13.388 -0.2865  1.0412  0.5901
 5724SOL    HW228635   3.624   0.857  13.330  0.2281 -0.8455 -0.5305
 5725SOL     OW28636   2.975   4.184   3.896  0.1800  0.1409 -0.0898
 5725SOL    HW128637   2.967   4.090   3.909  0.1960  0.4591  2.3397
 5725SOL    HW228638   3.057   4.184   3.847 -0.4102  0.7252 -1.0601
 5726SOL     OW28639   0.241   3.996  12.160  0.0698 -0.2523  0.0328
 5726SOL    HW128640   0.295   4.074  12.173  0.7110 -0.6900 -0.0063
 5726SOL    HW228641   0.208   3.985  12.249 -0.1481  2.3654  0.2788
 5727SOL     OW28642   4.062   1.350   5.793  0.0001 -0.0152  0.2132
 5727SOL    HW128643   3.991   1.367   5.731  1.9101 -1.0616 -2.2993
 5727SOL    HW228644   4.012   1.315   5.867  0.2642 -0.9303 -0.0303
 5728SOL     OW28645   2.979   2.925   4.437 -0.6645 -0.3902  0.4274
 5728SOL    HW128646   3.041   2.887   4.375 -1.7773 -0.8092 -0.4135
 5728SOL    HW228647   2.996   2.865   4.510  0.0085 -0.5170  0.1692
 5729SOL     OW28648   0.953   1.449   7.411 -0.8306 -0.3104  0.0176
 5729SOL    HW128649   0.892   1.397   7.359 -1.3671  0.9379 -0.5856
 5729SOL    HW228650   0.985   1.506   7.341 -1.1007  2.7089  2.3439
 5730SOL     OW28651   2.588   2.064   3.209  0.1577 -0.2320 -0.0572
 5730SOL    HW128652   2.597   2.022   3.124 -1.2808 -1.0756  0.1996
 5730SOL    HW228653   2.534   1.995   3.248  1.0168 -1.3091 -0.7960
 5731SOL     OW28654   4.460   0.404   9.383  0.6138  0.0860  0.4942
 5731SOL    HW128655   4.413   0.333   9.425 -1.0956  1.6523  1.2474
 5731SOL    HW228656   4.547   0.369   9.401  1.4785  2.9287  1.8137
 5732SOL     OW28657   2.018   1.082   6.439 -0.1753 -0.3270  0.0947
 5732SOL    HW128658   1.925   1.066   6.429 -0.0152 -0.4102 -1.1978
 5732SOL    HW228659   2.010   1.155   6.501  0.1796 -1.3449  1.3400
 5733SOL     OW28660   4.567   0.670   2.380  0.3455 -0.5566  0.2171
 5733SOL    HW128661   4.586   0.596   2.438  1.5100  0.9605  1.7948
 5733SOL    HW228662   4.497   0.705   2.436 -0.4780 -0.1703 -1.0718
 5734SOL     OW28663   1.127   3.647   1.198  0.2497 -0.1179 -0.4474
 5734SOL    HW128664   1.089   3.564   1.170 -0.9838  0.0181  0.8055
 5734SOL    HW228665   1.072   3.665   1.275  0.6663  1.6719 -0.5719
 5735SOL     OW28666   3.717   0.008   3.855 -0.2219  0.2095 -0.0713
 5735SOL    HW128667   3.740   0.068   3.784 -0.5656 -2.5176 -2.5136
 5735SOL    HW228668   3.692   0.075   3.919  0.7609  1.1394 -0.6682
 5736SOL     OW28669   2.308   3.512   8.391  0.2551  0.5928  0.2341
 5736SOL    HW128670   2.248   3.562   8.447 -1.4169 -2.2957  1.0602
 5736SOL    HW228671   2.393   3.552   8.406 -0.1621  0.8795  1.8933
 5737SOL     OW28672   3.870   0.386   2.354  0.2337 -0.1333  0.2091
 5737SOL    HW128673   3.780   0.375   2.387 -0.3014  1.7664 -0.5908
 5737SOL    HW228674   3.849   0.397   2.262  1.2395 -0.7924 -0.0970
 5738SOL     OW28675   2.924   0.616   9.258 -0.4171 -0.1192 -0.3885
 5738SOL    HW128676   2.897   0.649   9.172 -0.5193  1.1139  0.1198
 5738SOL    HW228677   2.984   0.549   9.226  2.2345  0.4196  3.4416
 5739SOL     OW28678   1.932   2.918  13.047  0.2156  0.0347 -0.1480
 5739SOL    HW128679   1.993   2.913  13.121 -2.0667  0.4009  1.7411
 5739SOL    HW228680   1.899   2.829  13.061 -1.6711 -0.0611 -5.3798
 5740SOL     OW28681   0.182   1.742   2.546 -0.0327  0.0883 -0.4029
 5740SOL    HW128682   0.127   1.755   2.469  0.8720 -1.9334 -1.3896
 5740SOL    HW228683   0.237   1.820   2.538 -1.3617  1.1202  0.4421
 5741SOL     OW28684   2.009   2.771   7.842  0.5020  0.3067  0.1669
 5741SOL    HW128685   2.052   2.789   7.759  0.0150 -0.0474 -0.1624
 5741SOL    HW228686   1.964   2.855   7.850  1.4668  0.9771 -1.6457
 5742SOL     OW28687   4.401   0.720   5.121 -0.2953 -0.1900  0.1688
 5742SOL    HW128688   4.494   0.703   5.138 -0.4829 -1.6230 -0.2771
 5742SOL    HW228689   4.385   0.683   5.034 -1.4648  1.6441 -0.4053
 5743SOL     OW28690   2.387   3.785   5.783 -0.0831  0.0922 -0.2598
 5743SOL    HW128691   2.372   3.867   5.829  0.1587  1.1355 -2.0695
 5743SOL    HW228692   2.326   3.736   5.839  0.6833  1.1440  1.4664
 5744SOL     OW28693   4.019   4.144   7.084 -0.4669 -0.6556  0.1312
 5744SOL    HW128694   4.082   4.103   7.143 -0.9953 -2.4751 -0.5800
 5744SOL    HW228695   3.958   4.188   7.144  3.6600  4.0177  0.8922
 5745SOL     OW28696   0.959   1.823   2.667 -0.7124  0.3511  0.1449
 5745SOL    HW128697   0.992   1.889   2.728 -1.6250  1.1914 -0.2723
 5745SOL    HW228698   0.871   1.815   2.702  0.1499 -2.6269  1.6067
 5746SOL     OW28699   2.886   3.014   5.666  0.3219 -0.2489  0.1403
 5746SOL    HW128700   2.875   3.104   5.636 -0.0719 -0.0053  1.0240
 5746SOL    HW228701   2.803   2.970   5.649 -0.3599  0.6600  1.1519
 5747SOL     OW28702   0.436   1.344   0.661  0.2180 -0.0517 -0.5795
 5747SOL    HW128703   0.430   1.401   0.584  1.9450  0.6597 -0.1916
 5747SOL    HW228704   0.526   1.311   0.662 -0.1288 -0.9664 -0.4585
 5748SOL     OW28705   0.954   2.577   3.711 -0.7608 -0.1628 -0.1611
 5748SOL    HW128706   0.975   2.490   3.677  0.9327  0.9437 -1.9149
 5748SOL    HW228707   0.891   2.556   3.781 -1.3571  0.6167 -0.4516
 5749SOL     OW28708   1.459   0.999   7.094  0.3106  0.8031  0.1500
 5749SOL    HW128709   1.458   1.001   7.190  0.0001 -1.1482  0.1891
 5749SOL    HW228710   1.547   1.036   7.091  1.6318 -2.2116  1.5002
 5750SOL     OW28711   3.083   0.398   9.164  0.0404  0.0331 -0.3722
 5750SOL    HW128712   3.043   0.331   9.108  1.2687 -1.4422  0.5432
 5750SOL    HW228713   3.144   0.425   9.095 -0.7454 -0.3015 -1.1966
 5751SOL     OW28714   1.429   1.694   1.446 -0.2694 -0.4752  0.0032
 5751SOL    HW128715   1.384   1.611   1.435 -1.9704  0.4558 -0.1748
 5751SOL    HW228716   1.370   1.753   1.399  0.3723  1.0941  1.1444
 5752SOL     OW28717   1.349   2.538   7.589 -0.3897  0.1918  0.0679
 5752SOL    HW128718   1.307   2.495   7.663 -1.5812  1.0562 -0.1023
 5752SOL    HW228719   1.320   2.627   7.608 -2.0200 -0.2742 -0.2251
 5753SOL     OW28720   1.205   0.192   2.073 -1.1540 -0.1632 -0.1312
 5753SOL    HW128721   1.290   0.212   2.113 -1.2839 -2.2763  1.1898
 5753SOL    HW228722   1.184   0.120   2.132 -0.6469 -0.3199 -0.1423
 5754SOL     OW28723   1.573   1.530  17.586  0.4184  0.2939 -0.4913
 5754SOL    HW128724   1.639   1.478  17.631 -0.5950 -0.1860  0.4328
 5754SOL    HW228725   1.493   1.477  17.594  1.1445 -0.6974  0.1131
 5755SOL     OW28726   2.666   0.217   3.332 -0.4935  0.1082  0.2842
 5755SOL    HW128727   2.756   0.187   3.333 -1.4656 -2.8553 -1.2742
 5755SOL    HW228728   2.620   0.135   3.352 -0.7224 -0.2323 -1.6726
 5756SOL     OW28729   3.475   1.712  13.897  0.5339 -0.5584 -0.4039
 5756SOL    HW128730   3.517   1.793  13.867  1.8164  0.1496  3.2863
 5756SOL    HW228731   3.449   1.741  13.985 -2.8777 -0.7336 -1.3510
 5757SOL     OW28732   2.140   2.005   2.112 -0.2947 -0.3003  0.0422
 5757SOL    HW128733   2.055   1.974   2.081 -0.4411  0.7030 -0.5765
 5757SOL    HW228734   2.188   1.925   2.132 -0.8453 -1.0839 -1.7091
 5758SOL     OW28735   1.441   2.541  10.066 -0.0689 -0.3028 -0.5412
 5758SOL    HW128736   1.468   2.530   9.975 -0.7968  0.9823 -0.9221
 5758SOL    HW228737   1.346   2.533  10.057 -0.0435 -1.1353  0.0065
 5759SOL     OW28738   4.325   3.983   8.939 -0.3489 -0.5107 -0.3122
 5759SOL    HW128739   4.329   4.006   8.846  1.5182 -1.3063 -0.4377
 5759SOL    HW228740   4.231   3.965   8.945 -0.6696  1.6515  1.3357
 5760SOL     OW28741   1.174   3.411  11.079  0.0440  0.3974  0.0624
 5760SOL    HW128742   1.242   3.367  11.129 -0.4300  2.0430  2.1734
 5760SOL    HW228743   1.159   3.344  11.012 -2.0190  1.6184 -0.6906
 5761SOL     OW28744   1.317   3.436   5.616  0.1615 -0.1959  0.7987
 5761SOL    HW128745   1.341   3.390   5.697 -1.1911 -0.3711  1.1036
 5761SOL    HW228746   1.307   3.528   5.641  0.0764  0.2843 -1.0497
 5762SOL     OW28747   2.932   4.290  12.006 -0.5883 -0.1582 -0.5473
 5762SOL    HW128748   2.951   4.335  11.923 -1.8980 -0.5953 -1.0769
 5762SOL    HW228749   2.949   4.357  12.072  0.0396 -0.7687 -0.0905
 5763SOL     OW28750   4.088   1.869  12.406 -0.7673  0.3978 -0.2981
 5763SOL    HW128751   4.149   1.841  12.475  0.0176  0.2682 -1.0354
 5763SOL    HW228752   4.148   1.877  12.332  1.1907  0.6651  1.3027
 5764SOL     OW28753   4.423   1.204   2.772 -0.3306  0.2190 -0.0641
 5764SOL    HW128754   4.470   1.202   2.688 -0.0680  3.2807 -0.0179
 5764SOL    HW228755   4.449   1.295   2.789  2.2851 -0.9266  2.0709
 5765SOL     OW28756   0.499   1.719   3.659 -0.0642  0.1324  0.1911
 5765SOL    HW128757   0.439   1.722   3.734 -1.8311 -1.6418 -1.1653
 5765SOL    HW228758   0.501   1.630   3.626 -2.4503  0.5921 -1.2038
 5766SOL     OW28759   1.035   2.586   8.666  0.4923  0.6280  0.1773
 5766SOL    HW128760   1.074   2.511   8.622  1.1788  0.5627  0.8823
 5766SOL    HW228761   0.956   2.593   8.613  0.3359  0.5475  0.4030
 5767SOL     OW28762   3.051   3.969   9.943  0.7159 -0.1832 -0.1015
 5767SOL    HW128763   3.069   4.044  10.000 -0.6358  0.2675 -0.2753
 5767SOL    HW228764   3.140   3.966   9.908  0.3174  3.2969 -1.4035
 5768SOL     OW28765   3.160   1.317  11.765 -0.1444  0.2787  0.0532
 5768SOL    HW128766   3.076   1.362  11.756 -0.1450  0.1377 -0.6766
 5768SOL    HW228767   3.204   1.366  11.696  1.3961  3.0312  3.0001
 5769SOL     OW28768   4.032   1.366  11.460 -0.8326  0.1741  0.4873
 5769SOL    HW128769   4.021   1.460  11.450  0.4325  0.3141  0.4421
 5769SOL    HW228770   4.076   1.364  11.375 -1.5971 -0.1591  0.0992
 5770SOL     OW28771   0.735   2.509   7.839  0.0407  0.8978 -0.3472
 5770SOL    HW128772   0.743   2.497   7.933 -2.1161  0.0343 -0.2604
 5770SOL    HW228773   0.792   2.585   7.837  0.7421  0.3892  0.2808
 5771SOL     OW28774   2.828   2.267   8.881 -0.1241 -0.1653 -0.0311
 5771SOL    HW128775   2.797   2.328   8.948  0.6471 -0.1836  0.3429
 5771SOL    HW228776   2.747   2.257   8.830  0.9292 -1.6480 -1.4323
 5772SOL     OW28777   3.089   4.226   5.536  0.2469 -1.0168 -0.2780
 5772SOL    HW128778   3.051   4.261   5.617 -0.1357  1.6837 -1.6168
 5772SOL    HW228779   3.062   4.291   5.471  2.4108 -0.0464 -0.1735
 5773SOL     OW28780   0.459   1.774  16.115 -0.2227  0.5075  0.2590
 5773SOL    HW128781   0.490   1.729  16.194 -0.2291 -0.6075 -0.3621
 5773SOL    HW228782   0.437   1.697  16.062  0.3405  0.8353 -0.4362
 5774SOL     OW28783   4.258   1.589  14.590  0.3427 -0.0675  0.1518
 5774SOL    HW128784   4.213   1.601  14.674 -1.6099  2.7244 -1.3151
 5774SOL    HW228785   4.328   1.655  14.597 -0.5374  0.9793 -1.0211
 5775SOL     OW28786   3.423   4.304   5.406  1.1175  0.1659 -0.0404
 5775SOL    HW128787   3.371   4.236   5.448  0.1207  0.9317 -0.0265
 5775SOL    HW228788   3.418   4.281   5.314 -3.2587 -2.7875  0.9909
 5776SOL     OW28789   1.429   4.009   6.249 -0.3244  0.0617  0.2462
 5776SOL    HW128790   1.444   4.078   6.184  1.3290  0.7112  1.3191
 5776SOL    HW228791   1.414   4.062   6.328 -0.6339  0.2421  0.0705
 5777SOL     OW28792   3.412   0.532   6.132 -0.5875 -0.5278  0.4846
 5777SOL    HW128793   3.451   0.457   6.176 -1.5902 -0.8364  0.8336
 5777SOL    HW228794   3.457   0.608   6.170 -0.1159 -0.6950  0.2581
 5778SOL     OW28795   3.648   2.302   0.058 -0.1679 -0.1223 -0.0574
 5778SOL    HW128796   3.674   2.229   0.114 -0.0472  0.5580  0.7801
 5778SOL    HW228797   3.576   2.263   0.010 -0.2259  0.0342 -0.0960
 5779SOL     OW28798   2.263   3.104  14.560 -0.0132 -0.2556  0.3627
 5779SOL    HW128799   2.291   3.123  14.470 -0.8954 -0.7192 -0.0069
 5779SOL    HW228800   2.326   3.037  14.588  0.9518  0.9369  1.0516
 5780SOL     OW28801   2.799   2.133   9.417  0.1385 -0.4325  0.0497
 5780SOL    HW128802   2.879   2.178   9.391  0.2143 -0.5877  0.0164
 5780SOL    HW228803   2.756   2.137   9.331  1.0856  2.8038 -0.2667
 5781SOL     OW28804   1.319   1.904   0.228  0.8171  0.0605  0.1108
 5781SOL    HW128805   1.259   1.978   0.237  1.2508  0.4958 -0.6449
 5781SOL    HW228806   1.360   1.916   0.143 -0.8610 -0.9254 -0.8378
 5782SOL     OW28807   1.334   0.195   1.498 -0.0450 -0.0176  0.0146
 5782SOL    HW128808   1.337   0.100   1.513  2.5726  0.2463  1.2580
 5782SOL    HW228809   1.243   0.217   1.518  0.1034  0.5668  0.0288
 5783SOL     OW28810   2.028   4.521  15.020 -0.3022 -0.6966 -0.4096
 5783SOL    HW128811   2.078   4.506  15.101  1.3611  0.3665 -1.2390
 5783SOL    HW228812   2.066   4.593  14.971 -0.9544 -0.2018 -0.1852
 5784SOL     OW28813   1.082   3.537   3.367  0.2156 -0.2231 -0.3507
 5784SOL    HW128814   1.090   3.621   3.321 -1.9405 -0.4300 -1.1410
 5784SOL    HW228815   1.019   3.557   3.436  1.9056  3.8397 -0.0262
 5785SOL     OW28816   3.212   3.519   8.103  0.0358 -0.6405  0.1300
 5785SOL    HW128817   3.179   3.577   8.173  0.9155  0.5742 -0.4614
 5785SOL    HW228818   3.135   3.508   8.048  0.1749  1.3444 -0.4679
 5786SOL     OW28819   3.032   2.911   6.655  0.1209  0.2751 -0.3351
 5786SOL    HW128820   3.059   2.971   6.585  1.4258 -0.8698 -0.7965
 5786SOL    HW228821   3.041   2.972   6.728  1.2271  0.7356 -0.8583
 5787SOL     OW28822   3.151   0.207   2.915 -0.1332 -0.0664 -0.6338
 5787SOL    HW128823   3.192   0.234   2.997  1.6144 -3.7070 -0.2963
 5787SOL    HW228824   3.068   0.177   2.952  0.3307  1.5724  1.7489
 5788SOL     OW28825   0.110   4.511   1.050  0.6259  0.0238 -0.3002
 5788SOL    HW128826   0.032   4.566   1.052 -0.1902 -1.0507 -2.9356
 5788SOL    HW228827   0.118   4.500   0.955  2.5685 -1.9356  0.1026
 5789SOL     OW28828   4.501   2.509  10.051  0.1147  0.3495  0.3657
 5789SOL    HW128829   4.536   2.518   9.963 -0.9427  1.8831  0.0949
 5789SOL    HW228830   4.574   2.456  10.083 -0.0132 -1.4824 -2.3854
 5790SOL     OW28831   3.942   0.921  12.989  0.4029 -0.3149  0.3505
 5790SOL    HW128832   3.879   0.868  12.940 -2.0443  1.3073  1.7450
 5790SOL    HW228833   3.883   0.952  13.058  1.9465  0.0821  1.4933
 5791SOL     OW28834   3.745   1.137   5.165  0.0653  0.3456 -0.0430
 5791SOL    HW128835   3.820   1.197   5.161  0.1563  0.1299 -1.6888
 5791SOL    HW228836   3.779   1.051   5.138 -1.6446 -0.5498  0.6619
 5792SOL     OW28837   1.663   1.094  17.596  0.0555  0.7586  0.0272
 5792SOL    HW128838   1.686   1.178  17.634  1.7455 -0.9995  2.9365
 5792SOL    HW228839   1.747   1.047  17.603  0.2468  1.2044  0.7514
 5793SOL     OW28840   3.178   2.737   6.877 -0.2519 -0.4495  0.0541
 5793SOL    HW128841   3.246   2.678   6.910  1.7492  1.0550 -1.4008
 5793SOL    HW228842   3.139   2.729   6.965  0.0070  0.5157  0.2628
 5794SOL     OW28843   3.022   1.811   9.818 -0.2689 -0.1007  0.8956
 5794SOL    HW128844   3.043   1.858   9.899 -0.4515 -2.9758  2.6168
 5794SOL    HW228845   2.950   1.754   9.846 -0.4394 -0.3219  0.0172
 5795SOL     OW28846   3.645   1.684   7.058 -0.2102 -0.0540  0.8413
 5795SOL    HW128847   3.553   1.686   7.085 -0.8054  0.8053 -1.2169
 5795SOL    HW228848   3.640   1.615   6.992 -1.5127  1.2574 -0.4571
 5796SOL     OW28849   1.168   3.221  10.902  0.1727 -0.2307  0.4958
 5796SOL    HW128850   1.249   3.205  10.855  0.0176 -0.0742  0.1766
 5796SOL    HW228851   1.171   3.138  10.951 -0.6194 -1.8219 -2.1294
 5797SOL     OW28852   0.743   1.388   7.907  0.0247  0.4919 -0.2027
 5797SOL    HW128853   0.759   1.435   7.825 -1.5853  0.8961 -0.2808
 5797SOL    HW228854   0.806   1.433   7.964  0.9831 -1.4989  0.2857
 5798SOL     OW28855   0.337   3.732   4.749  0.0507  0.1827 -0.4931
 5798SOL    HW128856   0.368   3.665   4.811 -3.1791 -1.9397 -1.1781
 5798SOL    HW228857   0.421   3.777   4.744  0.2936 -0.1929  0.1038
 5799SOL     OW28858   4.614   0.602  11.594 -1.2141 -0.7218  0.2711
 5799SOL    HW128859   4.664   0.563  11.522  0.5653  0.7332  0.7234
 5799SOL    HW228860   4.622   0.694  11.569  1.6375 -0.7738  0.9793
 5800SOL     OW28861   2.940   1.148  10.652  0.1206 -0.0573  0.0670
 5800SOL    HW128862   3.005   1.173  10.717  0.0497  1.9356 -0.6475
 5800SOL    HW228863   2.976   1.186  10.572  1.1980 -0.2667  0.4570
 5801SOL     OW28864   3.419   1.058  11.858  0.6288 -0.5334 -0.1114
 5801SOL    HW128865   3.437   1.064  11.764 -1.4386  0.3130 -0.4413
 5801SOL    HW228866   3.383   0.969  11.859 -1.7762  0.4515 -0.3207
 5802SOL     OW28867   0.588   3.571  15.416  0.2335 -0.2607 -0.0360
 5802SOL    HW128868   0.562   3.537  15.331  2.8501  0.1278 -0.9902
 5802SOL    HW228869   0.682   3.590  15.414 -0.2967  2.3970  0.4440
 5803SOL     OW28870   4.507   1.547   3.513  1.2617 -0.5743  0.6250
 5803SOL    HW128871   4.485   1.454   3.521  0.6587 -0.7130 -2.7224
 5803SOL    HW228872   4.459   1.581   3.588  0.7003  0.1007 -0.0509
 5804SOL     OW28873   3.587   0.898   8.539  0.0968  0.4914 -0.4931
 5804SOL    HW128874   3.529   0.833   8.499  0.3561 -1.6790  2.6137
 5804SOL    HW228875   3.537   0.905   8.620 -1.0630 -0.8695 -1.0971
 5805SOL     OW28876   3.450   3.109   2.295  0.4191 -0.1098  0.4479
 5805SOL    HW128877   3.371   3.159   2.274 -0.6171 -1.8542  0.1546
 5805SOL    HW228878   3.510   3.127   2.223 -0.4022 -1.9795 -0.7011
 5806SOL     OW28879   3.440   0.082  13.705  0.3889 -0.0444  0.1192
 5806SOL    HW128880   3.447   0.145  13.634 -0.3853 -1.4628 -1.2307
 5806SOL    HW228881   3.354   0.041  13.695  0.6567 -1.2691  2.8391
 5807SOL     OW28882   2.047   4.394   3.216 -0.1498  0.1732 -0.0469
 5807SOL    HW128883   1.970   4.437   3.255  0.2935  1.0431 -0.1370
 5807SOL    HW228884   2.039   4.316   3.271  2.4731 -0.2379 -0.2938
 5808SOL     OW28885   2.224   4.402   6.957 -0.3593  0.0036 -0.3315
 5808SOL    HW128886   2.257   4.461   6.889  0.7996  0.8738  0.9717
 5808SOL    HW228887   2.185   4.337   6.899  1.5731 -1.0171 -0.4804
 5809SOL     OW28888   4.281   2.022   4.034 -0.3414  0.4268 -0.6172
 5809SOL    HW128889   4.228   1.943   4.049 -0.0518  0.1934 -0.8155
 5809SOL    HW228890   4.216   2.089   4.012  0.0213 -0.3129 -3.9600
 5810SOL     OW28891   1.011   0.673   3.280 -0.0872  0.2048  0.2579
 5810SOL    HW128892   1.067   0.620   3.223  0.1992 -0.7543  1.4422
 5810SOL    HW228893   1.020   0.758   3.236  0.3461 -1.5521 -3.1228
 5811SOL     OW28894   0.070   3.284   6.920 -0.3185 -0.4773  0.2576
 5811SOL    HW128895   0.083   3.274   6.826 -0.9802  1.5978 -0.0631
 5811SOL    HW228896   4.713   3.237   6.935 -0.2581  0.0149  2.1160
 5812SOL     OW28897   0.588   2.363   4.559 -0.2029 -0.2623  0.2314
 5812SOL    HW128898   0.524   2.340   4.492  1.0075  0.2633 -1.1105
 5812SOL    HW228899   0.535   2.377   4.637 -3.1774 -0.7586 -1.7307
 5813SOL     OW28900   3.520   0.034   8.558 -0.3110  0.1530 -0.2963
 5813SOL    HW128901   3.581   4.685   8.557  1.2964  1.5081 -1.7814
 5813SOL    HW228902   3.500   0.039   8.465  3.0048 -0.9673 -1.0710
 5814SOL     OW28903   0.130   2.000   1.520 -0.0847  1.5406 -0.0053
 5814SOL    HW128904   0.151   1.907   1.526 -0.8262  1.2668 -1.8213
 5814SOL    HW228905   0.043   2.002   1.559  0.2435  0.6023  0.7667
 5815SOL     OW28906   2.718   4.070   1.034  0.4562 -0.1851  0.1072
 5815SOL    HW128907   2.755   3.995   1.081  1.5794  0.0603 -0.4006
 5815SOL    HW228908   2.786   4.110   0.980  0.1999 -0.0484 -0.1139
 5816SOL     OW28909   4.188   3.043  12.528 -0.4005 -0.0684 -0.3313
 5816SOL    HW128910   4.158   3.013  12.443  0.4916  4.4993 -2.2205
 5816SOL    HW228911   4.124   2.996  12.582 -2.5149  1.3169 -1.6434
 5817SOL     OW28912   1.327   0.215   7.032 -0.0811 -0.0228  0.1097
 5817SOL    HW128913   1.303   0.199   7.123 -0.3951  1.6278  0.3079
 5817SOL    HW228914   1.316   0.310   7.029 -2.6267 -0.3606 -0.6923
 5818SOL     OW28915   2.511   3.750   8.658  0.0234 -0.1762 -0.1115
 5818SOL    HW128916   2.569   3.817   8.694 -0.0525 -0.5580  0.7181
 5818SOL    HW228917   2.529   3.691   8.732  3.1039  0.5164 -0.3255
 5819SOL     OW28918   2.815   1.874  15.830 -0.1713 -1.0283  0.3416
 5819SOL    HW128919   2.884   1.900  15.768  0.2260 -2.0495  0.3478
 5819SOL    HW228920   2.737   1.903  15.782  0.1858 -0.4219  0.1284
 5820SOL     OW28921   0.473   4.067   7.505 -0.3905  0.2864  0.4729
 5820SOL    HW128922   0.492   4.054   7.598  1.1615 -1.2118 -0.0497
 5820SOL    HW228923   0.566   4.085   7.489 -0.2129  0.9330  2.2996
 5821SOL     OW28924   3.143   0.012   3.480 -0.3967 -0.3167  0.1764
 5821SOL    HW128925   3.177   4.667   3.535  0.2399  0.4809  0.7971
 5821SOL    HW228926   3.225   0.056   3.457 -0.8736 -0.6496 -2.1161
 5822SOL     OW28927   1.311   4.077   1.716  0.1032 -0.6240  0.4195
 5822SOL    HW128928   1.362   4.094   1.795 -0.1345 -0.8065  0.6111
 5822SOL    HW228929   1.257   4.156   1.709  1.8466  0.5980  0.6917
 5823SOL     OW28930   3.639   0.709  14.333 -0.2612  0.0159  0.1194
 5823SOL    HW128931   3.698   0.773  14.294  0.3213 -1.5213 -1.5205
 5823SOL    HW228932   3.554   0.752  14.346  0.0964  0.9360 -0.5952
 5824SOL     OW28933   2.621   4.450   2.186 -0.2332  0.0025  0.6903
 5824SOL    HW128934   2.648   4.359   2.172  0.3757  0.5079 -1.5029
 5824SOL    HW228935   2.584   4.468   2.099 -1.1664  2.0890  1.5307
 5825SOL     OW28936   3.649   2.967  17.452  0.6283  0.3658  1.1136
 5825SOL    HW128937   3.556   2.965  17.430  1.1954  1.2642 -1.2897
 5825SOL    HW228938   3.653   2.964  17.548  1.7715  0.7913  1.0822
 5826SOL     OW28939   3.757   2.483  12.772 -0.3109  0.1194  0.0250
 5826SOL    HW128940   3.726   2.400  12.809 -1.6860  1.1281  1.1563
 5826SOL    HW228941   3.836   2.448  12.731 -1.1368 -0.5799 -0.9678
 5827SOL     OW28942   0.960   1.623   9.185  0.0708  0.1060  0.0145
 5827SOL    HW128943   1.030   1.559   9.185 -0.4517 -0.4532 -1.0406
 5827SOL    HW228944   0.959   1.649   9.093 -0.9821 -0.2367 -0.0710
 5828SOL     OW28945   0.329   3.941   8.491  0.0846  0.0127  0.4667
 5828SOL    HW128946   0.384   4.018   8.481 -0.9419  0.7199  0.3012
 5828SOL    HW228947   0.242   3.979   8.493 -0.1391 -0.4003 -1.3489
 5829SOL     OW28948   0.813   3.736   4.738  0.2758  0.0064  0.3835
 5829SOL    HW128949   0.776   3.800   4.678 -0.9286 -0.2844  0.8273
 5829SOL    HW228950   0.788   3.649   4.706  0.9951  0.5867 -1.7906
 5830SOL     OW28951   0.609   3.143   8.483  0.0278 -0.0798 -0.3038
 5830SOL    HW128952   0.670   3.187   8.424  0.9884  0.8954  1.4143
 5830SOL    HW228953   0.671   3.107   8.546 -1.0757 -0.0698  0.7933
 5831SOL     OW28954   1.034   4.706  16.108 -0.1022 -0.6261 -0.2420
 5831SOL    HW128955   1.017   0.074  16.095 -2.4107 -0.8189  1.5272
 5831SOL    HW228956   1.005   4.690  16.197 -1.2934 -2.3911 -0.9490
 5832SOL     OW28957   1.510   4.477   6.721  0.1979  0.4137 -0.2765
 5832SOL    HW128958   1.450   4.534   6.674  0.0214 -0.3602 -1.0015
 5832SOL    HW228959   1.568   4.547   6.750 -2.4513  1.0652  3.3452
 5833SOL     OW28960   3.511   0.126   5.770  0.4000  0.2554 -0.0584
 5833SOL    HW128961   3.497   0.205   5.823  1.0819  0.6758 -0.5131
 5833SOL    HW228962   3.421   0.095   5.767  0.5721 -0.3451  0.9719
 5834SOL     OW28963   1.518   0.155   5.620 -0.0672  0.1384 -0.3362
 5834SOL    HW128964   1.585   0.141   5.688 -0.8035 -1.4853  0.0670
 5834SOL    HW228965   1.468   0.227   5.658 -2.4980 -1.7353  0.0019
 5835SOL     OW28966   2.676   4.210   4.474 -0.7624  0.8274 -0.1452
 5835SOL    HW128967   2.702   4.149   4.543  1.7501  0.9459 -1.0127
 5835SOL    HW228968   2.634   4.149   4.413 -1.1554  0.5359  0.4153
 5836SOL     OW28969   1.527   2.108   4.720  0.0125  0.5893 -0.2793
 5836SOL    HW128970   1.509   2.097   4.627 -0.3859 -0.2766 -0.1016
 5836SOL    HW228971   1.461   2.170   4.751  0.2985  1.4665 -1.4308
 5837SOL     OW28972   2.233   2.057   7.422 -0.2820 -0.0044 -0.2228
 5837SOL    HW128973   2.326   2.066   7.400 -0.0565 -0.6589  0.4545
 5837SOL    HW228974   2.212   2.150   7.429  1.5365  0.3013  1.0554
 5838SOL     OW28975   2.227   4.300   5.010 -0.4030 -0.3332  0.4450
 5838SOL    HW128976   2.159   4.283   5.075  0.0867 -1.5835  0.6258
 5838SOL    HW228977   2.307   4.257   5.037 -0.4608 -0.0128  1.1204
 5839SOL     OW28978   1.466   1.372  11.033 -0.1622  0.0117  0.2662
 5839SOL    HW128979   1.391   1.320  11.062 -1.7850  0.6543 -2.7130
 5839SOL    HW228980   1.449   1.450  11.085  0.2076 -0.3840  0.9755
 5840SOL     OW28981   3.048   3.430   5.757 -0.2305  0.5710  0.1821
 5840SOL    HW128982   3.123   3.394   5.805 -2.0757 -0.0059  2.6622
 5840SOL    HW228983   2.983   3.360   5.756  1.9067 -1.3878 -1.8799
 5841SOL     OW28984   2.894   2.684   1.030 -0.1281  0.6573 -0.5336
 5841SOL    HW128985   2.929   2.599   1.002  0.4861  0.9474 -0.6657
 5841SOL    HW228986   2.975   2.732   1.047  0.0459 -0.4714  1.7429
 5842SOL     OW28987   0.038   4.100   2.541  0.4013  0.3908  0.4556
 5842SOL    HW128988   0.024   4.059   2.456  0.2699  2.4826 -0.5240
 5842SOL    HW228989   0.088   4.035   2.590  0.3561  0.8578  1.1235
 5843SOL     OW28990   3.299   0.423   5.800  0.3895 -0.3074 -0.1391
 5843SOL    HW128991   3.219   0.372   5.785 -0.3600  0.6323  0.6791
 5843SOL    HW228992   3.344   0.428   5.715  0.4683 -0.1311 -0.0862
 5844SOL     OW28993   3.173   1.178   1.484 -0.2150  0.0801 -0.1253
 5844SOL    HW128994   3.242   1.145   1.542 -1.4720 -2.6089 -0.1356
 5844SOL    HW228995   3.093   1.132   1.512 -0.4194  0.5562  0.0597
 5845SOL     OW28996   3.087   1.411   5.154  0.1777  0.1304  0.1910
 5845SOL    HW128997   3.066   1.439   5.243  1.6492  0.3156  0.4830
 5845SOL    HW228998   3.027   1.465   5.101  0.0210  1.7267  2.0002
 5846SOL     OW28999   3.019   3.307   4.635 -0.7020 -0.3547  0.0540
 5846SOL    HW129000   3.021   3.246   4.709 -2.2738 -1.1545 -0.5594
 5846SOL    HW229001   2.956   3.370   4.669  3.5593  2.4057  2.6719
 5847SOL     OW29002   2.151   0.369   4.821 -0.5157  0.4033  1.0460
 5847SOL    HW129003   2.123   0.321   4.899 -0.9747 -0.6231  0.2458
 5847SOL    HW229004   2.074   0.386   4.766 -0.1364  0.3852  0.5033
 5848SOL     OW29005   3.688   4.249  15.662 -0.2209 -0.1108  0.2604
 5848SOL    HW129006   3.656   4.339  15.659 -0.0607 -0.0760 -0.3197
 5848SOL    HW229007   3.778   4.266  15.689 -0.1114  0.3007 -0.3554
 5849SOL     OW29008   1.040   3.296  12.301 -0.4888 -0.6526 -0.5902
 5849SOL    HW129009   1.124   3.262  12.330  0.5891 -0.3625 -3.4363
 5849SOL    HW229010   1.064   3.376  12.253 -1.3871  0.2980  0.5196
 5850SOL     OW29011   0.815   3.854  15.012 -0.4902  0.4874  0.1006
 5850SOL    HW129012   0.834   3.778  15.066  0.6337  0.8998  0.2896
 5850SOL    HW229013   0.878   3.910  15.058  1.5204  0.2859 -2.3953
 5851SOL     OW29014   0.061   4.412  12.725  0.3624  0.6825  0.7746
 5851SOL    HW129015   0.044   4.323  12.694  1.8664  1.7333 -2.9943
 5851SOL    HW229016   0.146   4.436  12.689  0.3701  0.9564  0.9802
 5852SOL     OW29017   3.074   3.465   7.850  0.2095 -0.0877  0.4296
 5852SOL    HW129018   2.995   3.490   7.899  0.0523  0.3064 -0.0298
 5852SOL    HW229019   3.040   3.402   7.786 -0.5631 -0.8553  1.5832
 5853SOL     OW29020   4.351   0.406   3.408  0.5955 -0.6770  0.3284
 5853SOL    HW129021   4.321   0.340   3.470 -1.6245  1.0176  1.0326
 5853SOL    HW229022   4.307   0.377   3.328  1.3209  0.5045 -0.5065
 5854SOL     OW29023   0.899   3.041   3.454  0.3083 -0.0987 -0.1058
 5854SOL    HW129024   0.883   3.024   3.547 -1.4877 -1.1095 -0.5760
 5854SOL    HW229025   0.915   3.133   3.472 -0.8936 -0.5996  3.5510
 5855SOL     OW29026   0.230   3.707   7.780  0.2773  0.5918  0.1176
 5855SOL    HW129027   0.288   3.738   7.710 -0.9322  0.2158 -1.0625
 5855SOL    HW229028   0.183   3.789   7.795 -0.3854  0.2151  0.0778
 5856SOL     OW29029   0.046   4.047   8.588 -0.3024  0.2389  0.0189
 5856SOL    HW129030   0.015   4.134   8.612  2.9654  1.7327 -1.1452
 5856SOL    HW229031   0.088   4.020   8.670  3.4492 -0.8695 -2.2779
 5857SOL     OW29032   1.928   0.732   6.313  0.1751 -0.0634  0.2427
 5857SOL    HW129033   1.952   0.745   6.405  1.9099  1.2357 -0.3975
 5857SOL    HW229034   1.833   0.747   6.318  0.0861 -0.2920 -0.8340
 5858SOL     OW29035   1.229   3.045   3.138 -0.2888 -0.0621 -0.2411
 5858SOL    HW129036   1.176   3.104   3.084 -1.9754  1.2306  2.7998
 5858SOL    HW229037   1.296   3.101   3.177 -3.3248  1.2051  3.1506
 5859SOL     OW29038   1.339   0.898   2.839  0.1732 -0.1873 -0.4232
 5859SOL    HW129039   1.401   0.852   2.783 -0.7036 -2.2306  0.3042
 5859SOL    HW229040   1.294   0.954   2.776  0.1114  0.2168 -0.0294
 5860SOL     OW29041   1.658   1.216  11.167  0.8190 -0.7737  0.1634
 5860SOL    HW129042   1.707   1.233  11.086  0.5390  0.8274  0.3341
 5860SOL    HW229043   1.566   1.228  11.146  0.1488  0.4146  3.8062
 5861SOL     OW29044   4.329   4.126  15.813 -0.3809 -0.2535  0.0406
 5861SOL    HW129045   4.236   4.103  15.816 -0.0498 -1.7591 -0.8289
 5861SOL    HW229046   4.336   4.189  15.884  3.2046 -1.5876  0.8541
 5862SOL     OW29047   3.241   1.754  15.286  0.3706 -0.1502 -0.0353
 5862SOL    HW129048   3.237   1.668  15.328 -1.3856 -0.4062 -0.7204
 5862SOL    HW229049   3.183   1.808  15.340  0.4184 -0.4803  0.3485
 5863SOL     OW29050   3.218   3.165   5.100  0.3901 -0.1138 -0.0625
 5863SOL    HW129051   3.301   3.143   5.058  0.3318  1.1128 -0.8377
 5863SOL    HW229052   3.211   3.091   5.159 -0.4257 -0.6230 -0.7925
 5864SOL     OW29053   4.717   2.818   4.423  0.2323  0.0301  0.1484
 5864SOL    HW129054   0.072   2.771   4.400  0.0938 -0.7454  1.2613
 5864SOL    HW229055   0.012   2.894   4.368  1.4698 -0.3237  0.1148
 5865SOL     OW29056   3.554   4.532  15.905 -0.4076 -0.0718 -0.5096
 5865SOL    HW129057   3.617   4.504  15.839  0.0045 -3.0754  1.1080
 5865SOL    HW229058   3.582   4.622  15.919 -1.5589  0.4234 -1.4092
 5866SOL     OW29059   2.247   2.501   4.705 -0.6387 -0.0969 -0.0480
 5866SOL    HW129060   2.181   2.568   4.726  1.0793  0.9904  1.9273
 5866SOL    HW229061   2.197   2.429   4.666  1.2779  0.0132 -2.7160
 5867SOL     OW29062   1.100   4.723  16.637  0.0793  0.1644 -0.3656
 5867SOL    HW129063   1.073   4.661  16.705  0.6664  1.7127  1.3149
 5867SOL    HW229064   1.058   0.079  16.666  2.2741  1.2460 -0.1669
 5868SOL     OW29065   2.563   1.029   7.015  0.3573 -0.3760 -0.1424
 5868SOL    HW129066   2.657   1.022   7.034 -0.2369 -1.6948  2.3184
 5868SOL    HW229067   2.538   0.949   6.969 -0.6908 -0.0791 -0.0821
 5869SOL     OW29068   4.017   3.550   3.923  0.1600  0.4959  0.6284
 5869SOL    HW129069   4.004   3.637   3.885 -0.7291  0.7461  1.4826
 5869SOL    HW229070   4.055   3.508   3.846 -2.6713  3.5687 -2.4392
 5870SOL     OW29071   3.079   0.580   2.213 -0.2390  0.3201 -0.6145
 5870SOL    HW129072   3.107   0.492   2.187 -2.3159  0.0150 -1.8321
 5870SOL    HW229073   2.991   0.576   2.176 -0.3705 -1.1789 -0.1393
 5871SOL     OW29074   3.206   4.521   4.570  0.0182 -0.6528  0.2658
 5871SOL    HW129075   3.186   4.570   4.490  0.1508 -0.1863  0.5168
 5871SOL    HW229076   3.123   4.481   4.594  0.1537 -0.8283  0.4480
 5872SOL     OW29077   0.295   1.211   3.492  0.1194  0.2015 -0.0951
 5872SOL    HW129078   0.245   1.194   3.412  2.3386 -0.0026 -1.4287
 5872SOL    HW229079   0.217   1.226   3.546  0.4302  0.1047  0.3788
 5873SOL     OW29080   4.719   2.178   8.437  0.1022 -0.0105 -0.7237
 5873SOL    HW129081   4.678   2.241   8.496  0.8773 -2.4352  2.3883
 5873SOL    HW229082   4.648   2.115   8.434  1.5044 -1.5163 -2.3532
 5874SOL     OW29083   3.459   4.606   8.985  0.1637  0.4042  0.1601
 5874SOL    HW129084   3.369   4.617   8.954 -0.3644 -1.7168  0.9243
 5874SOL    HW229085   3.488   4.519   8.957  1.0571  0.7243  0.1249
 5875SOL     OW29086   3.542   3.777   1.035  0.5179 -0.4441 -0.2162
 5875SOL    HW129087   3.528   3.865   0.999  0.4081 -0.9503 -1.4018
 5875SOL    HW229088   3.499   3.798   1.119  0.0618 -2.5874  0.0737
 5876SOL     OW29089   0.008   0.174  13.785  0.4541 -0.5228  0.1661
 5876SOL    HW129090   0.048   0.104  13.733 -0.9906 -1.0009 -0.2889
 5876SOL    HW229091   4.698   0.224  13.712 -1.5139 -0.2252  1.3209
 5877SOL     OW29092   3.558   1.893   5.764  0.1433  0.0644 -0.0084
 5877SOL    HW129093   3.504   1.818   5.740 -0.5927  0.2257  1.1231
 5877SOL    HW229094   3.512   1.913   5.846  0.6969 -0.7416  0.5010
 5878SOL     OW29095   1.557   1.966   1.117 -0.1114  0.4009  0.3320
 5878SOL    HW129096   1.509   1.931   1.042  0.8576 -0.8029  0.2784
 5878SOL    HW229097   1.644   1.961   1.075 -0.2396  2.6403 -0.2038
 5879SOL     OW29098   2.506   2.400  17.075  0.0302 -0.1889 -0.3150
 5879SOL    HW129099   2.577   2.354  17.121  1.0133  1.8683  0.2214
 5879SOL    HW229100   2.463   2.443  17.148 -0.5237 -1.4042  0.0690
 5880SOL     OW29101   1.602   0.384   4.548 -0.1072 -0.6245 -0.0385
 5880SOL    HW129102   1.561   0.302   4.574 -0.3897 -0.6053 -0.4196
 5880SOL    HW229103   1.679   0.352   4.502  0.9868  2.1103 -0.1348
 5881SOL     OW29104   4.568   4.435   6.121 -0.7012 -0.5026  0.0411
 5881SOL    HW129105   4.533   4.359   6.167  1.1872 -0.6382  1.2447
 5881SOL    HW229106   4.648   4.453   6.170  0.4142 -3.2693 -0.7475
 5882SOL     OW29107   0.668   0.202   3.369  0.1296 -0.1519  0.0335
 5882SOL    HW129108   0.755   0.231   3.339 -0.7955  0.4298 -2.1375
 5882SOL    HW229109   0.680   0.199   3.464  0.9633  1.4384 -0.0196
 5883SOL     OW29110   1.721   3.501   1.754 -0.2507 -0.1173 -1.0954
 5883SOL    HW129111   1.628   3.508   1.777 -0.2460  1.8205 -1.6654
 5883SOL    HW229112   1.725   3.548   1.671  0.8247  0.4098 -0.7419
 5884SOL     OW29113   4.243   1.368  12.746  0.0722  0.2270  0.0000
 5884SOL    HW129114   4.150   1.360  12.726  0.1794 -0.0106 -0.4010
 5884SOL    HW229115   4.281   1.367  12.658  1.4052  0.9645  0.5718
 5885SOL     OW29116   0.230   1.944  14.847 -0.1167 -0.2758  0.3519
 5885SOL    HW129117   0.202   1.977  14.761 -1.9802 -0.8097  0.7638
 5885SOL    HW229118   0.324   1.961  14.843 -0.1038 -0.5140 -0.5750
 5886SOL     OW29119   2.290   3.120   3.802 -0.3745  0.0250  0.1175
 5886SOL    HW129120   2.209   3.077   3.831 -0.5600  0.3765  0.1188
 5886SOL    HW229121   2.250   3.167   3.729 -0.9252 -3.5912 -1.9633
 5887SOL     OW29122   4.342   3.091   7.654 -0.3371 -0.0364  0.2315
 5887SOL    HW129123   4.382   3.014   7.693 -0.3247 -0.0927  0.1066
 5887SOL    HW229124   4.409   3.153   7.682 -0.0703 -1.1466  2.0436
 5888SOL     OW29125   4.121   2.863   0.438  0.4603  0.5915  0.3053
 5888SOL    HW129126   4.155   2.784   0.479  2.6354  0.0531 -2.4834
 5888SOL    HW229127   4.141   2.845   0.346 -0.0171 -0.7358  0.4599
 5889SOL     OW29128   2.338   3.648   1.777  0.1643  0.0993 -0.0135
 5889SOL    HW129129   2.393   3.676   1.704  0.2345  1.0335  0.3982
 5889SOL    HW229130   2.347   3.716   1.844 -1.1077  1.3654 -1.1202
 5890SOL     OW29131   1.491   0.615   4.448 -0.2014  0.1549 -0.8024
 5890SOL    HW129132   1.565   0.644   4.395  1.2781  2.5698  2.5956
 5890SOL    HW229133   1.535   0.531   4.463  0.0616  0.5302  0.5734
 5891SOL     OW29134   1.057   3.984   0.978 -0.6300 -0.4062  0.4971
 5891SOL    HW129135   0.970   4.024   0.969  0.5938  1.7795 -1.6924
 5891SOL    HW229136   1.036   3.894   1.003 -2.0016 -0.0660  0.6141
 5892SOL     OW29137   0.256   1.600   4.458  0.0144  0.9636 -0.3349
 5892SOL    HW129138   0.173   1.554   4.461 -1.2241  3.0912 -1.7742
 5892SOL    HW229139   0.313   1.529   4.488 -2.0242 -0.9114 -0.9374
 5893SOL     OW29140   4.566   1.511   9.682  0.1095  0.1412  0.1912
 5893SOL    HW129141   4.526   1.426   9.665 -2.3702  0.7537  2.9717
 5893SOL    HW229142   4.588   1.503   9.775 -1.7836  0.7743  0.6990
 5894SOL     OW29143   0.310   1.577   3.399 -0.2901  0.2632 -0.0131
 5894SOL    HW129144   0.341   1.533   3.478  4.9631  0.3812 -2.0309
 5894SOL    HW229145   0.230   1.611   3.439  0.1430  0.1237  0.9760
 5895SOL     OW29146   1.012   2.387   8.140  0.3441 -0.1676 -0.4125
 5895SOL    HW129147   1.085   2.434   8.099  1.1175  0.2705  1.4588
 5895SOL    HW229148   0.998   2.317   8.076 -1.2592 -1.3190  1.1958
 5896SOL     OW29149   1.209   0.150   6.354 -0.3043 -0.1550  0.3225
 5896SOL    HW129150   1.168   0.133   6.269  0.1696 -0.5624  0.1781
 5896SOL    HW229151   1.283   0.090   6.355  0.6527  0.9786 -0.6729
 5897SOL     OW29152   1.478   3.600   7.514 -0.2711  0.6361 -0.3671
 5897SOL    HW129153   1.550   3.659   7.494 -0.5264  0.9630 -0.3060
 5897SOL    HW229154   1.489   3.541   7.439 -3.1916  1.8826 -1.7734
 5898SOL     OW29155   3.738   4.046   2.886 -0.0567 -0.3389 -0.0603
 5898SOL    HW129156   3.732   3.951   2.892 -1.8889 -0.1663  0.7993
 5898SOL    HW229157   3.709   4.062   2.796 -0.5771 -0.2498  0.1265
 5899SOL     OW29158   0.446   2.311   6.551 -0.4067  0.0985 -0.1110
 5899SOL    HW129159   0.424   2.396   6.513  1.3145 -0.2101 -1.7670
 5899SOL    HW229160   0.523   2.338   6.602 -0.8821 -0.8129  1.0660
 5900SOL     OW29161   1.440   3.501   3.044 -0.2966 -0.6367 -0.2077
 5900SOL    HW129162   1.513   3.522   2.986  0.9601  1.0177  1.9680
 5900SOL    HW229163   1.480   3.514   3.130 -1.1704  0.7818 -0.0055
 5901SOL     OW29164   0.152   1.961  15.483 -0.2513 -0.1228  0.2443
 5901SOL    HW129165   0.129   1.989  15.571 -4.0327  1.1077 -1.1013
 5901SOL    HW229166   0.113   2.034  15.435  0.8470  0.7622  0.7186
 5902SOL     OW29167   1.916   0.815   4.009  0.1319  0.7972 -0.4382
 5902SOL    HW129168   1.827   0.843   4.029 -0.1955 -0.5642  0.0207
 5902SOL    HW229169   1.973   0.846   4.079 -1.9982  2.3461  0.6152
 5903SOL     OW29170   0.673   1.805   3.148 -0.2691  0.5906  0.4890
 5903SOL    HW129171   0.739   1.830   3.213  0.5372 -1.7081  0.5666
 5903SOL    HW229172   0.593   1.814   3.200 -0.1745  1.1623  0.5380
 5904SOL     OW29173   4.153   1.844  11.996  1.0072 -0.7381  0.1562
 5904SOL    HW129174   4.226   1.798  11.955  1.2552  0.1590 -0.3932
 5904SOL    HW229175   4.194   1.888  12.071  2.1477 -0.1797 -0.8108
 5905SOL     OW29176   3.833   1.261   3.570 -0.3775  0.0938 -0.0240
 5905SOL    HW129177   3.838   1.166   3.555 -0.2711 -0.4289  3.3370
 5905SOL    HW229178   3.844   1.298   3.483 -2.8878  0.6471 -0.1183
 5906SOL     OW29179   2.913   4.402   7.675  0.4124  0.0831  0.6172
 5906SOL    HW129180   2.907   4.313   7.641  0.4173  0.5282 -0.5401
 5906SOL    HW229181   2.930   4.382   7.767 -0.2548 -0.0008  0.7243
 5907SOL     OW29182   0.575   2.267   7.776  0.1583 -0.2376 -0.0703
 5907SOL    HW129183   0.534   2.232   7.854  0.8918  0.6755  0.7278
 5907SOL    HW229184   0.615   2.350   7.802  1.0872 -0.3169 -1.2047
 5908SOL     OW29185   4.390   1.534  14.849  0.0255 -0.2614  0.1629
 5908SOL    HW129186   4.325   1.475  14.812 -0.0660 -0.1811  0.1959
 5908SOL    HW229187   4.466   1.515  14.794  0.4907 -0.5909  0.9058
 5909SOL     OW29188   3.550   1.288   0.879 -0.3937  0.0175 -0.1832
 5909SOL    HW129189   3.639   1.306   0.908  0.6616 -3.7715 -1.0930
 5909SOL    HW229190   3.501   1.282   0.962  1.0343 -0.9077  0.5972
 5910SOL     OW29191   3.793   2.183   5.281 -0.0196  0.2392  0.0580
 5910SOL    HW129192   3.871   2.166   5.228 -0.6764  1.7411 -1.3907
 5910SOL    HW229193   3.834   2.200   5.366 -1.6207  0.7241  0.7229
 5911SOL     OW29194   2.332   3.377   2.692 -0.0641 -0.3215  0.3608
 5911SOL    HW129195   2.420   3.374   2.730 -0.7369  1.0659  2.0357
 5911SOL    HW229196   2.292   3.426   2.764  0.7783  0.2544  0.4305
 5912SOL     OW29197   1.883   4.200   5.865 -0.2463 -0.1447  0.4498
 5912SOL    HW129198   1.927   4.260   5.925 -0.5830 -0.4162  0.9702
 5912SOL    HW229199   1.889   4.249   5.783 -1.2791  0.2833  0.6336
 5913SOL     OW29200   4.481   3.264   2.682  0.7641 -0.2703 -0.0254
 5913SOL    HW129201   4.400   3.303   2.714 -0.4625  0.3348 -3.8020
 5913SOL    HW229202   4.453   3.174   2.694 -0.4707 -0.1146 -1.6976
 5914SOL     OW29203   3.759   2.082   3.160 -0.6218 -0.0769  0.3373
 5914SOL    HW129204   3.737   2.009   3.218  2.4613 -1.7824 -0.6015
 5914SOL    HW229205   3.764   2.030   3.080  0.8277 -1.6053  1.4066
 5915SOL     OW29206   2.966   1.712   6.112 -0.8077  0.1285 -0.2763
 5915SOL    HW129207   2.970   1.807   6.124 -0.2796  0.1241 -0.4397
 5915SOL    HW229208   2.940   1.710   6.020 -0.8389 -1.3026 -0.2353
 5916SOL     OW29209   2.225   4.685   9.837 -0.0310  0.3216  0.0202
 5916SOL    HW129210   2.220   4.593   9.811  0.3735  0.7152 -1.4293
 5916SOL    HW229211   2.153   4.692   9.901 -0.5583 -2.8966 -0.2643
 5917SOL     OW29212   1.336   2.154   6.973  0.5736  0.1700  0.1877
 5917SOL    HW129213   1.266   2.216   6.951  0.2156 -0.1799  0.3345
 5917SOL    HW229214   1.401   2.171   6.905 -1.2727 -2.2263 -2.1506
 5918SOL     OW29215   2.604   3.887   0.629 -0.0860 -0.1589  0.1389
 5918SOL    HW129216   2.661   3.853   0.560 -0.1742  1.4139 -0.6972
 5918SOL    HW229217   2.515   3.872   0.597 -0.3018 -0.2982  0.7911
 5919SOL     OW29218   3.435   1.625  12.444 -0.8243  0.3661  0.4129
 5919SOL    HW129219   3.516   1.615  12.493 -1.2335 -3.0579  0.3669
 5919SOL    HW229220   3.443   1.562  12.373  1.1080  0.7694  0.2802
 5920SOL     OW29221   2.070   2.026   3.688 -0.3107 -0.5669 -0.8404
 5920SOL    HW129222   2.152   2.027   3.639  0.7177  0.5873  0.9182
 5920SOL    HW229223   2.040   2.117   3.683  1.9174  0.1565 -1.0456
 5921SOL     OW29224   0.885   4.219   8.877  0.3864 -1.1107  0.2258
 5921SOL    HW129225   0.872   4.131   8.841  0.4366 -0.7866 -0.5758
 5921SOL    HW229226   0.836   4.207   8.958 -0.8665 -1.1846 -0.5501
 5922SOL     OW29227   2.798   0.719   4.565 -0.3655  0.3558  0.3071
 5922SOL    HW129228   2.881   0.702   4.610 -0.1395  0.1607 -0.1830
 5922SOL    HW229229   2.744   0.647   4.598  0.1907  0.4981  1.5171
 5923SOL     OW29230   1.610   2.192   2.962 -0.2793  0.6577 -0.2350
 5923SOL    HW129231   1.571   2.237   3.036 -0.0407 -0.2985  0.4770
 5923SOL    HW229232   1.697   2.180   3.000 -1.3501  1.2159  2.3741
 5924SOL     OW29233   1.056   3.120   1.819 -0.0345  0.3785  0.2881
 5924SOL    HW129234   1.019   3.081   1.739 -0.1435 -1.4737  1.2469
 5924SOL    HW229235   0.978   3.152   1.863 -0.9546  1.5032 -2.1270
 5925SOL     OW29236   4.387   2.132   4.591  0.1948  1.3299 -0.1026
 5925SOL    HW129237   4.432   2.071   4.531  1.4016  1.2152  0.9357
 5925SOL    HW229238   4.310   2.079   4.613  0.6929  0.5052 -0.3398
 5926SOL     OW29239   2.331   1.400  12.998  0.0765  0.2054 -0.3451
 5926SOL    HW129240   2.356   1.476  13.050  1.8195 -1.2961  1.0432
 5926SOL    HW229241   2.310   1.331  13.061 -0.5585  0.2722 -0.4835
 5927SOL     OW29242   0.846   4.401   6.052 -0.0021 -0.2394 -0.2011
 5927SOL    HW129243   0.788   4.346   5.999  0.1474  0.2638 -0.8850
 5927SOL    HW229244   0.794   4.482   6.056  1.3753  0.6957 -1.4761
 5928SOL     OW29245   2.121   0.228   9.156 -0.1790  0.4076  0.4118
 5928SOL    HW129246   2.095   0.202   9.244  0.6940 -1.5930  0.0629
 5928SOL    HW229247   2.216   0.220   9.159 -0.4419 -1.9214  1.9566
 5929SOL     OW29248   3.565   4.604   3.554 -0.0246  0.1387 -0.0970
 5929SOL    HW129249   3.642   4.555   3.526  0.6105  2.2056 -1.9199
 5929SOL    HW229250   3.608   4.666   3.612  0.7822 -0.3244 -0.1980
 5930SOL     OW29251   2.624   1.253   1.109  0.3531  0.3577  0.0161
 5930SOL    HW129252   2.589   1.312   1.043  0.7347  1.3756  0.7353
 5930SOL    HW229253   2.600   1.296   1.191  1.0208  0.2578  0.2601
 5931SOL     OW29254   3.644   4.045   4.284  0.2667  0.4069  0.3444
 5931SOL    HW129255   3.571   3.990   4.257  2.2185 -1.3051 -1.4862
 5931SOL    HW229256   3.603   4.102   4.350  0.5214  1.6759 -0.5979
 5932SOL     OW29257   4.308   1.233   7.876  0.8221 -0.4329  0.1383
 5932SOL    HW129258   4.375   1.169   7.851  0.3190 -0.3638 -1.4281
 5932SOL    HW229259   4.247   1.213   7.804 -1.8279  0.8238  2.0543
 5933SOL     OW29260   2.373   1.092   1.405  0.1794 -0.6387 -0.2011
 5933SOL    HW129261   2.321   1.016   1.432 -0.9628 -0.5454 -2.1776
 5933SOL    HW229262   2.463   1.061   1.419  0.6016  0.3865 -0.5953
 5934SOL     OW29263   2.950   3.843  13.289 -0.2355 -0.3300 -0.4217
 5934SOL    HW129264   2.956   3.855  13.383  1.0812  1.9741 -0.7981
 5934SOL    HW229265   2.984   3.927  13.258  2.0171 -0.7041  1.0537
 5935SOL     OW29266   1.210   4.479   7.021  0.1470 -0.0863 -0.1714
 5935SOL    HW129267   1.182   4.549   7.079  1.8823  0.8473 -0.4633
 5935SOL    HW229268   1.122   4.459   6.989 -0.0291  1.0135 -0.3743
 5936SOL     OW29269   2.177   1.916   1.246 -0.0912 -0.1278  0.5061
 5936SOL    HW129270   2.189   2.004   1.211 -2.0116 -0.1847 -0.2879
 5936SOL    HW229271   2.196   1.916   1.340 -0.3587  2.0033  0.5500
 5937SOL     OW29272   0.384   0.675   3.158 -1.1898 -0.1348  0.5154
 5937SOL    HW129273   0.361   0.583   3.157 -0.4743 -0.3193  1.6915
 5937SOL    HW229274   0.340   0.712   3.235 -0.0900 -1.2128  1.6450
 5938SOL     OW29275   4.664   1.028   3.399 -0.0206 -0.0511  0.1787
 5938SOL    HW129276   4.581   1.051   3.356  0.1936  0.4687  0.0423
 5938SOL    HW229277   4.719   1.102   3.373 -3.7029  1.7575 -2.5570
 5939SOL     OW29278   0.821   0.948   7.140 -0.0530 -0.2267 -0.3207
 5939SOL    HW129279   0.813   1.016   7.073  2.0498 -0.6813 -1.0347
 5939SOL    HW229280   0.916   0.956   7.144 -0.0865  1.8874 -3.5521
 5940SOL     OW29281   0.975   3.549  10.929  0.0396  0.4602  0.0302
 5940SOL    HW129282   1.043   3.515  10.986  0.5248 -2.0118 -1.9974
 5940SOL    HW229283   1.031   3.567  10.854 -0.1977 -0.5810 -0.4130
 5941SOL     OW29284   0.103   3.054  17.479 -0.4012 -0.2886 -0.3322
 5941SOL    HW129285   0.107   3.137  17.432  1.6625  1.0914  2.3188
 5941SOL    HW229286   0.135   3.078  17.566 -2.2521 -0.5958  0.4530
 5942SOL     OW29287   0.476   1.080   7.502 -0.4390 -0.0528 -0.3493
 5942SOL    HW129288   0.443   1.139   7.435 -0.9318 -2.1752 -1.9580
 5942SOL    HW229289   0.510   1.012   7.444  0.5002 -1.4718  1.8369
 5943SOL     OW29290   3.589   2.046   6.824  0.3986 -0.6590 -0.1269
 5943SOL    HW129291   3.682   2.064   6.808  0.7137 -1.0934  1.2419
 5943SOL    HW229292   3.547   2.122   6.866  0.9238 -0.9416  0.9130
 5944SOL     OW29293   1.919   2.159  17.593  0.5856 -0.0339  0.4663
 5944SOL    HW129294   1.993   2.184  17.649  0.3884 -0.0904  0.7526
 5944SOL    HW229295   1.945   2.068  17.575  0.8001 -0.0867  1.0246
 5945SOL     OW29296   2.192   2.645   1.198  0.4051 -0.4526 -0.2971
 5945SOL    HW129297   2.137   2.608   1.267 -0.6122  2.9161  0.6902
 5945SOL    HW229298   2.195   2.739   1.213  4.1039 -0.3634 -1.4508
 5946SOL     OW29299   3.836   3.051   7.819 -0.2842  0.0554  0.1415
 5946SOL    HW129300   3.782   3.001   7.758  0.0905  3.1973 -2.7404
 5946SOL    HW229301   3.829   3.140   7.784  0.9785  0.2040  0.2878
 5947SOL     OW29302   3.740   4.405  14.666  0.0651 -0.7888  0.0256
 5947SOL    HW129303   3.810   4.350  14.701 -0.5211 -1.9151 -0.5768
 5947SOL    HW229304   3.738   4.382  14.573  0.9849 -3.0214  0.5798
 5948SOL     OW29305   3.453   4.504  11.060 -0.0226  0.1921 -0.0906
 5948SOL    HW129306   3.525   4.527  11.119 -0.4129 -1.6426  1.0734
 5948SOL    HW229307   3.389   4.465  11.120  0.5995 -0.8918 -0.1453
 5949SOL     OW29308   1.805   1.382   2.589 -0.2774  0.1688  0.0698
 5949SOL    HW129309   1.889   1.407   2.628 -0.3079  0.3150  0.0437
 5949SOL    HW229310   1.753   1.462   2.592  1.2987  1.1084  2.0900
 5950SOL     OW29311   0.316   0.877   7.184 -0.1160  0.6589  0.3253
 5950SOL    HW129312   0.244   0.922   7.228 -2.7735 -1.9820 -1.3511
 5950SOL    HW229313   0.296   0.876   7.091 -1.6058  0.3343  0.6619
 5951SOL     OW29314   2.731   1.416   1.913  0.5077 -0.1992 -0.1601
 5951SOL    HW129315   2.695   1.501   1.888 -1.4484 -1.0470 -0.2084
 5951SOL    HW229316   2.701   1.362   1.839 -1.3553 -1.5133  1.5502
 5952SOL     OW29317   2.454   1.484  14.002  0.1233  0.9599  0.2275
 5952SOL    HW129318   2.472   1.496  13.909  0.6743  2.7391  0.5585
 5952SOL    HW229319   2.498   1.400  14.013 -0.1602  0.5753 -1.6552
 5953SOL     OW29320   4.449   3.171  15.545 -0.7187  0.0329 -0.6180
 5953SOL    HW129321   4.469   3.198  15.635  1.6711  0.6646 -1.3331
 5953SOL    HW229322   4.516   3.230  15.510 -0.2052  0.4503  1.0572
 5954SOL     OW29323   2.353   3.927   3.819 -0.3146  0.1071 -0.1822
 5954SOL    HW129324   2.267   3.886   3.807 -0.1340  0.2359 -2.0071
 5954SOL    HW229325   2.400   3.844   3.812  0.5769  0.8895 -3.4834
 5955SOL     OW29326   2.855   1.601  15.788 -0.5787  0.3950  0.1949
 5955SOL    HW129327   2.868   1.587  15.882  1.2383 -0.8294 -0.2517
 5955SOL    HW229328   2.844   1.696  15.788 -0.1626  0.4446  0.6433
 5956SOL     OW29329   3.741   0.755   5.736 -0.1945 -0.1418  0.0370
 5956SOL    HW129330   3.803   0.698   5.689 -1.9750 -1.1612 -1.0673
 5956SOL    HW229331   3.741   0.703   5.816  0.2675 -1.1366 -0.6001
 5957SOL     OW29332   0.475   1.268   3.211 -0.0315 -0.0976 -1.0025
 5957SOL    HW129333   0.544   1.270   3.144  0.9142  0.5143 -0.0169
 5957SOL    HW229334   0.502   1.187   3.253  1.3775  0.6038 -0.5525
 5958SOL     OW29335   2.691   2.298   1.886  0.4173 -0.4305  0.5132
 5958SOL    HW129336   2.685   2.393   1.897 -2.6963 -0.4897 -0.5790
 5958SOL    HW229337   2.632   2.259   1.951  2.5673 -1.1656  2.0068
 5959SOL     OW29338   1.110   0.005  14.334 -0.0817  0.6335 -0.0687
 5959SOL    HW129339   1.025   4.709  14.372 -0.4801  0.6506 -0.9480
 5959SOL    HW229340   1.077   0.053  14.258 -0.4995  3.2234  1.7564
 5960SOL     OW29341   3.734   2.189  15.253 -0.0019 -0.0409  0.4498
 5960SOL    HW129342   3.663   2.205  15.315  0.1238  0.2754  0.5116
 5960SOL    HW229343   3.738   2.093  15.245  0.4952 -0.1019  1.3854
 5961SOL     OW29344   0.342   1.585   9.527 -0.0246 -0.5945  0.0995
 5961SOL    HW129345   0.265   1.534   9.552  0.3961 -0.4369  1.7283
 5961SOL    HW229346   0.374   1.555   9.441 -0.6609 -0.3023 -0.2360
 5962SOL     OW29347   2.624   4.375   7.883  0.2419  0.3873 -0.0121
 5962SOL    HW129348   2.699   4.357   7.941  0.2913  1.5206  0.2809
 5962SOL    HW229349   2.572   4.423   7.947 -0.7612 -0.6813 -0.0235
 5963SOL     OW29350   4.635   1.631   4.598  0.9997 -0.4948  0.4082
 5963SOL    HW129351   4.592   1.705   4.555 -0.3267 -1.9373 -0.7605
 5963SOL    HW229352   4.588   1.554   4.567 -0.5296  0.2259  0.9035
 5964SOL     OW29353   1.209   4.411  15.813  0.0322 -0.4268  0.8235
 5964SOL    HW129354   1.119   4.412  15.846  0.2562  2.2496  1.3388
 5964SOL    HW229355   1.194   4.402  15.719 -0.5488 -0.0826  0.8832
 5965SOL     OW29356   0.043   4.368   0.791  0.5738  0.6567  0.0290
 5965SOL    HW129357   0.105   4.317   0.738 -0.8899 -2.1573  0.9992
 5965SOL    HW229358   4.713   4.310   0.844  1.3936 -0.7916 -0.6883
 5966SOL     OW29359   1.670   4.252   6.373 -0.1030  0.2511 -0.0797
 5966SOL    HW129360   1.714   4.167   6.375 -0.2669  0.1823  0.6266
 5966SOL    HW229361   1.671   4.254   6.277 -1.1641 -0.2163 -0.1063
 5967SOL     OW29362   2.064   2.878   3.690 -0.0223  0.2952 -0.1184
 5967SOL    HW129363   2.104   2.849   3.607 -0.1451  1.2672 -0.5209
 5967SOL    HW229364   2.081   2.804   3.747  3.9020  0.4665 -1.0337
 5968SOL     OW29365   3.813   1.064   7.236 -0.9257  0.0967 -0.2315
 5968SOL    HW129366   3.895   1.040   7.280 -0.3843  0.4690 -1.0426
 5968SOL    HW229367   3.820   1.159   7.221  1.6688 -0.1778 -0.7426
 5969SOL     OW29368   1.652   3.232  11.835 -0.0273 -0.0833  0.1094
 5969SOL    HW129369   1.698   3.181  11.768 -0.1383  1.1136 -0.8703
 5969SOL    HW229370   1.683   3.321  11.820 -1.2152 -0.1698 -2.8639
 5970SOL     OW29371   4.033   1.117   4.212  0.9007  0.3506 -0.0224
 5970SOL    HW129372   4.089   1.119   4.134  0.2917 -0.7975 -0.4838
 5970SOL    HW229373   4.036   1.212   4.230 -0.2170  0.3838 -0.0278
 5971SOL     OW29374   3.275   2.722   2.683  0.4890  0.0680  0.2288
 5971SOL    HW129375   3.191   2.706   2.724  0.2089  2.1378  0.4920
 5971SOL    HW229376   3.269   2.804   2.634  2.5767 -1.0648 -1.9374
 5972SOL     OW29377   2.120   3.832   3.850 -0.3380  0.0086  0.1716
 5972SOL    HW129378   2.035   3.876   3.855  0.4884  1.6747 -1.0085
 5972SOL    HW229379   2.106   3.739   3.870 -0.2780 -0.0296  0.0348
 5973SOL     OW29380   2.982   0.811   0.971  0.1293  0.3355  0.0756
 5973SOL    HW129381   2.944   0.815   1.059  0.5664  1.2258  0.2249
 5973SOL    HW229382   2.967   0.897   0.930  0.4655  0.2960 -0.1332
 5974SOL     OW29383   0.758   3.535   3.410 -0.3557 -0.0164  0.2694
 5974SOL    HW129384   0.716   3.621   3.402 -1.9556 -0.9003 -1.0510
 5974SOL    HW229385   0.749   3.503   3.320  2.7337 -1.7045  0.5730
 5975SOL     OW29386   4.489   0.789   3.868  0.6913  0.3949 -0.0799
 5975SOL    HW129387   4.479   0.823   3.956 -1.2198  2.4071 -1.0728
 5975SOL    HW229388   4.451   0.702   3.879 -1.4255  1.3452  0.1166
 5976SOL     OW29389   1.973   3.745   4.439  0.2573 -0.8773 -0.4139
 5976SOL    HW129390   1.988   3.729   4.346  1.9618 -2.6723  0.1602
 5976SOL    HW229391   1.895   3.799   4.444  0.4681 -0.5555 -0.6048
 5977SOL     OW29392   0.381   2.015   3.853 -0.0456  0.5073  0.5987
 5977SOL    HW129393   0.333   2.077   3.907  2.0474  2.0623  0.7020
 5977SOL    HW229394   0.458   1.996   3.907 -0.0428 -1.5550 -0.1471
 5978SOL     OW29395   1.437   1.983  15.024  0.4581 -0.4264  0.1499
 5978SOL    HW129396   1.455   2.064  14.975  1.2423  0.0366  1.1852
 5978SOL    HW229397   1.525   1.972  15.061  0.2818 -1.4232  0.2776
 5979SOL     OW29398   4.689   3.991   4.510  0.3146 -0.5964  0.2171
 5979SOL    HW129399   4.614   3.939   4.481  2.0395 -3.4704  0.8731
 5979SOL    HW229400   4.721   4.015   4.423  0.6823 -0.4796  0.3859
 5980SOL     OW29401   4.427   3.655   6.641 -0.3747 -0.4471  0.3314
 5980SOL    HW129402   4.414   3.702   6.723  2.2936 -0.3509  0.7126
 5980SOL    HW229403   4.405   3.728   6.583  2.2305 -0.3047 -0.5054
 5981SOL     OW29404   3.425   4.217   5.138  0.2154 -0.8159 -0.4590
 5981SOL    HW129405   3.375   4.142   5.169  0.4337 -1.1116 -0.8307
 5981SOL    HW229406   3.493   4.168   5.092  0.7879 -1.9920  1.6147
 5982SOL     OW29407   1.594   2.624   7.727  0.6608  0.8682  0.1168
 5982SOL    HW129408   1.672   2.660   7.686  0.4423 -0.1018 -1.1641
 5982SOL    HW229409   1.539   2.690   7.683 -2.1268 -0.9704  0.8171
 5983SOL     OW29410   3.420   2.464   0.653 -0.6018 -0.7046  0.3466
 5983SOL    HW129411   3.496   2.515   0.682 -0.8826 -0.4698  0.6712
 5983SOL    HW229412   3.424   2.387   0.709  1.0847  1.0252  2.5857
 5984SOL     OW29413   1.395   3.142   0.270 -0.0274 -0.5944  0.3825
 5984SOL    HW129414   1.473   3.189   0.299  1.1098 -2.0078 -0.3830
 5984SOL    HW229415   1.327   3.201   0.301  1.8060  1.3766  0.7169
 5985SOL     OW29416   0.734   2.910   8.942 -0.0354 -0.0526 -0.8961
 5985SOL    HW129417   0.719   2.862   9.023  0.4768  0.1673 -0.6771
 5985SOL    HW229418   0.742   2.838   8.879  4.2094 -0.0793 -0.2716
 5986SOL     OW29419   2.694   4.345  15.622 -0.4694  0.4923  0.2763
 5986SOL    HW129420   2.646   4.338  15.704 -0.7493 -0.9985 -0.0200
 5986SOL    HW229421   2.701   4.251  15.605  0.0261  0.2680  1.6739
 5987SOL     OW29422   2.574   4.529  14.902  0.4893  0.4292  0.8059
 5987SOL    HW129423   2.630   4.454  14.922  1.9497  1.8092  1.8204
 5987SOL    HW229424   2.553   4.508  14.810  1.6496 -0.1660  0.6816
 5988SOL     OW29425   0.504   0.917  16.130  0.4669  0.1711  0.0102
 5988SOL    HW129426   0.526   0.858  16.059  1.5827 -0.6472  1.0468
 5988SOL    HW229427   0.579   0.975  16.144  0.8645 -0.2494 -0.4092
 5989SOL     OW29428   4.024   0.209   9.211  0.1643  0.2501  0.4211
 5989SOL    HW129429   4.025   0.119   9.181  0.8997  0.8310 -1.2859
 5989SOL    HW229430   4.116   0.216   9.235 -0.1650  1.4564  1.3425
 5990SOL     OW29431   1.817   2.534  17.680 -0.0864 -0.0808  0.0534
 5990SOL    HW129432   1.741   2.592  17.676 -0.1703  0.0937  3.7000
 5990SOL    HW229433   1.807   2.492  17.595  0.0535  2.1263 -1.0461
 5991SOL     OW29434   0.314   0.527   7.099 -0.2791 -0.0148 -0.2681
 5991SOL    HW129435   0.222   0.554   7.097 -0.7729 -1.7031 -0.9596
 5991SOL    HW229436   0.337   0.545   7.008  0.4728  0.5030  0.0298
 5992SOL     OW29437   2.850   4.042   7.366 -0.0545  0.4909 -0.5877
 5992SOL    HW129438   2.831   3.954   7.332 -4.4298  0.6331  1.4573
 5992SOL    HW229439   2.767   4.088   7.351 -2.1333 -1.9748  3.0901
 5993SOL     OW29440   0.348   0.193  15.654  0.1564  0.0110 -0.6696
 5993SOL    HW129441   0.287   0.157  15.719  1.4583  0.6629  0.9124
 5993SOL    HW229442   0.365   0.111  15.607  1.7155 -0.4243  0.6727
 5994SOL     OW29443   0.224   0.544   5.239  0.4994 -0.0194 -0.2009
 5994SOL    HW129444   0.260   0.616   5.187  1.0965 -0.5520 -0.5225
 5994SOL    HW229445   0.206   0.481   5.169 -0.1640 -0.9206  0.7759
 5995SOL     OW29446   1.670   1.661   2.553  0.6303  0.1640  0.4510
 5995SOL    HW129447   1.591   1.623   2.514  1.3099 -0.6874 -0.1005
 5995SOL    HW229448   1.641   1.684   2.641 -0.8710 -0.5780  0.1478
 5996SOL     OW29449   3.598   3.749   0.733 -0.3472 -0.0220  0.1288
 5996SOL    HW129450   3.634   3.782   0.815 -2.3606  1.2620  0.4878
 5996SOL    HW229451   3.648   3.668   0.721 -2.2276 -1.4605  1.9196
 5997SOL     OW29452   2.752   1.667   7.784  0.4072  0.1487  0.0982
 5997SOL    HW129453   2.748   1.616   7.703  0.8706  0.3382 -0.0436
 5997SOL    HW229454   2.817   1.618   7.835 -1.1338  0.1828  2.1107
 5998SOL     OW29455   2.060   3.834   5.817  0.2790 -0.4769 -0.2300
 5998SOL    HW129456   2.099   3.766   5.873  0.0530  0.7139  1.3734
 5998SOL    HW229457   2.115   3.911   5.832 -1.6337  0.6941  0.7956
 5999SOL     OW29458   1.355   2.528   5.088  0.3537  0.4192 -0.0435
 5999SOL    HW129459   1.316   2.448   5.055 -0.2615  0.0706  1.5165
 5999SOL    HW229460   1.312   2.598   5.038  0.7267  0.0763 -0.8364
 6000SOL     OW29461   0.235   3.427   3.097 -0.1138 -0.3048  0.3441
 6000SOL    HW129462   0.325   3.459   3.091  0.2399 -1.7499 -2.0583
 6000SOL    HW229463   0.246   3.345   3.049 -2.1631 -0.2503 -0.2233
 6001SOL     OW29464   4.278   1.136   3.934  0.1995 -0.3222 -0.0664
 6001SOL    HW129465   4.219   1.210   3.924  2.8977  1.4840 -2.8147
 6001SOL    HW229466   4.318   1.110   3.851  0.3631 -0.6055  0.1019
 6002SOL     OW29467   0.985   4.594   4.003 -0.0470 -0.1116  0.5197
 6002SOL    HW129468   0.959   4.618   4.092 -2.2028 -0.7573  0.0663
 6002SOL    HW229469   0.896   4.579   3.970  0.5112 -0.9067 -0.6344
 6003SOL     OW29470   4.090   1.705   7.304  0.6380 -0.1702 -0.1890
 6003SOL    HW129471   4.022   1.717   7.238 -0.2187  0.9104  0.9091
 6003SOL    HW229472   4.109   1.794   7.331  0.3755 -0.6478  1.5308
 6004SOL     OW29473   1.251   2.765   4.907  0.2611 -0.8504  0.3218
 6004SOL    HW129474   1.325   2.804   4.955  0.2993  2.3956 -2.3706
 6004SOL    HW229475   1.244   2.815   4.826 -1.7674 -1.9016 -0.1405
 6005SOL     OW29476   1.296   3.181  15.861  0.4452 -0.0473 -0.3723
 6005SOL    HW129477   1.363   3.173  15.793  1.1529  0.8825  0.2104
 6005SOL    HW229478   1.270   3.089  15.867 -0.2782  0.3199  2.3053
 6006SOL     OW29479   3.504   0.256   7.167  0.0863  0.3089  0.3612
 6006SOL    HW129480   3.445   0.270   7.093  0.2632 -0.2283  0.1231
 6006SOL    HW229481   3.589   0.254   7.123 -0.1935 -1.7186 -0.0818
 6007SOL     OW29482   3.138   0.694  15.564  0.8480 -0.3386  0.8420
 6007SOL    HW129483   3.119   0.774  15.612  1.1621  0.2550 -0.0209
 6007SOL    HW229484   3.103   0.698  15.475 -0.7656 -0.1189  1.4927
 6008SOL     OW29485   1.276   3.311  15.364 -0.2395  0.1344 -0.1237
 6008SOL    HW129486   1.263   3.391  15.415  2.4996  0.9802 -0.7290
 6008SOL    HW229487   1.201   3.315  15.305 -0.0803 -3.1257 -0.5537
 6009SOL     OW29488   2.452   3.284   4.704  0.3994 -0.3702 -0.3429
 6009SOL    HW129489   2.440   3.346   4.776 -1.8481  2.0494 -2.8059
 6009SOL    HW229490   2.442   3.341   4.628 -0.7359 -0.0571  0.0366
 6010SOL     OW29491   1.620   1.426   1.515  0.6605  0.3050  0.3721
 6010SOL    HW129492   1.534   1.467   1.510 -0.1132 -1.3237  0.3527
 6010SOL    HW229493   1.674   1.505   1.525 -1.3695  1.7934 -0.5901
 6011SOL     OW29494   1.787   4.362   3.795  0.2129  0.1146 -0.0411
 6011SOL    HW129495   1.762   4.420   3.723  0.1323 -1.0929 -1.0009
 6011SOL    HW229496   1.719   4.379   3.860 -0.7608  3.2465 -1.8690
 6012SOL     OW29497   3.439   4.040   8.988 -0.0808  0.2189 -0.0215
 6012SOL    HW129498   3.441   3.953   8.948 -2.5041 -0.3341  1.0426
 6012SOL    HW229499   3.360   4.072   8.945 -1.1233  0.4403  2.0637
 6013SOL     OW29500   3.858   2.520   3.016 -0.5976  0.0765 -0.1467
 6013SOL    HW129501   3.887   2.590   3.075  1.8833 -2.4140  1.6125
 6013SOL    HW229502   3.766   2.541   3.002 -0.4405  1.3730  0.6461
 6014SOL     OW29503   3.298   3.659  16.866 -0.0689  0.4789 -0.0922
 6014SOL    HW129504   3.330   3.590  16.923 -0.6003  0.1972 -0.1352
 6014SOL    HW229505   3.203   3.658  16.879 -0.2606 -0.7713 -1.6159
 6015SOL     OW29506   4.658   1.601  14.352 -0.0866 -0.5762 -0.2628
 6015SOL    HW129507   4.713   1.538  14.305  0.2759 -0.8485  0.5253
 6015SOL    HW229508   4.715   1.610  14.428 -0.8834  1.7658  0.0639
 6016SOL     OW29509   4.030   0.560   6.421 -0.0315  0.5444  0.4151
 6016SOL    HW129510   3.956   0.617   6.403  1.2418  1.9958 -0.1623
 6016SOL    HW229511   4.090   0.590   6.353  0.3833  1.7210  1.3191
 6017SOL     OW29512   4.336   0.318   4.659  0.0811  0.0992  0.0878
 6017SOL    HW129513   4.274   0.252   4.690  1.2455 -1.1997 -0.3641
 6017SOL    HW229514   4.288   0.400   4.652 -0.4568 -0.5403 -3.4648
 6018SOL     OW29515   1.511   1.392  14.340  0.1277 -0.8149  0.1138
 6018SOL    HW129516   1.572   1.378  14.267  0.3936 -2.7906  0.6954
 6018SOL    HW229517   1.500   1.484  14.318  0.1417 -0.9327 -0.4012
 6019SOL     OW29518   2.233   4.249  15.656  0.2001  0.5750  0.3090
 6019SOL    HW129519   2.285   4.195  15.597 -1.5670 -1.8882  1.0008
 6019SOL    HW229520   2.171   4.192  15.701  0.5255 -1.0174 -1.2896
 6020SOL     OW29521   1.195   2.093  11.791 -0.2180 -0.0680 -0.5904
 6020SOL    HW129522   1.259   2.144  11.841  1.2878 -3.7163  1.2037
 6020SOL    HW229523   1.127   2.091  11.859  0.3738  0.7159  0.0208
 6021SOL     OW29524   3.939   2.202  16.586 -0.4485  0.1859  0.6555
 6021SOL    HW129525   4.025   2.183  16.622 -0.7141 -0.7167  0.8094
 6021SOL    HW229526   3.957   2.241  16.500  1.1328 -0.9292  0.4955
 6022SOL     OW29527   3.974   3.546  14.632 -0.4841  0.0145 -0.8568
 6022SOL    HW129528   4.024   3.598  14.569  2.3375 -0.0589  1.3383
 6022SOL    HW229529   3.927   3.616  14.678 -0.7775 -0.0822 -1.0064
 6023SOL     OW29530   3.649   2.247   2.821  0.4205 -0.2024  0.0088
 6023SOL    HW129531   3.564   2.283   2.796  1.2212  1.0694 -0.9533
 6023SOL    HW229532   3.657   2.277   2.912  3.7070  1.9873 -0.9675
 6024SOL     OW29533   0.673   4.139   6.735 -0.2127  0.3822  0.0947
 6024SOL    HW129534   0.670   4.068   6.670  1.6316  0.0316  0.3842
 6024SOL    HW229535   0.590   4.139   6.782  0.4181  1.2368  1.2052
 6025SOL     OW29536   2.749   1.705   5.187 -0.3032  0.6211 -0.2360
 6025SOL    HW129537   2.677   1.769   5.190 -0.7294  0.2295 -1.8448
 6025SOL    HW229538   2.796   1.718   5.269 -0.1291 -1.0682 -0.0853
 6026SOL     OW29539   3.516   3.193   8.920  0.5373  0.3754  0.6108
 6026SOL    HW129540   3.460   3.121   8.892  0.0200  0.9758  0.1220
 6026SOL    HW229541   3.599   3.166   8.881 -1.0309 -2.3108 -0.8584
 6027SOL     OW29542   4.454   1.417   8.407  0.5572  0.4165 -0.0624
 6027SOL    HW129543   4.393   1.478   8.365 -0.1262  0.1458  0.5355
 6027SOL    HW229544   4.532   1.462   8.374 -0.1390  1.9587  0.3991
 6028SOL     OW29545   4.104   4.309  12.063  0.0249  0.1629  0.4300
 6028SOL    HW129546   4.120   4.260  12.144  0.3481  0.3280  0.4676
 6028SOL    HW229547   4.175   4.268  12.013  0.6424 -1.4296  2.6146
 6029SOL     OW29548   0.301   1.355   0.935 -0.1312 -0.0279 -0.0875
 6029SOL    HW129549   0.388   1.371   0.899 -0.6219  1.6644 -0.5051
 6029SOL    HW229550   0.243   1.413   0.885 -0.3516 -0.5101 -0.4048
 6030SOL     OW29551   0.439   4.404   1.457 -0.0748 -0.7577  0.2348
 6030SOL    HW129552   0.398   4.375   1.538 -1.6395 -1.0138 -0.6374
 6030SOL    HW229553   0.473   4.489   1.486  0.4385 -0.4675 -1.1716
 6031SOL     OW29554   1.918   3.383   3.485  0.1461  0.4164 -0.1630
 6031SOL    HW129555   1.829   3.348   3.489  0.1130  0.4548 -0.5679
 6031SOL    HW229556   1.945   3.371   3.576 -1.1639  0.1619  0.1863
 6032SOL     OW29557   1.113   3.327   7.484 -0.5677  0.0760  0.5878
 6032SOL    HW129558   1.120   3.411   7.529 -2.9913  0.8711 -0.4958
 6032SOL    HW229559   1.182   3.272   7.521 -0.1169  0.4841  0.3497
 6033SOL     OW29560   0.177   4.341   2.253  0.1935  0.3630 -0.4623
 6033SOL    HW129561   0.206   4.265   2.201 -1.4416 -0.5256 -0.0644
 6033SOL    HW229562   0.225   4.418   2.221 -3.1258  1.2827 -3.1774
 6034SOL     OW29563   1.005   2.847   1.975  0.6028 -0.0195 -0.3604
 6034SOL    HW129564   0.949   2.890   1.910  0.5271  1.2796  0.5550
 6034SOL    HW229565   1.003   2.754   1.953 -2.9172 -0.1621  0.4791
 6035SOL     OW29566   2.619   3.128   7.475  0.0158 -0.1583  0.2522
 6035SOL    HW129567   2.619   3.034   7.491  0.0516 -0.4090 -1.2521
 6035SOL    HW229568   2.608   3.128   7.380 -0.1525 -2.6811  0.2614
 6036SOL     OW29569   0.465   3.565  14.321 -0.0466  0.0652 -0.2585
 6036SOL    HW129570   0.539   3.621  14.346  0.2415 -0.0570 -0.8447
 6036SOL    HW229571   0.393   3.618  14.355 -0.9757 -1.5263  0.2596
 6037SOL     OW29572   0.853   2.866   8.328  0.1043 -0.7695  0.2998
 6037SOL    HW129573   0.914   2.805   8.288  1.0087  0.8890 -0.8477
 6037SOL    HW229574   0.796   2.811   8.382 -0.5637 -0.3522  0.0240
 6038SOL     OW29575   3.546   2.525   6.544 -0.3486  0.2513 -0.4668
 6038SOL    HW129576   3.550   2.557   6.454  0.4840 -1.3914 -0.9969
 6038SOL    HW229577   3.606   2.586   6.586 -0.4310  0.0995 -0.1312
 6039SOL     OW29578   0.910   0.580   2.768  1.1870 -0.2677 -0.5636
 6039SOL    HW129579   0.919   0.675   2.777 -0.3369  0.0220 -2.1539
 6039SOL    HW229580   0.832   0.577   2.823  0.2361 -1.6263 -2.0170
 6040SOL     OW29581   1.006   0.831   8.109  0.3831 -0.2500  0.3016
 6040SOL    HW129582   1.033   0.739   8.105 -2.2553 -1.0374  0.8101
 6040SOL    HW229583   1.067   0.855   8.178  0.6436 -2.6965  0.9205
 6041SOL     OW29584   1.453   3.563   1.755  0.2748  0.4140 -0.5136
 6041SOL    HW129585   1.376   3.598   1.797  0.4595  0.4248 -0.1860
 6041SOL    HW229586   1.426   3.533   1.668  0.7463  0.7107 -0.7649
 6042SOL     OW29587   0.235   0.941  12.463  0.0660  0.4347 -0.0490
 6042SOL    HW129588   0.229   0.896  12.379  0.5975  0.9215 -0.3437
 6042SOL    HW229589   0.301   1.006  12.437  0.6607 -0.1465  0.0161
 6043SOL     OW29590   3.247   1.805   4.621 -0.6761  0.3953 -0.0672
 6043SOL    HW129591   3.182   1.797   4.690 -0.5157 -0.0411  0.0316
 6043SOL    HW229592   3.287   1.718   4.620 -0.7131  0.3614  0.9914
 6044SOL     OW29593   1.933   3.973  15.449 -0.1170 -0.6348 -0.3728
 6044SOL    HW129594   1.908   3.946  15.537 -0.2931 -0.1276 -0.2721
 6044SOL    HW229595   2.026   3.994  15.457 -0.0568 -1.7317  1.8517
 6045SOL     OW29596   2.172   3.004   7.677  0.1728  0.2689  0.3309
 6045SOL    HW129597   2.237   3.022   7.746  1.3194 -2.4545 -0.0721
 6045SOL    HW229598   2.163   3.073   7.612 -1.6581  1.2382  1.5934
 6046SOL     OW29599   0.612   2.020   4.510 -0.6239 -0.4098  0.0942
 6046SOL    HW129600   0.535   1.963   4.502 -1.3400  0.4496  0.9625
 6046SOL    HW229601   0.588   2.093   4.452  1.4618  1.1259  1.1708
 6047SOL     OW29602   1.744   3.560   4.223  0.1921 -0.8380  0.3449
 6047SOL    HW129603   1.667   3.611   4.248  0.6163 -1.1232  2.2634
 6047SOL    HW229604   1.729   3.489   4.285  0.7928  1.1913  2.8395
 6048SOL     OW29605   0.877   2.237   3.167 -0.2345  0.0361 -0.1473
 6048SOL    HW129606   0.938   2.200   3.104 -0.2280  1.1463 -0.7820
 6048SOL    HW229607   0.863   2.327   3.139 -2.7466 -0.7056 -1.2372
 6049SOL     OW29608   2.972   4.017   3.330 -0.9177  0.3037 -0.0418
 6049SOL    HW129609   3.024   4.091   3.299  2.4821 -0.6955  3.2516
 6049SOL    HW229610   2.959   3.961   3.253 -0.4124 -0.6549  0.5758
 6050SOL     OW29611   0.552   3.517   9.025  0.5847 -0.3851  0.8873
 6050SOL    HW129612   0.502   3.489   8.949  0.5566 -1.5762  1.3273
 6050SOL    HW229613   0.500   3.473   9.092  0.2205 -1.8655 -0.3680
 6051SOL     OW29614   3.314   3.810   7.557 -0.2086 -1.0045  0.5232
 6051SOL    HW129615   3.341   3.900   7.539 -1.0549 -0.6749  0.9363
 6051SOL    HW229616   3.221   3.816   7.534 -0.1585 -0.7839  0.3761
 6052SOL     OW29617   2.037   3.273   7.375 -0.0767  0.7837 -0.3040
 6052SOL    HW129618   2.095   3.277   7.299  0.8792  0.2646  0.3959
 6052SOL    HW229619   2.001   3.186   7.356 -0.0661  0.5074  0.9596
 6053SOL     OW29620   1.901   4.550   2.182 -0.4695 -0.4555  0.3382
 6053SOL    HW129621   1.874   4.505   2.101  0.4067 -0.1510 -0.1248
 6053SOL    HW229622   1.906   4.637   2.141  0.4618 -0.4994  0.3497
 6054SOL     OW29623   3.053   4.411   6.437 -0.3755  0.1476 -0.8631
 6054SOL    HW129624   3.109   4.479   6.475  1.6160  0.0265 -3.5041
 6054SOL    HW229625   2.984   4.469   6.408 -2.5970 -1.5320  1.0891
 6055SOL     OW29626   3.644   0.109  12.460 -0.4166 -0.3413  0.1504
 6055SOL    HW129627   3.569   0.128  12.404 -0.2321 -1.8325 -0.6055
 6055SOL    HW229628   3.662   0.020  12.431 -0.2660  0.0742 -1.0045
 6056SOL     OW29629   2.232   0.171   7.215  0.6967  0.4901 -0.0334
 6056SOL    HW129630   2.177   0.241   7.251 -1.1765 -0.8967 -0.1411
 6056SOL    HW229631   2.180   0.142   7.140  0.2512 -0.8049  0.7661
 6057SOL     OW29632   1.939   2.795   5.024 -0.2086  0.0591  0.1953
 6057SOL    HW129633   1.904   2.766   5.109 -4.2282  0.2567 -1.3600
 6057SOL    HW229634   1.911   2.886   5.013 -2.6263 -0.4901  1.7488
 6058SOL     OW29635   3.180   0.736   9.074  0.2781  0.0301  0.0010
 6058SOL    HW129636   3.234   0.666   9.110 -0.6222 -0.9895 -0.6249
 6058SOL    HW229637   3.194   0.807   9.138 -0.9632 -2.2651  2.7977
 6059SOL     OW29638   4.458   1.956   3.456  0.7607 -0.0865  0.0075
 6059SOL    HW129639   4.421   1.868   3.448 -0.1291  0.4514 -1.8336
 6059SOL    HW229640   4.413   1.999   3.529  0.6541  2.0229 -1.2864
 6060SOL     OW29641   4.609   2.082   7.229 -1.0928 -0.1223  0.7823
 6060SOL    HW129642   4.666   2.027   7.283  0.0144 -2.0675 -2.3748
 6060SOL    HW229643   4.635   2.173   7.244 -0.4491 -0.7019  3.1336
 6061SOL     OW29644   2.973   2.041   8.928 -0.2460  0.2080  0.0381
 6061SOL    HW129645   3.049   2.099   8.927  0.3232 -0.5858 -3.8721
 6061SOL    HW229646   2.909   2.108   8.903 -0.1303  0.5928  0.7983
 6062SOL     OW29647   1.763   3.900   4.304  0.1022  0.0293 -0.1146
 6062SOL    HW129648   1.830   3.873   4.242 -0.0136 -0.3990 -0.0512
 6062SOL    HW229649   1.796   3.989   4.317 -0.4337  0.1463  0.4402
 6063SOL     OW29650   3.528   2.687  15.504 -0.7730 -0.1549 -0.0561
 6063SOL    HW129651   3.510   2.608  15.453 -1.2820 -0.1511  0.1167
 6063SOL    HW229652   3.455   2.741  15.474 -1.7999 -1.7720 -0.4829
 6064SOL     OW29653   3.877   3.400   5.847  0.1329 -0.2340 -0.1289
 6064SOL    HW129654   3.959   3.354   5.868  1.6190  2.4121 -0.0845
 6064SOL    HW229655   3.850   3.363   5.763 -0.9513  1.3285 -0.4624
 6065SOL     OW29656   0.170   2.313   8.146  0.4778  0.2676 -0.0259
 6065SOL    HW129657   0.264   2.293   8.138  0.4199  0.6700 -1.7887
 6065SOL    HW229658   0.179   2.393   8.197 -0.7910  0.4632 -0.1236
 6066SOL     OW29659   2.604   4.440   0.251 -0.2227  0.3610  0.1738
 6066SOL    HW129660   2.671   4.458   0.185  0.2581 -0.3692  0.4576
 6066SOL    HW229661   2.661   4.399   0.317  1.6602  0.3714 -1.4404
 6067SOL     OW29662   2.055   2.848   0.186  0.4043 -0.3487 -0.3221
 6067SOL    HW129663   2.012   2.914   0.240 -0.8345 -0.4642 -1.1849
 6067SOL    HW229664   2.075   2.896   0.106 -0.4974 -2.1092 -1.6172
 6068SOL     OW29665   0.720   3.199  11.526  0.0742  0.2755 -0.0776
 6068SOL    HW129666   0.804   3.214  11.568 -0.6047  1.7432  0.7445
 6068SOL    HW229667   0.734   3.259  11.453 -1.1218  0.2000 -0.3767
 6069SOL     OW29668   0.416   3.224   5.675 -0.1054 -0.4568 -0.2326
 6069SOL    HW129669   0.416   3.289   5.746  2.1213 -1.8184  1.0206
 6069SOL    HW229670   0.441   3.145   5.723 -1.2374  0.5193  1.9940
 6070SOL     OW29671   0.558   1.246  15.245 -0.2976  0.0247  0.4405
 6070SOL    HW129672   0.630   1.186  15.224  1.2610  2.5345 -1.4563
 6070SOL    HW229673   0.504   1.177  15.282 -0.3037 -0.3757 -0.3134
 6071SOL     OW29674   1.731   1.166   1.688 -0.3965  0.0150  0.6313
 6071SOL    HW129675   1.691   1.181   1.602  2.4481  2.1738 -0.3377
 6071SOL    HW229676   1.712   1.073   1.700 -1.0774 -0.0218 -0.7676
 6072SOL     OW29677   1.966   1.965   3.085 -0.0931 -0.3341 -0.0376
 6072SOL    HW129678   1.939   2.048   3.125  0.3164 -0.1480 -0.1533
 6072SOL    HW229679   2.049   1.956   3.132  0.3978 -0.8937 -0.9991
 6073SOL     OW29680   1.244   1.083   2.643  0.3155  0.6123  0.0084
 6073SOL    HW129681   1.312   1.102   2.579  1.5218  1.4507  1.5488
 6073SOL    HW229682   1.168   1.077   2.584 -0.5167  0.3052  1.1014
 6074SOL     OW29683   1.791   4.528   8.120 -0.2544 -0.5391 -0.2674
 6074SOL    HW129684   1.869   4.561   8.076  0.7054 -0.7898  1.2462
 6074SOL    HW229685   1.770   4.589   8.190 -1.6885 -0.7807 -0.4845
 6075SOL     OW29686   3.036   1.496  17.491  0.5245 -0.5125  0.0265
 6075SOL    HW129687   3.010   1.589  17.491  1.4166 -0.2624  1.2968
 6075SOL    HW229688   3.020   1.471  17.400 -0.5066  1.2288 -0.2814
 6076SOL     OW29689   3.957   1.400   6.063 -0.0124  0.1621  0.0714
 6076SOL    HW129690   3.984   1.486   6.031 -4.1069  1.2223 -0.5255
 6076SOL    HW229691   4.030   1.394   6.125 -0.2873  1.5400  0.5463
 6077SOL     OW29692   0.517   0.864  10.655  0.2446 -0.2477  0.3355
 6077SOL    HW129693   0.569   0.896  10.582  0.5272  2.1642  1.5661
 6077SOL    HW229694   0.565   0.920  10.717  0.4600  2.2391 -2.0965
 6078SOL     OW29695   0.832   0.431   8.503  0.1115 -0.2410  0.7914
 6078SOL    HW129696   0.768   0.443   8.573 -0.7409  1.5393 -0.2932
 6078SOL    HW229697   0.804   0.346   8.470 -0.9327  0.6246 -0.5737
 6079SOL     OW29698   3.175   4.382   6.814  0.3680  0.1246  0.2336
 6079SOL    HW129699   3.216   4.323   6.878  1.5227 -0.5825 -1.1428
 6079SOL    HW229700   3.225   4.464   6.812 -2.0495  1.5143 -2.4275
 6080SOL     OW29701   0.690   4.017   3.670 -0.0467  0.5153  0.1660
 6080SOL    HW129702   0.642   4.100   3.676 -1.6987 -0.4371 -0.0392
 6080SOL    HW229703   0.721   4.025   3.580  0.7588 -1.0416  0.3144
 6081SOL     OW29704   0.834   0.357   4.574  0.0580 -0.3430  0.1306
 6081SOL    HW129705   0.764   0.421   4.559 -1.3458 -1.9671 -0.2102
 6081SOL    HW229706   0.909   0.392   4.526  1.8725 -2.8399  1.1545
 6082SOL     OW29707   2.134   4.601   2.722 -0.1294 -0.6272  0.5590
 6082SOL    HW129708   2.101   4.593   2.811 -0.9080  2.2427  0.5352
 6082SOL    HW229709   2.173   4.514   2.723 -3.7128 -2.2274  0.1060
 6083SOL     OW29710   2.769   1.690   6.313  0.1082  0.5994  0.4505
 6083SOL    HW129711   2.860   1.684   6.283  0.4331 -0.9815  1.7641
 6083SOL    HW229712   2.713   1.647   6.249 -1.2254  0.9118  1.4081
 6084SOL     OW29713   4.327   3.088   3.721  0.5289 -0.4934  0.2593
 6084SOL    HW129714   4.402   3.093   3.779  0.8464  0.0817 -0.2051
 6084SOL    HW229715   4.365   3.030   3.654  0.8348 -0.9983  0.8702
 6085SOL     OW29716   0.145   3.470   5.558 -0.0867 -0.3038 -0.2012
 6085SOL    HW129717   0.134   3.564   5.547 -0.9311 -0.4040 -0.2671
 6085SOL    HW229718   0.052   3.446   5.552 -0.4717  0.6609  1.9204
 6086SOL     OW29719   1.834   0.081   3.331  0.3495 -0.0355  0.3832
 6086SOL    HW129720   1.924   0.077   3.362  0.5616  1.8067  0.0203
 6086SOL    HW229721   1.817   4.718   3.300  0.0720  0.5774 -1.2351
 6087SOL     OW29722   2.443   3.424   4.955  0.1730  0.4245  0.7032
 6087SOL    HW129723   2.514   3.414   5.019  0.8638 -0.2666 -0.1657
 6087SOL    HW229724   2.399   3.503   4.986  0.8609  0.9056  0.4630
 6088SOL     OW29725   2.567   3.589   8.443 -1.1266 -0.3404 -0.3811
 6088SOL    HW129726   2.663   3.598   8.446 -1.2360 -0.0008  1.9139
 6088SOL    HW229727   2.541   3.633   8.524 -2.1086 -1.2686 -0.2087
 6089SOL     OW29728   1.849   3.036  11.665  0.1951  0.1660 -0.4517
 6089SOL    HW129729   1.850   3.020  11.571 -0.9063 -0.0660 -0.4290
 6089SOL    HW229730   1.779   2.977  11.695  1.2282 -0.0457  1.4862
 6090SOL     OW29731   3.781   0.833   4.567  0.1811  0.5383 -0.3576
 6090SOL    HW129732   3.691   0.846   4.597  0.8116  0.0839  1.7526
 6090SOL    HW229733   3.775   0.849   4.473 -0.6737  0.1474 -0.3708
 6091SOL     OW29734   0.188   0.447   4.966  0.1398 -0.3055 -0.2473
 6091SOL    HW129735   0.233   0.453   4.881 -0.8331 -1.9154 -0.8783
 6091SOL    HW229736   0.099   0.431   4.935 -0.4156  1.3083  0.5609
 6092SOL     OW29737   1.101   3.493   2.363  0.5651 -0.0149 -0.4645
 6092SOL    HW129738   1.069   3.536   2.283  3.0033  1.1032 -0.8436
 6092SOL    HW229739   1.188   3.532   2.366  0.2502  0.6040  0.4127
 6093SOL     OW29740   2.136   2.206   8.528 -0.1227 -0.0663  0.4104
 6093SOL    HW129741   2.129   2.123   8.575 -1.2214 -0.3483 -0.2518
 6093SOL    HW229742   2.045   2.223   8.502  0.4795 -1.6209 -2.6340
 6094SOL     OW29743   3.340   3.381   8.980 -0.6647 -0.3622  0.2865
 6094SOL    HW129744   3.390   3.301   8.964  0.2570  0.2178  0.2852
 6094SOL    HW229745   3.348   3.394   9.074  1.1583 -1.4848  0.2764
 6095SOL     OW29746   2.245   2.567  13.980  0.4905 -0.0500 -0.3682
 6095SOL    HW129747   2.329   2.611  13.972  0.3135  0.3356 -0.1390
 6095SOL    HW229748   2.267   2.489  14.030  0.1634 -0.1864 -0.4338
 6096SOL     OW29749   3.093   0.024   6.985 -1.0011 -0.0458  0.0830
 6096SOL    HW129750   3.008   0.015   6.943 -0.9384 -1.4543  0.2635
 6096SOL    HW229751   3.158   4.718   6.922 -0.8652  0.1461  0.1278
 6097SOL     OW29752   4.724   0.172   6.417 -0.1963  0.3882 -0.5716
 6097SOL    HW129753   4.672   0.247   6.389  2.1340  1.6115 -1.5963
 6097SOL    HW229754   4.652   0.145   6.474  0.3225 -0.0809 -0.1301
 6098SOL     OW29755   2.822   4.340   8.088 -0.3226 -0.1007 -0.2269
 6098SOL    HW129756   2.790   4.298   8.168  0.9972 -2.6721 -1.0470
 6098SOL    HW229757   2.817   4.433   8.108  2.1345  0.3465 -1.7531
 6099SOL     OW29758   0.152   4.103  12.623  0.1879 -0.1945  0.1372
 6099SOL    HW129759   0.106   4.023  12.646 -2.8280  1.5976  0.3376
 6099SOL    HW229760   0.234   4.066  12.590  0.5795 -1.1742  2.2252
 6100SOL     OW29761   1.695   3.858   2.042  0.0315 -0.1687 -0.4323
 6100SOL    HW129762   1.670   3.946   2.070  1.6703 -0.4492  1.8583
 6100SOL    HW229763   1.603   3.831   2.033 -0.9514  3.2751 -0.7977
 6101SOL     OW29764   0.067   0.014   5.635  0.2771 -0.4136  0.6957
 6101SOL    HW129765   4.724   0.062   5.682 -0.8366 -0.8007 -0.5380
 6101SOL    HW229766   0.029   4.664   5.588  1.7260  0.1457 -1.3704
 6102SOL     OW29767   2.577   4.066   2.917  0.0490  0.2441  0.1964
 6102SOL    HW129768   2.516   4.133   2.949 -1.7557 -0.3472 -1.9629
 6102SOL    HW229769   2.585   4.091   2.825 -1.3905 -0.3238 -0.0962
 6103SOL     OW29770   4.352   3.530   3.452  0.4131  0.2295 -0.3060
 6103SOL    HW129771   4.316   3.523   3.364  0.6191 -0.6533 -0.3222
 6103SOL    HW229772   4.332   3.449   3.499  1.3491  0.5624  0.6725
 6104SOL     OW29773   0.271   2.749   7.729 -0.1853 -0.2569 -0.1908
 6104SOL    HW129774   0.217   2.795   7.665  0.7167  0.8300 -0.1726
 6104SOL    HW229775   0.252   2.659   7.700  1.5538 -0.2638 -1.3029
 6105SOL     OW29776   2.653   0.399   5.289 -0.7530 -0.0590 -0.2692
 6105SOL    HW129777   2.727   0.446   5.327  0.1446  0.9760 -3.3081
 6105SOL    HW229778   2.603   0.473   5.254  0.3048  0.8761  0.2087
 6106SOL     OW29779   2.613   2.930   5.314  0.9008 -0.3010 -0.4031
 6106SOL    HW129780   2.596   2.945   5.407  2.0643 -1.7651  0.0504
 6106SOL    HW229781   2.707   2.911   5.310  1.0490  0.6814 -1.7208
 6107SOL     OW29782   1.634   1.100   8.649  0.7704 -0.4213 -0.0730
 6107SOL    HW129783   1.705   1.156   8.680  0.8367 -0.0613 -0.8837
 6107SOL    HW229784   1.564   1.132   8.705 -2.3736 -1.3620 -3.4890
 6108SOL     OW29785   4.604   1.820   5.352  0.3507  0.5248  0.7023
 6108SOL    HW129786   4.540   1.825   5.280  1.4014  0.5224 -0.2223
 6108SOL    HW229787   4.588   1.905   5.392 -1.3195  0.4629  0.1847
 6109SOL     OW29788   1.314   4.599   6.614 -0.0961 -0.2308 -0.0005
 6109SOL    HW129789   1.338   4.667   6.552 -2.9940  2.3836  1.7594
 6109SOL    HW229790   1.281   4.534   6.551 -1.6832 -0.6536  1.2509
 6110SOL     OW29791   0.419   0.367   3.673 -0.0262  0.8003 -0.4426
 6110SOL    HW129792   0.350   0.382   3.738  0.6107 -3.0821  1.0973
 6110SOL    HW229793   0.367   0.389   3.596  0.4006 -0.4814 -1.0953
 6111SOL     OW29794   2.512   1.303   2.660 -0.0874 -0.1169  0.0282
 6111SOL    HW129795   2.497   1.227   2.604  2.5193 -0.8311  0.2835
 6111SOL    HW229796   2.483   1.277   2.747 -0.5249  4.2160  1.2012
 6112SOL     OW29797   3.539   4.190   1.769  0.6535 -0.5510  0.5502
 6112SOL    HW129798   3.471   4.155   1.827  1.1237 -1.8605  0.3131
 6112SOL    HW229799   3.592   4.112   1.754  2.6555  0.4944  2.1779
 6113SOL     OW29800   2.187   3.146  12.505 -0.3142 -0.1685  0.0549
 6113SOL    HW129801   2.276   3.121  12.529 -1.6284 -3.0759  1.9089
 6113SOL    HW229802   2.210   3.175  12.416 -1.9111  2.5912  0.5383
 6114SOL     OW29803   2.336   2.652   2.597 -0.8416 -0.9097 -0.4038
 6114SOL    HW129804   2.288   2.576   2.563 -1.1627 -1.6881  1.7871
 6114SOL    HW229805   2.305   2.720   2.538  0.1148 -1.2099 -1.2470
 6115SOL     OW29806   0.469   1.357  11.031 -0.7746 -0.3805  0.0716
 6115SOL    HW129807   0.527   1.286  11.003  0.6702 -0.9376  4.4694
 6115SOL    HW229808   0.520   1.434  11.006 -1.5075  0.0778 -0.0056
 6116SOL     OW29809   2.082   0.601  12.246  0.3540 -0.1623 -0.4043
 6116SOL    HW129810   2.078   0.652  12.326 -2.0108  0.7594 -1.1213
 6116SOL    HW229811   1.991   0.585  12.223  0.0913  1.4252 -0.4839
 6117SOL     OW29812   4.615   1.556  14.694 -0.1520 -0.2122  0.4420
 6117SOL    HW129813   4.681   1.620  14.721 -0.2611  0.6802 -1.4106
 6117SOL    HW229814   4.668   1.485  14.658  1.1496  0.2215  1.5184
 6118SOL     OW29815   2.510   1.461  17.550 -0.7509 -0.3807 -0.1247
 6118SOL    HW129816   2.501   1.523  17.478  0.0870 -2.4838 -2.0400
 6118SOL    HW229817   2.598   1.470  17.585 -0.4835 -0.6636 -0.7289
 6119SOL     OW29818   4.417   3.487   4.916  0.6437  0.2159 -0.0469
 6119SOL    HW129819   4.435   3.406   4.964  2.5586  0.0631 -1.0308
 6119SOL    HW229820   4.479   3.553   4.949  1.4786 -0.6664  0.1312
 6120SOL     OW29821   1.661   3.803  12.068  0.6560  1.0707 -1.1123
 6120SOL    HW129822   1.573   3.834  12.047  0.3762  1.4234  0.5528
 6120SOL    HW229823   1.632   3.750  12.142  2.6505 -0.1672 -1.2264
 6121SOL     OW29824   4.486   1.720   3.808 -0.1468  0.4392  0.0716
 6121SOL    HW129825   4.497   1.641   3.861  0.1289 -1.1247 -2.3275
 6121SOL    HW229826   4.396   1.705   3.779  0.7054 -3.5681 -0.5410
 6122SOL     OW29827   4.663   2.690   3.897 -0.0397  0.5840 -0.2791
 6122SOL    HW129828   4.648   2.740   3.816 -0.9700  1.8454  0.6583
 6122SOL    HW229829   4.653   2.604   3.858  1.9030  0.8856 -1.4247
 6123SOL     OW29830   1.582   0.244   7.884  0.0241 -0.5021  0.0485
 6123SOL    HW129831   1.580   0.237   7.788 -2.4765 -0.4091  0.0944
 6123SOL    HW229832   1.560   0.154   7.907  0.2976 -0.1741  1.5459
 6124SOL     OW29833   1.859   2.247   3.115 -0.7299 -0.1543  0.0568
 6124SOL    HW129834   1.914   2.261   3.192  0.2686  1.0734 -0.8589
 6124SOL    HW229835   1.908   2.302   3.052 -0.7782  1.1379  1.1521
 6125SOL     OW29836   0.077   3.315   5.047 -0.5099  1.0777 -0.2083
 6125SOL    HW129837   0.076   3.347   4.956  0.8495 -0.0783 -0.6414
 6125SOL    HW229838   0.095   3.400   5.087  0.2564  0.0219  1.6768
 6126SOL     OW29839   4.469   3.958  11.470 -0.1782  0.1509  0.4000
 6126SOL    HW129840   4.393   3.945  11.412 -1.5599  2.6914  1.6397
 6126SOL    HW229841   4.531   3.998  11.408  0.0003 -1.8876 -0.7494
 6127SOL     OW29842   3.017   1.958  15.672  0.1476  0.1069 -0.2743
 6127SOL    HW129843   3.013   2.020  15.599  0.7084 -0.4114 -0.7508
 6127SOL    HW229844   3.051   1.874  15.641 -0.2607  0.1227 -0.7536
 6128SOL     OW29845   2.875   0.259   6.991 -0.3893 -0.2587 -0.1508
 6128SOL    HW129846   2.920   0.216   6.918  0.9525 -0.0482  0.5563
 6128SOL    HW229847   2.902   0.197   7.059 -0.9522  1.1820  1.3776
 6129SOL     OW29848   0.185   3.942   9.551 -0.3596  0.1084  0.1771
 6129SOL    HW129849   0.179   4.027   9.507 -1.0317  0.4448  0.9172
 6129SOL    HW229850   0.276   3.916   9.533 -0.5514  0.4672 -1.3632
 6130SOL     OW29851   1.498   3.200   4.509  0.1061  0.1949  0.4585
 6130SOL    HW129852   1.419   3.171   4.464  0.9114 -2.0662  0.5184
 6130SOL    HW229853   1.521   3.276   4.456 -1.3732 -0.1754 -0.7165
 6131SOL     OW29854   4.718   1.574   9.421 -0.4888 -0.0574 -0.0337
 6131SOL    HW129855   0.011   1.523   9.500  1.9423  1.6000  0.4717
 6131SOL    HW229856   4.680   1.657   9.450 -2.5328 -0.3352 -1.8721
 6132SOL     OW29857   4.041   4.555   5.994 -0.2177  0.4251 -0.1492
 6132SOL    HW129858   4.137   4.557   5.987 -0.4326  2.0290 -2.6244
 6132SOL    HW229859   4.027   4.594   6.080 -1.3533 -0.5046  0.0905
 6133SOL     OW29860   1.821   0.121   8.891  0.5515  0.0411 -0.1478
 6133SOL    HW129861   1.861   0.100   8.975 -0.0640  3.0504  0.8837
 6133SOL    HW229862   1.753   0.184   8.914  2.1544  1.4448  0.7304
 6134SOL     OW29863   1.647   1.451   5.153  0.0458  0.1953 -0.3716
 6134SOL    HW129864   1.661   1.526   5.211  1.3413 -1.6829  1.7172
 6134SOL    HW229865   1.556   1.465   5.126 -0.5188 -0.4285  1.2402
 6135SOL     OW29866   2.671   4.083  15.682 -0.2618  0.0990  0.5387
 6135SOL    HW129867   2.715   4.082  15.767  0.5917 -0.8908  0.0873
 6135SOL    HW229868   2.710   4.004  15.643 -0.3421  0.9467 -1.2742
 6136SOL     OW29869   2.211   1.537  11.377 -0.1712  0.1873 -0.1274
 6136SOL    HW129870   2.213   1.490  11.294  0.2399  0.9654 -0.5527
 6136SOL    HW229871   2.205   1.462  11.437 -1.9970 -0.2758 -0.8939
 6137SOL     OW29872   2.629   2.452   0.289 -0.1102  0.5558 -0.6501
 6137SOL    HW129873   2.709   2.466   0.238  1.3335 -0.6717  1.2950
 6137SOL    HW229874   2.589   2.538   0.275 -0.2320  0.9271  1.9236
 6138SOL     OW29875   2.265   0.198   2.874 -0.0825 -0.7029 -0.4703
 6138SOL    HW129876   2.173   0.198   2.846 -0.3317  2.3539  0.3946
 6138SOL    HW229877   2.262   0.224   2.966  0.2199  0.6835 -0.8544
 6139SOL     OW29878   1.698   2.571   0.754 -0.6244  0.2664 -0.3016
 6139SOL    HW129879   1.756   2.547   0.682 -0.6208  1.6359 -0.7646
 6139SOL    HW229880   1.614   2.536   0.724 -0.0138 -0.6302 -0.9474
 6140SOL     OW29881   0.916   0.677   4.648 -0.4981 -0.1632  0.1461
 6140SOL    HW129882   0.999   0.639   4.676 -1.2427 -0.2775  2.2209
 6140SOL    HW229883   0.918   0.660   4.554 -1.8034 -0.7351  0.2240
 6141SOL     OW29884   2.509   1.914  14.433  0.5439 -0.0961 -0.0635
 6141SOL    HW129885   2.510   2.009  14.420 -1.0958 -0.2115 -1.0947
 6141SOL    HW229886   2.497   1.914  14.528  1.9696 -0.2794  0.1081
 6142SOL     OW29887   2.302   0.840   2.982  0.5203 -0.6795  0.6119
 6142SOL    HW129888   2.228   0.801   3.028 -1.8374  0.2843 -2.3585
 6142SOL    HW229889   2.320   0.911   3.043 -2.4601  0.2578  0.4046
 6143SOL     OW29890   0.467   0.156   7.890  0.1668  0.3349 -0.2808
 6143SOL    HW129891   0.425   0.186   7.809  1.3062  1.0373 -0.6164
 6143SOL    HW229892   0.514   0.235   7.918 -2.7895  1.7918  0.5489
 6144SOL     OW29893   3.226   3.176   3.539  0.1294  0.2669 -0.2801
 6144SOL    HW129894   3.200   3.154   3.449 -0.0823  1.2206 -0.4467
 6144SOL    HW229895   3.233   3.271   3.533  0.1625  0.3261  0.7000
 6145SOL     OW29896   2.879   2.480   0.128 -0.3949 -0.4965 -0.3557
 6145SOL    HW129897   2.824   2.468   0.051 -1.3005  3.8429 -0.3532
 6145SOL    HW229898   2.912   2.567   0.107  1.4650 -0.8391  1.1218
 6146SOL     OW29899   0.872   1.249  10.566  0.1840 -0.2570  0.0758
 6146SOL    HW129900   0.814   1.201  10.506 -0.6015 -0.4314  0.9796
 6146SOL    HW229901   0.950   1.201  10.538  0.4413  1.1885 -1.6698
 6147SOL     OW29902   4.476   3.979  13.920  0.5593  0.0638 -0.0306
 6147SOL    HW129903   4.518   4.064  13.907  2.3728 -1.0153 -1.0632
 6147SOL    HW229904   4.447   3.968  13.830  0.1323 -1.2815  0.2690
 6148SOL     OW29905   3.665   2.388  13.897 -0.0632  0.1814  0.0419
 6148SOL    HW129906   3.691   2.399  13.988 -1.3973 -2.0348  0.7109
 6148SOL    HW229907   3.570   2.399  13.899 -0.2296 -0.9929 -0.9743
 6149SOL     OW29908   4.551   0.741   1.845  0.6758  0.1016 -0.0361
 6149SOL    HW129909   4.636   0.784   1.839  0.8664 -0.2539  0.0813
 6149SOL    HW229910   4.541   0.711   1.936  0.4831  0.6054  0.1074
 6150SOL     OW29911   0.812   0.535  14.101  0.3692  0.2279 -0.0187
 6150SOL    HW129912   0.806   0.606  14.037  0.9365  1.4979  1.3210
 6150SOL    HW229913   0.762   0.464  14.062 -0.0044  1.0756 -1.0974
 6151SOL     OW29914   4.291   3.378   7.810 -0.3802  0.0180  0.1005
 6151SOL    HW129915   4.346   3.387   7.888  1.6159 -0.7983 -1.1947
 6151SOL    HW229916   4.354   3.397   7.741 -1.9497  4.2120 -0.1398
 6152SOL     OW29917   4.608   2.090   0.255  0.4821 -0.2213  0.4045
 6152SOL    HW129918   4.622   2.035   0.332  0.9246  0.7794  1.0407
 6152SOL    HW229919   4.641   2.033   0.186  1.1989  0.4106  0.2143
 6153SOL     OW29920   4.597   1.280   3.768  0.4163 -0.0930  0.0909
 6153SOL    HW129921   4.543   1.211   3.729  1.1912  0.1541 -1.4520
 6153SOL    HW229922   4.627   1.315   3.684  1.2918  1.1906  0.9538
 6154SOL     OW29923   1.460   1.602  12.354  0.0414 -0.1989 -0.3138
 6154SOL    HW129924   1.414   1.645  12.426  1.5839  1.5211 -0.3537
 6154SOL    HW229925   1.537   1.657  12.345 -1.4440  1.7801 -0.7161
 6155SOL     OW29926   4.053   4.051   2.994  0.4485 -0.5902  0.1064
 6155SOL    HW129927   3.992   4.020   2.927 -2.1095  0.5682  1.9227
 6155SOL    HW229928   4.065   4.141   2.963 -1.7391 -0.1323  0.5831
 6156SOL     OW29929   0.234   1.510   8.783 -0.0369 -1.0567 -0.0917
 6156SOL    HW129930   0.271   1.513   8.695 -1.7524  0.8409 -0.7454
 6156SOL    HW229931   0.280   1.580   8.831  0.8890 -1.2937 -0.6258
 6157SOL     OW29932   2.502   1.029  15.303  0.1843  0.4536  0.2800
 6157SOL    HW129933   2.541   1.116  15.295  2.3082 -0.6084 -0.8672
 6157SOL    HW229934   2.409   1.048  15.294 -0.0046 -1.3279 -1.5420
 6158SOL     OW29935   3.366   1.299   7.466 -0.0700  0.7230 -0.2098
 6158SOL    HW129936   3.300   1.258   7.521  0.9725 -0.4332  0.1789
 6158SOL    HW229937   3.409   1.364   7.521  0.7804 -1.4014  1.6030
 6159SOL     OW29938   1.972   3.313   5.628  0.0236 -0.3550  0.6001
 6159SOL    HW129939   1.901   3.378   5.626 -0.0494 -0.4289  0.7357
 6159SOL    HW229940   2.010   3.338   5.712 -3.6356  3.4064  1.1999
 6160SOL     OW29941   2.330   1.295   0.247  0.3432  0.1260  0.3081
 6160SOL    HW129942   2.411   1.244   0.253 -0.4351 -1.0686  0.5150
 6160SOL    HW229943   2.357   1.366   0.188  2.8219 -1.7633 -0.8184
 6161SOL     OW29944   1.167   0.920  13.240 -0.3069  0.0170  0.4862
 6161SOL    HW129945   1.158   0.958  13.153 -2.4440 -0.2723  0.5881
 6161SOL    HW229946   1.262   0.926  13.255 -0.1328 -0.2922 -0.5123
 6162SOL     OW29947   4.016   0.850  12.122 -0.0302 -0.2168  0.0891
 6162SOL    HW129948   3.994   0.917  12.187 -0.4928 -0.2931  0.0161
 6162SOL    HW229949   4.060   0.791  12.183 -1.0126  0.7694  1.7663
 6163SOL     OW29950   4.457   2.920   2.910  0.4456 -0.2117  0.0819
 6163SOL    HW129951   4.421   2.949   2.826 -0.4496 -0.5863  0.3449
 6163SOL    HW229952   4.506   2.844   2.879  0.3629  0.8164 -2.5964
 6164SOL     OW29953   0.713   3.081  11.228 -0.4468  0.0171  0.0854
 6164SOL    HW129954   0.672   3.155  11.183  2.8649  0.4198 -2.2093
 6164SOL    HW229955   0.806   3.086  11.208 -0.4535 -1.3107 -0.2578
 6165SOL     OW29956   3.964   1.923  11.831 -0.6289 -0.3357  0.6974
 6165SOL    HW129957   3.955   2.014  11.859 -0.8084  0.5789 -2.4117
 6165SOL    HW229958   4.019   1.886  11.900 -0.9149 -1.1243  0.5089
 6166SOL     OW29959   1.351   3.629  11.036  0.0793 -0.5397 -0.0210
 6166SOL    HW129960   1.287   3.559  11.021  1.5228 -1.6275 -1.1553
 6166SOL    HW229961   1.307   3.688  11.097  0.3825 -0.6623  0.3188
 6167SOL     OW29962   1.202   4.058  14.105 -0.2512 -0.0810 -0.0996
 6167SOL    HW129963   1.135   4.080  14.171  1.2553  0.2948  1.2981
 6167SOL    HW229964   1.194   3.964  14.092 -0.9124  0.0661 -0.7580
 6168SOL     OW29965   2.013   0.335   7.212 -0.2695  0.0619 -0.5303
 6168SOL    HW129966   1.962   0.325   7.292  0.8593  1.0006  0.3019
 6168SOL    HW229967   2.034   0.429   7.212 -1.0011  0.2324  0.3582
 6169SOL     OW29968   0.075   0.806   6.182  0.0331 -0.2341  0.5608
 6169SOL    HW129969   0.168   0.786   6.197  0.0603 -1.2561 -1.0907
 6169SOL    HW229970   0.048   0.717   6.161  0.9379 -0.3392 -0.1622
 6170SOL     OW29971   2.782   0.995  14.973  0.1849 -0.3522 -0.0031
 6170SOL    HW129972   2.837   1.073  14.968  1.1069 -0.9427  1.0655
 6170SOL    HW229973   2.724   1.014  14.899 -0.7792 -1.2410  0.5285
 6171SOL     OW29974   1.761   1.577   6.869 -0.1727 -0.2351  0.5980
 6171SOL    HW129975   1.823   1.554   6.938  1.1147  1.1459 -0.0883
 6171SOL    HW229976   1.722   1.492   6.852  2.1177 -1.4542  1.4283
 6172SOL     OW29977   4.278   4.598  15.956 -0.3585 -0.0284  0.0153
 6172SOL    HW129978   4.341   4.666  15.933  0.0657 -0.0194  1.1977
 6172SOL    HW229979   4.246   4.645  16.033 -1.7595  1.2514 -1.3348
 6173SOL     OW29980   2.742   0.035  13.727 -0.0695  0.1736 -0.3932
 6173SOL    HW129981   2.785   4.675  13.735  2.0620  1.4010  1.2978
 6173SOL    HW229982   2.664   0.015  13.676 -0.2382  0.3773 -0.2125
 6174SOL     OW29983   2.304   0.213  14.885  0.1603  0.1294 -0.0069
 6174SOL    HW129984   2.236   0.270  14.849  1.6815  2.9183  1.5057
 6174SOL    HW229985   2.363   0.268  14.935 -0.3216 -0.1469  0.8640
 6175SOL     OW29986   3.502   4.513  13.523 -0.2540  0.1232  0.3228
 6175SOL    HW129987   3.439   4.496  13.593 -0.0405  0.6111  0.6324
 6175SOL    HW229988   3.532   4.426  13.497  0.3556  0.4532 -0.0886
 6176SOL     OW29989   0.589   3.531   4.631 -0.3438  0.8680 -0.2650
 6176SOL    HW129990   0.538   3.562   4.706 -1.5616 -2.5055  0.3018
 6176SOL    HW229991   0.517   3.504   4.574 -0.9307 -0.1325  0.9486
 6177SOL     OW29992   1.208   2.185   3.694  0.6072 -0.3839 -0.0181
 6177SOL    HW129993   1.123   2.229   3.687  0.5904 -0.7396 -2.0339
 6177SOL    HW229994   1.248   2.231   3.768 -2.3543 -4.2387  3.9387
 6178SOL     OW29995   4.218   1.974  16.144  0.6045  0.4097  0.1167
 6178SOL    HW129996   4.286   1.931  16.091  0.9255  0.9732  0.0693
 6178SOL    HW229997   4.275   2.007  16.213  0.0140  1.4539  0.1030
 6179SOL     OW29998   1.683   4.349   3.247  0.0519 -0.3260 -0.0323
 6179SOL    HW129999   1.639   4.431   3.223  3.2941  1.3144 -0.4403
 6179SOL    HW230000   1.748   4.387   3.307  0.4478  0.6028 -1.0293
 6180SOL     OW30001   2.292   0.094   3.848  0.8366 -0.3833 -0.3800
 6180SOL    HW130002   2.377   0.069   3.811  1.2434 -1.8820  1.5694
 6180SOL    HW230003   2.238   0.097   3.769 -1.2094 -0.3402  1.0192
 6181SOL     OW30004   3.218   4.722   0.451 -0.1485 -0.4069 -0.1597
 6181SOL    HW130005   3.178   0.013   0.536  2.1347  1.7337  0.4971
 6181SOL    HW230006   3.284   0.064   0.467 -1.5516  0.8036  0.5429
 6182SOL     OW30007   0.388   1.194   9.108  0.5158 -0.2561 -0.7052
 6182SOL    HW130008   0.460   1.202   9.046  0.2826  2.3261 -0.6587
 6182SOL    HW230009   0.437   1.187   9.190 -1.5434 -1.6873  0.4029
 6183SOL     OW30010   2.394   4.445   3.920 -0.0182  0.2308  0.1635
 6183SOL    HW130011   2.488   4.457   3.933 -0.1703  0.1811  1.3394
 6183SOL    HW230012   2.395   4.360   3.876  0.9381 -0.0032  0.6398
 6184SOL     OW30013   0.107   3.977  15.550  0.1252 -0.6641  0.4501
 6184SOL    HW130014   0.177   3.932  15.598  0.9999 -0.9622 -1.1096
 6184SOL    HW230015   0.060   4.019  15.621  0.0509 -0.7931  0.4778
 6185SOL     OW30016   4.474   1.849   5.109 -0.7186 -0.2582  0.2974
 6185SOL    HW130017   4.446   1.775   5.055 -0.3923 -0.6324  0.6415
 6185SOL    HW230018   4.456   1.929   5.059 -0.1609 -0.7441 -0.6804
 6186SOL     OW30019   3.479   1.220   9.243 -0.3677 -0.2178 -0.0123
 6186SOL    HW130020   3.398   1.172   9.260  0.5918 -2.9440 -3.1607
 6186SOL    HW230021   3.483   1.280   9.317  0.4725 -0.4737  0.1485
 6187SOL     OW30022   2.951   2.733   0.073 -0.0919  0.0959 -0.0904
 6187SOL    HW130023   3.009   2.808   0.087 -2.4193  1.8625  0.0549
 6187SOL    HW230024   2.886   2.772   0.013 -0.7304 -1.4633 -0.4139
 6188SOL     OW30025   1.324   3.242   4.083 -0.3635 -0.4362  0.2813
 6188SOL    HW130026   1.233   3.251   4.055 -0.0399 -0.7607 -0.8692
 6188SOL    HW230027   1.319   3.209   4.173 -0.9994 -0.9592  0.0485
 6189SOL     OW30028   4.394   3.986   3.549  0.0246  0.0179  0.3051
 6189SOL    HW130029   4.332   3.925   3.589 -1.6000  0.8064 -1.0175
 6189SOL    HW230030   4.375   3.973   3.456 -0.5816  3.1740  0.0022
 6190SOL     OW30031   0.236   3.045   5.938 -0.0979 -0.1393  0.4566
 6190SOL    HW130032   0.286   3.021   6.016 -0.7638 -0.5434  0.7592
 6190SOL    HW230033   0.173   3.105   5.979 -0.3408  0.5300 -0.9037
 6191SOL     OW30034   3.529   2.081   9.374  0.4385 -0.1145  0.1535
 6191SOL    HW130035   3.607   2.048   9.329  0.3243 -1.0056  0.6131
 6191SOL    HW230036   3.512   2.015   9.441 -1.5537 -2.1149 -2.3464
 6192SOL     OW30037   2.642   3.078  11.371  0.0675  0.3468 -0.0504
 6192SOL    HW130038   2.610   2.997  11.333  1.1051 -0.2175  0.2792
 6192SOL    HW230039   2.690   3.134  11.309  0.0871 -1.1275 -1.3661
 6193SOL     OW30040   2.126   0.909   5.624 -0.4172  0.4631  0.1243
 6193SOL    HW130041   2.094   0.971   5.559 -0.0851 -1.4474 -1.8628
 6193SOL    HW230042   2.139   0.833   5.567 -0.9852 -0.4192  1.1793
 6194SOL     OW30043   2.086   1.214   6.945  0.0372 -0.7623  0.3447
 6194SOL    HW130044   2.175   1.185   6.925 -0.1267 -0.3284 -1.0040
 6194SOL    HW230045   2.056   1.159   7.018 -0.0761 -1.9967 -0.6299
 6195SOL     OW30046   0.991   3.066  10.506  0.0058  0.3628 -0.0708
 6195SOL    HW130047   1.078   3.065  10.546 -0.1809  1.2277  0.3505
 6195SOL    HW230048   1.009   3.021  10.423 -3.1354 -1.8757  0.4499
 6196SOL     OW30049   2.183   0.653  16.959  0.1571  0.0798  0.2379
 6196SOL    HW130050   2.186   0.561  16.984  1.1910  0.3716  1.1940
 6196SOL    HW230051   2.268   0.684  16.990  0.5384  1.1712 -1.8770
 6197SOL     OW30052   3.172   0.485  12.218 -0.6185  0.1580 -0.3454
 6197SOL    HW130053   3.180   0.437  12.301 -1.4184  0.6732  0.0248
 6197SOL    HW230054   3.183   0.576  12.244  0.5963  0.1339 -0.7995
 6198SOL     OW30055   1.546   4.402   5.860 -0.1769 -0.4724 -0.8187
 6198SOL    HW130056   1.590   4.482   5.829  0.6447 -0.1654  1.1484
 6198SOL    HW230057   1.585   4.345   5.794  1.5609  1.8470 -1.7858
 6199SOL     OW30058   0.148   1.976   3.351 -0.9132 -0.6712  0.2014
 6199SOL    HW130059   0.136   2.069   3.331 -0.8227 -1.2697 -2.6146
 6199SOL    HW230060   0.184   1.988   3.439 -0.3123  1.7943 -0.3662
 6200SOL     OW30061   3.157   0.101   4.694 -0.3147  0.0459 -0.5002
 6200SOL    HW130062   3.146   0.021   4.745 -2.2327  0.5415 -0.1503
 6200SOL    HW230063   3.108   0.085   4.613 -0.8909 -1.9771  0.2424
 6201SOL     OW30064   2.169   3.230   8.883  0.0312 -0.0863 -0.4591
 6201SOL    HW130065   2.186   3.180   8.803 -1.3055 -1.5634  0.1871
 6201SOL    HW230066   2.247   3.215   8.937  0.5314  1.8601 -0.6464
 6202SOL     OW30067   1.221   0.099   3.193  0.2515 -0.3579 -0.3842
 6202SOL    HW130068   1.207   0.004   3.190 -0.0739 -0.3085 -0.4553
 6202SOL    HW230069   1.143   0.126   3.240  1.3854  2.8415 -0.3499
 6203SOL     OW30070   1.977   0.988  14.741  0.4852  0.4108 -0.0090
 6203SOL    HW130071   1.970   1.009  14.648  0.5103 -0.5819 -0.2338
 6203SOL    HW230072   2.063   1.022  14.766  0.8073 -1.9321  2.1289
 6204SOL     OW30073   3.843   4.024  10.552  0.1940  0.2932 -0.9672
 6204SOL    HW130074   3.850   4.086  10.624  0.0008 -0.3742 -0.3676
 6204SOL    HW230075   3.893   3.955  10.595 -1.6454  0.6200  1.7080
 6205SOL     OW30076   3.464   4.524   7.973 -0.6687  0.3764 -0.0406
 6205SOL    HW130077   3.427   4.436   7.971  0.7118 -0.2094 -0.1057
 6205SOL    HW230078   3.554   4.515   7.940 -0.1230 -1.6249  2.0413
 6206SOL     OW30079   1.626   2.576   6.873  0.3107  0.0464  0.6799
 6206SOL    HW130080   1.639   2.648   6.935 -0.2063  1.6420 -1.0982
 6206SOL    HW230081   1.581   2.520   6.937 -1.1480 -0.8962 -1.1731
 6207SOL     OW30082   4.530   0.541   6.044  0.9588  0.0349  0.3256
 6207SOL    HW130083   4.559   0.625   6.006 -0.6562  0.2285 -0.4776
 6207SOL    HW230084   4.488   0.500   5.968 -0.3621  2.5277 -0.3035
 6208SOL     OW30085   3.834   4.018   8.954  0.0207  0.6365 -0.2640
 6208SOL    HW130086   3.797   3.930   8.956  0.3005  0.5772  2.5525
 6208SOL    HW230087   3.838   4.039   8.861 -3.5575 -1.9858 -1.0174
 6209SOL     OW30088   2.018   3.250   4.343 -0.1936 -0.0425  0.0860
 6209SOL    HW130089   2.076   3.241   4.418 -0.5525 -0.9724  0.2582
 6209SOL    HW230090   2.059   3.174   4.300  2.6091 -0.7369  4.0646
 6210SOL     OW30091   0.158   3.760  14.659  0.4363 -0.1302 -0.0427
 6210SOL    HW130092   0.104   3.732  14.732  1.9421 -0.1388  1.0535
 6210SOL    HW230093   0.234   3.801  14.700 -1.3688  1.3543  1.8338
 6211SOL     OW30094   2.647   1.752   7.142 -0.4363 -0.3788 -0.2181
 6211SOL    HW130095   2.610   1.839   7.129  0.2057  0.1951  1.8399
 6211SOL    HW230096   2.737   1.775   7.119 -0.4691 -0.3201 -0.2865
 6212SOL     OW30097   3.732   2.380   4.204 -0.7768  0.2286  0.3753
 6212SOL    HW130098   3.647   2.419   4.224  0.5852  1.9574  2.7672
 6212SOL    HW230099   3.727   2.376   4.109  1.0285  1.3956  0.2370
 6213SOL     OW30100   4.502   0.082   5.601 -0.6284 -0.5459  0.4817
 6213SOL    HW130101   4.493   0.037   5.685 -3.2718 -1.5720 -0.3414
 6213SOL    HW230102   4.409   0.088   5.580 -0.3132  2.5000  0.0193
 6214SOL     OW30103   2.333   2.271  12.834  0.0230 -0.0434 -0.1008
 6214SOL    HW130104   2.309   2.355  12.872 -1.4242  0.9624 -3.2285
 6214SOL    HW230105   2.349   2.219  12.913 -0.5231  1.8258  1.2392
 6215SOL     OW30106   3.019   2.854  11.179 -0.1693 -0.3595  0.3184
 6215SOL    HW130107   3.056   2.788  11.238  0.6153 -0.1794  0.0269
 6215SOL    HW230108   3.035   2.811  11.095 -0.2276  1.6100 -0.7043
 6216SOL     OW30109   3.046   2.056   8.396  0.0156 -0.4869 -0.5313
 6216SOL    HW130110   3.102   2.119   8.442  1.2142 -1.6325 -0.4229
 6216SOL    HW230111   2.989   2.115   8.347 -0.1842  0.7121  1.1130
 6217SOL     OW30112   1.578   4.163  16.570 -0.0381 -0.2787  0.2833
 6217SOL    HW130113   1.599   4.091  16.629  0.1377  1.2371  2.0546
 6217SOL    HW230114   1.601   4.240  16.622  0.1246 -0.8761  1.1004
 6218SOL     OW30115   2.799   4.312   8.961 -0.0156 -0.4383 -0.0993
 6218SOL    HW130116   2.743   4.387   8.942 -0.3069 -1.1052 -1.8795
 6218SOL    HW230117   2.729   4.247   8.965 -1.2709  0.8549 -1.4173
 6219SOL     OW30118   2.029   1.247  13.822  0.2553  0.3029  0.4045
 6219SOL    HW130119   1.983   1.292  13.893  0.7718 -0.4889  1.2442
 6219SOL    HW230120   1.964   1.182  13.796 -0.4956  1.4645 -0.6361
 6220SOL     OW30121   3.393   4.607   2.622  0.2444 -0.1685  0.4868
 6220SOL    HW130122   3.484   4.583   2.638  0.1223  0.3451  1.9788
 6220SOL    HW230123   3.391   4.605   2.526  1.9772  0.8215  0.4169
 6221SOL     OW30124   2.452   3.445   2.143 -0.5325  0.9688  0.3883
 6221SOL    HW130125   2.365   3.465   2.177 -0.8080 -0.0011  0.2254
 6221SOL    HW230126   2.471   3.532   2.107 -0.5622  1.9737  2.8079
 6222SOL     OW30127   2.797   2.012   4.521  0.2129 -0.0686 -0.3206
 6222SOL    HW130128   2.859   1.948   4.486 -0.5542 -1.7123  1.3314
 6222SOL    HW230129   2.812   2.081   4.456 -1.0284  0.0148 -0.5125
 6223SOL     OW30130   3.677   0.829   9.516  0.6747  0.2674  0.1122
 6223SOL    HW130131   3.668   0.922   9.535 -0.0617  0.3093 -0.4162
 6223SOL    HW230132   3.644   0.823   9.426  1.4614 -0.2022 -0.1450
 6224SOL     OW30133   0.757   4.470  11.221  0.0185  0.8419  0.9453
 6224SOL    HW130134   0.721   4.424  11.145 -0.2568  0.5987  1.2235
 6224SOL    HW230135   0.695   4.463  11.294  1.4858 -0.2604  2.0892
 6225SOL     OW30136   4.246   2.923   1.827  0.2922 -0.3960 -0.0993
 6225SOL    HW130137   4.324   2.868   1.825  1.5033  1.3393 -0.7763
 6225SOL    HW230138   4.231   2.927   1.921  2.4943  1.8573  0.1441
 6226SOL     OW30139   4.713   1.481   4.106  0.5114  0.4048 -0.6021
 6226SOL    HW130140   0.076   1.498   4.073  0.6438  0.0935 -0.4131
 6226SOL    HW230141   4.657   1.504   4.032  0.9291 -0.3597 -1.1681
 6227SOL     OW30142   0.554   0.772  13.256  0.0354  0.1827  0.2549
 6227SOL    HW130143   0.562   0.787  13.350 -0.6952 -0.2797  0.3950
 6227SOL    HW230144   0.637   0.795  13.215  0.8604  1.0618  2.4646
 6228SOL     OW30145   2.984   3.463  14.654  0.1350 -0.1043 -0.6408
 6228SOL    HW130146   2.962   3.472  14.746  1.8452 -0.0467 -0.2439
 6228SOL    HW230147   2.981   3.368  14.650 -0.0638 -0.1137 -0.1963
 6229SOL     OW30148   3.729   3.314   5.203  0.6082 -0.0528  0.2961
 6229SOL    HW130149   3.653   3.307   5.261  0.6087  1.7363  0.5082
 6229SOL    HW230150   3.708   3.246   5.139  1.8785 -1.4753  1.3830
 6230SOL     OW30151   3.670   4.533   9.519  0.4808  0.5602 -0.0715
 6230SOL    HW130152   3.747   4.585   9.543  1.0837  0.6733 -2.3235
 6230SOL    HW230153   3.695   4.451   9.478  0.2895  0.2020  0.5236
 6231SOL     OW30154   3.062   2.952   2.892 -0.0703 -0.4708  0.3130
 6231SOL    HW130155   3.019   3.038   2.884  0.0861 -0.3081  1.2810
 6231SOL    HW230156   3.013   2.894   2.834  1.5342 -1.0086 -0.4842
 6232SOL     OW30157   0.319   1.490   5.564  0.4737  0.3629  0.0306
 6232SOL    HW130158   0.407   1.454   5.570  0.7601  0.6100 -2.6693
 6232SOL    HW230159   0.264   1.414   5.583  0.6894  0.0682 -0.5237
 6233SOL     OW30160   1.378   0.284   3.069 -0.4277 -0.1089  0.0294
 6233SOL    HW130161   1.314   0.224   3.107  1.2041 -1.6097  0.4411
 6233SOL    HW230162   1.359   0.253   2.980 -2.4525 -0.3204  0.5607
 6234SOL     OW30163   0.695   3.115  10.187  0.6160  0.4696  1.1300
 6234SOL    HW130164   0.694   3.206  10.219  1.5522  1.0090 -0.3673
 6234SOL    HW230165   0.787   3.090  10.194  0.9752  0.8486 -2.0479
 6235SOL     OW30166   2.465   4.115  15.118  0.6315  0.1260 -0.1363
 6235SOL    HW130167   2.482   4.181  15.185 -0.1583  0.3118 -0.1195
 6235SOL    HW230168   2.508   4.038  15.155  2.2326  1.8640  1.6270
 6236SOL     OW30169   2.840   3.059  12.199  0.3226 -0.6370  0.2187
 6236SOL    HW130170   2.773   3.127  12.194 -3.2976 -4.2166  0.3355
 6236SOL    HW230171   2.843   3.038  12.106 -1.6405 -0.1601  0.0439
 6237SOL     OW30172   1.600   2.554  12.089  0.0788  0.1394  0.0482
 6237SOL    HW130173   1.631   2.575  12.177 -1.2521  1.0932  0.3013
 6237SOL    HW230174   1.679   2.514  12.053  1.0496  1.3860  0.8085
 6238SOL     OW30175   2.294   0.301  15.319 -0.1349 -0.2495 -0.2005
 6238SOL    HW130176   2.295   0.397  15.323  0.6647 -0.1986 -1.9118
 6238SOL    HW230177   2.304   0.286  15.413 -0.3509  2.1761  0.2187
 6239SOL     OW30178   4.351   1.032   1.974 -0.4842  0.3901  0.1880
 6239SOL    HW130179   4.329   1.123   1.957  0.9224  0.4378 -1.3863
 6239SOL    HW230180   4.352   1.001   1.883 -1.1687  0.9624 -0.0064
 6240SOL     OW30181   2.418   4.550  14.015  0.1316 -0.2233  0.1101
 6240SOL    HW130182   2.445   4.638  14.041 -2.4621  0.9172 -1.0346
 6240SOL    HW230183   2.502   4.509  13.996 -1.5656 -2.6942 -2.0552
 6241SOL     OW30184   4.156   3.373   4.957 -0.6259  0.1099  0.4415
 6241SOL    HW130185   4.138   3.414   5.042  4.2471  0.3931  1.3196
 6241SOL    HW230186   4.232   3.424   4.930 -0.4381 -0.0851  0.6044
 6242SOL     OW30187   1.683   0.166   5.384 -0.0257 -0.3982  0.6350
 6242SOL    HW130188   1.764   0.124   5.414  0.8886  0.5352 -0.5549
 6242SOL    HW230189   1.624   0.154   5.459 -0.5816 -0.0651  0.2464
 6243SOL     OW30190   1.505   0.716   5.214  0.2529  0.6211  0.3709
 6243SOL    HW130191   1.457   0.652   5.161  0.4741 -0.2378  1.2104
 6243SOL    HW230192   1.441   0.781   5.242 -0.7197  0.6520 -1.9088
 6244SOL     OW30193   1.839   3.556   0.415  0.2369  0.6021 -0.1091
 6244SOL    HW130194   1.810   3.514   0.334  0.4042 -0.5119  0.4167
 6244SOL    HW230195   1.758   3.545   0.465 -0.8347  1.8403 -1.5555
 6245SOL     OW30196   4.156   3.932  14.844 -0.1679  0.2918 -0.1181
 6245SOL    HW130197   4.066   3.963  14.833  0.1539  1.1959 -0.1742
 6245SOL    HW230198   4.151   3.860  14.908  0.7146  0.3124 -0.0281
 6246SOL     OW30199   4.012   0.715  16.392 -0.3747 -0.1899 -0.5038
 6246SOL    HW130200   4.099   0.757  16.392  0.5922 -2.1938 -0.2676
 6246SOL    HW230201   4.026   0.654  16.320 -0.8226  1.3079 -1.8685
 6247SOL     OW30202   0.731   0.185   6.188 -1.1419  0.2297 -0.1023
 6247SOL    HW130203   0.761   0.206   6.100  3.1676 -0.0907  1.3084
 6247SOL    HW230204   0.780   0.242   6.247 -2.1445 -0.9017  1.8252
 6248SOL     OW30205   4.492   1.581   8.798  0.9121 -0.7562 -0.0711
 6248SOL    HW130206   4.512   1.585   8.892  2.2229 -1.9889 -0.2854
 6248SOL    HW230207   4.518   1.491   8.778 -0.3453 -0.8923 -1.0823
 6249SOL     OW30208   4.117   2.259   8.275 -0.4638  0.0420  0.2168
 6249SOL    HW130209   4.037   2.221   8.240 -2.3006  3.5434  0.6223
 6249SOL    HW230210   4.186   2.197   8.251 -0.6373  0.3158 -1.0004
 6250SOL     OW30211   3.516   1.850   6.388 -0.6312 -0.6989  0.2305
 6250SOL    HW130212   3.593   1.862   6.333 -1.0098  2.2877  0.3798
 6250SOL    HW230213   3.476   1.777   6.340  0.9200 -1.1383 -0.4017
 6251SOL     OW30214   3.167   3.213   8.655  0.3333  0.5457 -0.1433
 6251SOL    HW130215   3.248   3.169   8.683 -0.7116 -0.2858  1.5656
 6251SOL    HW230216   3.113   3.203   8.733 -0.5489  0.4040 -0.7677
 6252SOL     OW30217   2.043   2.744  13.765  0.2019  0.2141  0.0704
 6252SOL    HW130218   1.994   2.817  13.729  0.3867  1.0840  1.5997
 6252SOL    HW230219   1.974   2.723  13.828  0.5220 -1.2385 -0.0667
 6253SOL     OW30220   0.369   3.800  15.073 -0.1888  0.6576 -0.3022
 6253SOL    HW130221   0.428   3.840  15.009 -0.8430  1.9986 -0.0576
 6253SOL    HW230222   0.414   3.718  15.097 -0.0627  0.8029 -0.0408
 6254SOL     OW30223   1.846   4.392   8.430  0.0842 -0.1325 -0.2116
 6254SOL    HW130224   1.911   4.327   8.401  0.4133 -0.0512  0.3393
 6254SOL    HW230225   1.848   4.380   8.525 -1.7368  3.6711  0.2914
 6255SOL     OW30226   3.274   2.412   1.631 -0.3802  0.3571  0.4398
 6255SOL    HW130227   3.214   2.448   1.565  0.2463 -0.6125 -0.6546
 6255SOL    HW230228   3.224   2.442   1.707 -0.1404  1.1602  0.2854
 6256SOL     OW30229   4.337   3.458   6.925 -0.0550  0.1171 -0.7847
 6256SOL    HW130230   4.281   3.391   6.887  0.7936 -0.7166 -0.5714
 6256SOL    HW230231   4.399   3.475   6.855 -1.0955  3.1725 -0.9722
 6257SOL     OW30232   2.221   2.169   1.085  0.2557  0.6043  0.1394
 6257SOL    HW130233   2.149   2.232   1.075 -0.2363 -0.2258 -1.5242
 6257SOL    HW230234   2.268   2.175   1.002 -0.1557 -0.0884 -0.1427
 6258SOL     OW30235   0.607   0.823   1.891  0.1558  0.3869 -0.1626
 6258SOL    HW130236   0.548   0.758   1.929  0.1318 -0.5354 -1.7888
 6258SOL    HW230237   0.587   0.905   1.935 -2.0566  0.3191 -1.0322
 6259SOL     OW30238   0.062   0.331  16.441 -0.2606  0.2515  0.1209
 6259SOL    HW130239   4.714   0.387  16.467  1.3740  1.3211  2.3935
 6259SOL    HW230240   0.047   0.318  16.347  2.4177 -3.8123  0.2799
 6260SOL     OW30241   2.973   3.274   7.644 -0.0166 -0.3173  0.1822
 6260SOL    HW130242   2.958   3.203   7.707  1.3923  0.1307  1.0164
 6260SOL    HW230243   2.884   3.303   7.621  0.0441  1.7413  2.5605
 6261SOL     OW30244   3.275   4.144   6.209  0.2659 -0.0740 -0.0656
 6261SOL    HW130245   3.221   4.083   6.159  0.2334 -0.6285  0.6481
 6261SOL    HW230246   3.247   4.118   6.296  1.5324  1.7159  0.8797
 6262SOL     OW30247   3.287   0.587   7.174 -0.0269 -0.2040 -0.4246
 6262SOL    HW130248   3.267   0.507   7.125 -0.0729  1.3352 -2.9375
 6262SOL    HW230249   3.250   0.658   7.122 -3.0272 -1.5286 -0.0709
 6263SOL     OW30250   3.159   2.498   4.276  0.0301 -0.1366  0.0728
 6263SOL    HW130251   3.206   2.581   4.268  0.6765 -0.3793  1.3147
 6263SOL    HW230252   3.099   2.493   4.201  0.2810  0.3550 -0.1615
 6264SOL     OW30253   2.007   3.399   6.173  0.0418 -0.2675 -0.1088
 6264SOL    HW130254   2.076   3.448   6.218 -2.3340  1.5578  1.5121
 6264SOL    HW230255   1.928   3.433   6.214 -0.2052 -0.8438 -0.1182
 6265SOL     OW30256   3.419   0.146   9.052  0.0270  0.4283  0.6808
 6265SOL    HW130257   3.415   0.165   8.958  3.6537 -1.5970  0.1074
 6265SOL    HW230258   3.439   0.053   9.045  1.8489  0.7497  1.6199
 6266SOL     OW30259   1.624   3.014  16.850  0.1546 -0.7926  0.2235
 6266SOL    HW130260   1.627   2.948  16.780  0.6728  0.0799 -0.5690
 6266SOL    HW230261   1.678   2.975  16.918 -0.2353 -0.4352  0.7346
 6267SOL     OW30262   1.806   2.710   7.035  0.1228  0.1340  0.0746
 6267SOL    HW130263   1.854   2.629   7.018 -1.8113 -0.8015 -1.0259
 6267SOL    HW230264   1.818   2.698   7.129  1.0430 -1.3287 -0.2322
 6268SOL     OW30265   0.374   2.264   6.243  0.5459 -0.0126 -0.1961
 6268SOL    HW130266   0.397   2.339   6.187  1.2004  0.1011  0.2323
 6268SOL    HW230267   0.361   2.294   6.333  1.4835 -0.3534  0.0538
 6269SOL     OW30268   2.560   2.314   3.285  0.0827  0.1166  0.1350
 6269SOL    HW130269   2.558   2.229   3.241 -0.5906 -0.0911  0.5663
 6269SOL    HW230270   2.653   2.318   3.309  0.1776 -2.6512  0.2744
 6270SOL     OW30271   2.192   0.261   0.836  0.6977  0.1090  0.8976
 6270SOL    HW130272   2.113   0.208   0.848 -0.0444  1.4234  1.7877
 6270SOL    HW230273   2.253   0.233   0.904  0.0536 -0.6248  1.1790
 6271SOL     OW30274   4.299   1.809   6.429 -0.4663 -0.5063 -0.1772
 6271SOL    HW130275   4.327   1.875   6.365 -0.8261  0.1616  0.3471
 6271SOL    HW230276   4.263   1.858   6.503 -0.8630  0.8483 -1.2589
 6272SOL     OW30277   2.438   4.047   5.646  0.5057  0.1598  0.3850
 6272SOL    HW130278   2.350   4.076   5.668  0.2256 -2.0192  2.1775
 6272SOL    HW230279   2.415   3.980   5.582  0.4051  1.9903 -1.5144
 6273SOL     OW30280   1.164   0.504   2.760  0.1714 -0.0713  0.4308
 6273SOL    HW130281   1.069   0.518   2.756  0.0999 -0.4717  0.7514
 6273SOL    HW230282   1.183   0.581   2.707 -0.6877 -0.1386  0.0096
 6274SOL     OW30283   0.319   1.064   5.886 -0.4489 -0.0517  0.7134
 6274SOL    HW130284   0.381   0.997   5.915  1.5864  0.8554 -1.5535
 6274SOL    HW230285   0.257   1.012   5.835 -0.3153  1.8698 -1.3996
 6275SOL     OW30286   2.308   2.743  11.964 -0.7134 -0.3912  0.6137
 6275SOL    HW130287   2.372   2.810  11.988  1.5005 -1.8755 -1.2131
 6275SOL    HW230288   2.287   2.764  11.873  0.2343  2.7614  1.1223
 6276SOL     OW30289   0.724   1.568   3.982  0.2584  0.0096  0.1656
 6276SOL    HW130290   0.724   1.482   3.940  1.3031  0.4226 -0.6625
 6276SOL    HW230291   0.747   1.618   3.904  2.3677 -2.3496 -0.7186
 6277SOL     OW30292   3.305   0.543   3.130  0.1245 -0.0222  0.0412
 6277SOL    HW130293   3.312   0.557   3.036 -0.4420  0.2618  0.0423
 6277SOL    HW230294   3.252   0.616   3.162  2.2412  1.5042  0.0847
 6278SOL     OW30295   3.588   1.616   8.052  0.0782  0.1794  0.4199
 6278SOL    HW130296   3.661   1.589   8.108  1.2606  0.7846 -0.8380
 6278SOL    HW230297   3.543   1.676   8.112 -2.0457 -0.6794 -0.2904
 6279SOL     OW30298   3.551   2.539   5.560  0.0931 -0.6523  0.5211
 6279SOL    HW130299   3.577   2.447   5.566  1.4804 -0.4000 -1.9370
 6279SOL    HW230300   3.462   2.542   5.597  0.5275  1.2584  1.4090
 6280SOL     OW30301   0.727   4.085  15.336 -0.0752  0.6421  0.0515
 6280SOL    HW130302   0.760   4.127  15.416  0.8184  0.5803 -0.2879
 6280SOL    HW230303   0.736   3.991  15.352  2.0181  1.0501  1.2191
 6281SOL     OW30304   1.434   3.880   7.080 -0.5447  0.2574 -0.3988
 6281SOL    HW130305   1.363   3.874   7.144 -0.1308 -0.9315 -0.0662
 6281SOL    HW230306   1.464   3.970   7.094  3.0165 -0.8320 -0.9884
 6282SOL     OW30307   2.278   0.775   7.893 -0.0144 -0.4501  0.0218
 6282SOL    HW130308   2.279   0.855   7.841 -0.8712 -0.1793  0.4351
 6282SOL    HW230309   2.330   0.796   7.971 -2.8727 -0.1879  1.8358
 6283SOL     OW30310   3.063   1.874   2.875  0.4058 -0.0246  1.1582
 6283SOL    HW130311   3.128   1.943   2.864  0.7704 -0.7306 -1.0411
 6283SOL    HW230312   3.107   1.798   2.839 -2.0554 -0.5084 -0.8488
 6284SOL     OW30313   0.086   4.260  13.257  0.1174 -0.3009  0.0156
 6284SOL    HW130314   0.088   4.327  13.189  0.6986  0.2776  0.6092
 6284SOL    HW230315   0.132   4.187  13.215 -0.3073 -0.7429  0.3112
 6285SOL     OW30316   4.664   0.502  13.845 -0.3687 -0.8322 -0.1767
 6285SOL    HW130317   0.007   0.530  13.784  0.1372  0.5917  1.0208
 6285SOL    HW230318   4.670   0.571  13.911 -3.0044 -0.0986 -0.7128
 6286SOL     OW30319   1.685   3.663   0.924  0.0239 -0.9204  0.1656
 6286SOL    HW130320   1.743   3.727   0.885 -0.5115 -0.4171  0.1928
 6286SOL    HW230321   1.602   3.698   0.893  0.1705 -1.4105 -0.7756
 6287SOL     OW30322   3.884   2.450  16.944  0.1613 -0.6499 -0.6242
 6287SOL    HW130323   3.918   2.475  17.030  0.0919  2.3409 -1.4825
 6287SOL    HW230324   3.914   2.359  16.934  0.5195 -0.4941 -0.9407
 6288SOL     OW30325   2.439   4.403  16.997 -0.4584  0.0003 -0.0644
 6288SOL    HW130326   2.488   4.483  17.017 -0.2665 -0.2555  0.4801
 6288SOL    HW230327   2.364   4.421  17.053  0.0309  2.1226 -0.0974
 6289SOL     OW30328   4.476   3.743  15.442 -0.1752 -0.3987 -0.0243
 6289SOL    HW130329   4.533   3.792  15.383  1.7224  1.0985  3.0899
 6289SOL    HW230330   4.436   3.809  15.498  1.6027  1.1105 -0.5694
 6290SOL     OW30331   0.978   3.683  12.151 -0.5281  0.1904 -0.0570
 6290SOL    HW130332   1.039   3.611  12.133 -2.1081 -1.0015 -0.5906
 6290SOL    HW230333   0.964   3.669  12.245  0.5734 -0.2584  0.0421
 6291SOL     OW30334   2.848   1.459   1.256  0.6468  0.2087 -0.3972
 6291SOL    HW130335   2.918   1.523   1.258  0.0382  0.8346  0.8382
 6291SOL    HW230336   2.808   1.468   1.343  0.7149  2.3536 -0.6041
 6292SOL     OW30337   1.299   0.919   4.890 -0.9876  0.3153  0.2330
 6292SOL    HW130338   1.372   0.895   4.947 -0.8014  0.4944  0.0683
 6292SOL    HW230339   1.340   0.989   4.840 -2.1674  0.2308 -0.8708
 6293SOL     OW30340   2.256   4.428   7.543 -0.2231 -0.0881  0.0903
 6293SOL    HW130341   2.168   4.434   7.505  0.5060 -0.8269 -1.7369
 6293SOL    HW230342   2.251   4.343   7.587  0.9138 -0.0220  0.3414
 6294SOL     OW30343   2.397   0.632   6.308 -0.1429 -0.4681 -0.7575
 6294SOL    HW130344   2.450   0.599   6.235  1.1559 -3.0769  1.3752
 6294SOL    HW230345   2.445   0.713   6.325  1.1270 -1.0309 -1.6403
 6295SOL     OW30346   1.764   4.603  15.007 -0.1031  0.6707  0.6807
 6295SOL    HW130347   1.851   4.581  15.040  0.1975 -2.2111 -1.9878
 6295SOL    HW230348   1.782   4.677  14.948  1.3299  0.7378  1.2039
 6296SOL     OW30349   1.206   0.420  17.513 -0.0563  0.4880 -0.2608
 6296SOL    HW130350   1.156   0.488  17.468  1.3478  0.9818 -1.0799
 6296SOL    HW230351   1.139   0.372  17.561 -1.5154  2.5904 -0.1848
 6297SOL     OW30352   0.509   1.804   6.917  1.2645 -0.3774 -0.3546
 6297SOL    HW130353   0.589   1.753   6.922 -0.3861 -2.7286  1.8294
 6297SOL    HW230354   0.526   1.874   6.980  1.6958  0.0356 -0.9280
 6298SOL     OW30355   3.888   4.665   7.226  0.2095  0.1406  0.2050
 6298SOL    HW130356   3.848   4.678   7.312  0.2333 -0.6290  0.3347
 6298SOL    HW230357   3.937   0.022   7.220  1.7558 -0.5986  2.5857
 6299SOL     OW30358   4.034   0.912   0.428 -0.1006 -0.7379  0.4480
 6299SOL    HW130359   3.950   0.926   0.386  0.4719 -2.9790 -1.4844
 6299SOL    HW230360   4.086   0.989   0.405 -2.6493  0.2837 -1.8078
 6300SOL     OW30361   4.682   4.403  12.992  0.1346 -0.0438  0.0858
 6300SOL    HW130362   4.665   4.309  12.996 -0.0844 -0.0690 -1.6530
 6300SOL    HW230363   0.001   4.411  12.908 -1.2386 -3.2812 -0.9276
 6301SOL     OW30364   4.351   4.138   8.682 -0.5862  0.3205 -0.4507
 6301SOL    HW130365   4.328   4.193   8.607  2.1306 -0.4219 -1.8372
 6301SOL    HW230366   4.357   4.050   8.644  1.9857  0.8061 -1.1818
 6302SOL     OW30367   4.450   4.439   4.042  0.3677  0.5820 -0.1212
 6302SOL    HW130368   4.470   4.396   3.958 -1.1015 -2.3171  1.0246
 6302SOL    HW230369   4.532   4.473   4.078  1.8402  0.5403 -3.3933
 6303SOL     OW30370   0.123   1.122  11.289  0.2218  0.4831  0.0824
 6303SOL    HW130371   0.185   1.081  11.350 -1.3534  0.9544  2.0296
 6303SOL    HW230372   0.048   1.105  11.347 -1.0822 -1.0504 -2.0866
 6304SOL     OW30373   3.579   0.262   3.651 -0.1240 -0.2461 -0.5580
 6304SOL    HW130374   3.605   0.341   3.603 -1.3024  1.3971  1.4990
 6304SOL    HW230375   3.618   0.278   3.737 -1.2176 -1.1442  0.1029
 6305SOL     OW30376   1.254   2.723   1.259 -0.4256 -0.3374  0.2666
 6305SOL    HW130377   1.220   2.739   1.347  0.2362  0.1720  0.4256
 6305SOL    HW230378   1.182   2.740   1.198  0.8088 -1.0764 -1.4108
 6306SOL     OW30379   4.032   0.181   6.041 -0.0193 -0.2169 -0.1724
 6306SOL    HW130380   4.112   0.169   5.989 -0.2506  1.6164 -0.9693
 6306SOL    HW230381   4.066   0.187   6.130 -0.0043  0.0047 -0.1918
 6307SOL     OW30382   1.725   2.297  14.716  0.6725  0.5130  0.1352
 6307SOL    HW130383   1.742   2.208  14.745  0.8294  1.6104  3.3919
 6307SOL    HW230384   1.637   2.295  14.678  0.6386  2.5822  0.0780
 6308SOL     OW30385   4.550   3.712   8.084 -0.7320  0.0693 -0.1336
 6308SOL    HW130386   4.645   3.711   8.082 -0.7921 -0.0617 -3.2007
 6308SOL    HW230387   4.531   3.745   8.172  4.1362  0.5847  0.6894
 6309SOL     OW30388   1.607   1.156   7.893 -0.2215 -0.2061  0.4228
 6309SOL    HW130389   1.530   1.210   7.875 -0.5022 -0.5700  0.5290
 6309SOL    HW230390   1.596   1.163   7.988  2.7171  1.1510  0.6533
 6310SOL     OW30391   2.763   0.289   2.787 -0.4069 -0.2067 -0.0265
 6310SOL    HW130392   2.838   0.277   2.728 -1.3804  1.0986 -1.5113
 6310SOL    HW230393   2.729   0.200   2.795  1.0110 -0.8825 -1.3984
 6311SOL     OW30394   3.621   0.747   5.456  0.4287 -0.3475  0.3000
 6311SOL    HW130395   3.602   0.804   5.531 -2.9031  0.2428 -0.9587
 6311SOL    HW230396   3.714   0.755   5.435  0.1972 -0.0439 -0.5912
 6312SOL     OW30397   3.067   1.355   1.032  0.1050  0.0647  0.2324
 6312SOL    HW130398   3.094   1.300   1.105  1.3500  0.9441  0.4456
 6312SOL    HW230399   3.118   1.314   0.963 -0.4801 -1.7205  0.8683
 6313SOL     OW30400   0.288   1.028  11.737 -0.3606 -0.0487  0.1369
 6313SOL    HW130401   0.205   1.049  11.693 -0.1072  1.0894  0.1887
 6313SOL    HW230402   0.349   1.014  11.665  0.0767  1.9587  0.1106
 6314SOL     OW30403   1.153   1.386   7.961  0.0033 -0.3620  0.2602
 6314SOL    HW130404   1.170   1.466   7.911 -1.5745 -0.7484 -0.9089
 6314SOL    HW230405   1.164   1.310   7.903 -0.8601 -0.5753  0.3740
 6315SOL     OW30406   2.441   1.492  13.498  0.2419 -0.6195 -0.0238
 6315SOL    HW130407   2.510   1.489  13.432  0.8456 -1.3830  0.6532
 6315SOL    HW230408   2.365   1.480  13.441  0.9283 -0.1064 -1.0409
 6316SOL     OW30409   0.961   0.687   8.453  0.0396  0.2185  0.3233
 6316SOL    HW130410   0.898   0.717   8.387 -0.2249 -1.8682 -0.3855
 6316SOL    HW230411   0.911   0.618   8.496  0.8309  0.2406  1.2775
 6317SOL     OW30412   0.108   3.868   7.313  0.6153  0.3186 -0.2142
 6317SOL    HW130413   0.015   3.846   7.311  0.2564  1.5009  3.5331
 6317SOL    HW230414   0.140   3.842   7.226  1.8064  1.0564  0.0041
 6318SOL     OW30415   2.001   1.154   2.846  0.4660  0.0225 -0.1406
 6318SOL    HW130416   2.034   1.157   2.936 -0.9862 -0.2996  0.3873
 6318SOL    HW230417   2.063   1.216   2.806 -0.7113  2.1650  1.2984
 6319SOL     OW30418   0.733   1.943   5.665 -0.7278  0.5156 -0.5131
 6319SOL    HW130419   0.772   1.857   5.655  0.1409  0.8120  0.3044
 6319SOL    HW230420   0.675   1.933   5.740  0.3936  2.8751  0.6829
 6320SOL     OW30421   0.185   0.901   2.048 -0.2391  0.3249  0.0404
 6320SOL    HW130422   0.239   0.822   2.048  0.5596  0.8682 -0.7622
 6320SOL    HW230423   0.126   0.897   1.973  1.1160 -0.6117 -0.9701
 6321SOL     OW30424   3.698   1.733   0.937  0.1110  0.2787 -0.0814
 6321SOL    HW130425   3.687   1.782   0.855  0.0945 -0.6776 -0.6524
 6321SOL    HW230426   3.658   1.648   0.924  0.2566  0.0802  0.7920
 6322SOL     OW30427   4.585   0.113   7.970 -0.0900  0.1392 -0.9220
 6322SOL    HW130428   4.551   0.168   7.900 -1.6986  2.0804  1.3895
 6322SOL    HW230429   4.562   0.163   8.048  3.1333  1.5903 -0.8970
 6323SOL     OW30430   3.970   0.659   4.904  0.0176  0.0535 -0.3531
 6323SOL    HW130431   3.924   0.701   4.977  0.5622  1.9474 -1.1224
 6323SOL    HW230432   3.904   0.603   4.861 -1.0733  0.0923  1.2636
 6324SOL     OW30433   0.387   3.192  14.375 -0.0346  0.1674 -0.2256
 6324SOL    HW130434   0.383   3.263  14.312 -2.2260 -1.0307 -1.4563
 6324SOL    HW230435   0.308   3.203  14.428  0.2616  1.7069 -0.1082
 6325SOL     OW30436   2.522   0.302   4.052 -0.1395 -0.2957  0.2173
 6325SOL    HW130437   2.504   0.261   4.136  0.1235 -2.1206 -0.6012
 6325SOL    HW230438   2.438   0.302   4.006 -0.5242 -0.3113  0.9227
 6326SOL     OW30439   1.946   1.625   0.024 -0.2944 -0.2551 -0.1336
 6326SOL    HW130440   1.990   1.564  17.668  0.0889 -0.8905  0.8313
 6326SOL    HW230441   2.022   1.666   0.066  0.4528 -1.1392 -0.6517
 6327SOL     OW30442   0.731   2.016   5.021 -0.0441  0.2363 -0.1559
 6327SOL    HW130443   0.781   1.935   5.011  0.1867  0.3392  0.1693
 6327SOL    HW230444   0.711   2.046   4.933  2.3315  0.3761 -0.6487
 6328SOL     OW30445   0.552   0.472   7.408 -0.3173  0.0515  0.2561
 6328SOL    HW130446   0.497   0.547   7.386 -1.2276 -0.0785  2.1314
 6328SOL    HW230447   0.483   0.407   7.422 -0.1686 -0.3503 -0.9217
 6329SOL     OW30448   0.698   3.366  15.214 -0.2589 -0.2842  1.2327
 6329SOL    HW130449   0.760   3.411  15.271  0.9036 -2.2961  1.5485
 6329SOL    HW230450   0.704   3.414  15.131  0.5588  0.6970  1.8700
 6330SOL     OW30451   4.588   3.839   6.360 -0.2015  0.5425  0.0777
 6330SOL    HW130452   4.655   3.829   6.292 -2.4110  1.0965 -2.1458
 6330SOL    HW230453   4.511   3.848   6.305  0.1315  1.0804 -0.3057
 6331SOL     OW30454   4.260   1.819   0.289  0.5017 -0.0532  0.6758
 6331SOL    HW130455   4.303   1.805   0.374 -0.6670 -0.2853  1.2265
 6331SOL    HW230456   4.193   1.886   0.305 -2.3497 -2.9566  0.8871
 6332SOL     OW30457   2.528   4.656  11.429  0.7206  0.1091 -0.1851
 6332SOL    HW130458   2.582   4.679  11.354  1.9701  0.2689  0.7528
 6332SOL    HW230459   2.509   0.012  11.476 -1.2321 -0.7742  0.5672
 6333SOL     OW30460   3.627   2.476  16.545 -0.2541  0.2842  0.0066
 6333SOL    HW130461   3.684   2.512  16.614 -0.8922 -1.6074  1.4957
 6333SOL    HW230462   3.635   2.384  16.567  0.0018  0.6296  1.3752
 6334SOL     OW30463   2.132   4.712  13.901 -0.3271 -0.2965  0.1642
 6334SOL    HW130464   2.085   0.070  13.905 -0.4182 -0.2538 -1.8943
 6334SOL    HW230465   2.141   4.688  13.994  0.0482 -0.6142  0.0493
 6335SOL     OW30466   0.675   1.808  11.565 -0.3883 -0.3212 -0.2284
 6335SOL    HW130467   0.702   1.882  11.511 -0.3764 -0.5424 -0.5264
 6335SOL    HW230468   0.580   1.806  11.554 -0.4239 -0.0327  0.0536
 6336SOL     OW30469   3.387   2.311   5.355  0.2570  0.5324  0.3830
 6336SOL    HW130470   3.419   2.258   5.282  1.9748  1.5603  0.3934
 6336SOL    HW230471   3.453   2.296   5.422 -0.9279 -0.0556  1.4022
 6337SOL     OW30472   0.289   1.268  16.104  0.5078  0.3272  0.5299
 6337SOL    HW130473   0.216   1.212  16.131 -1.0369  1.1988 -1.8083
 6337SOL    HW230474   0.331   1.219  16.033  0.2646  2.1894 -0.9057
 6338SOL     OW30475   1.517   4.494   6.306 -0.1331 -0.0177  0.6524
 6338SOL    HW130476   1.426   4.466   6.315  0.0405 -0.1758  1.9977
 6338SOL    HW230477   1.570   4.426   6.349  2.1732  0.4295 -1.4814
 6339SOL     OW30478   4.231   4.597   6.610 -0.0996  0.6405  0.4870
 6339SOL    HW130479   4.146   4.557   6.589  0.6266  0.2407 -1.5939
 6339SOL    HW230480   4.278   4.533   6.664  1.3701  0.3830 -1.1293
 6340SOL     OW30481   0.926   1.727   4.691 -0.1890 -0.0198 -0.0865
 6340SOL    HW130482   1.021   1.734   4.698 -0.1621  1.1101 -1.5030
 6340SOL    HW230483   0.930   1.658   4.626 -0.6209  0.9437 -1.1315
 6341SOL     OW30484   1.005   3.545   2.599  0.2406 -0.4865 -0.1495
 6341SOL    HW130485   0.995   3.633   2.563  0.0018 -0.0785  0.9252
 6341SOL    HW230486   1.055   3.507   2.526 -0.5209 -0.7717 -0.5158
 6342SOL     OW30487   3.011   0.651   4.733  0.2206 -0.4342 -0.1196
 6342SOL    HW130488   3.072   0.724   4.749 -2.3820  1.9493 -1.1070
 6342SOL    HW230489   2.961   0.644   4.814 -0.3705  1.6502 -0.2988
 6343SOL     OW30490   1.027   4.220   1.312 -0.1668  0.2537  0.0424
 6343SOL    HW130491   0.980   4.292   1.269 -2.0970 -1.2087 -0.3109
 6343SOL    HW230492   1.075   4.263   1.383  2.1965  0.4756 -1.7268
 6344SOL     OW30493   0.125   2.722   3.169  0.0007  0.0477  0.9720
 6344SOL    HW130494   0.196   2.659   3.158 -0.3755 -0.5121  1.7293
 6344SOL    HW230495   0.157   2.793   3.113 -0.3645 -0.3229  0.2887
 6345SOL     OW30496   1.054   4.308   7.436 -0.0732 -0.2221  0.8748
 6345SOL    HW130497   1.043   4.397   7.402  1.8098 -0.4207 -0.2390
 6345SOL    HW230498   1.108   4.321   7.514  1.4323  0.0432 -0.2256
 6346SOL     OW30499   2.232   1.673   6.235 -0.0959 -0.9160  0.5793
 6346SOL    HW130500   2.141   1.646   6.244 -0.3926 -1.2169 -3.2385
 6346SOL    HW230501   2.264   1.645   6.320  1.2191 -0.9391  0.0866
 6347SOL     OW30502   1.306   3.387   3.351 -0.2029 -0.1462  0.6735
 6347SOL    HW130503   1.231   3.446   3.346 -0.8402 -0.9079  1.1609
 6347SOL    HW230504   1.381   3.446   3.360  1.1232 -1.9389  1.2985
 6348SOL     OW30505   3.940   0.175   6.610  0.2577  0.1646 -0.4265
 6348SOL    HW130506   3.951   0.270   6.600 -1.2778  0.1956 -1.8053
 6348SOL    HW230507   3.877   0.183   6.681  0.7246  1.4987 -0.1562
 6349SOL     OW30508   2.375   4.716   6.841  0.1000  0.1471  0.2428
 6349SOL    HW130509   2.372   0.003   6.935 -0.3596 -1.8606  0.4875
 6349SOL    HW230510   2.332   0.064   6.796  0.2201 -0.0056 -0.1281
 6350SOL     OW30511   1.255   1.647   0.952 -0.2187 -0.0840 -0.8013
 6350SOL    HW130512   1.223   1.576   1.007  2.1317 -2.0375 -1.9433
 6350SOL    HW230513   1.185   1.707   0.977 -1.0392 -0.8151 -1.3689
 6351SOL     OW30514   1.137   3.966   7.631  0.1497 -0.1127 -0.4729
 6351SOL    HW130515   1.134   3.970   7.535 -3.7344  1.2651 -0.2673
 6351SOL    HW230516   1.051   3.990   7.664  1.0465  1.0539  1.0351
 6352SOL     OW30517   2.443   3.674   4.721  0.1600  0.0737  0.1628
 6352SOL    HW130518   2.526   3.632   4.700  0.6462  2.3861 -2.5876
 6352SOL    HW230519   2.473   3.739   4.785  1.5723 -0.7243  0.3195
 6353SOL     OW30520   4.357   4.297   9.699 -0.9512  0.1146 -0.2917
 6353SOL    HW130521   4.345   4.328   9.789 -1.4295  1.9211 -0.9757
 6353SOL    HW230522   4.363   4.202   9.709  1.5280  0.1057 -1.7545
 6354SOL     OW30523   2.339   1.467   5.063 -0.0209 -0.6390  0.4737
 6354SOL    HW130524   2.263   1.408   5.053  0.5380 -1.7258  2.7329
 6354SOL    HW230525   2.369   1.479   4.973  1.6608  1.6128  1.3359
 6355SOL     OW30526   4.668   0.255   3.531 -0.5970 -0.0711 -0.3585
 6355SOL    HW130527   0.024   0.227   3.574 -0.6744  0.3788  0.0928
 6355SOL    HW230528   4.638   0.170   3.499 -1.4583  0.6229 -1.3880
 6356SOL     OW30529   1.304   2.100   2.518 -0.2316  0.2233  0.0218
 6356SOL    HW130530   1.378   2.068   2.466  1.0490 -0.4285  2.2638
 6356SOL    HW230531   1.356   2.154   2.577  0.6642  1.8871 -2.2628
 6357SOL     OW30532   1.902   2.342   9.561  0.2108  0.3624  0.2945
 6357SOL    HW130533   1.925   2.360   9.652  1.1068  0.7074 -0.0062
 6357SOL    HW230534   1.893   2.427   9.517 -0.2890 -0.4628 -1.2173
 6358SOL     OW30535   0.343   2.749   9.378 -0.3261 -0.3669  0.0009
 6358SOL    HW130536   0.310   2.830   9.340  0.0481 -0.8452 -1.3524
 6358SOL    HW230537   0.258   2.709   9.398 -0.4318 -0.5647 -0.8484
 6359SOL     OW30538   2.307   1.152  13.888 -0.3822 -0.3330  0.4744
 6359SOL    HW130539   2.301   1.089  13.960 -0.5359  1.8413  2.3691
 6359SOL    HW230540   2.216   1.178  13.877  0.3475  2.7351  1.5027
 6360SOL     OW30541   2.949   0.592   6.053  0.2722 -0.7162  0.5703
 6360SOL    HW130542   3.004   0.622   5.981  1.3027  1.2534  2.1713
 6360SOL    HW230543   3.014   0.599   6.123  0.8049  1.4286 -0.1427
 6361SOL     OW30544   4.427   4.688   9.279 -0.3278  1.3608 -0.2129
 6361SOL    HW130545   4.412   4.595   9.295 -0.1856  1.2163 -0.9349
 6361SOL    HW230546   4.505   4.688   9.334 -0.7482  0.7951  0.3907
 6362SOL     OW30547   2.399   0.274   9.213  1.0076 -0.2448  0.3229
 6362SOL    HW130548   2.373   0.365   9.227  2.1988 -0.1981  2.1851
 6362SOL    HW230549   2.486   0.264   9.174  2.0431 -0.5334  2.7078
 6363SOL     OW30550   2.912   1.581   5.005  0.1616 -0.5009  0.2960
 6363SOL    HW130551   2.913   1.626   4.920  2.8288 -0.4626  0.3441
 6363SOL    HW230552   2.828   1.611   5.041 -0.8695  0.9444 -3.3013
 6364SOL     OW30553   4.276   2.219   0.769 -0.4403 -0.1331 -0.1648
 6364SOL    HW130554   4.264   2.296   0.826 -2.0302 -0.2397 -0.3646
 6364SOL    HW230555   4.204   2.237   0.709  0.3808 -1.2010 -1.4593
 6365SOL     OW30556   3.871   3.886  15.924 -0.6491  0.6332  0.3231
 6365SOL    HW130557   3.927   3.884  15.846  1.1368  0.6828  1.6296
 6365SOL    HW230558   3.793   3.838  15.896 -1.5338  0.4852  3.0996
 6366SOL     OW30559   1.516   0.795   6.940  0.1066  0.6530 -0.2534
 6366SOL    HW130560   1.501   0.872   6.995  0.2860 -0.6524  1.6303
 6366SOL    HW230561   1.541   0.729   7.004 -0.1232 -1.6704 -2.6040
 6367SOL     OW30562   3.730   1.221   9.133 -0.2513 -0.1975  0.2861
 6367SOL    HW130563   3.636   1.235   9.119  0.6791  3.5066 -2.3288
 6367SOL    HW230564   3.743   1.289   9.198  0.1561 -0.5452  0.5669
 6368SOL     OW30565   2.255   3.493   3.713  0.2681  0.2127 -0.0868
 6368SOL    HW130566   2.222   3.413   3.672 -0.3453  0.0502  0.7263
 6368SOL    HW230567   2.176   3.528   3.754 -0.7523  0.3780 -2.2525
 6369SOL     OW30568   1.212   1.168   8.115  0.5404  0.3289 -0.4246
 6369SOL    HW130569   1.170   1.241   8.068 -1.9741 -0.3542  0.7764
 6369SOL    HW230570   1.156   1.167   8.192  0.2197  0.3978 -0.6554
 6370SOL     OW30571   3.194   2.584   7.915 -0.2835 -0.1320  0.4670
 6370SOL    HW130572   3.144   2.522   7.862 -0.8320 -0.1834  1.0449
 6370SOL    HW230573   3.282   2.591   7.877 -1.0341 -0.9002 -1.4301
 6371SOL     OW30574   3.546   3.559   8.134 -0.3752 -0.0585 -0.9254
 6371SOL    HW130575   3.451   3.568   8.142 -0.2983  0.0294 -0.1219
 6371SOL    HW230576   3.578   3.640   8.173 -0.9799  0.6074 -1.7984
 6372SOL     OW30577   3.001   2.207   3.629  0.4563  1.0401  0.2652
 6372SOL    HW130578   2.923   2.214   3.574  0.0283  1.5827  0.9484
 6372SOL    HW230579   3.002   2.293   3.671 -0.5568  1.9830 -1.6364
 6373SOL     OW30580   0.173   0.317   9.600  0.3012  0.0110  0.2653
 6373SOL    HW130581   0.089   0.313   9.647  0.9529  0.4714  1.4816
 6373SOL    HW230582   0.222   0.300   9.680 -0.8074  0.7105  1.1039
 6374SOL     OW30583   1.503   3.296   1.813 -0.1065 -0.2957  0.1892
 6374SOL    HW130584   1.512   3.299   1.908 -0.3271  2.5305  0.1402
 6374SOL    HW230585   1.433   3.361   1.808 -0.5162 -0.8440 -1.1487
 6375SOL     OW30586   2.846   0.512   8.148 -0.1492  0.2007 -0.4007
 6375SOL    HW130587   2.773   0.494   8.089 -1.0919 -0.7316  1.0423
 6375SOL    HW230588   2.883   0.592   8.110  1.6308 -0.3216  0.2495
 6376SOL     OW30589   2.555   3.068  16.303  0.1228  0.5476  0.0220
 6376SOL    HW130590   2.601   3.037  16.224 -0.2703 -0.3264  0.1337
 6376SOL    HW230591   2.498   2.993  16.320  0.1079  0.3365 -0.9227
 6377SOL     OW30592   2.264   0.550  11.655  0.2449 -0.3903 -0.0077
 6377SOL    HW130593   2.258   0.480  11.720 -1.5070  0.0293  0.2900
 6377SOL    HW230594   2.316   0.619  11.696  2.9195 -1.3934 -1.6886
 6378SOL     OW30595   3.419   4.418   7.513  0.4712 -0.4181  0.0525
 6378SOL    HW130596   3.352   4.351   7.525  1.6259 -1.7030 -0.6703
 6378SOL    HW230597   3.378   4.484   7.570  0.1077 -0.0467 -0.6415
 6379SOL     OW30598   4.717   1.329   7.922 -0.3356 -0.5223 -0.0520
 6379SOL    HW130599   0.027   1.418   7.934  0.6022 -0.3749 -3.6698
 6379SOL    HW230600   0.049   1.302   7.850  0.1965 -0.8542  0.4960
 6380SOL     OW30601   4.129   2.688   0.651 -0.6373  0.3662 -0.6262
 6380SOL    HW130602   4.155   2.725   0.736  1.4029 -0.0518 -1.0611
 6380SOL    HW230603   4.131   2.594   0.669 -0.8578  0.8388  1.9527
 6381SOL     OW30604   0.551   4.637   0.610  0.2758 -0.6219  0.0964
 6381SOL    HW130605   0.472   4.586   0.625 -0.5268 -0.2182 -2.7627
 6381SOL    HW230606   0.520   4.709   0.555 -0.5004  0.2062  1.6411
 6382SOL     OW30607   4.552   4.071   3.112 -0.0442  0.1696 -0.1507
 6382SOL    HW130608   4.568   4.083   3.018 -0.1227 -0.6856 -0.2648
 6382SOL    HW230609   4.629   4.102   3.161 -0.6451 -0.8644  1.4458
 6383SOL     OW30610   4.421   2.282   8.834  0.2861 -0.4169 -0.2476
 6383SOL    HW130611   4.454   2.330   8.910  1.3537  0.8518 -1.5004
 6383SOL    HW230612   4.327   2.277   8.855  0.9271 -0.1197  2.6609
 6384SOL     OW30613   1.854   1.184  17.043  0.6175  0.2604  0.2645
 6384SOL    HW130614   1.831   1.122  17.111  0.8421 -0.6874 -0.5186
 6384SOL    HW230615   1.949   1.169  17.043  0.6378  0.3599 -0.5284
 6385SOL     OW30616   1.614   1.855   6.069  0.4044  0.0755 -0.3857
 6385SOL    HW130617   1.702   1.847   6.031  1.1353  2.5950  0.8015
 6385SOL    HW230618   1.625   1.823   6.158 -1.4180 -2.0893 -0.9426
 6386SOL     OW30619   2.351   1.017  15.631  0.0986 -0.8068  0.0664
 6386SOL    HW130620   2.337   1.105  15.597  1.8258  0.2834  2.1751
 6386SOL    HW230621   2.263   0.979  15.626  0.2927 -1.1426 -0.8590
 6387SOL     OW30622   2.623   3.654  17.616  0.0900 -0.2638 -0.7211
 6387SOL    HW130623   2.596   3.741  17.644  0.9751 -0.1170 -0.3448
 6387SOL    HW230624   2.551   3.641  17.553 -0.1244  0.2338 -0.5798
 6388SOL     OW30625   1.281   1.705   8.013 -0.4832  0.3164 -0.3894
 6388SOL    HW130626   1.325   1.656   8.083 -2.9740 -2.7091 -0.9318
 6388SOL    HW230627   1.333   1.698   7.933 -3.0187  1.7938 -2.1729
 6389SOL     OW30628   4.681   2.525  15.679  0.5608  0.9183  0.1274
 6389SOL    HW130629   4.676   2.554  15.770 -1.2871  1.4393 -0.1363
 6389SOL    HW230630   4.602   2.571  15.651  0.1990 -0.0723 -0.4595
 6390SOL     OW30631   3.260   4.653   6.192 -0.3624 -0.4461 -0.3254
 6390SOL    HW130632   3.331   4.637   6.130 -0.6354 -0.8428 -0.5340
 6390SOL    HW230633   3.271   4.585   6.258 -1.4124 -0.8975 -0.6238
 6391SOL     OW30634   1.259   0.407   2.355  0.1717 -0.2944  0.0128
 6391SOL    HW130635   1.291   0.498   2.355  0.3747 -0.3677 -1.3445
 6391SOL    HW230636   1.327   0.359   2.308 -0.7734 -1.7267  0.1325
 6392SOL     OW30637   4.622   3.488   6.726  0.0656 -0.2821 -0.0698
 6392SOL    HW130638   4.697   3.464   6.672 -0.1393  1.0400 -0.9246
 6392SOL    HW230639   4.604   3.577   6.697  1.3654 -0.1019 -0.3073
 6393SOL     OW30640   3.697   2.693   7.966  0.4149 -0.3929  0.4933
 6393SOL    HW130641   3.670   2.713   8.055 -1.5018 -1.5175  0.1676
 6393SOL    HW230642   3.792   2.699   7.970  0.4012  1.5753 -1.9473
 6394SOL     OW30643   3.881   4.354  12.389 -0.5114  0.2750 -0.0476
 6394SOL    HW130644   3.845   4.272  12.422 -1.0745  0.5625  0.0591
 6394SOL    HW230645   3.971   4.324  12.377 -0.6746 -0.3694  0.3559
 6395SOL     OW30646   0.055   1.902   2.344 -0.8629  0.6039  0.0931
 6395SOL    HW130647   0.123   1.970   2.345 -1.0846  0.8254  0.1424
 6395SOL    HW230648   4.719   1.938   2.408  0.3605  1.7745  0.6198
 6396SOL     OW30649   0.880   4.205   1.038 -0.3648 -0.8016 -0.2564
 6396SOL    HW130650   0.880   4.150   1.116  1.2141  1.9749  1.7275
 6396SOL    HW230651   0.813   4.269   1.060 -0.0966 -0.9561  1.0254
 6397SOL     OW30652   2.248   3.153   8.643 -0.0191 -0.2605 -0.1506
 6397SOL    HW130653   2.171   3.188   8.598  0.7137 -2.4149 -3.0542
 6397SOL    HW230654   2.314   3.217   8.616 -3.7185  2.8448 -1.7581
 6398SOL     OW30655   3.963   3.347   1.988  0.2872 -0.0057  0.6152
 6398SOL    HW130656   3.949   3.286   1.916  0.7894  1.3428 -0.6220
 6398SOL    HW230657   3.961   3.279   2.056  0.6932  0.3291  0.9571
 6399SOL     OW30658   1.733   2.153   5.473 -0.4181 -0.0251  0.6089
 6399SOL    HW130659   1.819   2.192   5.484 -0.4300  0.1975 -0.1032
 6399SOL    HW230660   1.732   2.129   5.380 -1.1082 -1.5603  1.0135
 6400SOL     OW30661   2.378   2.549  10.863  0.0340 -0.2946  0.7364
 6400SOL    HW130662   2.293   2.593  10.858 -0.7677 -1.8671  0.4886
 6400SOL    HW230663   2.360   2.461  10.896 -0.2554 -1.2456 -1.9372
 6401SOL     OW30664   1.337   0.314   3.576  0.1841 -0.3378  0.3269
 6401SOL    HW130665   1.429   0.339   3.563 -0.4026  0.6493 -1.9044
 6401SOL    HW230666   1.353   0.271   3.660 -1.6065 -0.8978  0.3827
 6402SOL     OW30667   2.531   1.931   2.001 -0.7210  0.4024  0.0337
 6402SOL    HW130668   2.483   1.912   2.082 -0.6968  0.2484  0.0115
 6402SOL    HW230669   2.618   1.964   2.026 -0.4679 -1.3521  1.5533
 6403SOL     OW30670   3.075   0.691  11.790 -0.2169  0.0781 -0.7741
 6403SOL    HW130671   2.989   0.708  11.828  0.1825 -1.0641  0.6797
 6403SOL    HW230672   3.058   0.662  11.701 -1.4785 -2.0896  0.1915
 6404SOL     OW30673   0.253   0.733   3.567  0.2325 -0.3768 -0.1134
 6404SOL    HW130674   0.272   0.640   3.558 -2.6257 -1.0388  0.5576
 6404SOL    HW230675   0.165   0.722   3.603  0.3932  0.3320  0.4938
 6405SOL     OW30676   1.174   0.604   7.737  0.4312 -0.4254  0.3219
 6405SOL    HW130677   1.117   0.677   7.759 -0.7505 -0.7071 -1.7986
 6405SOL    HW230678   1.139   0.585   7.650  1.0280 -0.2160  0.0427
 6406SOL     OW30679   0.286   0.254   5.145  0.0867 -0.4711  0.3341
 6406SOL    HW130680   0.310   0.303   5.066  4.0285 -1.7962  0.7023
 6406SOL    HW230681   0.191   0.258   5.155 -0.2513  0.4431 -3.2323
 6407SOL     OW30682   2.439   0.853  11.425 -0.1177  0.4630  0.7694
 6407SOL    HW130683   2.490   0.808  11.492  1.8596 -0.0587 -1.0711
 6407SOL    HW230684   2.458   0.796  11.350  1.6552  0.4409  1.2280
 6408SOL     OW30685   0.284   3.014   9.331  0.2419  0.0063 -0.1838
 6408SOL    HW130686   0.307   3.050   9.417 -1.0839  1.2971 -0.3910
 6408SOL    HW230687   0.223   3.078   9.297 -0.7134 -1.6793 -1.6227
 6409SOL     OW30688   1.483   2.055   3.246  0.6712 -0.1057  0.0736
 6409SOL    HW130689   1.457   2.111   3.172  0.7848  0.3548  0.3765
 6409SOL    HW230690   1.445   2.092   3.326 -2.2657 -0.7922 -1.0118
 6410SOL     OW30691   0.926   4.429   4.532  0.3231 -0.3792 -0.1672
 6410SOL    HW130692   0.887   4.380   4.604 -0.2148  2.2597  1.3753
 6410SOL    HW230693   1.010   4.436   4.578  1.4047  0.5313 -2.3112
 6411SOL     OW30694   0.382   4.692   7.566  0.1206  0.3193 -0.5164
 6411SOL    HW130695   0.411   4.603   7.588  0.8423  0.9162  0.8672
 6411SOL    HW230696   0.462   0.011   7.537  0.7165 -0.5003 -0.1526
 6412SOL     OW30697   0.436   0.172   5.344 -0.5800  0.0880 -0.1892
 6412SOL    HW130698   0.403   0.092   5.386 -1.0496  1.5508  2.2036
 6412SOL    HW230699   0.369   0.197   5.280  0.5159  0.3428 -1.2308
 6413SOL     OW30700   2.182   4.361   8.184  0.1723 -0.2954 -0.2176
 6413SOL    HW130701   2.117   4.309   8.232  0.1284  1.4593  1.6526
 6413SOL    HW230702   2.207   4.412   8.262 -1.2543  0.9356 -0.5618
 6414SOL     OW30703   1.471   1.793   7.049 -0.3863 -0.0020 -0.2147
 6414SOL    HW130704   1.392   1.827   7.093 -0.4424  2.4782 -2.2388
 6414SOL    HW230705   1.458   1.698   7.050  1.6172 -0.2540  0.8334
 6415SOL     OW30706   4.181   4.351   0.449  0.2477 -0.0855  0.5152
 6415SOL    HW130707   4.197   4.270   0.497 -0.4437 -0.6166 -0.1545
 6415SOL    HW230708   4.119   4.323   0.381 -0.2965  0.7940  0.6533
 6416SOL     OW30709   3.758   2.081  16.804  0.1757  0.3753 -0.3354
 6416SOL    HW130710   3.776   1.993  16.770  0.5480  0.5483 -0.5740
 6416SOL    HW230711   3.841   2.128  16.802  0.7618 -0.5962  0.7591
 6417SOL     OW30712   1.114   3.774   5.528  0.4666 -0.2123  0.4499
 6417SOL    HW130713   1.129   3.751   5.436  1.8204 -0.6768  0.7875
 6417SOL    HW230714   1.110   3.869   5.519  2.6305  0.1501  3.4399
 6418SOL     OW30715   0.230   3.266  14.946  0.4129 -0.3043  0.7473
 6418SOL    HW130716   0.243   3.340  14.888 -1.0703 -0.4078  0.2832
 6418SOL    HW230717   0.176   3.204  14.896  0.4644  0.9878 -0.8667
 6419SOL     OW30718   1.238   0.456   9.272 -0.3902 -0.1314 -0.2607
 6419SOL    HW130719   1.250   0.550   9.263  1.7951 -0.6383 -2.6729
 6419SOL    HW230720   1.301   0.430   9.340  2.2370 -1.2573 -3.1362
 6420SOL     OW30721   1.094   3.570  16.246 -0.2489 -0.0336  0.5613
 6420SOL    HW130722   1.020   3.519  16.212  0.0214 -0.9482  1.3386
 6420SOL    HW230723   1.136   3.513  16.311 -2.0795 -1.5399  0.4171
 6421SOL     OW30724   1.078   1.137   0.416 -0.1772 -0.1538  0.3992
 6421SOL    HW130725   1.171   1.146   0.398 -0.1961  1.2850  1.0508
 6421SOL    HW230726   1.084   1.050   0.456 -2.2993 -1.2624 -1.6658
 6422SOL     OW30727   2.504   4.259   7.090  0.3998 -0.0510 -0.7799
 6422SOL    HW130728   2.588   4.298   7.065  0.8972 -1.2517 -0.9672
 6422SOL    HW230729   2.445   4.335   7.088  1.1411  0.5628  0.6764
 6423SOL     OW30730   3.428   3.142   3.727 -0.5634  0.7901  0.0020
 6423SOL    HW130731   3.366   3.138   3.654 -0.6959 -2.8153  0.2964
 6423SOL    HW230732   3.404   3.225   3.767 -0.7304  0.4463  0.6142
 6424SOL     OW30733   1.652   0.448  15.534 -0.2809 -0.3636  0.9257
 6424SOL    HW130734   1.664   0.540  15.556 -1.1023 -0.6887  2.7650
 6424SOL    HW230735   1.702   0.450  15.452 -2.0199 -1.7134 -0.1815
 6425SOL     OW30736   3.193   2.738   0.380  0.1415 -0.2540 -0.0108
 6425SOL    HW130737   3.238   2.811   0.422  0.9434 -0.9924  0.4119
 6425SOL    HW230738   3.239   2.730   0.296  2.1063  0.5987  0.9726
 6426SOL     OW30739   1.435   2.818   5.508  0.1652 -0.5329  0.7756
 6426SOL    HW130740   1.375   2.768   5.563 -0.8825  0.1487  0.2595
 6426SOL    HW230741   1.447   2.750   5.442  0.8967  2.7923 -2.5600
 6427SOL     OW30742   4.215   0.492   7.532  0.0964 -0.0412 -0.1140
 6427SOL    HW130743   4.161   0.570   7.550  0.1513 -0.0928  0.2746
 6427SOL    HW230744   4.215   0.459   7.622 -0.0543  1.3053  0.3832
 6428SOL     OW30745   1.825   1.157   3.887  1.0396 -0.2699 -0.0385
 6428SOL    HW130746   1.829   1.231   3.949  0.0932  1.9266 -2.5957
 6428SOL    HW230747   1.913   1.120   3.894  0.8889 -0.7434 -0.7234
 6429SOL     OW30748   1.785   0.611   8.972 -0.3735  0.1594 -0.3143
 6429SOL    HW130749   1.689   0.605   8.973 -0.4933  1.2880 -2.8963
 6429SOL    HW230750   1.806   0.540   9.032 -2.2020  0.0359  0.1716
 6430SOL     OW30751   4.707   4.691   4.001 -0.2581  0.0635  0.1960
 6430SOL    HW130752   4.677   0.027   3.934 -0.9661  0.6758  1.0722
 6430SOL    HW230753   0.014   0.017   4.075  1.7769 -1.0525  0.0658
 6431SOL     OW30754   2.799   2.902  16.374  0.2257  0.0448 -0.8436
 6431SOL    HW130755   2.781   2.981  16.424 -0.0178 -0.8786  0.5438
 6431SOL    HW230756   2.738   2.915  16.302 -0.5821  1.3460  0.0826
 6432SOL     OW30757   0.018   1.239   4.863  0.2218  0.3221 -0.5333
 6432SOL    HW130758   4.691   1.210   4.788  1.5536 -2.1017 -0.5177
 6432SOL    HW230759   0.061   1.158   4.892 -0.6320 -0.6922 -2.0916
 6433SOL     OW30760   1.718   2.996   7.605 -0.6781  0.3077  0.0225
 6433SOL    HW130761   1.668   3.076   7.586 -0.4508  1.2344  3.3179
 6433SOL    HW230762   1.739   2.981   7.513  1.0406 -1.1400  0.6593
 6434SOL     OW30763   2.651   0.824  15.159  0.2407 -0.4138 -0.0694
 6434SOL    HW130764   2.598   0.900  15.185  2.5442  1.1939 -0.0403
 6434SOL    HW230765   2.701   0.870  15.091  0.7546  0.0369  0.6129
 6435SOL     OW30766   3.036   1.445   3.863  0.2719 -0.6003  0.7019
 6435SOL    HW130767   3.001   1.393   3.935 -0.8514 -1.0196 -0.1439
 6435SOL    HW230768   3.044   1.376   3.798  0.9509 -1.5844  1.8278
 6436SOL     OW30769   0.895   2.739   4.816 -0.1594 -0.2782 -0.2764
 6436SOL    HW130770   0.824   2.682   4.845  0.3894 -0.1681  1.2803
 6436SOL    HW230771   0.936   2.777   4.894 -0.7618  0.9546 -0.5600
 6437SOL     OW30772   3.155   1.104   6.657 -0.1409 -0.1481 -0.6524
 6437SOL    HW130773   3.066   1.132   6.635 -0.2311  0.0577 -0.0050
 6437SOL    HW230774   3.132   1.016   6.687  0.0006 -0.9225 -2.7979
 6438SOL     OW30775   4.327   4.574   7.438  0.3025 -0.3139  0.2427
 6438SOL    HW130776   4.248   4.627   7.447  0.2179 -0.0332 -2.2270
 6438SOL    HW230777   4.373   4.635   7.380  0.7296 -0.5397  0.3384
 6439SOL     OW30778   2.689   0.883   3.195  0.2139 -0.1194  0.5189
 6439SOL    HW130779   2.662   0.907   3.284  1.9768  0.5131  0.8848
 6439SOL    HW230780   2.783   0.897   3.206  0.2919 -1.1258  1.2072
 6440SOL     OW30781   0.148   3.977   5.226  0.6777 -0.2204  1.0447
 6440SOL    HW130782   0.088   3.973   5.300  0.5759 -2.0122  0.8709
 6440SOL    HW230783   0.092   4.031   5.170  0.8973 -1.3504 -0.2839
 6441SOL     OW30784   1.047   2.684  17.454  0.2569  1.0384 -0.0348
 6441SOL    HW130785   1.040   2.648  17.542  2.9139 -3.0075 -1.5168
 6441SOL    HW230786   1.130   2.657  17.414 -0.8758  0.0692 -1.7764
 6442SOL     OW30787   2.118   1.867   2.404  0.6376  0.2499  0.4930
 6442SOL    HW130788   2.047   1.929   2.422 -1.0323 -1.0160 -1.7527
 6442SOL    HW230789   2.081   1.786   2.439 -0.4507  0.0521 -1.0987
 6443SOL     OW30790   1.723   4.538  17.515 -0.0692  0.4565 -0.2322
 6443SOL    HW130791   1.666   4.512  17.443  0.7255  2.5798 -1.6335
 6443SOL    HW230792   1.808   4.505  17.487 -0.2030 -0.7940  0.8511
 6444SOL     OW30793   3.227   0.355   2.191  0.9920  0.0670  0.0303
 6444SOL    HW130794   3.236   0.324   2.101  2.7702 -1.1771  0.6254
 6444SOL    HW230795   3.257   0.276   2.236  1.6309  1.0336  1.3400
 6445SOL     OW30796   0.205   4.636   8.245  0.5611 -0.5380  0.1317
 6445SOL    HW130797   0.232   4.684   8.167 -0.0232  0.8751  0.8183
 6445SOL    HW230798   0.140   4.697   8.278  1.2950 -0.2413  1.0211
 6446SOL     OW30799   1.830   0.308   4.342 -0.3320  0.6165 -0.0152
 6446SOL    HW130800   1.822   0.346   4.255 -1.7825  1.7900  0.6349
 6446SOL    HW230801   1.882   0.229   4.326 -1.1023  0.2866 -0.8558
 6447SOL     OW30802   2.473   2.800   2.906  0.1659  0.0686  0.4075
 6447SOL    HW130803   2.525   2.736   2.955  2.3629  0.4777 -1.3536
 6447SOL    HW230804   2.512   2.800   2.818 -0.7526 -1.0146  0.0029
 6448SOL     OW30805   2.101   0.092   2.375 -1.2743 -0.5039 -0.5900
 6448SOL    HW130806   2.035   0.044   2.424 -1.0535 -2.0409 -1.8072
 6448SOL    HW230807   2.153   0.020   2.339 -0.6384 -0.6765  0.6600
 6449SOL     OW30808   0.305   0.280  16.549  0.0406 -0.0584  1.2673
 6449SOL    HW130809   0.237   0.285  16.482 -0.0339  1.7216  1.4658
 6449SOL    HW230810   0.252   0.272  16.628  2.1003  3.1752  2.9901
 6450SOL     OW30811   3.053   3.100   6.844  0.0207  0.0420 -0.4764
 6450SOL    HW130812   3.116   3.168   6.867 -1.2738  0.6484  1.2854
 6450SOL    HW230813   3.017   3.065   6.926 -0.0474 -2.9034 -1.7397
 6451SOL     OW30814   0.503   1.541   7.028  0.0131  0.0837  0.7018
 6451SOL    HW130815   0.507   1.629   7.065  2.2798 -0.0487  0.7557
 6451SOL    HW230816   0.486   1.574   6.940  0.2046 -1.9875 -0.1082
 6452SOL     OW30817   0.339   3.516  14.867  0.6875 -0.1210 -0.1796
 6452SOL    HW130818   0.392   3.466  14.805  1.3314  1.0171 -0.5485
 6452SOL    HW230819   0.305   3.592  14.821 -0.5693 -0.1204  0.7489
 6453SOL     OW30820   0.875   3.659   5.450  1.0841 -0.4948  0.2187
 6453SOL    HW130821   0.875   3.617   5.536 -0.5005 -1.3622 -0.1942
 6453SOL    HW230822   0.942   3.723   5.472  1.0567 -0.1338 -0.7448
 6454SOL     OW30823   0.891   4.644   1.559 -0.1460  0.0285 -0.4460
 6454SOL    HW130824   0.854   4.635   1.471  0.7433 -0.0334 -0.8206
 6454SOL    HW230825   0.833   4.710   1.596  0.6393  1.4925 -1.8332
 6455SOL     OW30826   2.102   1.643   0.800 -0.3497  0.6898  0.1151
 6455SOL    HW130827   2.112   1.591   0.880 -2.1279  0.6264  0.3003
 6455SOL    HW230828   2.011   1.674   0.795  0.2995  2.6565  0.3851
 6456SOL     OW30829   0.736   2.881   5.278 -0.2859 -0.7024 -0.6001
 6456SOL    HW130830   0.717   2.813   5.342  0.0220 -0.3763 -0.1587
 6456SOL    HW230831   0.823   2.915   5.299 -0.6833  1.6623 -2.7429
 6457SOL     OW30832   1.645   0.031   6.562  0.5188  0.3183 -0.5982
 6457SOL    HW130833   1.669   4.709   6.642 -0.1180 -1.9498 -1.7440
 6457SOL    HW230834   1.706   0.105   6.563  1.7215 -0.6774 -0.3522
 6458SOL     OW30835   1.501   2.302   0.683  0.1576 -0.1752  0.1634
 6458SOL    HW130836   1.568   2.260   0.628 -0.4496 -1.4777  0.4119
 6458SOL    HW230837   1.536   2.283   0.770 -0.5002  1.5464  0.8016
 6459SOL     OW30838   4.477   3.772   5.875 -0.2127 -0.4217  0.1059
 6459SOL    HW130839   4.485   3.677   5.879 -0.0358 -0.3233  2.2234
 6459SOL    HW230840   4.563   3.805   5.903 -0.2311 -1.2216  1.1058
 6460SOL     OW30841   4.247   2.164   5.138 -0.3112  0.2779  0.2643
 6460SOL    HW130842   4.216   2.254   5.140  0.5402  0.5402  2.5552
 6460SOL    HW230843   4.289   2.159   5.052  3.2750 -0.7372  2.0344
 6461SOL     OW30844   1.525   4.043  13.684 -0.3575 -0.4992  0.0360
 6461SOL    HW130845   1.520   3.972  13.748 -2.1632 -0.4687 -0.0699
 6461SOL    HW230846   1.608   4.020  13.643 -0.4168  0.3130 -0.5502
 6462SOL     OW30847   2.671   2.134   9.183  0.4247 -0.5200 -0.4950
 6462SOL    HW130848   2.664   2.224   9.151  3.4083 -0.0022  0.3000
 6462SOL    HW230849   2.579   2.111   9.171  0.5766 -2.3644  1.8343
 6463SOL     OW30850   0.547   4.294   8.607 -0.3341 -0.0761  0.0702
 6463SOL    HW130851   0.460   4.333   8.608 -0.0883  0.5087 -2.2917
 6463SOL    HW230852   0.543   4.224   8.672 -1.9546 -0.4708 -0.4675
 6464SOL     OW30853   0.222   0.642   6.851  0.4074 -0.2247  0.1708
 6464SOL    HW130854   0.250   0.728   6.884 -3.0592  1.1333 -0.3780
 6464SOL    HW230855   0.128   0.654   6.839  0.2551 -1.0579  0.5532
 6465SOL     OW30856   2.662   0.919  16.111  0.0335  1.0913 -0.0970
 6465SOL    HW130857   2.688   0.969  16.188 -0.6514 -1.5783  1.8399
 6465SOL    HW230858   2.572   0.942  16.088 -1.2193 -0.6726  2.9790
 6466SOL     OW30859   0.417   1.764   7.248  0.0933 -0.4706 -0.3293
 6466SOL    HW130860   0.393   1.856   7.239  2.1255  0.1127  0.1666
 6466SOL    HW230861   0.483   1.756   7.317  1.9071  2.0761 -1.7972
 6467SOL     OW30862   4.630   2.120   7.809 -0.3888 -0.3096  0.0472
 6467SOL    HW130863   4.657   2.154   7.895  1.6410 -0.1274 -0.6579
 6467SOL    HW230864   4.554   2.068   7.835 -0.5458  1.4244  3.0149
 6468SOL     OW30865   3.177   1.236   9.211  0.7304 -0.5216 -0.2129
 6468SOL    HW130866   3.163   1.290   9.288 -0.6944 -1.6331  0.3060
 6468SOL    HW230867   3.216   1.298   9.149  0.1183 -2.3175 -2.4281
 6469SOL     OW30868   3.298   3.014   8.787  0.2963 -0.0706 -0.1150
 6469SOL    HW130869   3.302   2.921   8.808 -2.2838 -0.2204 -0.3156
 6469SOL    HW230870   3.203   3.018   8.785  0.3483  0.9426 -0.7207
 6470SOL     OW30871   3.119   2.110  13.298 -0.4015  0.4706  0.1124
 6470SOL    HW130872   3.204   2.150  13.317 -0.6221  0.0254  2.1208
 6470SOL    HW230873   3.103   2.067  13.382  2.4492 -0.8560 -0.0174
 6471SOL     OW30874   3.603   0.503   2.423  0.2704  0.4323  0.3845
 6471SOL    HW130875   3.585   0.579   2.367 -0.5208 -0.5892 -0.7673
 6471SOL    HW230876   3.524   0.513   2.476  0.1304  2.5967 -0.2448
 6472SOL     OW30877   2.924   1.678   0.841  0.8568 -0.4530 -0.0885
 6472SOL    HW130878   2.879   1.602   0.878  0.8351 -0.6648 -0.5522
 6472SOL    HW230879   2.858   1.748   0.840  1.5739  0.2100 -0.6574
 6473SOL     OW30880   2.451   3.765   1.115 -0.4828 -0.0026  0.4390
 6473SOL    HW130881   2.532   3.803   1.150 -0.5005 -0.4881  1.0184
 6473SOL    HW230882   2.457   3.812   1.032  1.1440 -1.0487 -0.0398
 6474SOL     OW30883   1.495   2.948   2.844  0.2335 -0.4291  0.0760
 6474SOL    HW130884   1.409   2.906   2.846  0.0327  0.0812  1.8623
 6474SOL    HW230885   1.498   3.000   2.764 -0.0206 -1.8982 -0.8848
 6475SOL     OW30886   4.431   0.882  15.064  0.1906 -0.1782 -0.2014
 6475SOL    HW130887   4.422   0.793  15.096  0.0287 -0.6399 -1.5570
 6475SOL    HW230888   4.344   0.904  15.032  0.4742  1.1675 -0.0823
 6476SOL     OW30889   4.058   4.007   8.473 -0.7517  0.0199  0.1632
 6476SOL    HW130890   4.014   3.972   8.395  0.3103 -1.2347  0.1317
 6476SOL    HW230891   4.080   4.097   8.448 -0.2368  0.0973  0.8921
 6477SOL     OW30892   2.168   1.358   2.784  0.2622 -0.7725 -0.4337
 6477SOL    HW130893   2.254   1.344   2.824 -1.3752 -2.3716  2.4610
 6477SOL    HW230894   2.192   1.422   2.717  0.6196 -1.6839 -1.1833
 6478SOL     OW30895   0.632   3.634  14.700 -0.3183  0.4912  0.4945
 6478SOL    HW130896   0.658   3.693  14.629 -0.9624 -0.3617 -0.4360
 6478SOL    HW230897   0.537   3.633  14.691 -0.4252  0.8051  1.6282
 6479SOL     OW30898   3.042   3.601   2.758  0.1660  0.1633 -0.3250
 6479SOL    HW130899   3.035   3.696   2.762  0.9509  0.2837 -1.7873
 6479SOL    HW230900   3.016   3.577   2.669  0.4519  0.3303 -0.4528
 6480SOL     OW30901   1.078   0.327   5.005  0.5691  0.2775  0.2936
 6480SOL    HW130902   1.002   0.360   4.958 -0.4233 -1.2919  0.7989
 6480SOL    HW230903   1.116   0.407   5.041 -0.1492  0.0123  1.6085
 6481SOL     OW30904   2.609   2.609  16.294  0.1920  0.4590  0.4577
 6481SOL    HW130905   2.590   2.631  16.202 -2.3767 -1.3633  0.5613
 6481SOL    HW230906   2.563   2.676  16.344 -1.4781 -0.9733  0.8331
 6482SOL     OW30907   4.151   3.550   8.670  0.0375  0.3598 -0.1518
 6482SOL    HW130908   4.158   3.458   8.696 -2.6991 -0.5141 -2.5229
 6482SOL    HW230909   4.067   3.570   8.710 -0.2759  0.5489 -0.9006
 6483SOL     OW30910   2.597   4.364   9.959 -0.3063 -0.1697  0.9896
 6483SOL    HW130911   2.517   4.389   9.913  0.5945  0.6013 -0.1412
 6483SOL    HW230912   2.564   4.294  10.015 -0.6513  0.0327  1.0426
 6484SOL     OW30913   0.532   4.179   8.354 -0.3521 -0.0464 -0.1451
 6484SOL    HW130914   0.440   4.183   8.379 -0.5806 -3.9945 -0.3332
 6484SOL    HW230915   0.565   4.254   8.402 -1.4926 -0.8532  1.9111
 6485SOL     OW30916   3.086   2.340   2.590  0.3560  0.0759 -0.1716
 6485SOL    HW130917   3.071   2.281   2.517  2.7925 -0.7236 -0.0439
 6485SOL    HW230918   3.095   2.419   2.537  1.8250 -1.0231 -1.5395
 6486SOL     OW30919   4.034   3.581  17.360 -0.7061  0.3118 -0.1241
 6486SOL    HW130920   4.103   3.615  17.302  2.3018 -1.5585  2.3410
 6486SOL    HW230921   3.966   3.584  17.293 -1.1407  3.0799  0.4319
 6487SOL     OW30922   4.241   0.341   8.696 -0.2195  0.5329 -0.7055
 6487SOL    HW130923   4.291   0.270   8.737 -0.4694  1.3885  1.0591
 6487SOL    HW230924   4.276   0.422   8.733 -0.6414 -0.8943  2.8144
 6488SOL     OW30925   4.061   4.572  16.367  0.4036 -0.1228 -0.4142
 6488SOL    HW130926   4.061   4.562  16.463 -1.1280  1.4404 -0.2472
 6488SOL    HW230927   3.971   4.598  16.349  0.4919  1.1165  0.9290
 6489SOL     OW30928   0.699   2.331   1.164  0.5890  0.4833 -0.7454
 6489SOL    HW130929   0.785   2.337   1.206 -0.2646  4.3721  0.5398
 6489SOL    HW230930   0.661   2.407   1.209  1.2234 -0.4277  1.3085
 6490SOL     OW30931   3.188   2.941   7.181  0.2649 -0.2016 -0.2415
 6490SOL    HW130932   3.121   2.999   7.219  1.7136  1.4954 -0.2661
 6490SOL    HW230933   3.263   3.000   7.190 -0.1993  0.2365  0.7701
 6491SOL     OW30934   4.138   0.291   3.228 -0.4693  0.5832  0.5276
 6491SOL    HW130935   4.159   0.199   3.243 -1.4327  0.8707  3.5767
 6491SOL    HW230936   4.177   0.306   3.142 -1.0490 -0.2113  0.1293
 6492SOL     OW30937   3.664   4.518  15.629 -0.3674 -0.1778 -0.2264
 6492SOL    HW130938   3.650   4.611  15.646  0.1194  0.1340 -1.5184
 6492SOL    HW230939   3.645   4.508  15.536 -0.3265  1.8006 -0.4391
 6493SOL     OW30940   1.280   1.961   1.895  0.7029  0.0724 -0.0747
 6493SOL    HW130941   1.221   1.887   1.902 -0.2359  0.8339  0.0315
 6493SOL    HW230942   1.360   1.926   1.935  0.6037  0.9910  0.9319
 6494SOL     OW30943   3.719   4.366   7.945 -0.2613 -0.1810 -0.2880
 6494SOL    HW130944   3.649   4.329   7.891 -0.2235  0.4376 -0.7605
 6494SOL    HW230945   3.798   4.330   7.905  1.3701  1.8713  1.0913
 6495SOL     OW30946   2.477   0.244  15.916  0.3811 -0.1770  0.3480
 6495SOL    HW130947   2.507   0.316  15.971 -1.3878 -1.1391  2.6121
 6495SOL    HW230948   2.534   0.172  15.944  3.1838  2.0258  0.2562
 6496SOL     OW30949   2.280   2.643   2.305 -0.4274  0.1947  0.3052
 6496SOL    HW130950   2.236   2.726   2.323 -0.2792  0.2971  0.1907
 6496SOL    HW230951   2.225   2.577   2.347 -2.0795  1.1439 -0.3318
 6497SOL     OW30952   3.175   4.115   6.453 -0.0228 -0.0371 -0.0829
 6497SOL    HW130953   3.145   4.112   6.544  2.7284  2.0899  0.9204
 6497SOL    HW230954   3.125   4.191   6.424 -0.5451 -0.8916 -1.3971
 6498SOL     OW30955   1.684   3.660   9.895 -0.1294  0.0410 -0.4654
 6498SOL    HW130956   1.767   3.618   9.921 -0.1594  0.5539  0.4550
 6498SOL    HW230957   1.622   3.677   9.965  1.1514  0.3269  0.5928
 6499SOL     OW30958   3.797   1.640   3.479  0.2155 -0.0023 -0.1402
 6499SOL    HW130959   3.766   1.551   3.463 -1.1698  0.3315  0.7368
 6499SOL    HW230960   3.781   1.652   3.573 -2.5098  0.0080 -0.6255
 6500SOL     OW30961   2.588   0.076   2.247 -0.5594 -0.2127 -0.5730
 6500SOL    HW130962   2.563   0.003   2.190 -1.4456  1.3130 -2.1451
 6500SOL    HW230963   2.538   0.149   2.210  0.4851  0.9168  0.2572
 6501SOL     OW30964   0.128   0.586   5.641  0.4833  0.0233 -0.1762
 6501SOL    HW130965   0.211   0.559   5.601 -0.3623 -1.7756 -0.7261
 6501SOL    HW230966   0.086   0.504   5.668 -1.4665  1.7589  2.0345
 6502SOL     OW30967   4.643   3.505   7.296 -0.6237  0.1675  0.8064
 6502SOL    HW130968   4.600   3.579   7.253  0.8335  0.2672 -0.5021
 6502SOL    HW230969   4.672   3.550   7.374 -1.7021  1.4452  0.4676
 6503SOL     OW30970   3.383   0.667  16.824 -0.1268 -0.0282 -0.1835
 6503SOL    HW130971   3.309   0.725  16.805  1.0186  0.0605 -4.4897
 6503SOL    HW230972   3.444   0.707  16.762  0.6765 -0.6288  0.2231
 6504SOL     OW30973   3.419   0.162  12.322 -0.0243 -0.3718  0.3033
 6504SOL    HW130974   3.344   0.211  12.356 -1.3714 -1.2050 -1.4698
 6504SOL    HW230975   3.454   0.218  12.253  1.4672 -3.0795 -1.1396
 6505SOL     OW30976   4.321   0.216   8.091  0.6756  0.1518  0.2757
 6505SOL    HW130977   4.277   0.151   8.037 -0.7331  2.6144 -1.5486
 6505SOL    HW230978   4.254   0.232   8.157  1.8193  1.9575  0.9856
 6506SOL     OW30979   2.139   3.575   7.093 -0.0355 -0.1818 -0.5093
 6506SOL    HW130980   2.211   3.573   7.157  0.6133 -1.3678 -1.2630
 6506SOL    HW230981   2.081   3.648   7.113  0.8670  0.5811 -0.6572
 6507SOL     OW30982   3.230   1.925   8.189  0.3936 -0.1759 -0.0609
 6507SOL    HW130983   3.174   1.952   8.116  0.5757 -1.7870 -0.7972
 6507SOL    HW230984   3.202   1.974   8.266 -0.7499  0.8492 -1.1238
 6508SOL     OW30985   4.210   3.160   1.677  0.1590 -0.1647 -0.2163
 6508SOL    HW130986   4.230   3.230   1.739  0.7081 -2.0016  1.6598
 6508SOL    HW230987   4.218   3.080   1.729  1.0238 -0.1782 -0.3820
 6509SOL     OW30988   4.007   3.091  12.319  0.3798  0.3463 -0.5700
 6509SOL    HW130989   4.010   3.015  12.261  0.2570 -0.0016 -0.1138
 6509SOL    HW230990   3.929   3.136  12.286  0.3945  0.9634  0.2416
 6510SOL     OW30991   0.854   4.702   5.117  0.1786  0.0592 -0.7775
 6510SOL    HW130992   0.843   4.639   5.047  0.4659 -0.4275 -0.3809
 6510SOL    HW230993   0.762   4.722   5.135  0.7184  1.4453  0.4392
 6511SOL     OW30994   1.423   0.917   4.239 -0.4573  0.2545 -0.6123
 6511SOL    HW130995   1.352   0.969   4.201 -1.7177 -1.0112  0.0202
 6511SOL    HW230996   1.395   0.915   4.331 -1.5442 -0.7569 -0.9661
 6512SOL     OW30997   0.385   1.224   4.774 -0.1317  0.0112  0.1650
 6512SOL    HW130998   0.330   1.297   4.804 -0.1944 -0.1926  0.5398
 6512SOL    HW230999   0.349   1.210   4.686  1.0099  3.4658 -0.8906
 6513SOL     OW31000   2.106   2.159  16.997  0.0786  0.4976 -0.6641
 6513SOL    HW131001   2.029   2.101  17.000  0.1757  0.3942 -0.1500
 6513SOL    HW231002   2.150   2.129  16.917  0.4088 -1.4730  0.2471
 6514SOL     OW31003   0.322   1.057   4.126  0.0185 -0.4419 -0.1028
 6514SOL    HW131004   0.247   1.108   4.097  1.4527  1.1399 -1.0262
 6514SOL    HW231005   0.390   1.125   4.128 -1.1484  0.7560 -1.2403
 6515SOL     OW31006   1.841   2.262   7.156 -0.4911 -0.4330  0.1004
 6515SOL    HW131007   1.867   2.198   7.089 -2.8544 -1.1129 -0.1575
 6515SOL    HW231008   1.798   2.208   7.223 -2.0630  1.6577  0.7526
 6516SOL     OW31009   4.000   4.193   5.230  0.0364 -0.4173  0.0829
 6516SOL    HW131010   3.936   4.177   5.299  2.2923 -0.9185  2.0908
 6516SOL    HW231011   3.959   4.212   5.146  0.7747  3.7003  0.6344
 6517SOL     OW31012   2.461   0.448   8.747  0.3478 -0.0039  0.4833
 6517SOL    HW131013   2.405   0.525   8.756  1.0630  0.5893 -0.1548
 6517SOL    HW231014   2.413   0.387   8.804 -0.8843  1.4167  0.9570
 6518SOL     OW31015   1.829   3.266   1.854  0.3281 -0.3510 -0.3881
 6518SOL    HW131016   1.771   3.331   1.815  0.8353  1.5680  2.0856
 6518SOL    HW231017   1.777   3.197   1.897 -0.6370  0.2844 -0.5434
 6519SOL     OW31018   0.904   4.051   7.979  0.1973 -0.1875 -0.1931
 6519SOL    HW131019   0.940   4.037   8.066 -0.5786 -0.5867  0.0668
 6519SOL    HW231020   0.865   3.965   7.964  2.6061 -1.1512 -0.8572
 6520SOL     OW31021   4.267   0.013   2.387 -0.1005  0.0757  0.1783
 6520SOL    HW131022   4.267   0.072   2.462  1.3436 -0.3320  0.4979
 6520SOL    HW231023   4.362   4.722   2.382 -0.1457  0.4004 -1.7164
 6521SOL     OW31024   4.214   0.100  15.189 -0.3477 -0.0567 -0.2303
 6521SOL    HW131025   4.139   0.130  15.240  1.1870 -1.5811  2.9401
 6521SOL    HW231026   4.172   0.015  15.174  0.1329 -0.4572  0.6844
 6522SOL     OW31027   1.380   1.769   5.455 -0.2646  0.3000 -0.4604
 6522SOL    HW131028   1.320   1.722   5.513  0.4050  0.7443  0.5964
 6522SOL    HW231029   1.334   1.824   5.391  2.2619  2.5149 -0.3719
 6523SOL     OW31030   1.095   1.905   8.479  0.1623  0.6423 -0.1774
 6523SOL    HW131031   1.075   1.828   8.427  1.3432  1.4179 -1.7987
 6523SOL    HW231032   1.025   1.963   8.450  0.3512  2.6761  3.4647
 6524SOL     OW31033   4.605   1.698   7.808 -0.2178  0.0731  0.3431
 6524SOL    HW131034   4.523   1.728   7.848 -0.5033 -0.1261 -0.0890
 6524SOL    HW231035   4.583   1.606   7.794 -0.7285 -0.2041  2.8664
 6525SOL     OW31036   0.353   4.207   3.970 -0.4419 -0.2310 -0.0550
 6525SOL    HW131037   0.263   4.184   3.995 -1.4199  3.0126 -0.4713
 6525SOL    HW231038   0.350   4.303   3.972 -2.6144 -0.3196  0.7895
 6526SOL     OW31039   2.469   0.033   2.905 -1.0508  0.3812  0.3896
 6526SOL    HW131040   2.466   4.705   2.825 -1.7728 -1.1364  1.4252
 6526SOL    HW231041   2.411   0.106   2.881 -1.7604 -0.7851 -1.4575
 6527SOL     OW31042   1.888   2.011   7.008  0.2785  0.5338 -0.0161
 6527SOL    HW131043   1.952   1.957   6.961 -2.6337 -1.9567 -1.1478
 6527SOL    HW231044   1.808   1.961   6.995  0.7581  0.3355 -2.1810
 6528SOL     OW31045   2.080   2.489   8.928 -0.0528 -0.1155 -0.8436
 6528SOL    HW131046   1.999   2.509   8.881 -0.4058 -0.1477 -0.2553
 6528SOL    HW231047   2.111   2.577   8.949 -2.6687  0.8724 -1.0583
 6529SOL     OW31048   2.199   3.786  11.070 -0.4619  0.2530  0.4420
 6529SOL    HW131049   2.164   3.697  11.079 -2.7421  1.1467  0.5821
 6529SOL    HW231050   2.130   3.824  11.015 -0.9081 -1.8822 -0.5049
 6530SOL     OW31051   0.911   2.535   7.316 -0.0881 -0.4069  0.0471
 6530SOL    HW131052   1.005   2.549   7.327 -0.1667 -0.4748  0.8418
 6530SOL    HW231053   0.876   2.577   7.395  1.8545 -0.5686  0.9750
 6531SOL     OW31054   4.042   1.393  17.014 -0.1742 -0.3892  0.2228
 6531SOL    HW131055   4.108   1.348  16.961  0.4288  0.0583  0.5888
 6531SOL    HW231056   3.962   1.355  16.978 -0.6770  1.0921 -0.2230
 6532SOL     OW31057   3.650   4.080  10.357  0.2956 -0.1388  0.0204
 6532SOL    HW131058   3.715   4.134  10.401 -0.1321 -2.4263  3.4720
 6532SOL    HW231059   3.694   4.048  10.278 -0.2754 -2.8555  0.7958
 6533SOL     OW31060   4.088   0.822   7.099  0.3897 -0.8319  0.3425
 6533SOL    HW131061   4.050   0.861   7.020 -0.2850 -1.3691  0.4084
 6533SOL    HW231062   4.178   0.855   7.103  0.0068  0.2747 -0.0760
 6534SOL     OW31063   4.597   3.545  15.670  0.1453  0.4035 -0.6319
 6534SOL    HW131064   4.534   3.594  15.617  1.7184  1.9413 -1.0535
 6534SOL    HW231065   4.633   3.614  15.724 -1.7387  1.0909 -0.2505
 6535SOL     OW31066   3.300   1.487   1.355  0.0177  0.2298 -0.2917
 6535SOL    HW131067   3.308   1.397   1.385  3.8262  0.2268 -1.3465
 6535SOL    HW231068   3.382   1.523   1.387 -0.7826  0.0377  2.0100
 6536SOL     OW31069   1.439   1.717   2.010  0.3855 -0.0301 -0.2015
 6536SOL    HW131070   1.402   1.646   2.060 -1.2505 -1.2902 -3.2109
 6536SOL    HW231071   1.445   1.683   1.921 -2.2897 -3.7052  1.0577
 6537SOL     OW31072   2.577   1.862   2.677  0.3519  0.8338  0.5198
 6537SOL    HW131073   2.645   1.928   2.664  1.3714 -0.4718 -0.7336
 6537SOL    HW231074   2.585   1.813   2.596 -1.7296  0.2651  0.6502
 6538SOL     OW31075   3.724   1.016   6.990  0.4187  0.0790  0.1849
 6538SOL    HW131076   3.742   1.020   7.084  1.4471 -0.2725 -0.0021
 6538SOL    HW231077   3.670   0.937   6.983  1.3851 -0.7315  1.7713
 6539SOL     OW31078   4.297   3.847   6.498  0.2831 -0.3668 -0.4679
 6539SOL    HW131079   4.300   3.942   6.486 -2.3500 -0.1845  0.2280
 6539SOL    HW231080   4.309   3.800   6.415 -0.8074  0.0196 -0.8378
 6540SOL     OW31081   0.107   1.004   8.997  0.3935  0.0173 -0.1924
 6540SOL    HW131082   0.150   0.968   8.919 -2.0664 -0.2270 -1.4256
 6540SOL    HW231083   0.081   0.927   9.049  1.6432 -0.2732  0.0127
 6541SOL     OW31084   2.589   1.004   4.195  0.1992  0.9070 -0.1143
 6541SOL    HW131085   2.522   0.936   4.196 -0.2750  1.3851  1.8104
 6541SOL    HW231086   2.658   0.967   4.140  0.4651  0.9237  0.2129
 6542SOL     OW31087   2.519   1.191   8.604 -0.1006  0.2504  0.3398
 6542SOL    HW131088   2.468   1.269   8.625  1.0147  1.2734 -0.7155
 6542SOL    HW231089   2.454   1.124   8.626 -0.7213  2.0373  3.9733
 6543SOL     OW31090   3.559   0.811   0.414 -0.1647 -0.6346 -0.5130
 6543SOL    HW131091   3.641   0.860   0.405 -0.0679 -0.7169 -0.0361
 6543SOL    HW231092   3.558   0.777   0.503  1.2337 -0.5558 -0.4594
 6544SOL     OW31093   0.463   1.312   2.465 -0.3647  0.0544 -0.1022
 6544SOL    HW131094   0.421   1.282   2.385 -0.2501  1.8532 -0.8248
 6544SOL    HW231095   0.380   1.339   2.504  0.0010  2.1433 -0.7999
 6545SOL     OW31096   0.725   4.649  10.956  0.5795  0.1256  0.9073
 6545SOL    HW131097   0.781   4.683  10.886  1.3185 -0.3947  1.2432
 6545SOL    HW231098   0.642   4.694  10.941 -0.2827 -1.2988  1.4045
 6546SOL     OW31099   0.898   1.646  13.151 -0.5483 -0.7683 -0.1414
 6546SOL    HW131100   0.956   1.682  13.084  0.2797 -2.4481 -0.3042
 6546SOL    HW231101   0.963   1.636  13.220  0.5711  1.0788 -0.9093
 6547SOL     OW31102   0.144   3.136   8.728 -0.2591  0.7821 -0.1593
 6547SOL    HW131103   0.188   3.082   8.662  0.8390 -2.0784  2.9261
 6547SOL    HW231104   0.074   3.081   8.761  0.2678 -1.6004 -3.0260
 6548SOL     OW31105   0.010   1.763   4.811 -0.2876  0.4880 -0.0654
 6548SOL    HW131106   0.085   1.816   4.784  0.8127 -0.8676  0.3410
 6548SOL    HW231107   4.695   1.729   4.731 -0.6710  0.5892  0.0815
 6549SOL     OW31108   1.340   3.968   7.814 -0.0727 -0.5244 -0.2378
 6549SOL    HW131109   1.286   4.003   7.743  0.0979 -1.5664 -0.8938
 6549SOL    HW231110   1.422   4.013   7.797 -0.4176  0.6372  1.2024
 6550SOL     OW31111   0.097   3.947  12.398  0.3173 -0.7099  0.2733
 6550SOL    HW131112   0.130   4.012  12.460 -0.5810  0.6805 -0.6804
 6550SOL    HW231113   0.040   4.008  12.351  0.2495  0.4481  1.8866
 6551SOL     OW31114   4.632   2.863   5.363  0.1152 -0.2390 -0.2172
 6551SOL    HW131115   4.714   2.828   5.397 -0.3589 -0.3390  0.8315
 6551SOL    HW231116   4.613   2.801   5.292  0.9616 -0.7847  0.0275
 6552SOL     OW31117   1.073   2.836   5.321  0.1402 -0.0749 -0.3718
 6552SOL    HW131118   1.065   2.812   5.413 -1.6528 -1.1122 -0.8157
 6552SOL    HW231119   1.120   2.919   5.335 -0.6404  0.8705 -3.2133
 6553SOL     OW31120   4.293   0.238   5.955  0.2899  0.4146 -0.0554
 6553SOL    HW131121   4.347   0.316   5.945 -0.2900  0.8963  0.6044
 6553SOL    HW231122   4.347   0.172   5.999 -1.4444  0.0394  1.4722
 6554SOL     OW31123   0.505   1.167  16.866 -0.4010 -0.0178 -0.2781
 6554SOL    HW131124   0.470   1.080  16.845 -0.5100 -0.2704  0.9365
 6554SOL    HW231125   0.480   1.174  16.958 -0.2729  0.0207 -0.2469
 6555SOL     OW31126   4.521   1.032  15.300 -0.3547 -0.2582 -0.1900
 6555SOL    HW131127   4.481   1.016  15.214  1.8321 -0.9929 -1.0717
 6555SOL    HW231128   4.491   1.119  15.325  1.1764  0.0141  0.6793
 6556SOL     OW31129   1.780   0.722   5.423  0.3889 -0.4917 -0.1792
 6556SOL    HW131130   1.817   0.740   5.509 -2.4408 -1.0676  1.1714
 6556SOL    HW231131   1.856   0.687   5.377  0.1597  1.2502 -1.8819
 6557SOL     OW31132   2.924   4.489  12.187 -0.3065 -0.1553  0.4927
 6557SOL    HW131133   2.859   4.549  12.223 -0.4950  0.0148 -0.1397
 6557SOL    HW231134   3.000   4.504  12.244  0.8261  2.2075 -1.6994
 6558SOL     OW31135   4.645   3.178  13.801 -0.0214 -0.0518 -0.2331
 6558SOL    HW131136   4.663   3.272  13.799 -2.8904  0.5194 -0.0996
 6558SOL    HW231137   4.579   3.175  13.871  0.3828 -0.5277  0.1266
 6559SOL     OW31138   2.448   2.252   0.258  0.7806 -0.1905 -0.0887
 6559SOL    HW131139   2.507   2.328   0.257  0.7719 -0.1999 -3.0709
 6559SOL    HW231140   2.364   2.293   0.279  1.5246  1.7296 -0.8065
 6560SOL     OW31141   2.378   1.619  16.600 -0.1670  0.6631  0.0856
 6560SOL    HW131142   2.363   1.677  16.525  0.3923  0.8305  0.0987
 6560SOL    HW231143   2.345   1.675  16.670 -1.4796 -0.8215  0.6418
 6561SOL     OW31144   0.705   0.936   8.895 -0.0900 -0.5346  0.1036
 6561SOL    HW131145   0.756   1.017   8.901  0.0376 -0.6878  1.1258
 6561SOL    HW231146   0.713   0.915   8.802  0.4988 -3.3938  0.7999
 6562SOL     OW31147   0.431   0.233   5.854 -0.0544  0.0250  0.6165
 6562SOL    HW131148   0.446   0.245   5.761 -0.6071  0.1652  0.5449
 6562SOL    HW231149   0.496   0.164   5.866  0.4644  0.4635  0.3497
 6563SOL     OW31150   3.847   2.596   6.644  0.1560  0.6166  0.2806
 6563SOL    HW131151   3.805   2.544   6.713  1.0051 -0.4189  0.0188
 6563SOL    HW231152   3.790   2.673   6.647 -1.4636 -0.5301 -0.7221
 6564SOL     OW31153   0.294   2.498  10.261  0.2655  0.2905  0.7481
 6564SOL    HW131154   0.383   2.533  10.263  0.3707  0.0588  0.1543
 6564SOL    HW231155   0.279   2.511  10.354 -3.1868  2.0316 -0.0720
 6565SOL     OW31156   0.816   1.137   2.236 -0.3526 -0.6175  0.4285
 6565SOL    HW131157   0.770   1.098   2.311 -2.1374 -0.1033 -0.4007
 6565SOL    HW231158   0.736   1.146   2.184 -0.1165 -1.1105 -0.0127
 6566SOL     OW31159   3.950   3.182   3.002  0.1824 -0.0744 -0.7922
 6566SOL    HW131160   4.033   3.134   2.997  0.8865  1.2062 -1.3347
 6566SOL    HW231161   3.954   3.225   2.917  2.6534 -0.6279 -0.9680
 6567SOL     OW31162   3.273   0.872  12.956 -0.0732  0.1808 -0.2548
 6567SOL    HW131163   3.199   0.840  12.904  0.4122 -0.2298 -0.6868
 6567SOL    HW231164   3.302   0.953  12.915 -1.4480  0.2274 -1.1568
 6568SOL     OW31165   4.122   0.307   8.276 -0.3432 -0.1344  0.1617
 6568SOL    HW131166   4.043   0.334   8.230  0.1800 -0.6040 -1.0224
 6568SOL    HW231167   4.086   0.262   8.353  1.1712  1.0360  1.5645
 6569SOL     OW31168   0.208   2.147   7.861  0.1307  0.4815 -0.0654
 6569SOL    HW131169   0.235   2.239   7.861 -0.6082  0.6914  0.1872
 6569SOL    HW231170   0.113   2.147   7.851  0.1449 -0.9187 -0.2762
 6570SOL     OW31171   1.993   2.030  12.747 -0.0009 -0.3517 -0.4536
 6570SOL    HW131172   2.013   1.984  12.665  0.1812 -0.3729 -0.3971
 6570SOL    HW231173   2.044   1.974  12.805  1.2882  1.2039 -0.0830
 6571SOL     OW31174   0.246   4.027   5.945 -0.2755  0.2166  0.3339
 6571SOL    HW131175   0.294   4.049   6.025  3.2170  0.8869 -1.9146
 6571SOL    HW231176   0.240   4.120   5.923  0.0495 -0.5175 -2.9143
 6572SOL     OW31177   3.615   0.507  11.123  0.0918 -0.7404 -0.0382
 6572SOL    HW131178   3.672   0.514  11.200 -0.9910  0.2468  0.6785
 6572SOL    HW231179   3.632   0.588  11.075 -1.5327 -0.1931  0.2961
 6573SOL     OW31180   1.722   2.827   6.041  0.3970 -0.7358 -0.4318
 6573SOL    HW131181   1.793   2.892   6.037  0.4018 -0.6691  0.6525
 6573SOL    HW231182   1.769   2.754   6.082 -0.2571 -1.6568 -1.3418
 6574SOL     OW31183   0.149   4.115  16.237 -0.0734  0.2146  0.2335
 6574SOL    HW131184   0.154   4.182  16.169  0.5418 -1.3895 -1.3017
 6574SOL    HW231185   0.215   4.050  16.214 -0.7656 -1.3471  2.6142
 6575SOL     OW31186   1.968   3.266   7.866  0.1431 -0.0665  0.5661
 6575SOL    HW131187   2.026   3.207   7.913  0.1962  1.4340  2.4010
 6575SOL    HW231188   2.021   3.291   7.789  1.2002 -0.0963  1.2899
 6576SOL     OW31189   4.688   0.806  15.315 -0.2405  0.4139  0.2137
 6576SOL    HW131190   4.684   0.779  15.223  1.2633 -0.2294  0.3355
 6576SOL    HW231191   4.646   0.891  15.311 -0.5450  0.1799 -1.7264
 6577SOL     OW31192   1.741   4.705   4.371 -0.1471  0.3807  0.4306
 6577SOL    HW131193   1.686   0.006   4.296 -0.5544 -3.0753 -0.4907
 6577SOL    HW231194   1.745   4.612   4.345 -3.1876  0.4226 -0.3001
 6578SOL     OW31195   0.522   3.449   0.487 -0.0346 -0.1717  0.2869
 6578SOL    HW131196   0.522   3.355   0.505  1.4893 -0.6143 -2.0066
 6578SOL    HW231197   0.564   3.449   0.401 -1.4928 -0.5127 -0.4120
 6579SOL     OW31198   0.919   0.471   9.792  0.0514 -0.7938 -0.1732
 6579SOL    HW131199   0.953   0.437   9.875 -1.1685 -1.0023  0.2417
 6579SOL    HW231200   0.939   0.394   9.740 -0.9264 -1.3157  0.2195
 6580SOL     OW31201   1.064   2.963   6.621 -0.4782 -0.5772 -0.3055
 6580SOL    HW131202   1.086   2.992   6.532  2.0727 -0.4334  0.3570
 6580SOL    HW231203   1.002   3.033   6.643  0.3356 -0.0927  0.4478
 6581SOL     OW31204   1.577   4.583   6.055 -0.1852  0.3568  0.5334
 6581SOL    HW131205   1.572   4.508   5.997 -2.5609  1.8857 -1.2498
 6581SOL    HW231206   1.541   4.554   6.139  1.1356 -0.3660  0.8426
 6582SOL     OW31207   1.535   2.529   8.623  0.0100 -0.2524 -0.3375
 6582SOL    HW131208   1.470   2.578   8.672  1.3295  0.3735  0.7914
 6582SOL    HW231209   1.585   2.594   8.573 -1.4531  4.0041  3.7880
 6583SOL     OW31210   1.113   4.324   8.958  0.0805 -0.0672  0.4897
 6583SOL    HW131211   1.155   4.342   8.874  0.2725  1.3910  0.8837
 6583SOL    HW231212   1.028   4.287   8.934 -0.5171  1.4734  0.1642
 6584SOL     OW31213   1.201   1.393   4.192 -0.0957  0.4780 -0.2383
 6584SOL    HW131214   1.159   1.407   4.108 -0.9317  0.0905  0.1115
 6584SOL    HW231215   1.237   1.305   4.180 -1.7516  0.1196 -2.5110
 6585SOL     OW31216   3.470   4.710   1.489  0.1707  0.3093 -0.7503
 6585SOL    HW131217   3.380   4.692   1.462  1.0833 -1.6196 -2.5337
 6585SOL    HW231218   3.471   0.072   1.528 -0.3493  0.8168 -1.8860
 6586SOL     OW31219   2.978   4.381   2.529 -0.4431 -0.0838  0.4961
 6586SOL    HW131220   2.979   4.452   2.464 -0.3998 -0.2877  0.2718
 6586SOL    HW231221   2.891   4.348   2.506 -0.9201  1.0360  0.7079
 6587SOL     OW31222   3.669   3.022  14.522 -0.4701 -0.2231  0.1358
 6587SOL    HW131223   3.710   3.058  14.601  0.8179 -0.9816 -0.1943
 6587SOL    HW231224   3.701   3.077  14.451 -1.9725  2.6080  1.6783
 6588SOL     OW31225   1.957   1.265   1.396  0.6146 -0.1509  0.0281
 6588SOL    HW131226   1.941   1.356   1.422 -0.6863 -0.3547 -0.0852
 6588SOL    HW231227   1.879   1.249   1.343  0.7617 -0.4835 -0.0890
 6589SOL     OW31228   0.362   3.619   1.032  0.1191 -0.8109  0.0638
 6589SOL    HW131229   0.377   3.525   1.042  2.1577 -0.1014  3.5626
 6589SOL    HW231230   0.414   3.632   0.952  0.6387 -1.0911  0.3529
 6590SOL     OW31231   0.178   3.745   4.101 -0.1752  0.3948 -0.2411
 6590SOL    HW131232   0.098   3.788   4.069 -0.2821 -0.6840 -1.4466
 6590SOL    HW231233   0.234   3.780   4.032  0.4534  0.6558  0.4115
 6591SOL     OW31234   1.970   0.684   5.676 -0.4851 -0.3763 -0.1663
 6591SOL    HW131235   2.037   0.656   5.614  0.4991  0.2440  0.6227
 6591SOL    HW231236   2.009   0.666   5.762 -0.4457  2.0931  0.3241
 6592SOL     OW31237   3.517   0.390   3.270 -0.3560 -0.1496 -0.1417
 6592SOL    HW131238   3.524   0.300   3.238  2.2460 -0.6036  1.6887
 6592SOL    HW231239   3.474   0.427   3.192  1.4352  2.6597  0.2035
 6593SOL     OW31240   0.015   2.602   5.530 -0.2040 -0.0059 -0.1164
 6593SOL    HW131241   0.044   2.549   5.604  1.1402  1.5126  0.4564
 6593SOL    HW231242   0.073   2.573   5.460 -0.7536  0.2048 -0.6618
 6594SOL     OW31243   2.999   1.378   0.031 -0.0154 -0.5406 -0.0816
 6594SOL    HW131244   3.070   1.415   0.083 -2.3705  1.3155  1.7983
 6594SOL    HW231245   2.999   1.428  17.651  2.4832  0.0233  0.2792
 6595SOL     OW31246   1.561   1.803  13.799 -0.2132 -0.5284  0.8354
 6595SOL    HW131247   1.629   1.866  13.821  1.0302 -0.7019 -2.6223
 6595SOL    HW231248   1.586   1.780  13.710  0.5172 -2.3743  1.5248
 6596SOL     OW31249   2.612   1.761  11.425  0.5152 -0.1493  0.1986
 6596SOL    HW131250   2.528   1.756  11.470 -0.3793  3.4961 -1.1076
 6596SOL    HW231251   2.600   1.697  11.354 -1.6419  0.6312 -0.1229
 6597SOL     OW31252   1.472   1.454   2.498  0.1464  0.2573  0.1542
 6597SOL    HW131253   1.462   1.386   2.565 -0.2622 -1.0140 -1.2049
 6597SOL    HW231254   1.382   1.469   2.470 -0.2638  0.7839  1.7348
 6598SOL     OW31255   0.823   1.667  14.005  0.0314 -0.0244 -0.0844
 6598SOL    HW131256   0.789   1.754  13.985  0.4770 -0.0071 -0.7368
 6598SOL    HW231257   0.912   1.669  13.969 -1.0763 -0.4089 -2.8087
 6599SOL     OW31258   0.802   4.350   5.433  0.0676 -0.2796 -0.3040
 6599SOL    HW131259   0.862   4.360   5.506  2.0682 -0.1419 -1.9698
 6599SOL    HW231260   0.819   4.259   5.409  1.6787 -0.1899  0.5398
 6600SOL     OW31261   3.258   2.063   2.835  0.5721  0.8217  0.2356
 6600SOL    HW131262   3.262   2.144   2.783  1.6400  1.4022  1.1993
 6600SOL    HW231263   3.306   2.091   2.913  0.9374 -1.3752  0.7841
 6601SOL     OW31264   4.323   4.087   4.789 -0.2806 -0.0882 -0.0087
 6601SOL    HW131265   4.258   4.068   4.857 -2.4833  2.0274 -1.5443
 6601SOL    HW231266   4.283   4.042   4.715 -0.7033  1.6924 -0.8588
 6602SOL     OW31267   4.554   2.402   7.748 -0.0179  0.0059 -0.2278
 6602SOL    HW131268   4.578   2.310   7.758 -1.0356 -0.3505 -1.0764
 6602SOL    HW231269   4.489   2.393   7.679 -0.4518 -0.0718  0.1874
 6603SOL     OW31270   2.696   0.575   2.677  0.2171  0.0838  0.1540
 6603SOL    HW131271   2.762   0.505   2.679 -0.7216 -0.8233 -0.5931
 6603SOL    HW231272   2.616   0.524   2.690  0.9348 -1.6059 -1.9902
 6604SOL     OW31273   1.931   2.920   6.902 -0.1987  0.8817 -0.0254
 6604SOL    HW131274   2.021   2.895   6.922 -1.0573 -1.7100  0.6882
 6604SOL    HW231275   1.885   2.852   6.952  1.0265  0.9170  1.1512
 6605SOL     OW31276   1.940   2.408   7.993 -0.0011 -0.0662  0.6171
 6605SOL    HW131277   1.851   2.406   7.957 -0.1478  0.6644  0.9425
 6605SOL    HW231278   1.975   2.481   7.942 -2.0107  0.7809  0.4440
 6606SOL     OW31279   2.910   1.491   2.122  0.0026 -0.5184  0.1477
 6606SOL    HW131280   2.851   1.459   2.053 -1.0260  1.5261  0.0755
 6606SOL    HW231281   2.890   1.451   2.206  1.4512 -0.5063  0.4883
 6607SOL     OW31282   4.515   4.490   4.359  0.2277  0.2379  0.4917
 6607SOL    HW131283   4.608   4.509   4.363 -0.1556  1.7797  2.0680
 6607SOL    HW231284   4.483   4.566   4.408  0.6066  2.4134 -2.6536
 6608SOL     OW31285   2.286   1.675   4.738  0.3600  0.2876 -0.2149
 6608SOL    HW131286   2.212   1.660   4.796 -0.2838 -0.4685 -1.2245
 6608SOL    HW231287   2.317   1.589   4.709 -1.1531 -0.2556 -0.2216
 6609SOL     OW31288   2.925   3.118   9.030  0.3219 -0.4799  0.4306
 6609SOL    HW131289   2.848   3.155   9.074  0.3062 -0.5962  0.4998
 6609SOL    HW231290   2.924   3.028   9.062 -1.4018 -1.5278 -2.5677
 6610SOL     OW31291   4.224   1.069   8.799 -0.0010  0.4459  0.0388
 6610SOL    HW131292   4.223   1.161   8.774  0.1923  0.0445 -1.4757
 6610SOL    HW231293   4.206   1.037   8.711 -1.3168 -2.2511  1.3002
 6611SOL     OW31294   0.530   3.249   6.776  0.1948 -0.9344  0.0318
 6611SOL    HW131295   0.473   3.223   6.703  0.0062 -1.1819  0.2657
 6611SOL    HW231296   0.535   3.169   6.829  0.5960 -0.2735  0.9783
 6612SOL     OW31297   3.342   1.793   1.201 -0.0063 -0.3906 -0.4154
 6612SOL    HW131298   3.257   1.803   1.243 -0.0478 -1.7838 -0.1572
 6612SOL    HW231299   3.324   1.710   1.156  1.0410  0.2886 -2.0963
 6613SOL     OW31300   1.658   4.193  13.175  0.1109 -0.8165 -0.1719
 6613SOL    HW131301   1.630   4.263  13.116 -0.0126 -0.0723  0.7576
 6613SOL    HW231302   1.750   4.180  13.156  1.0414 -0.6071  4.0833
 6614SOL     OW31303   0.229   2.695  12.560  0.1676 -0.2303  0.2473
 6614SOL    HW131304   0.190   2.649  12.486 -0.3401 -0.4661  0.6584
 6614SOL    HW231305   0.246   2.618  12.614 -1.0842  0.4914  1.6965
 6615SOL     OW31306   2.663   0.327  10.753  0.2190 -0.0929  0.1377
 6615SOL    HW131307   2.583   0.368  10.720 -0.4501 -0.9061  0.7709
 6615SOL    HW231308   2.734   0.361  10.699  0.8314  0.9740  1.6148
 6616SOL     OW31309   2.593   0.676  13.502  0.4682  0.9065  0.1554
 6616SOL    HW131310   2.580   0.771  13.498  1.0963  1.0598  1.7663
 6616SOL    HW231311   2.623   0.668  13.593 -2.2518  0.9615  1.0590
 6617SOL     OW31312   1.645   3.358  14.393 -0.4153 -0.0840 -0.8105
 6617SOL    HW131313   1.658   3.452  14.380 -0.1824  0.1809  1.3552
 6617SOL    HW231314   1.584   3.368  14.466  0.7682  0.0715  0.1680
 6618SOL     OW31315   2.636   3.027   6.713 -0.0509 -0.2976 -0.0803
 6618SOL    HW131316   2.668   3.075   6.789 -1.6920 -0.6302  0.8173
 6618SOL    HW231317   2.684   2.945   6.720 -1.1467 -0.8608  0.8445
 6619SOL     OW31318   3.729   2.893   5.431 -0.5171 -0.1286  0.4171
 6619SOL    HW131319   3.788   2.951   5.383 -0.5230  0.8578  1.5929
 6619SOL    HW231320   3.657   2.955   5.446  0.9355  0.9655  2.8959
 6620SOL     OW31321   3.267   4.221  14.169 -0.4384 -0.3151 -0.5856
 6620SOL    HW131322   3.173   4.207  14.164 -0.8483  2.4439  0.0052
 6620SOL    HW231323   3.273   4.259  14.256 -1.0195 -0.0225 -0.6817
 6621SOL     OW31324   2.630   3.140   6.481 -0.1148  0.4007 -0.2609
 6621SOL    HW131325   2.626   3.092   6.564 -0.4972  0.0207 -0.4997
 6621SOL    HW231326   2.723   3.132   6.457 -0.2818 -0.2042 -0.7036
 6622SOL     OW31327   2.517   1.335   1.377  0.0840 -0.2740 -0.0055
 6622SOL    HW131328   2.443   1.385   1.343 -0.6327 -2.2835 -1.3777
 6622SOL    HW231329   2.468   1.261   1.413 -0.5059  0.7787  1.3789
 6623SOL     OW31330   4.465   2.628   7.926  0.1658 -0.6647 -0.5792
 6623SOL    HW131331   4.505   2.542   7.911 -0.4883 -1.4546  2.2372
 6623SOL    HW231332   4.535   2.671   7.975  0.1827  0.9085 -1.9819
 6624SOL     OW31333   4.000   0.760   6.108  0.1512 -0.2021 -0.4134
 6624SOL    HW131334   3.986   0.854   6.118 -1.8907 -0.5465  0.1875
 6624SOL    HW231335   3.914   0.727   6.136 -1.8596  5.2106 -0.1728
 6625SOL     OW31336   2.422   0.538   8.056 -0.9362  0.0813  0.4993
 6625SOL    HW131337   2.377   0.457   8.032  0.5575 -1.3561  2.4910
 6625SOL    HW231338   2.381   0.570   8.136  0.4373  0.9041  0.8799
 6626SOL     OW31339   0.305   0.238   8.779  0.3095 -0.0458 -0.0959
 6626SOL    HW131340   0.326   0.201   8.693  1.4322  0.7265 -0.1467
 6626SOL    HW231341   0.360   0.180   8.833  1.8062 -0.1133 -1.6793
 6627SOL     OW31342   4.329   4.624   7.721  0.7770 -0.2481  0.1084
 6627SOL    HW131343   4.262   4.638   7.654  0.8471 -1.4331 -0.2082
 6627SOL    HW231344   4.410   4.628   7.671 -0.9575 -2.6742 -2.8396
 6628SOL     OW31345   2.729   0.475   2.989  0.2144 -0.7273 -0.1322
 6628SOL    HW131346   2.727   0.409   2.920  0.1576 -2.8952  1.9362
 6628SOL    HW231347   2.663   0.541   2.966 -1.6555 -2.3356  0.6730
 6629SOL     OW31348   1.683   0.736  10.201  0.3433  0.3674 -0.1135
 6629SOL    HW131349   1.708   0.815  10.249 -2.4340  1.8223 -1.0306
 6629SOL    HW231350   1.757   0.736  10.140  1.2244 -1.8331  0.9474
 6630SOL     OW31351   1.879   3.063   4.981  0.0075 -0.3532 -0.4860
 6630SOL    HW131352   1.918   3.150   4.993 -1.0664  0.1269 -0.5335
 6630SOL    HW231353   1.840   3.062   4.894 -0.6800 -0.8000 -0.1756
 6631SOL     OW31354   1.819   2.107   3.377 -0.7252  0.3558 -0.3504
 6631SOL    HW131355   1.891   2.162   3.346 -0.1686 -0.2048 -0.0535
 6631SOL    HW231356   1.748   2.144   3.325 -1.0237 -0.9548 -0.8789
 6632SOL     OW31357   2.434   2.712   5.540 -0.5610 -0.9090  0.0947
 6632SOL    HW131358   2.363   2.768   5.574  1.1408  1.0562  0.4305
 6632SOL    HW231359   2.498   2.741   5.606  0.2447 -2.6045  0.0413
 6633SOL     OW31360   1.602   1.165   1.458  0.0701 -0.9146  0.1823
 6633SOL    HW131361   1.639   1.131   1.377 -0.2521 -1.3420  0.2111
 6633SOL    HW231362   1.613   1.259   1.447 -0.6096 -1.1456 -2.5919
 6634SOL     OW31363   4.564   3.275   1.164 -0.7761 -0.6416 -0.0522
 6634SOL    HW131364   4.549   3.343   1.099  0.9227 -0.8429 -0.6430
 6634SOL    HW231365   4.598   3.203   1.111  0.3948 -1.7671  2.2230
 6635SOL     OW31366   0.309   3.815   7.538  0.1085  0.0680 -0.0252
 6635SOL    HW131367   0.339   3.905   7.532  2.1788 -0.5471  1.0857
 6635SOL    HW231368   0.242   3.824   7.470 -0.7474  1.1552  0.9689
 6636SOL     OW31369   3.146   0.739   3.209  0.0598 -0.5500  0.2143
 6636SOL    HW131370   3.111   0.827   3.221  3.2848  0.4144  2.7615
 6636SOL    HW231371   3.071   0.691   3.176 -0.5297 -0.7088  1.7924
 6637SOL     OW31372   3.374   2.993   7.721  0.1513 -0.0401 -0.0247
 6637SOL    HW131373   3.300   2.953   7.766 -0.3970  0.3159 -0.5965
 6637SOL    HW231374   3.335   3.081   7.713  0.4534  0.1136  0.1705
 6638SOL     OW31375   0.971   4.604   8.752 -0.0074 -0.1657  0.2199
 6638SOL    HW131376   0.887   4.576   8.715 -0.9634  1.0123  1.4997
 6638SOL    HW231377   0.944   4.613   8.843  1.2067 -0.0431  0.5731
 6639SOL     OW31378   0.889   4.324  17.662  0.2988  0.4340 -0.3501
 6639SOL    HW131379   0.855   4.352   0.044  0.1420  0.2464 -0.3501
 6639SOL    HW231380   0.975   4.366  17.658  0.5647 -0.0145  0.7979
 6640SOL     OW31381   0.625   3.026   1.335  0.0960 -0.2781 -0.1405
 6640SOL    HW131382   0.612   3.052   1.426  1.4583  2.0067 -0.6068
 6640SOL    HW231383   0.541   2.982   1.316 -0.1774 -0.1553  0.7561
 6641SOL     OW31384   0.538   3.100   5.336 -0.1444 -0.3278  0.3915
 6641SOL    HW131385   0.571   3.094   5.247 -2.4782 -0.9269 -0.4212
 6641SOL    HW231386   0.581   3.021   5.371 -0.7935 -0.0576  1.8042
 6642SOL     OW31387   1.025   0.917   3.147 -0.0636  0.1021  0.4019
 6642SOL    HW131388   1.051   0.963   3.068  2.0235  0.3580  1.2509
 6642SOL    HW231389   0.957   0.867   3.102  2.0169 -2.0004 -0.3771
 6643SOL     OW31390   1.587   3.220   2.978 -0.1737  0.2675 -0.4036
 6643SOL    HW131391   1.580   3.127   2.999 -0.8337  0.2835 -0.5648
 6643SOL    HW231392   1.530   3.223   2.901  0.5297  2.8789 -0.8229
 6644SOL     OW31393   1.093   1.204   4.912  0.7029  0.1768 -0.6488
 6644SOL    HW131394   1.140   1.172   4.835  0.9495 -1.7345  0.2957
 6644SOL    HW231395   1.162   1.256   4.954  0.5565 -0.5589  0.4871
 6645SOL     OW31396   1.603   0.153  15.858 -0.2376  0.0029 -0.1355
 6645SOL    HW131397   1.572   0.243  15.870 -0.3637  0.0704 -1.0225
 6645SOL    HW231398   1.661   0.152  15.934 -2.1892  0.0172  1.3574
 6646SOL     OW31399   3.413   0.579   2.155 -0.2325 -0.1544  0.3163
 6646SOL    HW131400   3.352   0.652   2.152  1.0260  0.8454 -0.9730
 6646SOL    HW231401   3.359   0.502   2.170 -1.6254  0.9415  0.9463
 6647SOL     OW31402   3.814   1.999  10.748  0.1111 -0.4935 -0.2398
 6647SOL    HW131403   3.870   1.953  10.686  0.1035 -1.5000  0.5047
 6647SOL    HW231404   3.760   1.927  10.781 -0.2483 -0.2331 -0.2534
 6648SOL     OW31405   2.081   0.088   6.585  0.2272  0.3006  0.2645
 6648SOL    HW131406   2.048   0.149   6.650 -1.4543 -1.4645  1.0804
 6648SOL    HW231407   2.011   0.023   6.580  0.1068  0.5999 -2.2232
 6649SOL     OW31408   3.295   2.551   2.503 -0.2218  0.6956 -0.6808
 6649SOL    HW131409   3.366   2.524   2.444  1.5257  2.5447  0.5532
 6649SOL    HW231410   3.327   2.625   2.555  1.6137 -0.7911  0.3034
 6650SOL     OW31411   2.219   0.825   2.200  0.2148  0.4782 -0.0267
 6650SOL    HW131412   2.304   0.821   2.243  0.1777  0.9528  0.0932
 6650SOL    HW231413   2.150   0.819   2.267  1.6152 -0.4299  1.3358
 6651SOL     OW31414   1.992   2.072   6.682 -0.2871 -0.0239  0.0497
 6651SOL    HW131415   2.025   2.004   6.740  1.9220  0.7384 -0.3282
 6651SOL    HW231416   2.003   2.142   6.745  1.9983 -1.2516  0.9859
 6652SOL     OW31417   2.252   2.748   9.968 -0.4863  0.1443  0.5239
 6652SOL    HW131418   2.255   2.806   9.892 -1.5271  0.3679  0.6618
 6652SOL    HW231419   2.291   2.667   9.936  1.9100  1.3740  0.3171
 6653SOL     OW31420   2.940   2.821  14.914 -0.0013 -0.2715 -0.5611
 6653SOL    HW131421   3.021   2.870  14.925 -0.4146 -0.3626  2.7038
 6653SOL    HW231422   2.971   2.739  14.874 -0.6801 -0.3794 -0.8696
 6654SOL     OW31423   1.413   3.222  16.095  0.0943  0.2032 -0.3907
 6654SOL    HW131424   1.365   3.200  16.015 -0.3718 -4.7536  1.2834
 6654SOL    HW231425   1.379   3.311  16.108 -0.6584 -0.4989  2.3513
 6655SOL     OW31426   4.327   4.329   2.925 -0.0880  0.7827 -0.1861
 6655SOL    HW131427   4.390   4.401   2.920  1.8608 -0.7530  2.3804
 6655SOL    HW231428   4.344   4.286   3.009 -0.7868  1.3888  0.2727
 6656SOL     OW31429   4.031   1.964   9.139 -0.5180  0.1493  0.1207
 6656SOL    HW131430   4.113   1.956   9.187 -0.3075  1.7404  0.0355
 6656SOL    HW231431   4.060   1.909   9.066 -1.1518 -0.0343  0.0053
 6657SOL     OW31432   1.940   0.694  10.950  0.1866  0.3706 -0.6319
 6657SOL    HW131433   2.002   0.622  10.936 -0.1062 -0.1539  0.7569
 6657SOL    HW231434   1.975   0.754  11.015  1.3612 -0.8407 -0.1304
 6658SOL     OW31435   0.985   2.205   7.915 -0.3277  0.1171  0.0898
 6658SOL    HW131436   0.903   2.162   7.889 -0.5431  0.9641 -0.6547
 6658SOL    HW231437   1.045   2.131   7.911  1.6881  1.7374  0.5229
 6659SOL     OW31438   1.958   0.777   8.870 -0.5122  0.4155 -0.1928
 6659SOL    HW131439   1.951   0.739   8.782  0.6735 -2.2880  0.8810
 6659SOL    HW231440   1.897   0.724   8.921  1.1575  0.4240  1.7857
 6660SOL     OW31441   2.118   2.372  15.810 -0.0935 -0.2686 -0.3179
 6660SOL    HW131442   2.039   2.336  15.771 -2.3807  2.5370  1.7241
 6660SOL    HW231443   2.089   2.460  15.837 -2.1275 -0.4877 -1.7997
 6661SOL     OW31444   4.654   2.477   6.900 -0.2206  0.0956  0.2835
 6661SOL    HW131445   4.694   2.427   6.828  2.7358  3.3739 -0.3139
 6661SOL    HW231446   4.705   2.557   6.901 -0.5581  0.3031  0.8196
 6662SOL     OW31447   3.036   1.971   6.196  0.4415 -0.4483 -0.1952
 6662SOL    HW131448   3.044   1.961   6.291 -1.8868  3.4325  0.4059
 6662SOL    HW231449   3.108   2.034   6.200 -1.6251  1.8236  1.0645
 6663SOL     OW31450   2.226   3.224  16.392 -0.5026  0.0443 -0.3098
 6663SOL    HW131451   2.312   3.256  16.421 -1.3466  1.3373  0.8008
 6663SOL    HW231452   2.238   3.210  16.298 -0.8313  2.9389 -0.7734
 6664SOL     OW31453   0.560   1.503   1.010 -0.5422  0.7339  0.2567
 6664SOL    HW131454   0.595   1.552   1.085 -0.0981 -0.4245  0.8057
 6664SOL    HW231455   0.567   1.415   1.046 -0.6393 -0.2573 -2.2317
 6665SOL     OW31456   3.326   3.379   9.588 -0.7376  0.0595 -0.2986
 6665SOL    HW131457   3.283   3.354   9.670  2.2401  1.9881  1.8216
 6665SOL    HW231458   3.252   3.387   9.528 -1.5188  3.0523  1.0476
 6666SOL     OW31459   4.602   4.019   7.442  0.1145  0.1753  0.2265
 6666SOL    HW131460   4.588   3.946   7.381 -1.5072 -0.0581  0.8895
 6666SOL    HW231461   4.597   4.094   7.382  3.8545 -0.3409 -0.7502
 6667SOL     OW31462   0.830   0.895   5.698 -0.0323 -0.1189 -0.2198
 6667SOL    HW131463   0.845   0.899   5.793  2.3273  1.0314 -0.6353
 6667SOL    HW231464   0.738   0.873   5.691 -0.1591  0.3161  0.0665
 6668SOL     OW31465   3.689   4.459  13.947  0.1965  0.4604  0.1405
 6668SOL    HW131466   3.656   4.547  13.930 -1.1465 -0.1597 -0.4427
 6668SOL    HW231467   3.778   4.475  13.978 -0.5398  0.1138  2.4449
 6669SOL     OW31468   1.493   1.481   6.048  0.5034 -0.4455  0.3574
 6669SOL    HW131469   1.582   1.494   6.083  0.8902  0.4772 -0.9741
 6669SOL    HW231470   1.444   1.560   6.070 -0.2573 -0.7601 -0.2114
 6670SOL     OW31471   4.094   3.226   7.355 -0.0291 -0.2754 -0.3146
 6670SOL    HW131472   4.132   3.263   7.435  2.6868 -3.2941 -0.2134
 6670SOL    HW231473   4.056   3.308   7.323  2.9186  1.3352  0.3210
 6671SOL     OW31474   3.030   4.428   2.871  0.0455 -0.3820  0.0044
 6671SOL    HW131475   3.123   4.435   2.893  0.1541  2.2078 -1.2731
 6671SOL    HW231476   3.035   4.427   2.776  0.7687 -2.1348  0.0642
 6672SOL     OW31477   1.890   4.318   1.757  0.0355  0.0737 -1.0039
 6672SOL    HW131478   1.900   4.383   1.688  0.8663  1.0643  0.0426
 6672SOL    HW231479   1.979   4.295   1.783  0.9663  3.0013 -1.6573
 6673SOL     OW31480   0.948   2.766  11.657  0.1530 -0.2853  0.1570
 6673SOL    HW131481   0.890   2.763  11.582 -0.3379 -0.8109  0.5539
 6673SOL    HW231482   0.901   2.831  11.709  1.1794  0.8359 -0.3171
 6674SOL     OW31483   4.564   0.227  17.096  0.7434  0.2399  0.4386
 6674SOL    HW131484   4.524   0.196  17.177  0.4164  1.2017  0.6330
 6674SOL    HW231485   4.612   0.295  17.142 -0.3929  1.0716  0.3872
 6675SOL     OW31486   2.213   1.154   5.221 -0.0475  0.2918 -0.6601
 6675SOL    HW131487   2.193   1.137   5.129 -0.0626 -0.6354 -0.4869
 6675SOL    HW231488   2.308   1.148   5.218 -0.1302 -0.5998 -1.2754
 6676SOL     OW31489   0.905   0.778   5.456  0.7815 -0.1852  0.6105
 6676SOL    HW131490   0.861   0.813   5.378  3.1569  1.2102 -0.1106
 6676SOL    HW231491   0.874   0.823   5.535  1.5172 -0.5387  1.0911
 6677SOL     OW31492   2.963   2.068   0.389 -0.6597  0.4156 -0.1912
 6677SOL    HW131493   2.957   2.163   0.380 -0.1047  0.6342  1.8197
 6677SOL    HW231494   2.916   2.054   0.471 -0.7389  1.2901 -0.0900
 6678SOL     OW31495   3.178   1.862   7.155  0.1771  0.4089 -0.3055
 6678SOL    HW131496   3.180   1.901   7.242  2.1789  2.8898 -1.4277
 6678SOL    HW231497   3.232   1.784   7.163  1.4207  1.7559  4.0727
 6679SOL     OW31498   2.413   0.981   0.347 -0.2998  0.4788  0.3042
 6679SOL    HW131499   2.477   1.010   0.282  1.1343 -0.3911  1.3375
 6679SOL    HW231500   2.393   1.063   0.393  0.2874  1.8396 -1.8855
 6680SOL     OW31501   1.532   0.617   9.179 -0.3522  0.3446 -0.3935
 6680SOL    HW131502   1.496   0.705   9.172 -1.2776 -0.1490 -2.0536
 6680SOL    HW231503   1.612   0.636   9.228 -1.0949 -1.9123  1.6818
 6681SOL     OW31504   4.047   4.428  11.113 -0.0917  0.1114 -0.1056
 6681SOL    HW131505   4.047   4.465  11.202 -1.1592  0.5468 -0.2786
 6681SOL    HW231506   3.961   4.384  11.110 -1.7280  3.0962  2.7021
 6682SOL     OW31507   2.501   3.286   8.613 -0.6182  0.0646 -0.1499
 6682SOL    HW131508   2.553   3.227   8.558  0.3672  0.8287 -0.0209
 6682SOL    HW231509   2.505   3.361   8.554  1.5873 -1.0282 -1.3858
 6683SOL     OW31510   0.487   2.096   6.820  0.1414  0.1048  0.2378
 6683SOL    HW131511   0.503   2.183   6.856  1.4968  0.0722 -0.2839
 6683SOL    HW231512   0.467   2.055   6.905  2.8890  1.2243  1.4334
 6684SOL     OW31513   0.543   2.479   0.127  0.0252 -0.3387 -0.0242
 6684SOL    HW131514   0.612   2.455   0.189 -0.7462 -0.4217  0.7901
 6684SOL    HW231515   0.542   2.402   0.071  2.1149  0.4289 -1.1439
 6685SOL     OW31516   4.214   3.202   9.154  0.2693 -0.3277  0.2026
 6685SOL    HW131517   4.161   3.238   9.224  0.1337 -0.6949  0.2927
 6685SOL    HW231518   4.303   3.213   9.187 -0.0809 -1.7969  1.6262
 6686SOL     OW31519   3.388   2.239  17.319 -0.0311 -0.2552 -0.1371
 6686SOL    HW131520   3.423   2.177  17.255 -0.3650 -1.3251  0.7251
 6686SOL    HW231521   3.308   2.262  17.272 -0.8950 -2.5680  0.2060
 6687SOL     OW31522   2.019   0.908   7.846 -0.2640 -0.6617 -0.0447
 6687SOL    HW131523   1.953   0.949   7.790  0.0764 -1.3064 -0.9197
 6687SOL    HW231524   2.095   0.940   7.797 -0.3389 -0.7390 -0.2115
 6688SOL     OW31525   0.479   0.681   4.802  0.6974 -0.2947  0.0112
 6688SOL    HW131526   0.536   0.656   4.730 -0.6444 -1.1082 -0.7666
 6688SOL    HW231527   0.523   0.761   4.832  1.4460  0.0149 -1.8903
 6689SOL     OW31528   1.753   4.500   4.832  0.3647 -0.2111 -0.0478
 6689SOL    HW131529   1.756   4.551   4.751 -0.9145  0.5528  0.3799
 6689SOL    HW231530   1.765   4.570   4.896  0.8827  0.5550 -0.9629
 6690SOL     OW31531   2.035   0.456   0.755 -0.2332  0.5360  0.1201
 6690SOL    HW131532   2.011   0.523   0.819 -2.5626 -0.8155  0.6906
 6690SOL    HW231533   2.084   0.394   0.809 -1.0902  0.2032  0.5248
 6691SOL     OW31534   0.624   1.536   1.284 -0.0268  0.0806  0.2116
 6691SOL    HW131535   0.535   1.511   1.308  0.9753 -2.3185  1.4099
 6691SOL    HW231536   0.675   1.460   1.311  0.0756  0.1167  0.1225
 6692SOL     OW31537   2.061   0.919  13.750 -0.5256 -0.0147 -0.2434
 6692SOL    HW131538   2.078   0.920  13.844 -1.2960  0.4334 -0.1083
 6692SOL    HW231539   1.990   0.982  13.738 -1.3507 -1.1113 -1.1243
 6693SOL     OW31540   4.124   2.546  16.167 -0.0178  0.5345 -0.7552
 6693SOL    HW131541   4.126   2.609  16.238  3.0693 -0.5925  0.1948
 6693SOL    HW231542   4.123   2.463  16.215  2.1512 -0.8502 -3.0676
 6694SOL     OW31543   3.343   0.600   8.711 -0.6182  0.5327  0.4209
 6694SOL    HW131544   3.402   0.672   8.736  1.0616  0.3119 -2.8877
 6694SOL    HW231545   3.262   0.651   8.705 -0.6928  0.2649 -0.8299
 6695SOL     OW31546   3.839   4.511   8.704  0.0511 -0.5786 -0.1818
 6695SOL    HW131547   3.856   4.574   8.634 -0.3178  2.7368  2.6820
 6695SOL    HW231548   3.920   4.506   8.754  1.2377  0.5736 -2.0280
 6696SOL     OW31549   0.555   3.332   9.275  0.2261  0.3849 -0.3305
 6696SOL    HW131550   0.490   3.375   9.330  1.1239 -2.1694  2.7622
 6696SOL    HW231551   0.557   3.240   9.302 -0.8544  0.8394  1.3354
 6697SOL     OW31552   0.904   0.795   3.813  0.4190  0.7386  0.4783
 6697SOL    HW131553   0.840   0.733   3.846  1.1116  0.1007  0.6376
 6697SOL    HW231554   0.985   0.751   3.840  0.2680  0.1201 -0.0916
 6698SOL     OW31555   4.350   0.202   9.566 -0.1416  0.0663 -0.2718
 6698SOL    HW131556   4.435   0.172   9.600 -1.1579 -0.2543  2.0157
 6698SOL    HW231557   4.307   0.238   9.643 -0.6139 -2.4063  0.6410
 6699SOL     OW31558   2.926   1.435  11.992 -0.4575  0.2139  0.0020
 6699SOL    HW131559   2.855   1.372  12.000 -1.2310  1.0814 -0.0487
 6699SOL    HW231560   2.919   1.458  11.899 -4.6903 -1.2750 -0.0197
 6700SOL     OW31561   3.655   2.045   7.711 -0.8348 -0.0099  0.0042
 6700SOL    HW131562   3.621   1.965   7.670 -1.2609  2.1243 -3.7384
 6700SOL    HW231563   3.749   2.031   7.698 -0.5913  1.3396  0.3570
 6701SOL     OW31564   1.575   2.646  17.667 -0.5653 -0.1439  0.2274
 6701SOL    HW131565   1.496   2.668   0.014  0.9944  0.2572  2.5494
 6701SOL    HW231566   1.563   2.552  17.655  0.8361 -0.3069  0.1540
 6702SOL     OW31567   3.858   2.706   2.508 -0.2782  0.5223 -0.6309
 6702SOL    HW131568   3.781   2.753   2.475  0.5556  2.6469  0.4715
 6702SOL    HW231569   3.849   2.712   2.603 -1.1736 -1.2747 -0.6000
 6703SOL     OW31570   1.913   0.109   2.811 -0.4786 -0.6913 -0.2452
 6703SOL    HW131571   1.975   0.109   2.737  1.2499  2.4771  1.1674
 6703SOL    HW231572   1.843   0.052   2.779 -1.2369  1.5491 -2.6230
 6704SOL     OW31573   4.412   2.586  17.654  0.7579  0.7020  0.0495
 6704SOL    HW131574   4.389   2.672  17.617 -2.5977 -0.8689 -1.4846
 6704SOL    HW231575   4.330   2.575   0.001  1.1974  0.6883  0.7827
 6705SOL     OW31576   1.739   0.974  14.391 -0.1401  0.1924 -0.2537
 6705SOL    HW131577   1.697   0.912  14.331 -1.8634  0.0530  1.0783
 6705SOL    HW231578   1.670   1.030  14.426  0.5903  1.8668 -1.5019
 6706SOL     OW31579   3.324   3.188   5.655 -0.0563 -0.5806 -0.5364
 6706SOL    HW131580   3.272   3.221   5.582  0.2977 -0.7392 -0.8577
 6706SOL    HW231581   3.274   3.114   5.690  0.3944 -0.5524  0.1608
 6707SOL     OW31582   0.664   3.482   7.702  0.9670  0.5940 -0.4414
 6707SOL    HW131583   0.622   3.568   7.703 -0.2448 -0.0116  2.1120
 6707SOL    HW231584   0.584   3.445   7.740  1.0736 -0.9215 -1.6844
 6708SOL     OW31585   3.597   2.641   2.992  0.7471  0.4532  0.7265
 6708SOL    HW131586   3.635   2.728   3.009 -0.3860  0.8468  1.2773
 6708SOL    HW231587   3.538   2.633   3.068  1.2674 -0.0646  1.0727
 6709SOL     OW31588   1.702   4.392  12.983 -0.3954  0.3540  0.5631
 6709SOL    HW131589   1.724   4.473  12.937 -2.5633 -0.4064 -1.8037
 6709SOL    HW231590   1.772   4.333  12.956 -0.8949  0.4400 -0.9218
 6710SOL     OW31591   2.829   2.294   5.134 -0.1276 -0.3691 -0.1428
 6710SOL    HW131592   2.746   2.323   5.094 -0.7376 -1.4601  0.3340
 6710SOL    HW231593   2.836   2.206   5.097  0.9237 -0.2432 -0.2383
 6711SOL     OW31594   1.411   0.742   0.607  0.3629  0.1747 -0.2493
 6711SOL    HW131595   1.470   0.728   0.680  1.4842  0.1448 -1.1655
 6711SOL    HW231596   1.351   0.674   0.636  0.5596  0.1745  0.1483
 6712SOL     OW31597   3.572   2.979   9.152 -0.2315  0.6448  0.5399
 6712SOL    HW131598   3.479   2.983   9.175  0.0202  0.1779  1.6648
 6712SOL    HW231599   3.563   2.981   9.057  0.4181  2.6960  0.5138
 6713SOL     OW31600   1.065   2.685   8.256  0.5330  0.1399 -0.1951
 6713SOL    HW131601   1.117   2.734   8.320  0.0503  1.1083 -0.5424
 6713SOL    HW231602   1.101   2.597   8.264  0.4668  0.2899  1.9236
 6714SOL     OW31603   4.561   1.805   4.329 -0.4813 -0.3598  0.7373
 6714SOL    HW131604   4.640   1.752   4.318 -1.1585 -1.4871  1.2809
 6714SOL    HW231605   4.607   1.886   4.352 -0.0161  0.3398 -2.6082
 6715SOL     OW31606   2.445   3.397   5.443 -0.4206 -0.0495  0.3792
 6715SOL    HW131607   2.511   3.355   5.389 -0.7545  0.0298 -0.0861
 6715SOL    HW231608   2.389   3.326   5.475  1.9618 -1.7304  0.8205
 6716SOL     OW31609   3.436   0.368  10.639 -0.1135 -0.1700  0.2018
 6716SOL    HW131610   3.466   0.451  10.601  0.1451 -0.3978 -0.0968
 6716SOL    HW231611   3.505   0.362  10.705  2.3480  0.2721 -2.3053
 6717SOL     OW31612   4.637   3.617   0.047 -0.0990  0.0021 -0.0922
 6717SOL    HW131613   4.566   3.557   0.026  0.2599 -0.6601  0.6110
 6717SOL    HW231614   4.709   3.562   0.077 -0.9994 -1.6641 -0.9723
 6718SOL     OW31615   0.807   3.332   6.983 -0.0282 -0.4436 -0.0198
 6718SOL    HW131616   0.853   3.341   7.066 -1.2599  0.0964  0.6124
 6718SOL    HW231617   0.811   3.425   6.962  1.0512 -0.1987  1.2657
 6719SOL     OW31618   2.296   2.654  15.884 -0.2414 -0.2065  0.2183
 6719SOL    HW131619   2.214   2.698  15.905 -0.1903  0.3932 -0.8299
 6719SOL    HW231620   2.303   2.686  15.794 -0.3443  0.3190  0.4024
 6720SOL     OW31621   2.395   1.655   5.989  0.2307  0.0555 -0.1291
 6720SOL    HW131622   2.354   1.687   5.908 -0.5882  1.4152  0.8221
 6720SOL    HW231623   2.329   1.677   6.054 -0.1040  1.6936 -1.0066
 6721SOL     OW31624   0.260   4.308   3.087 -0.4910  0.3225  0.1360
 6721SOL    HW131625   0.229   4.222   3.117  0.6398  0.3828  1.4789
 6721SOL    HW231626   0.318   4.275   3.018  2.5727  3.1869  1.3746
 6722SOL     OW31627   2.654   3.811  16.552  0.6052 -0.1451  0.1774
 6722SOL    HW131628   2.702   3.817  16.635  0.5324 -0.1636  0.2208
 6722SOL    HW231629   2.628   3.902  16.541 -0.4944 -0.4223  0.4253
 6723SOL     OW31630   1.823   3.008  10.525  0.4156 -0.1623 -0.2014
 6723SOL    HW131631   1.905   2.977  10.563 -1.4786 -0.1342  3.8368
 6723SOL    HW231632   1.834   2.979  10.434  0.4770 -0.8767  0.0361
 6724SOL     OW31633   4.470   1.469   7.847 -0.8670  0.6023  0.1178
 6724SOL    HW131634   4.388   1.422   7.858 -0.7030  0.1186 -0.7711
 6724SOL    HW231635   4.536   1.410   7.883  1.4502  2.4281 -1.0426
 6725SOL     OW31636   2.981   3.252   2.097  0.2230 -0.2929  0.1163
 6725SOL    HW131637   2.928   3.234   2.018  1.4946 -1.2723 -0.5193
 6725SOL    HW231638   3.031   3.170   2.097 -0.6557 -0.8149  1.4510
 6726SOL     OW31639   1.941   2.691   7.265 -0.3566  0.3650 -0.1464
 6726SOL    HW131640   1.951   2.632   7.339 -0.4419  0.2779 -0.2049
 6726SOL    HW231641   2.031   2.715   7.244 -0.9376  0.9200 -1.9570
 6727SOL     OW31642   2.372   4.243   1.413 -0.1249  0.7710 -0.1688
 6727SOL    HW131643   2.295   4.197   1.446  0.7429  0.1143  0.9398
 6727SOL    HW231644   2.347   4.242   1.320  1.9297 -0.5648 -0.7085
 6728SOL     OW31645   3.529   1.015  12.587  0.8179 -0.2740 -0.1683
 6728SOL    HW131646   3.493   0.971  12.664  0.4532  1.1786  0.4810
 6728SOL    HW231647   3.520   0.950  12.518  0.3267  1.0668 -1.3661
 6729SOL     OW31648   1.812   2.389  17.444  0.2331  0.4513  0.4113
 6729SOL    HW131649   1.850   2.306  17.471  0.5564  0.3517 -0.3580
 6729SOL    HW231650   1.724   2.364  17.415  0.2347 -0.6472  1.3651
 6730SOL     OW31651   1.169   1.513   7.212  0.6655  0.6682 -0.3900
 6730SOL    HW131652   1.136   1.521   7.123 -0.6760 -1.6001 -0.1096
 6730SOL    HW231653   1.216   1.430   7.200  0.2104  0.0007  2.2818
 6731SOL     OW31654   2.924   1.473   3.528  0.6000 -0.2689  0.2546
 6731SOL    HW131655   2.941   1.546   3.588 -1.0319  0.9063 -0.7200
 6731SOL    HW231656   2.834   1.491   3.500  0.3135  0.0671  1.3777
 6732SOL     OW31657   1.083   2.851   2.770 -0.1716 -0.0089  0.0948
 6732SOL    HW131658   1.154   2.787   2.777 -0.2632 -0.0609  0.5330
 6732SOL    HW231659   1.105   2.904   2.847  2.1873  0.3974 -0.8505
 6733SOL     OW31660   3.273   0.464  17.495 -0.1733 -0.6857  0.5417
 6733SOL    HW131661   3.230   0.378  17.499  1.0404 -1.4107 -1.8548
 6733SOL    HW231662   3.239   0.505  17.575 -0.5173 -0.3567  0.2271
 6734SOL     OW31663   4.492   4.610   5.791  0.1667  0.0607 -0.0094
 6734SOL    HW131664   4.520   4.552   5.719 -2.5911  0.9177 -1.7518
 6734SOL    HW231665   4.412   4.569   5.823  0.0424 -0.1160 -0.5398
 6735SOL     OW31666   1.304   1.458   1.685 -0.1716 -0.0943 -0.0545
 6735SOL    HW131667   1.294   1.455   1.590  0.3248 -0.7211 -0.0845
 6735SOL    HW231668   1.240   1.393   1.714  2.2748 -1.9676  1.1210
 6736SOL     OW31669   1.452   3.395   7.776 -0.1865  0.0837 -0.2803
 6736SOL    HW131670   1.460   3.460   7.847  4.1010 -0.9620  0.1670
 6736SOL    HW231671   1.456   3.451   7.698 -1.6346  1.4204  0.5894
 6737SOL     OW31672   2.937   0.806   5.445  0.1497  0.6292  0.5272
 6737SOL    HW131673   3.015   0.820   5.391  1.2467  0.9821  2.2393
 6737SOL    HW231674   2.969   0.824   5.533 -1.3824 -1.0493  1.4259
 6738SOL     OW31675   3.334   1.532   4.615  0.3626 -0.0619  0.8284
 6738SOL    HW131676   3.365   1.502   4.701 -0.3213 -1.8526  0.4611
 6738SOL    HW231677   3.381   1.479   4.551 -0.1398  0.3243  0.1400
 6739SOL     OW31678   0.027   4.356   3.717  0.3113  0.3846 -0.2825
 6739SOL    HW131679   4.689   4.375   3.647 -0.4741 -0.8402  0.1046
 6739SOL    HW231680   0.098   4.417   3.694  1.2975 -0.1985  1.2521
 6740SOL     OW31681   3.101   0.126   8.833  0.2739 -0.4649 -0.3645
 6740SOL    HW131682   3.194   0.148   8.837  0.2194 -0.4231  0.6432
 6740SOL    HW231683   3.086   0.132   8.739  0.5222 -1.0882 -0.4443
 6741SOL     OW31684   0.652   2.076   3.192  0.6973  0.1942 -0.1337
 6741SOL    HW131685   0.666   1.990   3.151  0.5970  0.3999 -0.5934
 6741SOL    HW231686   0.729   2.119   3.155  1.4950  0.6135  2.0561
 6742SOL     OW31687   1.957   3.834   8.937  0.5196 -0.7087 -0.7549
 6742SOL    HW131688   1.888   3.865   8.879  0.1526  0.2793  0.2192
 6742SOL    HW231689   2.027   3.897   8.920  1.3261 -1.3758  0.0149
 6743SOL     OW31690   3.348   3.843   5.036  0.0612 -0.0928 -0.1142
 6743SOL    HW131691   3.391   3.758   5.040 -1.1061 -0.6604  0.3726
 6743SOL    HW231692   3.314   3.845   4.947  1.5454 -3.4341 -0.7285
 6744SOL     OW31693   2.675   2.955   3.628  0.7048 -0.2240 -0.0256
 6744SOL    HW131694   2.769   2.948   3.613  0.6749  0.9356 -0.7674
 6744SOL    HW231695   2.642   2.909   3.551 -2.0353  2.4723 -0.4823
 6745SOL     OW31696   3.387   0.172   3.468 -0.4714  0.0000  0.4881
 6745SOL    HW131697   3.419   0.147   3.382 -1.6476 -1.0862  0.3647
 6745SOL    HW231698   3.467   0.158   3.518  0.5787 -2.6062 -1.9262
 6746SOL     OW31699   0.206   1.364  16.458  0.0047 -0.5021  0.2224
 6746SOL    HW131700   0.268   1.388  16.388  2.1906 -3.1412  1.2298
 6746SOL    HW231701   0.195   1.444  16.509 -0.4530  0.6831 -1.7493
 6747SOL     OW31702   4.677   2.018   4.459 -0.2160 -0.1637 -0.1366
 6747SOL    HW131703   4.656   2.111   4.449  1.5315  0.3666  1.0507
 6747SOL    HW231704   0.047   2.029   4.454 -0.2665  1.7899  2.7003
 6748SOL     OW31705   3.720   3.650   5.782  0.3880 -0.4433 -0.3847
 6748SOL    HW131706   3.720   3.559   5.752 -0.8099 -0.9315  1.0488
 6748SOL    HW231707   3.810   3.668   5.807  0.5456 -0.4686 -0.9451
 6749SOL     OW31708   4.508   0.916   4.849 -0.3467  0.0773 -0.1098
 6749SOL    HW131709   4.547   0.911   4.936 -4.3782  1.7874  1.8129
 6749SOL    HW231710   4.511   0.827   4.813  0.8164  0.1703 -0.2402
 6750SOL     OW31711   0.732   1.069  15.158  0.4929  0.1860  0.1461
 6750SOL    HW131712   0.673   1.060  15.084  1.5029 -0.3713 -0.5832
 6750SOL    HW231713   0.807   1.024  15.119 -1.1434 -2.1765 -0.3368
 6751SOL     OW31714   1.564   4.086   3.690  0.3412 -0.1048  0.2458
 6751SOL    HW131715   1.615   4.067   3.769 -0.4553 -1.8290  0.3533
 6751SOL    HW231716   1.592   4.010   3.639  4.1362  0.8614  0.8669
 6752SOL     OW31717   2.067   0.185  15.202 -0.0059  0.0841 -0.0528
 6752SOL    HW131718   2.115   0.125  15.145  0.8035 -0.2525  0.9904
 6752SOL    HW231719   2.142   0.239  15.228  0.8529 -0.9047 -0.4888
 6753SOL     OW31720   0.991   3.113   5.299  0.2842  0.0859  0.0174
 6753SOL    HW131721   0.978   3.183   5.363  0.1536 -1.6902  1.9388
 6753SOL    HW231722   1.047   3.054   5.348 -1.7297 -1.1145  0.8557
 6754SOL     OW31723   0.798   4.105   4.079 -0.2697 -0.2293 -0.2385
 6754SOL    HW131724   0.829   4.179   4.131 -0.6691  0.3310 -0.7918
 6754SOL    HW231725   0.713   4.086   4.119 -0.6969 -0.2304 -1.1545
 6755SOL     OW31726   3.324   0.755  11.797  0.6167 -0.0704 -0.0164
 6755SOL    HW131727   3.311   0.668  11.834  0.1271 -0.0427 -0.1226
 6755SOL    HW231728   3.231   0.771  11.778  0.3922 -1.4648 -0.0971
 6756SOL     OW31729   1.689   3.712   6.979 -0.1245  0.3571 -0.7036
 6756SOL    HW131730   1.738   3.722   6.898  0.4779 -1.7150 -0.5804
 6756SOL    HW231731   1.600   3.738   6.956  0.2387  1.6992 -0.5787
 6757SOL     OW31732   4.393   1.119   3.376 -0.5489 -0.2263 -0.0850
 6757SOL    HW131733   4.385   1.028   3.350  0.2875 -0.7374  1.4017
 6757SOL    HW231734   4.394   1.163   3.291  1.3436  1.5778  0.8667
 6758SOL     OW31735   4.053   3.989   4.535  0.3191  0.5968 -0.0967
 6758SOL    HW131736   4.035   4.068   4.586 -0.2687  0.9406 -0.8266
 6758SOL    HW231737   3.969   3.957   4.502 -0.1299  0.8710  0.7862
 6759SOL     OW31738   1.501   1.191  15.594  0.2330  0.5420  0.3017
 6759SOL    HW131739   1.449   1.204  15.673 -2.0151  2.4854 -1.4801
 6759SOL    HW231740   1.494   1.273  15.544  1.4228  0.7441  0.4616
 6760SOL     OW31741   3.766   2.946   9.448  0.6040  0.3180  0.2354
 6760SOL    HW131742   3.745   2.938   9.541  2.2249  0.4805  0.6116
 6760SOL    HW231743   3.796   2.857   9.433  1.2393  1.0383 -2.8536
 6761SOL     OW31744   3.777   4.334   1.255 -0.0275  0.8284  0.2548
 6761SOL    HW131745   3.809   4.414   1.298 -3.1554  0.8367  2.5493
 6761SOL    HW231746   3.682   4.337   1.266  0.1338  3.4777  0.8865
 6762SOL     OW31747   4.070   1.845  11.351  0.3998  0.1470 -0.6095
 6762SOL    HW131748   4.150   1.862  11.301  0.1953 -2.1843 -1.6896
 6762SOL    HW231749   4.087   1.877  11.440  0.0692 -0.4141 -0.3449
 6763SOL     OW31750   4.704   2.748   6.900 -0.0843  0.3897  0.7750
 6763SOL    HW131751   0.044   2.818   6.890 -0.5766  0.7228 -0.0360
 6763SOL    HW231752   4.623   2.799   6.910 -1.3176 -1.7568  1.8099
 6764SOL     OW31753   0.637   3.827   2.432  0.4849 -0.2954 -0.2594
 6764SOL    HW131754   0.567   3.813   2.368 -0.7500 -1.7385  1.4126
 6764SOL    HW231755   0.691   3.885   2.378  1.3938 -1.8422 -0.9897
 6765SOL     OW31756   0.853   1.646  11.372 -0.0118 -0.2990 -0.1366
 6765SOL    HW131757   0.835   1.603  11.456 -1.4441  0.0724 -0.2437
 6765SOL    HW231758   0.855   1.737  11.402  1.4415 -0.6368  0.7370
 6766SOL     OW31759   2.502   4.283   3.050 -0.5003  0.4403  0.3574
 6766SOL    HW131760   2.535   4.341   2.981 -2.6143  1.0994 -0.0849
 6766SOL    HW231761   2.429   4.325   3.096 -0.8531  0.1738  0.0406
 6767SOL     OW31762   1.223   4.668  17.540  0.0494  0.4146  0.7007
 6767SOL    HW131763   1.316   4.690  17.540 -0.2936  1.9001 -1.0821
 6767SOL    HW231764   1.226   4.583  17.495 -1.0106 -0.2340  1.8794
 6768SOL     OW31765   0.031   3.130  11.417  0.0396 -0.4410  0.1642
 6768SOL    HW131766   4.688   3.141  11.483 -0.5663 -1.5307 -0.2718
 6768SOL    HW231767   0.102   3.177  11.460 -0.8009  0.1242  0.9145
 6769SOL     OW31768   0.981   1.265  15.291  0.5054 -0.0097 -0.3337
 6769SOL    HW131769   1.069   1.232  15.274  0.1497 -0.8402 -0.5362
 6769SOL    HW231770   0.935   1.234  15.213  1.0337  0.1327 -0.6980
 6770SOL     OW31771   3.536   3.027   6.890  0.9687  0.3141 -0.2331
 6770SOL    HW131772   3.585   3.009   6.970 -0.5625  0.5914  0.7776
 6770SOL    HW231773   3.586   3.099   6.850  2.4780  0.5075  1.9645
 6771SOL     OW31774   3.331   2.788   6.650 -0.2831 -0.2872  0.3214
 6771SOL    HW131775   3.419   2.760   6.673  0.2488  1.2914  0.2013
 6771SOL    HW231776   3.284   2.772   6.732 -0.9198 -3.0417 -0.5644
 6772SOL     OW31777   3.245   4.676   8.632 -0.0748  0.2320 -0.2989
 6772SOL    HW131778   3.312   0.019   8.634 -0.3064  0.4575 -0.2381
 6772SOL    HW231779   3.250   4.644   8.722 -2.3405  1.9047  0.4245
 6773SOL     OW31780   0.998   3.643  11.736 -0.3396 -0.0928 -0.3036
 6773SOL    HW131781   0.905   3.666  11.740 -0.0077  1.0028  1.3166
 6773SOL    HW231782   0.999   3.550  11.756 -2.5394 -0.1099 -0.2182
 6774SOL     OW31783   4.291   3.242   2.391 -0.1240 -0.1923  0.6540
 6774SOL    HW131784   4.376   3.218   2.427  1.4629  0.7361 -2.4782
 6774SOL    HW231785   4.260   3.307   2.454 -0.0496 -0.1373  0.6332
 6775SOL     OW31786   2.970   2.265   4.864  0.5052 -0.1706 -0.2203
 6775SOL    HW131787   3.000   2.321   4.792  0.6106 -1.5813 -1.2592
 6775SOL    HW231788   2.890   2.231   4.824  0.1548  0.6420 -0.2064
 6776SOL     OW31789   2.913   3.112   6.324  0.3711 -0.2813 -0.2683
 6776SOL    HW131790   2.986   3.138   6.380  0.2521 -0.1414 -0.1801
 6776SOL    HW231791   2.948   3.053   6.257  2.2744  0.2246  0.2879
 6777SOL     OW31792   0.562   0.495   8.428 -0.3178  0.1132 -0.1386
 6777SOL    HW131793   0.586   0.451   8.510  1.2324  0.4078 -0.4206
 6777SOL    HW231794   0.510   0.424   8.391  0.3721  0.1596 -1.1919
 6778SOL     OW31795   4.403   1.658   5.531 -0.1110  0.1049 -0.4879
 6778SOL    HW131796   4.497   1.644   5.538 -0.2276  1.0656  3.0190
 6778SOL    HW231797   4.374   1.572   5.564 -0.0663  0.8318  1.4376
 6779SOL     OW31798   1.335   4.336   0.750  0.0007  0.2527  0.3775
 6779SOL    HW131799   1.251   4.340   0.795 -0.8273  0.1168 -1.1599
 6779SOL    HW231800   1.306   4.279   0.679  0.9093 -1.1511  1.1296
 6780SOL     OW31801   1.935   1.461   2.936 -0.2677  0.0070  0.2569
 6780SOL    HW131802   2.007   1.435   2.877  0.0978 -0.9257  1.1055
 6780SOL    HW231803   1.960   1.552   2.950  1.3428 -0.5725  1.1335
 6781SOL     OW31804   1.788   4.261  16.861  0.4433 -0.3057  0.0656
 6781SOL    HW131805   1.805   4.326  16.792 -0.3555 -0.6037 -0.4071
 6781SOL    HW231806   1.734   4.316  16.918  2.0582  0.6451  0.6733
 6782SOL     OW31807   3.541   1.422  12.258  0.7391  0.1522  0.2190
 6782SOL    HW131808   3.537   1.364  12.334  0.7330  0.5408  0.5197
 6782SOL    HW231809   3.597   1.368  12.203  0.3779  0.3484 -0.3368
 6783SOL     OW31810   3.895   2.669  11.327  0.0296 -0.0366 -0.0107
 6783SOL    HW131811   3.817   2.687  11.378 -0.7016  2.5329 -2.0287
 6783SOL    HW231812   3.951   2.668  11.405  1.8857  1.2005 -1.3122
 6784SOL     OW31813   1.684   0.023   0.909 -0.7662 -0.4286 -0.4695
 6784SOL    HW131814   1.600   0.021   0.864 -0.4770 -1.1185 -0.9807
 6784SOL    HW231815   1.697   4.654   0.896  0.0018  0.2219 -4.1476
 6785SOL     OW31816   0.098   3.384   0.980 -0.1216  0.1105  0.2442
 6785SOL    HW131817   0.137   3.422   1.059  0.6570 -1.0637  0.4371
 6785SOL    HW231818   0.068   3.296   1.005 -2.3275  0.3592 -1.5339
 6786SOL     OW31819   0.946   0.147   6.471  0.3394  0.0967  0.2443
 6786SOL    HW131820   0.897   0.212   6.420  0.7299 -2.6304 -3.6039
 6786SOL    HW231821   1.036   0.163   6.444 -0.6096  1.8523 -1.8708
 6787SOL     OW31822   0.529   4.599   1.624  0.3626  0.3045 -0.0105
 6787SOL    HW131823   0.535   4.564   1.713 -1.6895 -0.9269 -0.3527
 6787SOL    HW231824   0.621   4.611   1.598  0.8539 -0.2671  1.4503
 6788SOL     OW31825   0.546   0.951   3.352  0.5545  0.8588 -0.2182
 6788SOL    HW131826   0.599   0.893   3.406  0.0163  0.3725 -0.2145
 6788SOL    HW231827   0.454   0.930   3.363  0.4065  2.8814  2.3872
 6789SOL     OW31828   2.634   3.342  10.102 -0.0080 -0.3385  0.2978
 6789SOL    HW131829   2.573   3.293  10.046  0.5424  0.1244 -0.7020
 6789SOL    HW231830   2.581   3.401  10.155 -0.1171 -1.0968  1.0301
 6790SOL     OW31831   3.921   2.401   5.718  0.4593 -0.2286  0.1115
 6790SOL    HW131832   3.972   2.411   5.638  0.0279 -1.4436 -0.3231
 6790SOL    HW231833   3.898   2.493   5.723 -0.8948 -0.5885  0.3584
 6791SOL     OW31834   2.474   0.165  14.275  0.2108  0.0901 -0.2505
 6791SOL    HW131835   2.517   0.240  14.315  0.3502 -0.2756  0.2821
 6791SOL    HW231836   2.511   0.148  14.189 -1.5170  1.5577 -1.2934
 6792SOL     OW31837   4.262   1.710   3.675  0.3416 -0.5233 -0.2963
 6792SOL    HW131838   4.243   1.708   3.581 -2.1236  2.3453  0.1156
 6792SOL    HW231839   4.176   1.739   3.708  0.7283 -0.3972  0.6174
 6793SOL     OW31840   2.183   1.714   0.191  0.1461 -0.0410  0.2894
 6793SOL    HW131841   2.264   1.664   0.194  0.2393  0.0950 -0.0242
 6793SOL    HW231842   2.227   1.797   0.205 -2.8108  1.5192  0.2290
 6794SOL     OW31843   1.772   1.711   4.626  0.3881 -0.4189  0.3094
 6794SOL    HW131844   1.825   1.663   4.689  2.2707  1.1440 -0.0795
 6794SOL    HW231845   1.800   1.801   4.640  0.6839 -0.1009 -2.4149
 6795SOL     OW31846   2.680   0.525   9.315  0.0926  0.1235 -0.0260
 6795SOL    HW131847   2.761   0.557   9.277 -0.1795  3.2234  2.0308
 6795SOL    HW231848   2.630   0.606   9.319 -0.6164 -0.3902  1.5303
 6796SOL     OW31849   2.858   1.665  15.230  0.2426  0.6948 -0.2978
 6796SOL    HW131850   2.843   1.718  15.152  3.6909 -0.7623 -1.9509
 6796SOL    HW231851   2.910   1.720  15.289  0.8074 -1.0033  0.7794
 6797SOL     OW31852   4.235   1.820  15.001  0.1065  0.3304  0.3380
 6797SOL    HW131853   4.317   1.788  14.965  0.0408  1.6810 -1.0394
 6797SOL    HW231854   4.174   1.781  14.938  2.7464 -1.9031 -0.8301
 6798SOL     OW31855   1.141   0.430   1.929 -0.0418 -0.0837 -0.2486
 6798SOL    HW131856   1.109   0.412   1.841 -0.5205  0.4809 -0.1915
 6798SOL    HW231857   1.139   0.342   1.964  1.3868  0.7013  1.8024
 6799SOL     OW31858   3.687   1.085   4.831 -0.1234  0.1143  0.9343
 6799SOL    HW131859   3.620   1.129   4.884 -0.3590  0.3114  0.4733
 6799SOL    HW231860   3.644   1.001   4.845 -0.5469  0.1450 -0.1713
 6800SOL     OW31861   1.857   1.293   5.105  0.2545 -0.0196 -0.7523
 6800SOL    HW131862   1.816   1.217   5.145  1.4314 -2.0293 -3.3905
 6800SOL    HW231863   1.783   1.353   5.095 -0.9698 -1.0739  2.0618
 6801SOL     OW31864   3.310   4.465   2.863 -0.3679 -0.0456  0.9365
 6801SOL    HW131865   3.346   4.378   2.844  0.6036  0.3382  1.0367
 6801SOL    HW231866   3.331   4.502   2.777 -1.5902  0.0379  0.6685
 6802SOL     OW31867   0.722   4.724   3.810 -0.5067  0.1993  0.2826
 6802SOL    HW131868   0.645   0.035   3.853 -0.8224 -1.3224  0.9862
 6802SOL    HW231869   0.701   4.631   3.821  1.8783 -0.3240  0.5676
 6803SOL     OW31870   3.021   1.780   4.024  0.1567 -0.0023 -0.5333
 6803SOL    HW131871   3.075   1.723   3.969  0.3267 -0.3108 -0.0373
 6803SOL    HW231872   2.958   1.719   4.062  0.6333  0.3935  0.8699
 6804SOL     OW31873   3.138   1.597   2.803  0.0244  0.4747 -0.0170
 6804SOL    HW131874   3.123   1.631   2.715  1.1997  2.4093  0.5324
 6804SOL    HW231875   3.148   1.504   2.783  0.5311  0.2777  1.1784
 6805SOL     OW31876   2.609   2.417  14.227 -0.2616  0.1707 -0.1664
 6805SOL    HW131877   2.559   2.368  14.292  0.3730  0.8776  0.8480
 6805SOL    HW231878   2.645   2.340  14.184 -3.4354 -1.5544  0.2744
 6806SOL     OW31879   4.428   0.436   8.214  0.2175 -0.1711 -0.0096
 6806SOL    HW131880   4.522   0.419   8.203  0.1312 -0.1968 -0.7460
 6806SOL    HW231881   4.392   0.362   8.165 -1.2375  0.6498 -0.1857
 6807SOL     OW31882   4.570   4.553   3.485 -0.7415  0.1098 -0.0223
 6807SOL    HW131883   4.567   4.510   3.399  1.5577  0.7344 -0.4021
 6807SOL    HW231884   4.487   4.600   3.481 -0.0297  1.2740 -1.1373
 6808SOL     OW31885   2.228   3.612   0.970 -0.2898  0.7698 -0.5038
 6808SOL    HW131886   2.260   3.645   0.885 -0.6904 -0.2615 -1.0542
 6808SOL    HW231887   2.298   3.639   1.030  0.5167  1.7338 -1.8520
 6809SOL     OW31888   1.826   0.338  12.623 -0.2116 -0.1655  0.3171
 6809SOL    HW131889   1.818   0.252  12.582  1.0005  1.6930 -3.8324
 6809SOL    HW231890   1.734   0.362  12.615 -0.1836  0.1936  0.9852
 6810SOL     OW31891   4.148   0.238   5.111  0.2438 -0.2556 -0.6210
 6810SOL    HW131892   4.070   0.184   5.123 -0.0754 -0.0767 -1.8912
 6810SOL    HW231893   4.222   0.177   5.110 -1.3139 -2.1718 -0.9457
 6811SOL     OW31894   3.206   2.328   3.429 -0.5009 -0.4179  0.2257
 6811SOL    HW131895   3.210   2.424   3.428  1.7420 -0.5138  0.0317
 6811SOL    HW231896   3.246   2.306   3.513 -2.1006  1.1557  1.3845
 6812SOL     OW31897   2.588   2.340   0.805 -0.3866  0.3699 -0.4070
 6812SOL    HW131898   2.584   2.423   0.852 -0.7622  0.8792 -1.3399
 6812SOL    HW231899   2.623   2.369   0.721 -0.0653  2.8133  0.5871
 6813SOL     OW31900   0.306   3.122  11.154  0.7091  0.3368 -0.5296
 6813SOL    HW131901   0.226   3.074  11.174  1.3733 -0.7317 -0.4195
 6813SOL    HW231902   0.321   3.153  11.243 -0.1299  1.2689 -0.7190
 6814SOL     OW31903   4.220   2.190   1.454 -0.2727  0.0232 -0.5090
 6814SOL    HW131904   4.221   2.104   1.497 -1.3226 -0.3908 -1.3160
 6814SOL    HW231905   4.126   2.194   1.434  0.0320  2.9622 -1.3043
 6815SOL     OW31906   2.825   2.356   4.144  0.0999  0.3062  0.0307
 6815SOL    HW131907   2.874   2.359   4.227  0.0633 -0.6800  0.0859
 6815SOL    HW231908   2.880   2.411   4.089 -1.2409  0.2337 -1.3776
 6816SOL     OW31909   0.222   3.986   7.838  0.1058 -0.2905 -0.1939
 6816SOL    HW131910   0.164   4.047   7.792 -1.3194 -0.8613  0.8224
 6816SOL    HW231911   0.182   4.011   7.921 -2.5575 -2.3680 -0.8525
 6817SOL     OW31912   4.407   4.394   6.717 -0.0362  0.7290  0.3374
 6817SOL    HW131913   4.388   4.300   6.711 -0.3855  0.8449 -0.4440
 6817SOL    HW231914   4.448   4.399   6.803  2.1215 -0.8934 -0.6001
 6818SOL     OW31915   1.642   1.242   5.947  0.2422 -0.1167  0.3535
 6818SOL    HW131916   1.720   1.281   5.907 -1.0186  0.7802 -1.2633
 6818SOL    HW231917   1.599   1.321   5.982 -1.3987 -1.2856  0.9679
 6819SOL     OW31918   1.288   3.325   8.474 -0.2005 -0.3396  0.0738
 6819SOL    HW131919   1.212   3.304   8.419  1.1960 -0.5367 -1.7708
 6819SOL    HW231920   1.275   3.273   8.553  2.1947 -2.3304 -0.8386
 6820SOL     OW31921   0.529   4.322   2.621 -0.5390 -0.2202 -0.0338
 6820SOL    HW131922   0.504   4.313   2.713  0.3927  0.4055  0.2748
 6820SOL    HW231923   0.445   4.320   2.574 -0.7259 -3.1077  0.4242
 6821SOL     OW31924   4.449   4.589  14.808  0.2428  0.3878 -0.8514
 6821SOL    HW131925   4.520   4.543  14.853 -1.6755  1.9014  3.7677
 6821SOL    HW231926   4.396   4.600  14.888  0.4929 -1.2269 -0.4714
 6822SOL     OW31927   3.775   3.943   5.714 -0.4045 -0.0757  0.5239
 6822SOL    HW131928   3.693   3.895   5.727 -1.3288  2.0731  2.4796
 6822SOL    HW231929   3.811   3.891   5.642  1.2765  1.4941  0.2303
 6823SOL     OW31930   2.546   1.117  15.812  0.2214 -0.0955  0.2266
 6823SOL    HW131931   2.482   1.071  15.757  0.4064  3.3948 -2.9379
 6823SOL    HW231932   2.621   1.119  15.753 -1.9593  0.7070 -2.5442
 6824SOL     OW31933   1.094   2.746   6.822 -0.1260 -0.2431 -0.1071
 6824SOL    HW131934   1.078   2.809   6.752 -0.5095 -2.2112 -1.7829
 6824SOL    HW231935   1.029   2.769   6.888 -0.6206 -3.8167  0.6385
 6825SOL     OW31936   1.483   4.029   5.493  0.6566  0.0781 -0.8056
 6825SOL    HW131937   1.498   3.945   5.537  2.1621  0.1374 -1.1866
 6825SOL    HW231938   1.415   4.001   5.432 -1.7007  0.2829  1.7570
 6826SOL     OW31939   4.610   3.617   6.983 -0.4653 -0.3268  0.3576
 6826SOL    HW131940   4.606   3.542   6.924  0.8756 -1.7289  2.0573
 6826SOL    HW231941   4.543   3.675   6.947 -0.6022 -2.1330 -2.3011
 6827SOL     OW31942   4.234   3.639   6.248 -0.2603 -0.1056  0.1293
 6827SOL    HW131943   4.201   3.557   6.284 -1.2650  0.6323  0.8724
 6827SOL    HW231944   4.162   3.702   6.251 -0.7191 -0.5130 -2.1225
 6828SOL     OW31945   1.505   3.683  10.103 -0.9115 -0.8716  0.0551
 6828SOL    HW131946   1.428   3.631  10.128 -1.5963 -0.8714 -2.0053
 6828SOL    HW231947   1.495   3.752  10.168  1.2179  0.2372 -0.7772
 6829SOL     OW31948   4.690   0.335   8.155 -0.3384 -0.1998  0.1546
 6829SOL    HW131949   4.711   0.319   8.063 -0.4536 -1.9099  0.4197
 6829SOL    HW231950   0.048   0.377   8.176 -0.1004 -1.0266  0.8915
 6830SOL     OW31951   2.567   3.088   9.406 -0.9993  0.0147  0.0605
 6830SOL    HW131952   2.519   3.121   9.482 -1.1569 -0.1060  0.0155
 6830SOL    HW231953   2.529   3.003   9.382  0.9344  0.2351 -3.8022
 6831SOL     OW31954   1.676   0.427   5.324 -0.0730  0.1449  0.5942
 6831SOL    HW131955   1.694   0.338   5.356  0.1301  1.2429  3.4874
 6831SOL    HW231956   1.734   0.433   5.247  2.3541  0.7873  2.4597
 6832SOL     OW31957   0.162   3.429   8.696 -0.0938  0.3099 -1.3973
 6832SOL    HW131958   0.184   3.336   8.692 -0.2524  0.2293 -0.2324
 6832SOL    HW231959   0.067   3.418   8.697 -0.4024  2.9503 -0.2026
 6833SOL     OW31960   3.879   3.579  17.142 -0.6097  0.0854 -1.0430
 6833SOL    HW131961   3.882   3.492  17.102 -1.5814 -0.2141 -0.4623
 6833SOL    HW231962   3.815   3.621  17.085 -2.4215 -2.3824 -0.8256
 6834SOL     OW31963   1.190   0.532   5.274  0.2130 -0.6268 -0.1597
 6834SOL    HW131964   1.108   0.535   5.324 -0.8565 -1.1582 -1.9032
 6834SOL    HW231965   1.171   0.533   5.180 -0.2127  2.0977 -0.0510
 6835SOL     OW31966   4.535   0.439  17.290 -0.1943 -0.0428  0.0704
 6835SOL    HW131967   4.467   0.482  17.342 -1.1779  0.1520 -1.3778
 6835SOL    HW231968   4.546   0.498  17.216 -0.0496 -0.9814 -0.6617
 6836SOL     OW31969   1.110   1.002   5.684 -0.3215 -0.3343  0.3482
 6836SOL    HW131970   1.137   0.923   5.638  1.4354 -0.8546  2.3114
 6836SOL    HW231971   1.018   0.978   5.693 -0.2333 -1.0544 -0.6859
 6837SOL     OW31972   0.696   1.482   2.528 -0.1482 -0.4337 -0.2301
 6837SOL    HW131973   0.618   1.455   2.480 -0.1344  1.8471 -1.5517
 6837SOL    HW231974   0.677   1.452   2.617  2.3276  1.1224  0.8040
 6838SOL     OW31975   0.308   2.104   5.790  0.4168  0.2943 -0.1885
 6838SOL    HW131976   0.273   2.078   5.875  0.1837  2.2908  0.3276
 6838SOL    HW231977   0.350   2.021   5.766 -0.9373 -0.3807 -0.2282
 6839SOL     OW31978   1.376   0.333   9.529  0.3420 -0.4092  0.2606
 6839SOL    HW131979   1.468   0.348   9.551  0.3909  0.7840 -0.7162
 6839SOL    HW231980   1.384   0.240   9.511  1.8208 -1.0521  4.3261
 6840SOL     OW31981   1.039   3.911  15.565  0.1625  0.8374  0.0702
 6840SOL    HW131982   0.973   3.868  15.510 -3.1665  0.3039  4.4995
 6840SOL    HW231983   1.079   3.838  15.612  1.1357  0.9765 -0.5456
 6841SOL     OW31984   3.363   3.725   0.298 -0.3002  0.1672  0.1764
 6841SOL    HW131985   3.373   3.712   0.203 -0.4848  1.4811 -0.0210
 6841SOL    HW231986   3.309   3.804   0.297 -1.4941 -0.6350  1.4880
 6842SOL     OW31987   3.688   0.305   2.617 -0.9374  0.2972 -0.0839
 6842SOL    HW131988   3.620   0.365   2.648 -2.0023 -1.0312  0.1813
 6842SOL    HW231989   3.732   0.272   2.695 -1.7125  2.1300  1.1065
 6843SOL     OW31990   1.866   1.861  17.563 -0.0558  0.6078 -0.2899
 6843SOL    HW131991   1.772   1.847  17.548  0.2632 -1.2576 -0.5477
 6843SOL    HW231992   1.886   1.768  17.576 -2.5852  0.0197 -0.5072
 6844SOL     OW31993   1.106   0.471   4.670  0.7524  0.5908 -0.2898
 6844SOL    HW131994   1.053   0.404   4.713  0.9448 -0.0229 -1.0138
 6844SOL    HW231995   1.173   0.486   4.736  0.9339  0.0611 -0.3558
 6845SOL     OW31996   4.393   2.018  13.506  0.3429 -0.2791  0.1133
 6845SOL    HW131997   4.417   1.933  13.470 -0.4595 -1.6170  2.7255
 6845SOL    HW231998   4.395   1.990  13.598  0.2332  0.4024  0.3250
 6846SOL     OW31999   2.874   4.434  17.055  0.0009  0.1872 -0.2878
 6846SOL    HW132000   2.878   4.512  17.000  0.5452  0.6026  0.3444
 6846SOL    HW232001   2.782   4.406  17.060  0.0005  0.2225 -0.0739
 6847SOL     OW32002   3.458   3.177   0.029 -0.7677 -0.1475 -0.3772
 6847SOL    HW132003   3.423   3.251   0.079 -0.3764  0.0508 -0.4027
 6847SOL    HW232004   3.410   3.098   0.056  1.0947 -0.6279  1.5341
 6848SOL     OW32005   0.706   2.060   9.453 -0.4294  0.0417  0.7656
 6848SOL    HW132006   0.625   2.110   9.450 -1.0092 -0.8159  2.2442
 6848SOL    HW232007   0.669   1.985   9.406  0.7531 -1.1851  1.7678
 6849SOL     OW32008   0.096   3.866   9.303  0.8176  0.2543  0.9164
 6849SOL    HW132009   0.166   3.815   9.262 -0.0518 -0.5896  0.4621
 6849SOL    HW232010   0.149   3.936   9.341 -1.2276  2.9046 -1.0739
 6850SOL     OW32011   0.361   3.759   3.433 -0.0515  0.1222  0.1256
 6850SOL    HW132012   0.271   3.782   3.411  0.4163  0.2359 -1.6760
 6850SOL    HW232013   0.360   3.663   3.432 -0.9890  0.1466 -0.4451
 6851SOL     OW32014   2.347   2.733   3.242 -0.0387  0.0859 -0.2605
 6851SOL    HW132015   2.428   2.687   3.263 -0.4994 -1.2162 -1.3366
 6851SOL    HW232016   2.291   2.669   3.198  2.3402 -1.3088 -1.2828
 6852SOL     OW32017   1.868   4.565  13.202 -0.0493  0.0507  0.2506
 6852SOL    HW132018   1.853   4.653  13.169  1.5543  0.1466 -0.2280
 6852SOL    HW232019   1.826   4.507  13.139  0.8504 -1.0447  0.6337
 6853SOL     OW32020   3.776   3.702   9.217 -0.2623 -0.0740 -0.1347
 6853SOL    HW132021   3.699   3.712   9.272 -1.4305 -0.2267 -1.7501
 6853SOL    HW232022   3.784   3.607   9.222  1.2895  0.0343 -0.3777
 6854SOL     OW32023   1.113   2.519   3.078  0.0454  0.2267  0.1126
 6854SOL    HW132024   1.063   2.453   3.032  2.1055 -1.9190  0.9347
 6854SOL    HW232025   1.039   2.566   3.118 -0.7357 -0.7836 -0.1560
 6855SOL     OW32026   2.287   0.752  14.803  0.8060  0.3683  0.3722
 6855SOL    HW132027   2.358   0.702  14.763  1.0310 -0.0416  1.2939
 6855SOL    HW232028   2.220   0.685  14.812 -0.9164  1.8206 -1.8458
 6856SOL     OW32029   0.050   4.701   4.566  0.6602 -0.5204 -0.2481
 6856SOL    HW132030   0.087   4.664   4.646  1.4392 -1.5223 -1.0704
 6856SOL    HW232031   4.699   0.026   4.596  2.5715  0.4769  2.9667
 6857SOL     OW32032   3.541   2.648   9.009  0.5219 -0.8620 -0.1731
 6857SOL    HW132033   3.559   2.566   9.055  1.1495 -0.4301  0.3560
 6857SOL    HW232034   3.591   2.714   9.058  0.5900 -0.6936 -0.4718
 6858SOL     OW32035   0.102   2.770  12.273  0.2976 -0.2927  0.3923
 6858SOL    HW132036   0.071   2.706  12.209 -0.5759 -0.5023  1.0293
 6858SOL    HW232037   0.187   2.796  12.236 -0.1807  1.8994  0.8011
 6859SOL     OW32038   3.298   3.420   7.096  0.2965 -0.1260 -0.2420
 6859SOL    HW132039   3.305   3.338   7.047  2.7683 -0.6556  0.9918
 6859SOL    HW232040   3.343   3.474   7.031  0.3731 -0.6238 -0.5955
 6860SOL     OW32041   2.138   4.414   9.368 -0.3848  0.7798 -0.2651
 6860SOL    HW132042   2.056   4.401   9.415  0.2756 -2.4330  0.0120
 6860SOL    HW232043   2.161   4.496   9.411  2.2571  0.9951 -2.0755
 6861SOL     OW32044   0.587   1.337   2.783 -0.1436  0.4037  0.0529
 6861SOL    HW132045   0.512   1.397   2.787 -1.0253 -0.6882 -0.1648
 6861SOL    HW232046   0.556   1.279   2.852  0.1547  0.1794 -0.0021
 6862SOL     OW32047   3.443   2.195   6.085 -0.0137  0.1859 -0.0192
 6862SOL    HW132048   3.518   2.237   6.042 -0.2802  0.7841  0.1019
 6862SOL    HW232049   3.427   2.112   6.040  1.3378 -0.6348  1.0191
 6863SOL     OW32050   1.597   2.355   5.106 -0.4921 -0.0228 -0.9600
 6863SOL    HW132051   1.508   2.333   5.076 -1.3240  1.1655  0.6431
 6863SOL    HW232052   1.612   2.442   5.070 -1.8745  0.7920  0.4411
 6864SOL     OW32053   1.471   2.895  12.083  0.0636  0.0836  0.3886
 6864SOL    HW132054   1.466   2.835  12.009  0.9116 -3.1157  2.9372
 6864SOL    HW232055   1.566   2.902  12.088 -0.0075  0.4035  1.3422
 6865SOL     OW32056   0.660   3.447   8.691 -0.4186  0.4961  0.0263
 6865SOL    HW132057   0.611   3.368   8.715  0.5820  0.0074  0.4262
 6865SOL    HW232058   0.734   3.402   8.650 -0.3687  0.7236 -0.1331
 6866SOL     OW32059   2.709   0.037   5.962 -0.3540 -0.3755 -0.2426
 6866SOL    HW132060   2.779   0.036   5.897  0.9537 -0.4901  1.1699
 6866SOL    HW232061   2.731   4.687   6.017 -1.2171 -0.0376  0.5732
 6867SOL     OW32062   1.556   2.460   6.461  0.2464  0.0074 -0.4071
 6867SOL    HW132063   1.622   2.396   6.488 -2.1212 -3.1822 -2.0154
 6867SOL    HW232064   1.493   2.393   6.433  1.4238 -1.7889  1.2521
 6868SOL     OW32065   3.893   0.006   5.728  0.3613 -0.0817  0.0528
 6868SOL    HW132066   3.923   4.642   5.749  1.1340 -0.3429 -2.1604
 6868SOL    HW232067   3.973   0.046   5.696 -0.0498  1.0590  0.4696
 6869SOL     OW32068   1.363   2.724  16.108  0.2441  0.4283  0.3082
 6869SOL    HW132069   1.365   2.642  16.059  1.9790 -1.2688  3.2218
 6869SOL    HW232070   1.308   2.774  16.048  1.0904 -0.8253 -1.5318
 6870SOL     OW32071   4.672   4.074  10.589 -0.6364  0.0383 -0.1855
 6870SOL    HW132072   4.618   4.148  10.617 -0.6438 -0.0676  0.0765
 6870SOL    HW232073   0.020   4.108  10.536  0.4587 -0.7995  0.7785
 6871SOL     OW32074   3.066   4.274   9.054 -0.0599  0.7557  0.7963
 6871SOL    HW132075   2.981   4.290   9.013 -1.4601 -2.2656  2.4685
 6871SOL    HW232076   3.090   4.358   9.093 -1.6276  0.9216  1.3846
 6872SOL     OW32077   3.392   1.916  14.877 -0.4337  0.2046  0.0729
 6872SOL    HW132078   3.458   1.981  14.853 -0.3084 -0.1263 -0.4801
 6872SOL    HW232079   3.416   1.908  14.970 -0.5531  0.0941  0.0948
 6873SOL     OW32080   3.595   2.525   2.427 -1.1914  0.4937  0.7789
 6873SOL    HW132081   3.604   2.500   2.519 -1.5590 -1.6282  0.2401
 6873SOL    HW232082   3.673   2.479   2.395 -0.7261  2.4162 -0.8005
 6874SOL     OW32083   2.724   2.053  16.284  0.1833 -0.0043  0.2197
 6874SOL    HW132084   2.671   2.041  16.362 -2.2870 -4.3268 -2.1257
 6874SOL    HW232085   2.742   1.964  16.253 -0.8099 -0.0393 -0.2573
 6875SOL     OW32086   0.676   2.776   7.419  0.2475 -0.3381 -0.0082
 6875SOL    HW132087   0.764   2.743   7.437 -0.1846 -1.1867  0.6124
 6875SOL    HW232088   0.677   2.866   7.451  0.9968  0.8552 -3.4643
 6876SOL     OW32089   2.190   1.358  14.530 -0.0590  0.2718 -0.0652
 6876SOL    HW132090   2.118   1.296  14.545 -1.1830  0.8797 -3.1250
 6876SOL    HW232091   2.143   1.439  14.551 -0.8540 -0.5409  1.3268
 6877SOL     OW32092   2.301   0.304   6.132 -0.2485 -0.4438  0.2332
 6877SOL    HW132093   2.383   0.332   6.091 -0.2631  0.4163  0.7881
 6877SOL    HW232094   2.295   0.212   6.106  0.1922 -0.0029 -1.4327
 6878SOL     OW32095   2.965   0.265  10.381  0.1344 -0.2180  0.3768
 6878SOL    HW132096   3.001   0.351  10.401 -0.9562  0.0630  1.0905
 6878SOL    HW232097   3.026   0.196  10.408  0.4300 -0.7160 -1.5168
 6879SOL     OW32098   1.733   1.078   1.242  0.0902 -0.2297 -0.4483
 6879SOL    HW132099   1.775   0.994   1.263  1.4946 -0.3657 -3.7722
 6879SOL    HW232100   1.748   1.080   1.147  0.1344 -1.0957 -0.4573
 6880SOL     OW32101   4.325   2.806   3.177 -0.5768  0.4986  0.1222
 6880SOL    HW132102   4.293   2.865   3.245 -0.2028  1.3180 -0.4006
 6880SOL    HW232103   4.399   2.855   3.140  0.4905 -0.8956  0.4000
 6881SOL     OW32104   0.808   0.480   7.460 -0.1069 -0.1424 -0.0453
 6881SOL    HW132105   0.713   0.474   7.452 -0.0558  1.1042 -1.6347
 6881SOL    HW232106   0.829   0.386   7.467  0.6848  0.1145  1.0979
 6882SOL     OW32107   1.678   0.877   7.295 -0.2449  0.3010 -0.4969
 6882SOL    HW132108   1.746   0.867   7.362  0.1022  1.0910 -0.7384
 6882SOL    HW232109   1.595   0.865   7.343 -0.1101 -1.5313 -0.7164
 6883SOL     OW32110   3.035   0.523  10.449  0.7484  0.0218 -0.9303
 6883SOL    HW132111   3.057   0.592  10.387  0.8508  1.2908  0.5200
 6883SOL    HW232112   3.092   0.548  10.522  0.2799  0.0568 -0.5776
 6884SOL     OW32113   2.840   1.347   5.854  0.1513 -0.2188 -0.6329
 6884SOL    HW132114   2.841   1.396   5.772  1.8063 -2.7776 -2.1409
 6884SOL    HW232115   2.783   1.406   5.904 -0.9722  0.4328 -2.6846
 6885SOL     OW32116   2.131   2.303  14.673 -0.3597  0.2020 -0.2219
 6885SOL    HW132117   2.138   2.341  14.585 -1.0299 -0.2480 -0.4710
 6885SOL    HW232118   2.071   2.365  14.714 -0.1572 -1.5377  2.6652
 6886SOL     OW32119   4.069   0.230   7.706  0.2233 -0.0764  0.2322
 6886SOL    HW132120   3.989   0.279   7.728 -1.6172 -1.1945 -3.8963
 6886SOL    HW232121   4.130   0.285   7.756  0.5723 -0.5031  0.2699
 6887SOL     OW32122   0.075   3.654  10.591 -0.1026 -0.3021 -0.1327
 6887SOL    HW132123   0.074   3.564  10.557 -0.2938 -0.7729  1.1302
 6887SOL    HW232124   0.021   3.698  10.525 -0.4583 -0.1635  0.2535
 6888SOL     OW32125   3.020   1.938   6.488 -0.2442  0.3402  0.3081
 6888SOL    HW132126   2.999   1.915   6.579  1.8084  0.0748  0.7126
 6888SOL    HW232127   3.042   2.030   6.505 -2.5075  1.2699 -1.8696
 6889SOL     OW32128   0.102   3.528   5.968 -0.3389 -0.2400 -0.4813
 6889SOL    HW132129   0.145   3.590   6.027 -0.8653 -1.3876  1.1047
 6889SOL    HW232130   0.170   3.501   5.906  0.4509 -0.7077  0.5932
 6890SOL     OW32131   2.846   0.020   4.877 -0.7133  0.1709 -0.0784
 6890SOL    HW132132   2.875   0.049   4.963  0.0316  0.5284 -0.4532
 6890SOL    HW232133   2.787   0.092   4.855 -0.0207  0.7483 -0.0512
 6891SOL     OW32134   3.723   1.173   5.427 -0.4660  0.5689 -0.8382
 6891SOL    HW132135   3.773   1.093   5.441 -0.4161  0.4513 -1.6925
 6891SOL    HW232136   3.738   1.203   5.337 -0.5273  1.1614 -0.6499
 6892SOL     OW32137   2.214   3.633   5.958  0.3644  0.2907 -0.1630
 6892SOL    HW132138   2.171   3.657   6.039 -0.1733  0.4680 -0.4989
 6892SOL    HW232139   2.181   3.546   5.933  1.9751 -0.6007  0.8384
 6893SOL     OW32140   1.909   4.183   9.237 -0.5501  0.2555  0.0157
 6893SOL    HW132141   1.827   4.185   9.287  0.5933  1.8265  1.8358
 6893SOL    HW232142   1.895   4.249   9.169  0.2512 -0.1044 -0.4929
 6894SOL     OW32143   2.259   2.509   0.317  0.0910  0.8911 -0.0552
 6894SOL    HW132144   2.188   2.562   0.353  0.9896  1.7732  0.4038
 6894SOL    HW232145   2.296   2.577   0.262  2.5562  0.9856  1.7516
 6895SOL     OW32146   0.028   1.916  17.366  0.1105 -0.2659  0.2219
 6895SOL    HW132147   0.030   1.917  17.270 -0.6817  0.9819  0.2222
 6895SOL    HW232148   0.048   2.004  17.398 -1.3347  0.5776 -1.1824
 6896SOL     OW32149   0.476   3.681   5.663 -0.0484 -0.5531  0.4794
 6896SOL    HW132150   0.448   3.711   5.576  1.1877 -1.2139 -0.1510
 6896SOL    HW232151   0.469   3.758   5.719  1.7614  1.2136 -1.7552
 6897SOL     OW32152   1.578   3.051   3.420 -0.2006  0.0185 -0.2392
 6897SOL    HW132153   1.507   3.102   3.380  1.3614  2.1067 -0.3882
 6897SOL    HW232154   1.635   3.050   3.344 -1.1474  0.7542 -0.9571
 6898SOL     OW32155   0.499   0.482   9.106 -0.0081 -0.7462  0.2118
 6898SOL    HW132156   0.453   0.456   9.186 -1.2581 -0.3482 -0.3762
 6898SOL    HW232157   0.556   0.554   9.133  1.5966 -2.0600  0.3275
 6899SOL     OW32158   2.040   0.452   3.767 -0.6797  0.2882  0.2929
 6899SOL    HW132159   2.052   0.546   3.778  0.7622 -0.3818  4.6645
 6899SOL    HW232160   2.107   0.417   3.826 -0.4593  0.8004  0.3437
 6900SOL     OW32161   0.771   1.750   6.873  0.4134 -0.4088 -0.2387
 6900SOL    HW132162   0.860   1.785   6.862  0.0223 -0.0072 -2.1360
 6900SOL    HW232163   0.724   1.794   6.802 -0.4170  1.9467  1.7705
 6901SOL     OW32164   1.157   1.601   7.770  0.8506 -0.3479 -0.9486
 6901SOL    HW132165   1.157   1.696   7.781  1.7627 -0.4818  0.2242
 6901SOL    HW232166   1.204   1.594   7.687 -1.1898 -0.9520 -2.0488
 6902SOL     OW32167   0.455   3.805   2.217 -0.0438  0.1103 -0.3861
 6902SOL    HW132168   0.384   3.743   2.232 -2.2434  2.8369  0.4284
 6902SOL    HW232169   0.471   3.793   2.123 -0.3411 -0.9679 -0.3013
 6903SOL     OW32170   4.262   2.003   8.193  0.5365  0.2880 -0.2275
 6903SOL    HW132171   4.237   2.037   8.107  3.2416 -0.8527 -1.4795
 6903SOL    HW232172   4.338   2.061   8.196  0.2438  0.6593 -0.0172
 6904SOL     OW32173   0.229   0.495   8.728 -0.4013 -0.4348 -0.0169
 6904SOL    HW132174   0.307   0.538   8.762  1.1649 -1.6772 -2.0629
 6904SOL    HW232175   0.220   0.415   8.781 -1.3326  0.3258  0.9716
 6905SOL     OW32176   3.822   4.291   9.477 -0.5963  0.5500 -0.2285
 6905SOL    HW132177   3.781   4.205   9.466  0.5243 -0.0690  0.5073
 6905SOL    HW232178   3.846   4.322   9.390 -0.3111  1.3913  0.1556
 6906SOL     OW32179   3.002   2.479   7.035 -0.2152  0.2574 -0.2185
 6906SOL    HW132180   3.057   2.551   7.067  0.7321 -0.3436 -0.4738
 6906SOL    HW232181   2.935   2.476   7.103 -0.9413  0.3873 -0.9410
 6907SOL     OW32182   1.565   0.797  14.251  0.7028  0.1115 -0.4422
 6907SOL    HW132183   1.578   0.742  14.174 -1.3355  2.1773 -2.2987
 6907SOL    HW232184   1.471   0.815  14.244  0.8360  0.7531 -0.6632
 6908SOL     OW32185   2.619   1.218  13.872  0.0762  0.0508  0.5389
 6908SOL    HW132186   2.713   1.203  13.876  0.1465  0.8038  1.9805
 6908SOL    HW232187   2.606   1.235  13.966 -2.5518 -0.4789  0.2882
 6909SOL     OW32188   3.936   0.568   2.540 -0.0830  0.2421 -0.0068
 6909SOL    HW132189   3.933   0.504   2.469  0.2980 -0.2025  0.3855
 6909SOL    HW232190   3.993   0.638   2.507  2.7645 -0.8405  2.6922
 6910SOL     OW32191   0.768   4.038   5.378 -0.0519 -0.1995  0.2039
 6910SOL    HW132192   0.726   3.952   5.367  1.9461 -1.0439 -0.8989
 6910SOL    HW232193   0.751   4.075   5.292 -2.6602  2.9711  2.0520
 6911SOL     OW32194   2.149   3.060   4.815 -0.4606  0.3776 -0.4462
 6911SOL    HW132195   2.196   2.979   4.834 -0.1066  1.2518  2.4601
 6911SOL    HW232196   2.153   3.106   4.899  0.0326 -0.3149 -0.0945
 6912SOL     OW32197   2.621   1.319  11.042 -0.2036 -1.0221  0.0652
 6912SOL    HW132198   2.543   1.333  11.095  0.0036  0.6409 -0.0635
 6912SOL    HW232199   2.570   1.329  10.961 -0.0772  0.0163  0.1125
 6913SOL     OW32200   3.053   2.156  16.867 -0.1910  0.0640  0.0534
 6913SOL    HW132201   3.094   2.070  16.881 -0.0869  0.0383 -0.4126
 6913SOL    HW232202   3.126   2.218  16.863  1.5013 -2.0208 -0.9590
 6914SOL     OW32203   0.097   3.995   6.220  0.3809  1.1057  0.5504
 6914SOL    HW132204   0.191   4.000   6.203  0.3090  0.8287  0.0561
 6914SOL    HW232205   0.093   4.010   6.314  2.0094  1.2505  0.5984
 6915SOL     OW32206   1.391   1.349   3.936  0.3600 -0.2142 -0.5620
 6915SOL    HW132207   1.337   1.394   3.871 -1.2398  0.2127  1.0677
 6915SOL    HW232208   1.448   1.418   3.970  2.3536 -2.6182  0.9762
 6916SOL     OW32209   2.554   4.679   1.303  0.4038  0.5684  0.2472
 6916SOL    HW132210   2.479   0.012   1.317  0.7022  0.5670  1.9177
 6916SOL    HW232211   2.545   4.617   1.376 -0.9793 -0.0785 -0.4850
 6917SOL     OW32212   2.267   4.423   6.010  0.4286  0.0620 -0.0308
 6917SOL    HW132213   2.319   4.446   6.087  0.8829 -1.0519 -0.0088
 6917SOL    HW232214   2.313   4.467   5.939  0.5011 -1.6027 -1.0148
 6918SOL     OW32215   2.721   4.174   1.621  0.0775  0.1774  0.3086
 6918SOL    HW132216   2.695   4.180   1.529 -0.1081 -0.7508  0.2952
 6918SOL    HW232217   2.671   4.240   1.669 -0.4899 -1.0180  1.3555
 6919SOL     OW32218   4.535   1.978   3.891 -0.6568 -0.3625  0.1591
 6919SOL    HW132219   4.452   1.985   3.939  0.6852  1.8306  2.1359
 6919SOL    HW232220   4.523   1.891   3.853  1.8184 -0.4023 -0.5322
 6920SOL     OW32221   3.426   2.151  13.837  0.5592  0.0740 -0.0635
 6920SOL    HW132222   3.395   2.166  13.748 -0.0362 -0.8261 -0.0043
 6920SOL    HW232223   3.415   2.243  13.863  0.0397  0.2986 -1.1038
 6921SOL     OW32224   2.187   0.894  10.267 -0.1455  0.4185  0.4044
 6921SOL    HW132225   2.128   0.925  10.199 -0.1358 -1.3300 -0.4100
 6921SOL    HW232226   2.153   0.944  10.341 -0.9976 -1.1765  1.0982
 6922SOL     OW32227   2.333   0.153  14.590 -0.0925  0.1357 -0.0936
 6922SOL    HW132228   2.352   0.246  14.575  0.2426 -0.2654 -2.1961
 6922SOL    HW232229   2.356   0.141  14.682  1.2969  0.2751 -0.4120
 6923SOL     OW32230   1.894   0.421   9.184  0.3576  0.0299 -0.1688
 6923SOL    HW132231   1.916   0.329   9.199 -2.1743 -0.3290  1.2740
 6923SOL    HW232232   1.862   0.452   9.269 -1.1080  0.6199 -0.9491
 6924SOL     OW32233   2.955   2.017   5.483 -0.4337  0.0107 -0.5412
 6924SOL    HW132234   3.005   2.066   5.548 -0.3764 -2.4954  1.3269
 6924SOL    HW232235   3.021   2.029   5.415  0.1824  2.8996  0.6060
 6925SOL     OW32236   2.150   3.595   5.503 -0.1525  0.5630 -0.0079
 6925SOL    HW132237   2.054   3.595   5.504 -0.1837 -0.0439 -2.1136
 6925SOL    HW232238   2.175   3.530   5.437 -1.4730 -1.5274  1.5553
 6926SOL     OW32239   1.679   2.267  13.839  0.3327 -0.4708  0.1802
 6926SOL    HW132240   1.698   2.232  13.752  1.5494 -1.3823  0.8086
 6926SOL    HW232241   1.732   2.205  13.889 -0.7018 -0.1098  1.7530
 6927SOL     OW32242   1.668   1.725   5.348 -0.0474  0.0713  0.0010
 6927SOL    HW132243   1.731   1.764   5.409  0.2462 -1.0428  0.4203
 6927SOL    HW232244   1.581   1.740   5.386 -0.1868  0.8189 -0.6266
 6928SOL     OW32245   1.749   3.760  15.214 -0.2173 -0.2148  0.1268
 6928SOL    HW132246   1.688   3.714  15.272  2.2557 -2.4416  0.9183
 6928SOL    HW232247   1.713   3.830  15.160  2.3619  1.0226  0.0321
 6929SOL     OW32248   3.132   0.609   4.077 -1.0074 -0.3766  0.1453
 6929SOL    HW132249   3.209   0.631   4.025 -2.1488  0.1644 -1.3130
 6929SOL    HW232250   3.125   0.515   4.059 -3.0673 -0.3381  0.8624
 6930SOL     OW32251   2.711   2.013   6.511  0.2001 -0.0635 -0.2720
 6930SOL    HW132252   2.698   2.102   6.544 -0.9849 -0.1673 -0.4477
 6930SOL    HW232253   2.803   1.997   6.531  0.2555  1.8631  1.0195
 6931SOL     OW32254   2.440   2.989   7.899 -0.7287 -0.3371  0.5877
 6931SOL    HW132255   2.504   2.970   7.968 -0.5293 -0.1968  0.4398
 6931SOL    HW232256   2.443   2.904   7.857  0.0752  0.1931 -0.4120
 6932SOL     OW32257   1.334   2.612  12.136 -0.0692 -0.1386  0.2741
 6932SOL    HW132258   1.385   2.692  12.124  2.1978 -1.7754 -0.9732
 6932SOL    HW232259   1.399   2.543  12.125  0.6022  0.5694 -0.1680
 6933SOL     OW32260   0.850   1.678   6.559 -0.3061  0.2651  0.1687
 6933SOL    HW132261   0.779   1.643   6.612 -0.6371  0.0546 -0.4202
 6933SOL    HW232262   0.921   1.615   6.572 -0.7226  0.0307  1.2830
 6934SOL     OW32263   3.044   1.936   9.575 -0.6318  0.7558 -0.1126
 6934SOL    HW132264   3.037   1.906   9.665 -0.0015  1.4658  0.1694
 6934SOL    HW232265   3.073   2.028   9.575  0.8049  0.3056  1.0975
 6935SOL     OW32266   2.729   4.278   3.704 -0.4427 -0.0157  0.5183
 6935SOL    HW132267   2.670   4.213   3.665 -0.1373 -1.0734  1.8309
 6935SOL    HW232268   2.804   4.255   3.649  0.5946 -0.0078  1.9318
 6936SOL     OW32269   0.498   0.010   9.265  0.3196 -0.1527 -0.5810
 6936SOL    HW132270   0.542   4.659   9.301  0.7012  0.5029  0.3244
 6936SOL    HW232271   0.533   0.084   9.315 -1.2033 -0.6651  1.1990
 6937SOL     OW32272   4.555   3.241  16.738  0.0117 -0.0951  0.0101
 6937SOL    HW132273   4.573   3.153  16.704 -2.3131 -0.9935  1.0994
 6937SOL    HW232274   4.475   3.267  16.693 -0.1531  0.8058  0.8145
 6938SOL     OW32275   2.495   3.758   1.578  0.4823  0.2719 -0.2286
 6938SOL    HW132276   2.462   3.838   1.619 -0.3379 -0.1082 -0.1470
 6938SOL    HW232277   2.589   3.775   1.569  0.1318  2.0342 -0.5305
 6939SOL     OW32278   0.204   1.101   5.060 -0.1063  0.2225 -0.6571
 6939SOL    HW132279   0.261   1.065   4.992  1.6457  1.1015  0.3548
 6939SOL    HW232280   0.231   1.048   5.135 -2.4958 -2.2567 -1.5425
 6940SOL     OW32281   4.683   1.393   9.943  0.4941 -0.5499  0.3699
 6940SOL    HW132282   0.022   1.373  10.012 -1.8574 -2.4735  1.9924
 6940SOL    HW232283   4.723   1.473   9.908  1.1859 -1.3552 -0.6876
 6941SOL     OW32284   0.853   3.196   2.668 -0.1712  0.3038 -0.7111
 6941SOL    HW132285   0.837   3.114   2.715 -0.2400 -0.5161 -2.1578
 6941SOL    HW232286   0.770   3.244   2.663  0.7903  1.9602 -0.6190
 6942SOL     OW32287   0.635   1.365   4.773  0.3701  0.2709 -0.8060
 6942SOL    HW132288   0.583   1.285   4.783  0.6347  0.1164 -0.6596
 6942SOL    HW232289   0.566   1.428   4.756 -1.3645 -1.5381 -0.4324
 6943SOL     OW32290   0.792   2.015   8.767  0.1764  0.0834  0.0085
 6943SOL    HW132291   0.810   1.999   8.859  0.9449 -0.1910 -0.1859
 6943SOL    HW232292   0.879   2.043   8.738  0.3501  0.9189  1.3394
 6944SOL     OW32293   2.240   2.407  16.965 -0.0703  0.3519 -0.7893
 6944SOL    HW132294   2.335   2.397  16.968 -0.3370 -1.8861  0.3955
 6944SOL    HW232295   2.198   2.322  16.980  1.6853 -0.8190 -2.3586
 6945SOL     OW32296   4.104   1.859   5.719  0.3112 -0.0656 -0.5157
 6945SOL    HW132297   4.091   1.783   5.662  0.7999  0.5489 -1.4569
 6945SOL    HW232298   4.031   1.836   5.777 -0.4476  0.5460 -1.2298
 6946SOL     OW32299   0.528   2.312   0.688  0.1211  0.2352  0.6263
 6946SOL    HW132300   0.597   2.298   0.753 -2.0387 -1.9440  2.4573
 6946SOL    HW232301   0.501   2.399   0.716  0.9473  0.8155 -0.4039
 6947SOL     OW32302   2.569   1.251   4.650  0.5465 -0.4018  0.4421
 6947SOL    HW132303   2.662   1.272   4.641  1.1687 -2.2111  2.6387
 6947SOL    HW232304   2.560   1.218   4.560 -0.4126  0.2963  0.2811
 6948SOL     OW32305   3.328   1.957   5.957  0.0226 -0.1537  0.3029
 6948SOL    HW132306   3.272   1.929   5.885 -2.0625  3.3899  0.5309
 6948SOL    HW232307   3.277   1.953   6.038  0.5516  1.1622  0.7006
 6949SOL     OW32308   2.121   1.000   8.497 -0.2291 -0.4458  0.0034
 6949SOL    HW132309   2.131   0.905   8.493  2.4418 -0.1638 -0.4964
 6949SOL    HW232310   2.027   1.005   8.511 -0.1674 -1.0538  0.6626
 6950SOL     OW32311   4.070   3.566   5.160  0.5523 -0.4369  0.2655
 6950SOL    HW132312   4.084   3.655   5.194  1.9375 -1.0042  1.1757
 6950SOL    HW232313   3.981   3.580   5.128  0.4358  0.1811  0.8689
 6951SOL     OW32314   4.322   0.950   7.536  0.7980  0.0598  0.7358
 6951SOL    HW132315   4.327   0.870   7.588  0.0045 -0.6495 -0.2668
 6951SOL    HW232316   4.245   0.988   7.578 -1.1028 -1.2454 -1.5932
 6952SOL     OW32317   0.724   3.948  17.501  0.0281 -0.7074 -0.1846
 6952SOL    HW132318   0.706   3.958  17.408 -1.5561 -0.8090  0.1031
 6952SOL    HW232319   0.819   3.950  17.494 -0.0979 -0.6077 -1.8074
 6953SOL     OW32320   0.971   2.601   0.888 -0.2909  0.2182  0.6828
 6953SOL    HW132321   0.932   2.682   0.920 -0.1854 -0.3015  2.1374
 6953SOL    HW232322   0.989   2.616   0.795  0.8005  1.6747  1.1281
 6954SOL     OW32323   2.963   1.849   4.367 -0.1100  0.5838  0.0941
 6954SOL    HW132324   3.053   1.820   4.349  0.4485  1.7842  0.9194
 6954SOL    HW232325   2.930   1.855   4.277  0.6989  2.6876 -0.0672
 6955SOL     OW32326   2.058   1.330   0.096  0.0186 -0.2906  0.1587
 6955SOL    HW132327   2.121   1.397   0.069 -1.5685  0.7115 -1.0424
 6955SOL    HW232328   2.080   1.269   0.026  0.1716  0.3824 -0.3898
 6956SOL     OW32329   4.366   2.959  16.720  0.0005  0.2686  0.1812
 6956SOL    HW132330   4.438   2.992  16.667  0.5520 -0.4151  0.5100
 6956SOL    HW232331   4.291   3.008  16.686 -0.6540 -0.4700  0.5712
 6957SOL     OW32332   3.071   4.219   3.211  0.4611 -0.1068  0.3452
 6957SOL    HW132333   3.003   4.248   3.150  0.2175  0.7730  1.0341
 6957SOL    HW232334   3.125   4.297   3.223  0.4355  0.6660 -4.3301
 6958SOL     OW32335   2.079   2.692   4.814 -0.6121  0.4142  0.3334
 6958SOL    HW132336   2.015   2.709   4.884 -0.8257 -1.8109  0.6715
 6958SOL    HW232337   2.153   2.741   4.851  0.4665 -0.4864 -0.6676
 6959SOL     OW32338   2.407   0.340  10.983 -0.1446 -0.0245  0.0697
 6959SOL    HW132339   2.375   0.263  11.031 -0.0610  0.1292  0.3745
 6959SOL    HW232340   2.377   0.318  10.895  0.0848  2.0018 -0.5105
 6960SOL     OW32341   4.332   0.657   8.338  0.4901 -0.3251  0.1547
 6960SOL    HW132342   4.353   0.590   8.273 -0.3292 -0.0474 -0.3918
 6960SOL    HW232343   4.289   0.607   8.408 -0.3717  0.3744  0.1273
 6961SOL     OW32344   4.012   0.964   3.603  0.3304  0.0832  0.3134
 6961SOL    HW132345   4.021   0.928   3.515 -2.2992  0.5292 -0.1296
 6961SOL    HW232346   4.084   0.919   3.649 -0.5716 -1.0511  0.6112
 6962SOL     OW32347   1.618   0.491   9.519  0.0742  0.4005 -0.1300
 6962SOL    HW132348   1.618   0.576   9.475  2.0319  0.0313 -0.8300
 6962SOL    HW232349   1.634   0.522   9.608  2.4887 -0.1502 -0.3751
 6963SOL     OW32350   1.349   3.534   8.030 -0.9783  0.2797  0.2391
 6963SOL    HW132351   1.436   3.557   8.062 -1.3592  1.1861  0.6130
 6963SOL    HW232352   1.317   3.622   8.013  0.6348  0.8805  0.2772
 6964SOL     OW32353   1.496   2.926   4.233  0.5994  0.5906 -0.2028
 6964SOL    HW132354   1.522   3.001   4.287  1.0249  1.2869 -1.3827
 6964SOL    HW232355   1.548   2.866   4.287  0.5735  1.4750  0.8121
 6965SOL     OW32356   3.758   1.850   4.046 -0.4958  0.0748 -0.0675
 6965SOL    HW132357   3.805   1.924   4.007 -1.0305  0.0439 -0.7668
 6965SOL    HW232358   3.756   1.883   4.136  0.5711 -0.8567  0.2948
 6966SOL     OW32359   4.002   1.872   2.218 -0.0142 -0.5516 -0.1934
 6966SOL    HW132360   3.999   1.955   2.170 -0.4456 -1.1158 -1.1350
 6966SOL    HW232361   4.014   1.906   2.307 -0.8155 -0.4337 -0.1330
 6967SOL     OW32362   0.068   3.138  15.496  0.1893  0.1993  0.3294
 6967SOL    HW132363   0.046   3.047  15.475 -0.2988  0.6836 -1.2979
 6967SOL    HW232364   0.161   3.143  15.475  0.1540 -1.7651 -0.3451
 6968SOL     OW32365   3.455   1.572  11.429 -0.4542  0.6090 -0.3513
 6968SOL    HW132366   3.468   1.667  11.436  2.1602  0.1307  1.1879
 6968SOL    HW232367   3.535   1.525  11.451 -2.4487 -0.2351  4.9578
 6969SOL     OW32368   0.094   0.818   1.795  0.3408  0.2591 -0.4285
 6969SOL    HW132369   0.079   0.839   1.703 -0.7253  0.3509 -0.2382
 6969SOL    HW232370   0.121   0.726   1.797 -1.1806 -0.1525  1.6108
 6970SOL     OW32371   3.882   2.972   8.526  0.1955  0.2542 -0.5503
 6970SOL    HW132372   3.793   2.955   8.496 -0.0393 -0.5759  0.6252
 6970SOL    HW232373   3.887   3.067   8.536  2.0791  0.2842 -1.7635
 6971SOL     OW32374   1.581   0.573   8.248 -0.4409  0.6276 -0.5994
 6971SOL    HW132375   1.599   0.519   8.171 -1.3042  0.7262 -0.8765
 6971SOL    HW232376   1.525   0.634   8.200 -4.2679 -1.1653  1.5112
 6972SOL     OW32377   2.203   2.938   4.016 -0.0881  0.0698 -0.4305
 6972SOL    HW132378   2.289   2.903   3.992  0.6008  0.5228  1.3490
 6972SOL    HW232379   2.143   2.887   3.963  0.2285 -0.9316  0.1771
 6973SOL     OW32380   0.183   0.065   6.257  0.1990 -0.6669 -0.5687
 6973SOL    HW132381   0.252   0.131   6.255  0.1131 -0.4617  2.8602
 6973SOL    HW232382   0.128   0.104   6.325 -0.8947 -0.7717 -1.4050
 6974SOL     OW32383   3.521   3.268   5.372  0.4803 -0.5429  0.5969
 6974SOL    HW132384   3.446   3.306   5.418  1.2045  0.8045  0.6401
 6974SOL    HW232385   3.550   3.200   5.433 -2.3672 -0.1913  2.3423
 6975SOL     OW32386   1.446   4.359   6.970 -0.3571 -0.1330  0.0818
 6975SOL    HW132387   1.487   4.386   6.887 -0.5197  2.1831  0.7664
 6975SOL    HW232388   1.368   4.415   6.968 -0.2795 -0.0402 -0.5881
 6976SOL     OW32389   4.188   4.153   4.335  0.2089 -0.3434  0.3651
 6976SOL    HW132390   4.145   4.118   4.412  0.5851 -1.3716  0.1166
 6976SOL    HW232391   4.261   4.197   4.378  1.3520 -0.5183 -1.3791
 6977SOL     OW32392   1.732   1.409  11.796  0.8619  0.5986  0.0619
 6977SOL    HW132393   1.709   1.464  11.871 -1.8265  1.6815 -1.5432
 6977SOL    HW232394   1.650   1.365  11.772  0.8934  0.8113 -0.4363
 6978SOL     OW32395   2.397   3.279   1.873  0.1232  0.6100 -0.3130
 6978SOL    HW132396   2.306   3.281   1.842  0.0295  2.6334  0.1077
 6978SOL    HW232397   2.379   3.312   1.961  0.0961 -1.0455  0.3026
 6979SOL     OW32398   0.788   3.430  11.358  0.0749 -0.1145 -0.3550
 6979SOL    HW132399   0.767   3.520  11.331  0.0795 -0.2424 -0.7875
 6979SOL    HW232400   0.797   3.401  11.267 -0.2858  1.9250 -1.0535
 6980SOL     OW32401   1.486   2.145   8.499  0.2151  0.0856 -0.5462
 6980SOL    HW132402   1.463   2.164   8.590  1.0464 -0.9383 -0.1220
 6980SOL    HW232403   1.550   2.075   8.510 -0.0186 -0.0904 -0.2998
 6981SOL     OW32404   3.020   4.656  13.987 -0.2293 -0.1706 -0.4549
 6981SOL    HW132405   3.116   4.649  13.993 -0.3692 -1.3596  0.5820
 6981SOL    HW232406   2.990   4.581  14.038 -0.7093  0.4617  0.1899
 6982SOL     OW32407   0.838   0.863   4.805  0.4584  0.3240 -0.4929
 6982SOL    HW132408   0.863   0.788   4.751 -0.1303  0.7558 -1.3691
 6982SOL    HW232409   0.871   0.929   4.745  0.5943  1.4617  0.8355
 6983SOL     OW32410   4.442   2.125  16.360 -0.4120 -0.2144 -0.4164
 6983SOL    HW132411   4.504   2.157  16.426 -0.6402  0.4381 -0.5203
 6983SOL    HW232412   4.481   2.161  16.280 -0.5533  1.4121  0.2538
 6984SOL     OW32413   3.738   3.050   2.386 -0.0114 -0.0697  0.3661
 6984SOL    HW132414   3.763   3.079   2.474  0.1617  1.1213 -0.0816
 6984SOL    HW232415   3.670   2.985   2.404 -1.2068  0.7141 -1.3412
 6985SOL     OW32416   4.073   3.566   2.094  0.1559  0.2010  0.1841
 6985SOL    HW132417   4.033   3.494   2.046 -0.8543  1.9794 -1.6560
 6985SOL    HW232418   4.014   3.642   2.089  0.0070  0.0889  0.2482
 6986SOL     OW32419   3.771   3.163   9.287  0.2309  0.0798 -0.3296
 6986SOL    HW132420   3.735   3.115   9.213  0.4788 -0.0051 -0.3941
 6986SOL    HW232421   3.781   3.096   9.355  1.5593 -2.3125 -2.8860
 6987SOL     OW32422   1.285   3.570  12.337  0.8491  0.1941 -0.0009
 6987SOL    HW132423   1.336   3.494  12.308 -0.3649 -1.1913  1.5057
 6987SOL    HW232424   1.217   3.541  12.396 -2.0899  2.9930 -2.0033
 6988SOL     OW32425   1.598   3.638   8.674 -0.3681  0.5125  0.3830
 6988SOL    HW132426   1.576   3.627   8.767 -1.6584  0.9615  0.1358
 6988SOL    HW232427   1.510   3.641   8.638 -0.4845 -2.3011  0.4090
 6989SOL     OW32428   2.724   1.674   8.179 -0.2812  0.0253 -0.0967
 6989SOL    HW132429   2.797   1.694   8.120  0.5634 -0.3299  0.8293
 6989SOL    HW232430   2.691   1.760   8.206  0.8081  1.0893 -2.0948
 6990SOL     OW32431   3.682   0.070   5.565 -0.3194  0.0933  0.1747
 6990SOL    HW132432   3.604   0.086   5.618 -0.6321  0.3964 -0.3754
 6990SOL    HW232433   3.746   0.069   5.637  0.4932  1.2722 -0.5335
 6991SOL     OW32434   0.056   1.556  15.896  0.1402 -0.8215 -0.3360
 6991SOL    HW132435   0.074   1.531  15.806 -0.6647 -1.3079 -0.3631
 6991SOL    HW232436   0.050   1.651  15.893  1.3768 -0.7874 -1.4903
 6992SOL     OW32437   1.954   0.121  16.504  0.6753  0.5129 -0.2667
 6992SOL    HW132438   1.970   0.027  16.497 -0.8226  0.2873 -0.6873
 6992SOL    HW232439   2.008   0.141  16.427  0.5739  2.3323  0.1259
 6993SOL     OW32440   1.430   1.418  12.077 -0.1644 -0.3315 -0.0633
 6993SOL    HW132441   1.518   1.453  12.087 -0.5179 -0.3537  3.3108
 6993SOL    HW232442   1.441   1.353  12.007 -1.3896  0.9783 -1.4612
 6994SOL     OW32443   4.335   3.549   3.162  0.0418  0.2066  0.2285
 6994SOL    HW132444   4.418   3.581   3.197  2.7539 -4.8353 -1.5041
 6994SOL    HW232445   4.356   3.559   3.069  1.3967  3.2251  0.8917
 6995SOL     OW32446   0.679   0.390   7.112 -0.0466 -0.4816 -0.1741
 6995SOL    HW132447   0.659   0.469   7.163 -1.4778 -1.1556  0.2988
 6995SOL    HW232448   0.768   0.410   7.082  0.2276 -1.0167  0.2681
 6996SOL     OW32449   1.547   1.605   4.730  0.9528  0.0987 -0.3343
 6996SOL    HW132450   1.617   1.640   4.675  1.0005 -0.1702 -0.4455
 6996SOL    HW232451   1.545   1.665   4.804 -1.9584 -1.2119  0.6674
 6997SOL     OW32452   3.579   2.296   9.736  0.4597  0.4375  0.6485
 6997SOL    HW132453   3.646   2.357   9.705 -1.2763  2.5640  1.1419
 6997SOL    HW232454   3.627   2.213   9.735  2.1450  1.4437 -1.8684
 6998SOL     OW32455   4.518   0.301   7.792  0.0698  0.2966  0.0374
 6998SOL    HW132456   4.540   0.394   7.789  1.2645  0.0031 -0.3063
 6998SOL    HW232457   4.495   0.280   7.701 -0.7542 -0.9371  0.5184
 6999SOL     OW32458   1.351   0.471   3.895  0.1647 -0.0531 -0.4070
 6999SOL    HW132459   1.351   0.535   3.966  0.6805  0.7764 -1.1473
 6999SOL    HW232460   1.408   0.512   3.829  0.0890 -0.7631 -0.9067
 7000SOL     OW32461   0.035   1.430   4.384 -0.6820  0.1438  0.3261
 7000SOL    HW132462   4.690   1.410   4.446 -0.7335 -0.0008  0.2234
 7000SOL    HW232463   4.710   1.470   4.312 -1.9566  0.0548  1.1532
 7001SOL     OW32464   4.689   1.809   8.500 -0.4407 -0.7489 -0.1958
 7001SOL    HW132465   4.594   1.819   8.488 -0.8229 -2.0842  1.5635
 7001SOL    HW232466   4.697   1.797   8.595  0.9920  1.8132 -0.0036
 7002SOL     OW32467   4.683   0.256   9.415  0.1364 -0.7483 -0.2101
 7002SOL    HW132468   0.047   0.285   9.435 -0.8653 -0.7981  4.3383
 7002SOL    HW232469   4.657   0.212   9.496 -1.2189  1.8933  0.7766
 7003SOL     OW32470   0.342   4.581   0.908  0.5113 -0.0845  0.0046
 7003SOL    HW132471   0.374   4.542   0.990  2.0034 -1.4665 -1.2365
 7003SOL    HW232472   0.309   4.668   0.928  0.4819  0.5442 -2.8770
 7004SOL     OW32473   0.342   2.571  10.726  0.2627 -0.3567  0.2575
 7004SOL    HW132474   0.344   2.659  10.689 -0.3864 -0.6909 -0.5753
 7004SOL    HW232475   0.257   2.572  10.769 -0.0488  1.3984 -0.4045
 7005SOL     OW32476   4.648   1.995   2.998  0.1940  0.0070  0.0755
 7005SOL    HW132477   4.662   1.922   3.057 -2.4133 -1.6988 -1.4322
 7005SOL    HW232478   4.619   1.959   2.914 -0.2546  0.3729  0.0723
 7006SOL     OW32479   2.828   3.808   0.494  0.2946 -0.7866 -0.0027
 7006SOL    HW132480   2.874   3.870   0.551 -0.8680  0.6533 -0.6229
 7006SOL    HW232481   2.860   3.728   0.536  0.0468 -1.3036 -0.7956
 7007SOL     OW32482   4.208   3.776   2.920 -0.1976 -0.6476  0.4206
 7007SOL    HW132483   4.277   3.771   2.985  1.6343  1.0755 -1.3570
 7007SOL    HW232484   4.162   3.850   2.961  0.0029  0.5406 -1.4593
 7008SOL     OW32485   0.072   1.470  17.392 -0.3903 -0.2944  0.2946
 7008SOL    HW132486   0.063   1.533  17.464 -0.3524  1.0272 -0.8689
 7008SOL    HW232487   0.087   1.388  17.438  3.2282 -1.0218 -2.1875
 7009SOL     OW32488   0.962   3.099  11.125 -0.4423 -0.1696 -0.1781
 7009SOL    HW132489   0.979   3.193  11.129 -0.2388 -0.1962 -0.3745
 7009SOL    HW232490   1.050   3.063  11.138 -0.3875 -0.4121 -1.2189
 7010SOL     OW32491   1.063   1.086   2.904 -0.0846 -0.3955 -0.3733
 7010SOL    HW132492   0.972   1.110   2.884 -0.5526  0.1951  2.4478
 7010SOL    HW232493   1.101   1.081   2.817 -0.0555 -1.6796 -0.2895
 7011SOL     OW32494   2.966   0.477  17.606  0.0785  0.1300  0.8210
 7011SOL    HW132495   3.023   0.416  17.559 -0.1967  0.1171  0.5035
 7011SOL    HW232496   2.886   0.473  17.554  1.2933 -1.3572 -0.9584
 7012SOL     OW32497   4.224   2.510   7.906 -0.1707  0.0743 -0.3321
 7012SOL    HW132498   4.161   2.578   7.882  0.7253  0.6671 -0.9787
 7012SOL    HW232499   4.301   2.564   7.922 -0.1313 -0.1687  0.3211
 7013SOL     OW32500   4.709   2.112  11.994 -0.2773  0.5677 -0.0814
 7013SOL    HW132501   0.073   2.088  12.019 -0.6155  0.1752  0.7481
 7013SOL    HW232502   4.713   2.207  12.000  1.7166  0.3341  2.4077
 7014SOL     OW32503   3.979   3.355   2.671 -0.3138  1.1673 -0.2303
 7014SOL    HW132504   3.934   3.436   2.694 -0.9733  0.2772  1.6270
 7014SOL    HW232505   4.005   3.384   2.583 -2.6326  0.7519 -1.0618
 7015SOL     OW32506   4.098   4.512  13.871  0.1773  0.2251 -0.0330
 7015SOL    HW132507   4.029   4.535  13.808 -0.4164 -0.0391  0.5245
 7015SOL    HW232508   4.091   4.416  13.878 -0.0707  0.1795 -0.8590
 7016SOL     OW32509   0.627   1.328   5.281 -0.1231  0.1592 -0.5979
 7016SOL    HW132510   0.596   1.288   5.200 -1.9417 -2.4425  1.3582
 7016SOL    HW232511   0.564   1.400   5.289 -1.4716 -1.2276  1.5212
 7017SOL     OW32512   1.368   0.019   9.209 -0.2008 -0.2673 -0.2997
 7017SOL    HW132513   1.368   4.711   9.119  2.0333 -1.1684  0.0267
 7017SOL    HW232514   1.457   0.055   9.204 -0.0149 -0.7241 -0.3051
 7018SOL     OW32515   2.492   0.545   4.218  0.0568 -0.9945  0.0529
 7018SOL    HW132516   2.407   0.589   4.212  1.0842  0.8547 -1.0585
 7018SOL    HW232517   2.482   0.484   4.145  2.9001  0.8150 -1.8543
 7019SOL     OW32518   0.546   3.706   0.413  0.1463  0.2621 -0.2263
 7019SOL    HW132519   0.548   3.613   0.433 -0.3947  0.1799 -0.5486
 7019SOL    HW232520   0.506   3.701   0.326  0.8027  1.1143 -0.5790
 7020SOL     OW32521   1.503   4.395   1.693  0.2227  0.3084  0.2140
 7020SOL    HW132522   1.551   4.329   1.743  1.2197  0.6663 -0.2871
 7020SOL    HW232523   1.549   4.399   1.609 -0.4978  2.0741 -0.0902
 7021SOL     OW32524   1.283   3.703   0.996  0.1767  0.2454 -0.2905
 7021SOL    HW132525   1.333   3.782   1.011 -1.4299  1.2148 -0.0296
 7021SOL    HW232526   1.236   3.698   1.080  0.6944  0.7967  0.0237
 7022SOL     OW32527   0.616   0.824  16.727  0.0019  0.2595  0.6796
 7022SOL    HW132528   0.608   0.792  16.638  0.4417  0.0479  0.7119
 7022SOL    HW232529   0.539   0.795  16.776  0.2663 -0.3329  0.7547
 7023SOL     OW32530   4.315   2.132  12.503  0.5514 -0.1581  0.4742
 7023SOL    HW132531   4.225   2.106  12.521 -0.4121  2.6413 -0.4526
 7023SOL    HW232532   4.355   2.114  12.588  0.0531  1.7879  1.1180
 7024SOL     OW32533   3.882   3.243  13.846 -0.4645 -0.6468  0.8649
 7024SOL    HW132534   3.886   3.325  13.797  0.0650 -1.1463  0.0830
 7024SOL    HW232535   3.818   3.186  13.804 -0.8139  1.0021 -0.8386
 7025SOL     OW32536   4.380   2.468   2.863  0.2058 -0.2058 -0.2157
 7025SOL    HW132537   4.416   2.382   2.884 -1.3552 -1.1004 -1.2409
 7025SOL    HW232538   4.453   2.523   2.832  0.4948  0.6079  1.8681
 7026SOL     OW32539   1.252   1.078   9.217  0.0016 -0.8070  0.4026
 7026SOL    HW132540   1.327   1.138   9.210 -2.4501  1.9800 -1.7315
 7026SOL    HW232541   1.213   1.102   9.301  1.1845  1.7566  0.2287
 7027SOL     OW32542   0.415   3.729  16.807 -0.6440  0.3152 -0.0295
 7027SOL    HW132543   0.451   3.709  16.721 -0.0043 -1.9548  0.7679
 7027SOL    HW232544   0.323   3.707  16.790 -0.4577  0.2981 -0.9786
 7028SOL     OW32545   1.378   4.326   0.375  0.0094 -0.7505 -0.1971
 7028SOL    HW132546   1.393   4.297   0.465 -0.3750 -0.1680  0.0548
 7028SOL    HW232547   1.432   4.271   0.319  3.1273  0.4109  1.6623
 7029SOL     OW32548   0.571   3.767   8.625 -0.2333  0.7298 -0.1130
 7029SOL    HW132549   0.654   3.737   8.660 -0.2739 -0.4347 -1.0193
 7029SOL    HW232550   0.606   3.796   8.541 -0.7013  1.0607 -0.1978
 7030SOL     OW32551   3.586   2.233   6.489  0.7489 -0.6726  0.2599
 7030SOL    HW132552   3.575   2.326   6.507  0.8013 -0.6808  0.3370
 7030SOL    HW232553   3.675   2.228   6.524  0.6308 -2.2931  0.3375
 7031SOL     OW32554   2.697   2.134   1.675 -0.1384 -0.6577  0.5451
 7031SOL    HW132555   2.700   2.181   1.592 -0.4132 -0.8380  0.4301
 7031SOL    HW232556   2.697   2.201   1.743  3.5984 -1.3035  1.1467
 7032SOL     OW32557   4.393   2.113   3.235  0.1354  0.3849 -0.5799
 7032SOL    HW132558   4.345   2.046   3.186  0.4808  0.1552 -0.6020
 7032SOL    HW232559   4.462   2.057   3.270 -1.0041 -0.8124 -0.2078
 7033SOL     OW32560   0.988   4.543   8.138 -0.2716  0.5112 -0.8748
 7033SOL    HW132561   0.897   4.532   8.110 -0.5429 -2.7259  1.3340
 7033SOL    HW232562   0.989   4.569   8.230 -1.3668  0.7151 -0.9227
 7034SOL     OW32563   2.517   1.353   6.632  0.3314 -0.6914 -0.4174
 7034SOL    HW132564   2.437   1.301   6.636  0.6313 -1.2142 -1.1515
 7034SOL    HW232565   2.546   1.342   6.541  0.7315  0.5828 -0.4542
 7035SOL     OW32566   1.113   0.887   6.576 -0.1937  0.3957  0.1518
 7035SOL    HW132567   1.180   0.846   6.522  0.1556  0.8007  0.2814
 7035SOL    HW232568   1.162   0.941   6.638  0.7811  0.7624 -0.9451
 7036SOL     OW32569   2.124   0.312   1.449  0.0377 -0.2271 -0.1085
 7036SOL    HW132570   2.151   0.243   1.388  3.1270 -0.0658  1.0654
 7036SOL    HW232571   2.048   0.270   1.491 -0.1950  1.6083  1.2900
 7037SOL     OW32572   0.414   3.544   4.937 -0.7534  0.0587  0.1471
 7037SOL    HW132573   0.383   3.589   5.016  1.1330  0.7230  0.5101
 7037SOL    HW232574   0.460   3.477   4.989  0.0544  1.3706  1.1083
 7038SOL     OW32575   1.826   2.219   8.510  0.0395 -0.6961 -0.0629
 7038SOL    HW132576   1.818   2.127   8.485  2.2727 -1.1680  0.9408
 7038SOL    HW232577   1.766   2.218   8.584 -0.4382 -2.8588 -0.4775
 7039SOL     OW32578   2.167   2.654  11.492  0.2872  0.3461  0.3497
 7039SOL    HW132579   2.156   2.570  11.448  1.0834  0.1939  0.4511
 7039SOL    HW232580   2.201   2.702  11.416 -1.6299 -0.2929 -0.9274
 7040SOL     OW32581   2.632   3.750  13.707 -0.0113 -0.3676  0.2310
 7040SOL    HW132582   2.711   3.789  13.670 -0.0198  1.0755  1.6914
 7040SOL    HW232583   2.676   3.706  13.780  1.3276 -3.0043 -2.1776
 7041SOL     OW32584   1.514   2.603  12.781  0.0906 -0.3803 -0.7617
 7041SOL    HW132585   1.590   2.573  12.831  0.3163 -0.2441 -1.0205
 7041SOL    HW232586   1.507   2.695  12.806  1.7309 -1.3552  3.2431
 7042SOL     OW32587   3.820   2.846   4.715 -0.8209 -0.1897  1.0702
 7042SOL    HW132588   3.885   2.887   4.772 -1.1439  0.2658  1.1129
 7042SOL    HW232589   3.879   2.811   4.647 -0.5579  0.8763  0.7468
 7043SOL     OW32590   3.754   2.343   9.359 -0.2623  0.2273 -0.0105
 7043SOL    HW132591   3.799   2.392   9.290  1.4330  1.5857  2.0787
 7043SOL    HW232592   3.761   2.257   9.318  1.0250 -0.6807  2.1613
 7044SOL     OW32593   0.046   2.460  11.763 -0.1392  0.1558 -0.1869
 7044SOL    HW132594   4.706   2.402  11.800  1.6701  0.1074  2.9666
 7044SOL    HW232595   0.029   2.451  11.669 -0.2376 -0.9246 -0.0564
 7045SOL     OW32596   4.314   0.552   3.978  0.1643  1.1882 -0.2402
 7045SOL    HW132597   4.275   0.561   3.891  0.7884 -1.8640 -0.8166
 7045SOL    HW232598   4.228   0.546   4.018  1.1872 -3.8243  1.1396
 7046SOL     OW32599   1.881   3.661   5.989  0.1509  0.5794 -0.0970
 7046SOL    HW132600   1.855   3.736   5.935  0.1252  1.4288  1.0976
 7046SOL    HW232601   1.839   3.589   5.942 -0.5285  1.1789 -0.4065
 7047SOL     OW32602   4.160   0.885   3.871 -0.0607  0.4272  0.1729
 7047SOL    HW132603   4.087   0.852   3.923 -0.4013  1.4476  0.3436
 7047SOL    HW232604   4.181   0.967   3.917 -0.1251 -0.4987  1.8536
 7048SOL     OW32605   3.032   2.304  12.660 -0.2247 -0.0427  0.2619
 7048SOL    HW132606   3.050   2.292  12.567 -2.0717  1.4800 -0.2955
 7048SOL    HW232607   3.018   2.215  12.692  1.4547 -0.0220  1.0354
 7049SOL     OW32608   4.205   2.988   7.430  0.3314  0.5663  0.1811
 7049SOL    HW132609   4.206   3.071   7.384 -0.7885 -0.2241 -1.2684
 7049SOL    HW232610   4.232   3.028   7.513 -0.0047  2.1757 -0.4870
 7050SOL     OW32611   4.068   1.352   6.743  0.2875 -0.6603 -0.1585
 7050SOL    HW132612   4.049   1.435   6.700  0.7915 -0.1993  0.5000
 7050SOL    HW232613   3.981   1.311   6.747 -1.6159  3.4661  1.2247
 7051SOL     OW32614   4.298   4.474  15.026  0.3796 -0.8296 -0.1008
 7051SOL    HW132615   4.321   4.381  15.032  0.1311 -0.9319 -0.7675
 7051SOL    HW232616   4.203   4.479  15.034  0.2275  0.2125 -2.3501
 7052SOL     OW32617   0.072   0.919   7.348 -0.4791  0.7212 -0.3585
 7052SOL    HW132618   0.026   0.960   7.422 -0.6365 -0.4527  0.1932
 7052SOL    HW232619   0.055   0.827   7.366  0.0212  0.0654 -3.3635
 7053SOL     OW32620   3.102   3.529   7.486  0.2880  0.1565 -0.0837
 7053SOL    HW132621   3.031   3.481   7.530  1.1691  1.7557  3.0616
 7053SOL    HW232622   3.056   3.611   7.466  0.0526 -0.2005 -1.0346
 7054SOL     OW32623   2.613   0.953   8.962  0.4452  0.1740  0.2089
 7054SOL    HW132624   2.641   1.023   8.903  0.7471  0.9399  1.2621
 7054SOL    HW232625   2.690   0.956   9.019 -0.1658  2.2627  0.9331
 7055SOL     OW32626   3.374   4.631   7.106 -0.4774 -0.0119  0.3417
 7055SOL    HW132627   3.430   4.579   7.164  1.9341  2.2386  0.0338
 7055SOL    HW232628   3.290   4.601   7.140  0.5540 -2.1121  1.0186
 7056SOL     OW32629   2.855   0.355  15.393  0.4555  0.0828 -0.2501
 7056SOL    HW132630   2.786   0.291  15.375  0.3159  0.1097  0.1995
 7056SOL    HW232631   2.928   0.299  15.417 -1.8675 -2.7197  0.2358
 7057SOL     OW32632   4.721   1.574  15.150 -0.4008 -0.4413  0.2494
 7057SOL    HW132633   0.074   1.604  15.103  0.2602  1.3479  2.4852
 7057SOL    HW232634   0.020   1.484  15.168  3.9228  0.8542  0.9807
 7058SOL     OW32635   2.239   0.039   5.986  0.5074  0.2140  0.1018
 7058SOL    HW132636   2.321   4.715   5.996  0.7081  0.6306  0.5145
 7058SOL    HW232637   2.235   0.040   5.890  1.7192  1.8857  0.0661
 7059SOL     OW32638   0.788   0.934   1.226 -0.1011 -0.5663  0.2293
 7059SOL    HW132639   0.798   0.862   1.289 -2.4147 -0.2242  0.9720
 7059SOL    HW232640   0.728   0.986   1.279  1.1737  0.3030  0.8104
 7060SOL     OW32641   3.106   4.153   4.660 -0.0900 -0.0091  0.3914
 7060SOL    HW132642   3.060   4.137   4.578 -1.3933  0.0392  1.1177
 7060SOL    HW232643   3.176   4.208   4.624  0.7755 -0.6451  1.0996
 7061SOL     OW32644   4.177   1.100  16.354  0.6950 -0.6185  0.5784
 7061SOL    HW132645   4.202   1.151  16.432  0.1472  1.8491 -0.8455
 7061SOL    HW232646   4.106   1.157  16.324  1.4466 -0.1354 -0.2860
 7062SOL     OW32647   2.913   0.934   3.579 -0.0374 -0.3314 -0.1058
 7062SOL    HW132648   2.860   0.861   3.607 -1.5824  0.8056 -0.0711
 7062SOL    HW232649   3.002   0.901   3.591 -0.8580 -1.8868  1.5851
 7063SOL     OW32650   2.663   3.319   7.655 -0.1706 -0.3263 -0.4141
 7063SOL    HW132651   2.598   3.300   7.722  1.2902  0.2007  1.1471
 7063SOL    HW232652   2.640   3.252   7.591  0.6776 -0.6272 -0.4127
 7064SOL     OW32653   3.921   3.050   5.327  0.0013  0.2733 -0.2164
 7064SOL    HW132654   3.950   3.141   5.317 -0.1805  0.4990  1.2045
 7064SOL    HW232655   3.936   3.010   5.242 -0.7571  1.7092 -1.0311
 7065SOL     OW32656   3.087   0.220   8.558 -0.2694 -0.1184 -0.1644
 7065SOL    HW132657   3.163   0.276   8.540 -1.4044  0.6172 -2.5776
 7065SOL    HW232658   3.026   0.250   8.491  1.2044  1.6020 -0.7207
 7066SOL     OW32659   0.587   0.139   7.514 -0.4905 -0.2585  0.3056
 7066SOL    HW132660   0.593   0.190   7.595 -1.2418  0.7811 -0.2902
 7066SOL    HW232661   0.672   0.161   7.476 -1.1678  1.6263 -0.0841
 7067SOL     OW32662   3.468   4.438  14.727  0.0853  0.1849 -0.5401
 7067SOL    HW132663   3.466   4.422  14.821  1.8325  2.0663 -0.1734
 7067SOL    HW232664   3.555   4.403  14.712  0.6709  1.3739  0.1036
 7068SOL     OW32665   2.735   3.833   3.592 -0.1020  0.3484 -0.0011
 7068SOL    HW132666   2.810   3.779   3.568  1.5379  1.9794  1.5189
 7068SOL    HW232667   2.654   3.790   3.563  1.7729 -3.0208 -0.2233
 7069SOL     OW32668   3.550   3.946  11.918 -0.0837  0.0216 -0.2177
 7069SOL    HW132669   3.566   3.905  11.833  1.1534  0.2323 -0.0890
 7069SOL    HW232670   3.475   3.893  11.944  0.7003 -0.6145  0.7251
 7070SOL     OW32671   1.619   2.477   2.099 -0.2680 -0.1272 -0.4163
 7070SOL    HW132672   1.569   2.477   2.180 -0.2636 -2.2393 -0.4232
 7070SOL    HW232673   1.562   2.524   2.039  0.6330  1.5974  0.0792
 7071SOL     OW32674   3.349   2.880   4.644  0.7384 -0.5388  0.1089
 7071SOL    HW132675   3.441   2.909   4.644  0.3463  0.7252 -1.6245
 7071SOL    HW232676   3.335   2.880   4.549  0.0478 -2.4971  0.2308
 7072SOL     OW32677   0.674   2.425   3.368  0.7433 -0.5304  0.8275
 7072SOL    HW132678   0.591   2.402   3.409  0.1494  0.6291  0.2690
 7072SOL    HW232679   0.693   2.508   3.411  0.1550  2.0295 -3.8041
 7073SOL     OW32680   2.195   2.088   4.967  0.5152  0.0795 -0.4247
 7073SOL    HW132681   2.117   2.032   4.959  0.0177  0.7489 -0.3202
 7073SOL    HW232682   2.149   2.171   4.983  0.6582  0.0274  0.2848
 7074SOL     OW32683   0.188   0.902   1.510 -0.2915 -0.5492  0.0238
 7074SOL    HW132684   0.257   0.902   1.576  2.3639  0.2313 -2.7474
 7074SOL    HW232685   0.178   0.810   1.486 -3.4845 -0.4170  0.8701
 7075SOL     OW32686   4.369   3.471   8.994 -0.5851 -0.3266  0.5112
 7075SOL    HW132687   4.384   3.565   8.995 -1.9445 -0.1347  2.1219
 7075SOL    HW232688   4.330   3.445   9.077  0.1337  1.5556  1.4431
 7076SOL     OW32689   2.430   4.398  13.370 -0.3457 -0.1059 -0.0008
 7076SOL    HW132690   2.377   4.478  13.372 -0.4996 -0.1756 -1.5863
 7076SOL    HW232691   2.479   4.419  13.290 -2.2901  2.0887 -0.6186
 7077SOL     OW32692   4.012   3.613  10.041  0.0712  0.0176 -0.4291
 7077SOL    HW132693   3.943   3.583  10.099 -0.1069 -1.3943 -1.3586
 7077SOL    HW232694   4.011   3.554   9.965  1.3918  0.3123 -0.6896
 7078SOL     OW32695   3.425   0.552   4.094 -0.3853 -0.3966 -0.2205
 7078SOL    HW132696   3.470   0.490   4.151  2.0950  1.6407  0.0763
 7078SOL    HW232697   3.387   0.492   4.030 -1.6417  0.5644 -0.3641
 7079SOL     OW32698   3.944   2.704  15.962 -0.1446 -0.4695  0.5215
 7079SOL    HW132699   4.038   2.691  15.974  0.2276 -1.2321 -3.2614
 7079SOL    HW232700   3.912   2.657  16.039 -1.0408  2.0293  1.6780
 7080SOL     OW32701   4.476   1.144   8.389 -0.2387  0.1739  0.2091
 7080SOL    HW132702   4.465   1.239   8.388 -0.9548  0.0768 -0.9030
 7080SOL    HW232703   4.502   1.136   8.297 -1.2933 -3.2495  0.2073
 7081SOL     OW32704   4.084   2.117  14.921  0.2415 -0.0533  0.3265
 7081SOL    HW132705   4.171   2.156  14.912  1.1036 -1.7887  1.2172
 7081SOL    HW232706   4.094   2.070  15.004  1.2371 -2.6294 -1.2538
 7082SOL     OW32707   4.239   1.669  15.249 -0.0316  0.4741  0.2917
 7082SOL    HW132708   4.220   1.690  15.158  1.1498 -1.2991 -0.3498
 7082SOL    HW232709   4.329   1.636  15.242  0.5607  2.7126 -2.7653
 7083SOL     OW32710   3.393   2.087  14.098  0.2491 -0.3021 -0.1166
 7083SOL    HW132711   3.400   1.995  14.074  1.0552 -0.7643  1.8970
 7083SOL    HW232712   3.381   2.120  14.009 -2.3204  0.7508  0.6231
 7084SOL     OW32713   3.742   0.391   9.526 -0.1055 -0.2856  0.3404
 7084SOL    HW132714   3.715   0.481   9.544  0.2918 -0.2007  0.5211
 7084SOL    HW232715   3.813   0.408   9.465 -1.6506  0.0656 -1.3412
 7085SOL     OW32716   1.933   1.862  15.355  0.2422 -0.0333 -0.0727
 7085SOL    HW132717   1.937   1.767  15.362  0.8234  0.0700  0.9140
 7085SOL    HW232718   1.947   1.882  15.447 -0.6831 -1.7527  0.4355
 7086SOL     OW32719   0.146   3.525   7.083 -0.0654 -0.2717 -0.0596
 7086SOL    HW132720   0.051   3.542   7.083  0.2560  1.4870 -1.0794
 7086SOL    HW232721   0.143   3.435   7.049  0.1146  0.2147 -1.3509
 7087SOL     OW32722   3.203   0.205   9.590 -0.2207 -0.5368 -0.0030
 7087SOL    HW132723   3.216   0.127   9.643  2.3907 -0.4736 -0.5707
 7087SOL    HW232724   3.150   0.261   9.648 -1.7442 -0.0767 -1.8184
 7088SOL     OW32725   4.126   1.136   7.712 -0.4896  0.0321 -0.3806
 7088SOL    HW132726   4.035   1.165   7.723 -0.0384  2.9782 -4.4667
 7088SOL    HW232727   4.113   1.053   7.757  0.3002  0.3959  0.5198
 7089SOL     OW32728   0.690   0.219   4.919 -0.2913  0.3406 -0.5305
 7089SOL    HW132729   0.619   0.246   4.860 -0.3812  3.1582  0.8757
 7089SOL    HW232730   0.640   0.166   4.981 -1.2147  0.9703 -0.7281
 7090SOL     OW32731   1.753   0.394  13.534  0.4183  0.0089 -0.2491
 7090SOL    HW132732   1.831   0.366  13.581  0.5355 -1.4703 -1.3250
 7090SOL    HW232733   1.718   0.308  13.511 -2.5041  1.1182 -0.0324
 7091SOL     OW32734   1.638   2.515  13.997  0.2382  0.0065  0.0182
 7091SOL    HW132735   1.651   2.435  13.946 -0.6214 -0.6378  0.8262
 7091SOL    HW232736   1.559   2.552  13.958  1.6755  1.1692 -1.8263
 7092SOL     OW32737   4.213   2.904   9.076  0.3962  0.2015 -0.6306
 7092SOL    HW132738   4.210   2.999   9.076  0.5298  0.1712  3.5683
 7092SOL    HW232739   4.250   2.885   8.989  1.1174  0.0943 -0.2995
 7093SOL     OW32740   1.379   4.342   3.260 -0.4607  0.1150  0.1803
 7093SOL    HW132741   1.473   4.349   3.241 -0.7122  0.0599 -1.0178
 7093SOL    HW232742   1.378   4.336   3.356 -1.7139 -3.5709 -0.0531
 7094SOL     OW32743   0.511   4.013   4.114 -0.6545 -0.0688 -0.3503
 7094SOL    HW132744   0.476   3.965   4.038 -1.9058 -1.7085  1.2584
 7094SOL    HW232745   0.440   4.067   4.148  0.7796  1.5184  0.1119
 7095SOL     OW32746   1.715   2.749   1.282  0.6014  0.6343  0.0833
 7095SOL    HW132747   1.692   2.659   1.306 -0.6344  0.9697  0.1395
 7095SOL    HW232748   1.633   2.798   1.284  1.5198  2.1348  0.2022
 7096SOL     OW32749   3.261   4.571   5.499  0.1311 -0.6038 -0.1530
 7096SOL    HW132750   3.330   4.507   5.520 -0.5520 -1.8549 -1.6947
 7096SOL    HW232751   3.243   4.607   5.585  1.2576 -1.0824  0.2848
 7097SOL     OW32752   4.127   2.780   6.971  0.2016  0.0162  0.7874
 7097SOL    HW132753   4.203   2.774   6.914 -0.2797 -1.8750  0.3196
 7097SOL    HW232754   4.054   2.770   6.910  0.4838  2.9068 -0.0178
 7098SOL     OW32755   1.741   2.859  17.612 -0.6878 -0.4144 -0.1066
 7098SOL    HW132756   1.745   2.906  17.695 -0.2904 -3.8323  1.8288
 7098SOL    HW232757   1.660   2.808  17.620  0.0276 -1.7537 -1.3467
 7099SOL     OW32758   3.197   0.530   2.474 -0.0975  0.3308  0.4828
 7099SOL    HW132759   3.181   0.540   2.380 -1.5708  0.0509  0.7118
 7099SOL    HW232760   3.109   0.505   2.503 -0.1487  0.2673  0.2722
 7100SOL     OW32761   3.088   1.371   1.739 -0.4530 -0.7457  0.0452
 7100SOL    HW132762   3.165   1.385   1.683 -1.3376 -1.0131 -1.2556
 7100SOL    HW232763   3.072   1.451   1.789 -2.1305 -0.4968 -0.8617
 7101SOL     OW32764   3.477   2.608   1.707  0.1120  0.4702 -0.4042
 7101SOL    HW132765   3.537   2.540   1.738  0.3021  2.1225  2.8643
 7101SOL    HW232766   3.408   2.548   1.679 -0.6664  1.0544  0.2521
 7102SOL     OW32767   3.535   2.518   5.948 -0.3952  0.7152  0.2563
 7102SOL    HW132768   3.573   2.432   5.929 -0.0088  0.8741  0.3269
 7102SOL    HW232769   3.540   2.511   6.044 -3.7677  0.1399  0.4029
 7103SOL     OW32770   2.577   1.220   5.741  0.1072 -0.2292 -0.3510
 7103SOL    HW132771   2.593   1.314   5.748  1.3371 -0.4672 -0.0954
 7103SOL    HW232772   2.547   1.200   5.830  0.6491  0.5616  0.0091
 7104SOL     OW32773   3.002   3.329   8.450  0.3495 -0.2516  0.1355
 7104SOL    HW132774   3.068   3.360   8.512  1.2094 -2.0657  0.1153
 7104SOL    HW232775   2.944   3.283   8.510 -0.2143  1.8976  1.2535
 7105SOL     OW32776   3.819   2.179  14.979  0.3696  0.2447  0.5042
 7105SOL    HW132777   3.907   2.158  14.948  0.0287  0.1950 -0.4183
 7105SOL    HW232778   3.767   2.113  14.933  0.1993  1.8428 -1.5644
 7106SOL     OW32779   1.546   3.364   2.080  0.6255 -0.3510 -0.7441
 7106SOL    HW132780   1.492   3.359   2.158 -0.6361 -1.6166 -1.7075
 7106SOL    HW232781   1.601   3.438   2.107 -1.6777  1.0099  0.1811
 7107SOL     OW32782   0.051   0.647   1.496  0.3588  0.1627 -0.0497
 7107SOL    HW132783   0.115   0.626   1.565  0.4325  0.9750  0.1209
 7107SOL    HW232784   0.075   0.573   1.441  1.7632  0.5535  0.0416
 7108SOL     OW32785   2.398   2.090   4.740 -0.3868  0.0992  0.2046
 7108SOL    HW132786   2.373   2.110   4.830 -1.2508  2.1249 -0.4660
 7108SOL    HW232787   2.323   2.134   4.700  0.1983 -1.2868 -2.3993
 7109SOL     OW32788   2.867   3.898   9.278  0.6752 -0.0118  0.5897
 7109SOL    HW132789   2.803   3.968   9.293  1.1122  0.4198  0.4388
 7109SOL    HW232790   2.945   3.947   9.250  1.1954 -1.3429 -0.2837
 7110SOL     OW32791   4.015   2.684   4.867 -0.1746  0.2897  0.8551
 7110SOL    HW132792   4.057   2.768   4.845  0.5963 -1.0318 -2.7879
 7110SOL    HW232793   4.087   2.629   4.899 -0.7867 -0.9036  0.1648
 7111SOL     OW32794   4.248   4.553   8.661 -0.1505 -0.5832  0.3616
 7111SOL    HW132795   4.210   4.619   8.719  0.5457  0.7541 -0.6932
 7111SOL    HW232796   4.253   4.594   8.574 -2.2385 -1.4371 -0.1668
 7112SOL     OW32797   3.998   3.187   3.472 -0.1814 -0.3495 -0.4377
 7112SOL    HW132798   3.933   3.240   3.519  2.1119  0.7697  1.4524
 7112SOL    HW232799   3.952   3.155   3.394 -2.0758 -0.6933  0.7960
 7113SOL     OW32800   2.717   0.065   7.200 -0.4918 -0.1423 -0.8281
 7113SOL    HW132801   2.624   0.069   7.178 -0.7771 -4.1993 -0.3519
 7113SOL    HW232802   2.746   4.712   7.154  0.9378 -1.3435  2.1435
 7114SOL     OW32803   4.219   0.464   2.539  0.0890  0.8281 -0.4473
 7114SOL    HW132804   4.136   0.417   2.540  0.7660 -0.3691 -0.9488
 7114SOL    HW232805   4.201   0.538   2.598 -0.8942  0.6911 -0.5778
 7115SOL     OW32806   3.604   0.696   5.173 -0.0492  0.0959  0.4511
 7115SOL    HW132807   3.608   0.682   5.267 -1.4452 -0.6333  0.3975
 7115SOL    HW232808   3.616   0.610   5.133 -0.7657  0.3107 -0.2302
 7116SOL     OW32809   3.907   2.856   0.009  0.0658  0.0609 -0.3345
 7116SOL    HW132810   3.836   2.917   0.030  0.7722  0.8048 -0.1067
 7116SOL    HW232811   3.854   2.779  17.692 -1.4250  1.3934 -1.5494
 7117SOL     OW32812   0.650   2.303   0.450  0.0076  0.2978  0.3803
 7117SOL    HW132813   0.640   2.210   0.431 -0.4751  0.3133  0.5644
 7117SOL    HW232814   0.599   2.307   0.531 -1.0015 -3.4677 -0.0677
 7118SOL     OW32815   4.618   1.772   1.367 -0.1545  0.0120 -0.3722
 7118SOL    HW132816   4.562   1.843   1.401 -1.4934 -1.7541  1.1327
 7118SOL    HW232817   4.571   1.701   1.411  1.3008 -1.1177 -0.6733
 7119SOL     OW32818   1.477   0.546   3.661 -0.0077 -0.0580 -0.0681
 7119SOL    HW132819   1.572   0.539   3.674  0.0845  0.6492 -0.3652
 7119SOL    HW232820   1.464   0.624   3.608 -1.1006 -0.7624 -0.8397
 7120SOL     OW32821   2.634   0.364   6.923 -0.7410 -0.5354 -0.4804
 7120SOL    HW132822   2.625   0.322   6.838 -1.5948  0.9615 -1.1373
 7120SOL    HW232823   2.716   0.323   6.951 -0.1379  2.2565  1.9244
 7121SOL     OW32824   0.560   3.664   6.485  0.0182  0.4801  0.0925
 7121SOL    HW132825   0.571   3.580   6.442  1.6856  0.9992 -0.4971
 7121SOL    HW232826   0.651   3.687   6.506 -0.1436 -1.0976  2.5451
 7122SOL     OW32827   1.401   2.672  14.419 -0.7995 -0.4644 -0.3412
 7122SOL    HW132828   1.463   2.737  14.386  1.0760 -1.6945  0.7436
 7122SOL    HW232829   1.441   2.651  14.503  2.5624  2.9351 -1.1342
 7123SOL     OW32830   4.084   0.997  10.496 -0.6145 -0.6127  0.4261
 7123SOL    HW132831   4.099   0.911  10.536 -0.1362 -0.4880  0.5184
 7123SOL    HW232832   4.118   0.983  10.408  1.5297 -0.9973  1.2998
 7124SOL     OW32833   4.026   4.481   9.302 -0.0372 -0.0991 -0.0506
 7124SOL    HW132834   4.082   4.422   9.353 -1.0215 -1.7221 -0.8768
 7124SOL    HW232835   4.047   4.559   9.354  0.4330  0.7903 -1.5587
 7125SOL     OW32836   4.038   4.260   1.247  0.2138 -0.2977 -0.3775
 7125SOL    HW132837   3.945   4.273   1.263  0.7800  1.3111  1.5901
 7125SOL    HW232838   4.039   4.284   1.154 -0.2935  1.6430  0.1179
 7126SOL     OW32839   1.491   3.808   0.770  0.0092 -0.5119  0.4045
 7126SOL    HW132840   1.476   3.902   0.778  0.6275 -0.6356  3.1910
 7126SOL    HW232841   1.404   3.775   0.793 -1.3945  2.4193 -0.7782
 7127SOL     OW32842   3.890   3.790  13.357  0.3051 -0.0818  0.1585
 7127SOL    HW132843   3.961   3.803  13.293 -0.3426 -1.1618 -0.7725
 7127SOL    HW232844   3.868   3.876  13.393 -0.7114 -0.1767 -0.2210
 7128SOL     OW32845   3.546   0.231   9.409 -0.1983 -0.2749 -0.4275
 7128SOL    HW132846   3.615   0.279   9.452  0.9078 -1.5487 -0.7844
 7128SOL    HW232847   3.606   0.179   9.356  0.1557 -0.4117  0.1145
 7129SOL     OW32848   2.358   3.038   6.718  0.1733 -0.2061  0.0651
 7129SOL    HW132849   2.310   3.120   6.710  0.7455 -0.0746 -2.1374
 7129SOL    HW232850   2.452   3.051   6.726  0.2739  0.7678 -2.7850
 7130SOL     OW32851   1.072   0.619   7.211 -0.0419  0.1200  0.1689
 7130SOL    HW132852   1.083   0.708   7.177  1.7384 -0.6527 -1.2594
 7130SOL    HW232853   1.019   0.574   7.145 -0.4207  0.3645  0.3069
 7131SOL     OW32854   2.341   0.466   8.506  0.0661 -0.0021  0.0066
 7131SOL    HW132855   2.318   0.385   8.461  0.6619 -0.2389  0.1253
 7131SOL    HW232856   2.434   0.446   8.520  0.0766  0.3884  0.4671
 7132SOL     OW32857   3.693   1.116   8.420 -0.0156  0.5622  0.2967
 7132SOL    HW132858   3.656   1.033   8.450  2.0023 -0.1763  0.7710
 7132SOL    HW232859   3.778   1.110   8.464 -0.0097 -0.9311  0.1004
 7133SOL     OW32860   1.297   3.821  12.691 -0.0284 -0.3604 -0.6879
 7133SOL    HW132861   1.262   3.905  12.721 -0.6640  0.2230 -3.1154
 7133SOL    HW232862   1.370   3.848  12.636  0.5222  1.5431  0.9851
 7134SOL     OW32863   3.732   1.036  16.206 -0.1667 -0.4279 -0.0811
 7134SOL    HW132864   3.695   1.112  16.160  1.5676 -0.9192 -2.2972
 7134SOL    HW232865   3.696   1.052  16.294 -1.9882  1.5265 -1.1844
 7135SOL     OW32866   3.512   1.839   8.424 -0.4479 -0.1605 -0.1888
 7135SOL    HW132867   3.603   1.857   8.399 -0.2107 -0.0630  0.7460
 7135SOL    HW232868   3.479   1.928   8.408  1.6875  0.9761  1.6338
 7136SOL     OW32869   3.359   2.448   9.658 -0.3780 -0.0072 -0.1317
 7136SOL    HW132870   3.417   2.399   9.716 -1.1096 -0.5576  0.1416
 7136SOL    HW232871   3.407   2.455   9.575 -2.6033 -0.3387 -1.4632
 7137SOL     OW32872   1.749   0.693   6.809 -0.5858  0.2219 -0.6527
 7137SOL    HW132873   1.719   0.642   6.733 -3.7510  2.5562 -0.9654
 7137SOL    HW232874   1.668   0.741   6.826  0.0883  1.0597  0.1856
 7138SOL     OW32875   3.894   3.505   8.762  0.3360  0.1876 -0.2102
 7138SOL    HW132876   3.857   3.471   8.844 -1.6324  0.4980 -0.9716
 7138SOL    HW232877   3.824   3.497   8.697 -0.6161 -0.5149  0.8993
 7139SOL     OW32878   2.674   1.591   9.410 -0.4241  0.0112 -0.0564
 7139SOL    HW132879   2.734   1.666   9.418  1.1776 -0.9936 -2.5744
 7139SOL    HW232880   2.611   1.635   9.353 -0.1347 -0.2197 -0.5609
 7140SOL     OW32881   3.073   1.669   8.314 -0.3412 -0.3016 -0.1022
 7140SOL    HW132882   3.028   1.615   8.249  1.4744 -2.8195  0.7313
 7140SOL    HW232883   3.141   1.705   8.258  0.5718 -0.9946  0.5769
 7141SOL     OW32884   1.057   3.517  14.981 -0.3252 -0.1107  1.1343
 7141SOL    HW132885   1.082   3.476  14.899 -2.5142 -0.2859  0.5627
 7141SOL    HW232886   1.080   3.602  14.946  1.6536 -1.5994 -1.1370
 7142SOL     OW32887   0.779   1.139   0.935 -0.1228 -0.4080  0.4192
 7142SOL    HW132888   0.842   1.169   0.868 -0.6850 -0.6711 -0.2317
 7142SOL    HW232889   0.793   1.211   0.996 -1.2772 -2.7126  3.3753
 7143SOL     OW32890   0.602   2.874   7.794 -0.3046 -0.0942 -0.1733
 7143SOL    HW132891   0.683   2.831   7.821 -1.2999 -1.9768 -0.1925
 7143SOL    HW232892   0.633   2.899   7.707 -0.2668  0.1659 -0.0842
 7144SOL     OW32893   0.493   4.015   7.777 -0.0387 -0.0933  0.6073
 7144SOL    HW132894   0.408   4.009   7.822 -0.9374  1.2628 -0.8908
 7144SOL    HW232895   0.555   4.028   7.848  1.9181 -1.8691 -0.7923
 7145SOL     OW32896   4.469   4.106   3.790  0.4125  0.5872  0.0658
 7145SOL    HW132897   4.527   4.045   3.834  0.5511 -1.5735 -3.0689
 7145SOL    HW232898   4.455   4.075   3.700  1.7381 -1.5110  0.5791
 7146SOL     OW32899   2.322   0.423   5.041 -0.1273  0.1421 -0.2106
 7146SOL    HW132900   2.272   0.424   4.959 -0.2512 -1.7137 -0.1676
 7146SOL    HW232901   2.250   0.394   5.097  0.2327  0.0982  0.2297
 7147SOL     OW32902   1.019   4.425   6.764 -0.3906  0.3902 -0.0082
 7147SOL    HW132903   1.055   4.513   6.752  1.5066 -0.7500 -2.6962
 7147SOL    HW232904   0.928   4.450   6.781 -0.9585 -0.8558 -1.2415
 7148SOL     OW32905   1.233   4.038   0.059 -0.4382  0.0608 -0.0907
 7148SOL    HW132906   1.320   4.008   0.030  0.6970  1.8715  1.4246
 7148SOL    HW232907   1.239   4.132   0.043  1.2459  0.2315  1.5002
 7149SOL     OW32908   3.118   1.651  12.050  0.0188 -0.2003  0.1094
 7149SOL    HW132909   3.179   1.588  12.088  0.3509  0.8577  1.3298
 7149SOL    HW232910   3.039   1.598  12.056  1.7029 -2.7785 -0.4258
 7150SOL     OW32911   2.766   3.918   1.511  0.1970  0.2025 -0.5998
 7150SOL    HW132912   2.843   3.872   1.543  0.9166  1.0404 -1.1368
 7150SOL    HW232913   2.780   4.011   1.529 -0.0208  0.0649  0.2505
 7151SOL     OW32914   4.022   0.938   7.884  0.3187  0.1534 -0.3086
 7151SOL    HW132915   3.939   0.919   7.840  1.0891 -0.1782 -1.6120
 7151SOL    HW232916   4.011   0.915   7.976  0.5451 -3.9753 -1.2850
 7152SOL     OW32917   4.603   3.155   8.453 -0.0629  0.2114 -0.1624
 7152SOL    HW132918   4.550   3.088   8.409 -2.8134  1.7326  0.8493
 7152SOL    HW232919   4.671   3.171   8.388 -1.0511  0.6530 -1.0793
 7153SOL     OW32920   1.144   1.621   3.040 -0.0840  0.1970 -0.0500
 7153SOL    HW132921   1.125   1.550   2.979 -2.3052  0.0233  0.8416
 7153SOL    HW232922   1.222   1.593   3.088 -0.0987  0.8316  0.3469
 7154SOL     OW32923   3.527   2.396   8.629  0.0648 -0.5013 -0.3459
 7154SOL    HW132924   3.559   2.306   8.625 -0.1997 -0.6424  0.6390
 7154SOL    HW232925   3.572   2.426   8.709 -2.3428 -0.7779  1.1000
 7155SOL     OW32926   1.267   0.984   7.901 -0.3783  0.4759  0.4279
 7155SOL    HW132927   1.266   1.060   7.842 -0.9136 -0.3654 -0.6424
 7155SOL    HW232928   1.263   1.037   7.980 -2.1870  1.7696 -0.5247
 7156SOL     OW32929   1.274   3.184   4.355 -0.1675 -0.4077 -0.2423
 7156SOL    HW132930   1.213   3.251   4.386  0.6877 -0.9992  2.6944
 7156SOL    HW232931   1.218   3.107   4.345 -1.2294  0.0432  2.1331
 7157SOL     OW32932   4.460   2.868   6.914 -0.0647  0.9448 -0.5609
 7157SOL    HW132933   4.411   2.884   6.995  1.0611  0.5460  0.2083
 7157SOL    HW232934   4.419   2.926   6.850 -0.6366  0.1010 -0.9708
 7158SOL     OW32935   0.212   4.222   2.743 -0.0886  0.7143 -0.3355
 7158SOL    HW132936   0.294   4.215   2.792 -0.3031  2.5690  0.2848
 7158SOL    HW232937   0.241   4.209   2.653 -1.5684  1.0109 -0.8607
 7159SOL     OW32938   2.298   2.801   4.928 -0.5014 -0.0857  0.2426
 7159SOL    HW132939   2.368   2.850   4.885 -2.7682  1.4427 -1.7896
 7159SOL    HW232940   2.344   2.723   4.959  1.1475  1.1131  0.8021
 7160SOL     OW32941   2.368   2.091  12.643 -0.1647 -0.1524 -0.2242
 7160SOL    HW132942   2.442   2.124  12.592 -2.7884  1.0144 -3.3080
 7160SOL    HW232943   2.351   2.170  12.695 -0.5483  0.3623 -1.1143
 7161SOL     OW32944   2.152   4.637   6.383  0.3854 -0.0218 -0.5189
 7161SOL    HW132945   2.165   4.720   6.429  1.5949 -0.4143 -0.1555
 7161SOL    HW232946   2.238   4.615   6.347  1.2107  0.7525  0.9678
 7162SOL     OW32947   2.210   2.010   5.230 -0.3694 -0.3001  0.0417
 7162SOL    HW132948   2.207   2.026   5.136 -0.3762  0.1148  0.1111
 7162SOL    HW232949   2.257   1.927   5.227 -1.4165 -0.8508 -0.9025
 7163SOL     OW32950   1.597   0.872   3.205  0.3189 -0.3014 -0.7750
 7163SOL    HW132951   1.512   0.905   3.177  1.0896 -0.1770 -3.0467
 7163SOL    HW232952   1.644   0.955   3.214  2.8518 -1.8566  0.3929
 7164SOL     OW32953   4.026   4.654  10.088  0.1510 -0.2893 -0.1345
 7164SOL    HW132954   3.958   4.651  10.021  3.0391 -1.4927 -3.0154
 7164SOL    HW232955   4.081   0.004  10.066  2.4342 -2.2051 -0.9666
 7165SOL     OW32956   4.403   1.043  16.157 -0.7496 -0.2864 -0.6744
 7165SOL    HW132957   4.327   1.044  16.215 -2.0026  1.8079 -2.3360
 7165SOL    HW232958   4.402   1.130  16.117 -0.4028  0.6114  1.2855
 7166SOL     OW32959   4.036   2.561   2.365 -0.4632 -0.0276 -0.2096
 7166SOL    HW132960   3.981   2.606   2.429  0.8013  2.4991 -0.9100
 7166SOL    HW232961   4.067   2.485   2.415  2.2085  1.0452 -0.2494
 7167SOL     OW32962   2.332   2.182  16.205 -0.0747  0.3133 -0.0411
 7167SOL    HW132963   2.403   2.174  16.141 -0.5084  0.0603 -0.4912
 7167SOL    HW232964   2.342   2.274  16.229 -1.1354  0.3776  0.1548
 7168SOL     OW32965   3.837   0.844   7.724 -0.3347 -0.4147 -0.4679
 7168SOL    HW132966   3.768   0.904   7.694  0.8297  1.0660 -0.1736
 7168SOL    HW232967   3.784   0.770   7.753 -0.2472 -0.9499 -1.6423
 7169SOL     OW32968   2.041   4.438   4.419  0.0200 -0.0100  0.1557
 7169SOL    HW132969   2.056   4.523   4.379  3.4686 -0.6170  0.1637
 7169SOL    HW232970   2.092   4.456   4.498 -1.5253  0.1340  1.1318
 7170SOL     OW32971   4.641   4.361  14.150  0.2279 -0.0795  0.3231
 7170SOL    HW132972   4.574   4.311  14.103  1.6931 -1.8918  0.1786
 7170SOL    HW232973   4.709   4.295  14.139  0.7097  0.3004  1.0079
 7171SOL     OW32974   3.496   1.388   6.720 -0.0652 -0.0933 -0.1805
 7171SOL    HW132975   3.445   1.317   6.759  0.6395 -0.7854 -0.5367
 7171SOL    HW232976   3.438   1.464   6.716  1.0747  0.8768  1.6628
 7172SOL     OW32977   4.706   3.741   9.512 -0.0778  0.6152  0.0386
 7172SOL    HW132978   4.693   3.829   9.548 -0.5917  0.1557  0.9603
 7172SOL    HW232979   0.037   3.761   9.438  1.7318 -0.1360  1.2057
 7173SOL     OW32980   1.557   2.172   0.418  0.3082 -0.3444 -0.1500
 7173SOL    HW132981   1.566   2.188   0.324  3.1049  1.2943  0.3892
 7173SOL    HW232982   1.646   2.158   0.452  0.6352  0.4817 -0.6670
 7174SOL     OW32983   0.208   3.396   4.617  0.6306 -0.0848 -0.0653
 7174SOL    HW132984   0.270   3.336   4.660 -1.0396 -1.8472 -0.1369
 7174SOL    HW232985   0.266   3.453   4.566  0.7830  0.5030  0.7594
 7175SOL     OW32986   0.463   0.699  12.636 -0.0801 -0.5340 -0.2063
 7175SOL    HW132987   0.526   0.727  12.570  0.3946 -0.7030  0.1693
 7175SOL    HW232988   0.511   0.730  12.713  0.6382  1.0377 -1.2783
 7176SOL     OW32989   3.343   4.615   6.839 -0.0395  1.0491  0.2827
 7176SOL    HW132990   3.347   4.628   6.934 -0.8073  0.2908  0.4203
 7176SOL    HW232991   3.436   4.601   6.820 -0.1025 -1.8407  2.1697
 7177SOL     OW32992   2.049   3.299   4.967 -0.2564  0.2241  0.8221
 7177SOL    HW132993   2.118   3.261   5.022  0.6628  0.3862 -0.2088
 7177SOL    HW232994   2.045   3.384   5.012 -1.8279  0.4051  0.3331
 7178SOL     OW32995   0.916   4.100   9.824  0.3214  0.1497 -0.2187
 7178SOL    HW132996   0.905   4.033   9.891 -0.6612  0.7464  0.2174
 7178SOL    HW232997   0.863   4.064   9.752 -1.3164  0.0437  1.0333
 7179SOL     OW32998   2.559   1.897   8.310 -0.3677 -0.5070 -0.1898
 7179SOL    HW132999   2.463   1.886   8.312 -0.2940 -1.3360 -1.2566
 7179SOL    HW233000   2.576   1.835   8.381  0.7148  1.0426  0.8975
 7180SOL     OW33001   4.183   1.146   6.322  0.3870  1.2249  0.1934
 7180SOL    HW133002   4.123   1.095   6.377  1.4326  0.5074  0.6747
 7180SOL    HW233003   4.227   1.200   6.388 -0.1591  1.7370  0.1396
 7181SOL     OW33004   3.960   1.399   7.679 -0.5813  0.3322 -0.6678
 7181SOL    HW133005   4.041   1.422   7.724 -0.2836  0.0523 -1.0649
 7181SOL    HW233006   3.985   1.417   7.589 -0.2591 -0.5637 -0.7465
 7182SOL     OW33007   2.053   1.826  17.233  1.1814  0.1594 -0.0224
 7182SOL    HW133008   1.985   1.793  17.174  0.8960  2.9404 -1.2388
 7182SOL    HW233009   2.023   1.786  17.314 -0.7053 -1.6487 -1.5863
 7183SOL     OW33010   1.808   0.014   7.488 -0.1528 -0.0769 -0.1535
 7183SOL    HW133011   1.762   4.655   7.488 -1.3203  0.5662 -0.0576
 7183SOL    HW233012   1.899   4.716   7.467 -0.0356 -1.0882  1.5097
 7184SOL     OW33013   0.215   1.262   4.445  0.1491 -0.6132  0.8725
 7184SOL    HW133014   0.163   1.191   4.485 -0.0940 -1.4954 -0.9808
 7184SOL    HW233015   0.152   1.321   4.403  1.6689  1.1110  1.0296
 7185SOL     OW33016   1.955   1.490   8.469  0.4207 -0.5172  0.4232
 7185SOL    HW133017   2.029   1.452   8.517  0.5364  0.4870  1.0277
 7185SOL    HW233018   1.930   1.554   8.535  0.1036 -0.3714  0.1571
 7186SOL     OW33019   0.621   0.925   7.312  0.5626 -0.6003 -0.3611
 7186SOL    HW133020   0.677   0.898   7.385  1.8655 -0.1778 -1.2106
 7186SOL    HW233021   0.687   0.917   7.244  0.6498  1.1709 -0.5046
 7187SOL     OW33022   0.019   4.592   5.075  0.0690 -0.2786 -0.0068
 7187SOL    HW133023   0.015   4.519   5.013 -3.8351  0.1175 -0.2211
 7187SOL    HW233024   4.719   4.553   5.159  0.4998 -1.3416 -0.3723
 7188SOL     OW33025   4.446   0.681  16.851 -0.1875  0.4708 -0.3887
 7188SOL    HW133026   4.400   0.632  16.920  1.6789  0.3648  0.7950
 7188SOL    HW233027   4.501   0.736  16.906 -1.8383  1.4082  0.3258
 7189SOL     OW33028   0.319   1.501   7.712  0.4772 -0.3368  0.4832
 7189SOL    HW133029   0.390   1.519   7.650 -0.1325 -0.4976 -0.2578
 7189SOL    HW233030   0.362   1.469   7.792 -0.8956  2.5768  2.3516
 7190SOL     OW33031   2.436   3.570   6.489 -0.1801 -0.0250 -0.1953
 7190SOL    HW133032   2.516   3.608   6.454  0.0025  0.1974  0.4685
 7190SOL    HW233033   2.476   3.495   6.534 -0.2846 -1.4598 -2.4741
 7191SOL     OW33034   0.478   0.018   1.999  0.0225  0.2031 -0.1416
 7191SOL    HW133035   0.540   0.048   2.065 -1.5313 -0.3012  1.5276
 7191SOL    HW233036   0.473   0.094   1.941  0.0366 -0.2088 -0.6911
 7192SOL     OW33037   1.264   2.384  11.589  0.1899 -0.2922 -0.0685
 7192SOL    HW133038   1.353   2.348  11.597  0.4478  0.6044  0.9985
 7192SOL    HW233039   1.250   2.363  11.496 -3.0272 -0.7605  0.5375
 7193SOL     OW33040   1.799   0.290   4.832 -0.0912 -0.3755  0.2062
 7193SOL    HW133041   1.853   0.233   4.776  0.0639 -0.0716  0.0459
 7193SOL    HW233042   1.757   0.338   4.760  3.0282  3.7547  1.1807
 7194SOL     OW33043   4.611   4.071   2.835  0.2125  0.2816  0.2614
 7194SOL    HW133044   4.688   4.092   2.782  0.5300  0.5284  0.8189
 7194SOL    HW233045   4.540   4.116   2.788  0.9368  0.8076 -0.3217
 7195SOL     OW33046   0.720   1.629   9.450 -0.6728  0.1262 -0.1102
 7195SOL    HW133047   0.701   1.536   9.458 -0.9465  0.1413 -0.5822
 7195SOL    HW233048   0.632   1.668   9.449  0.1698  2.0481  1.2363
 7196SOL     OW33049   0.017   3.487  10.353  0.6240  0.2564  1.0462
 7196SOL    HW133050   4.655   3.526  10.345  0.5041  0.3969  3.0543
 7196SOL    HW233051   0.017   3.444  10.267 -0.7409 -2.2050  2.2617
 7197SOL     OW33052   1.149   1.708   3.810 -0.1735 -0.0777 -0.0740
 7197SOL    HW133053   1.128   1.776   3.746 -0.4992  1.0430  1.2079
 7197SOL    HW233054   1.231   1.739   3.849 -0.6157  0.9714  0.0253
 7198SOL     OW33055   4.572   0.988  16.736 -0.3111  0.1252 -0.0278
 7198SOL    HW133056   4.542   1.075  16.765 -0.2979  0.0600  0.1822
 7198SOL    HW233057   4.563   0.927  16.809 -2.8202 -1.0973 -1.3751
 7199SOL     OW33058   4.177   3.920   9.351 -0.6305 -0.4100 -0.1267
 7199SOL    HW133059   4.213   3.997   9.307 -1.5847  1.0597  1.6578
 7199SOL    HW233060   4.257   3.891   9.395 -0.2049  2.4985  0.9717
 7200SOL     OW33061   0.286   2.947   4.759 -0.3368 -0.5752  0.0807
 7200SOL    HW133062   0.356   3.011   4.774 -2.0795  1.2384  0.4298
 7200SOL    HW233063   0.213   3.008   4.770 -1.1701 -1.3889 -0.9367
 7201SOL     OW33064   2.577   1.190   0.222 -0.2209 -0.3686 -0.0448
 7201SOL    HW133065   2.621   1.217   0.142  1.8958 -0.5580  1.0686
 7201SOL    HW233066   2.643   1.182   0.291 -2.1185  0.6327  1.8902
 7202SOL     OW33067   1.300   3.814   8.042  0.4879  0.0193  1.0662
 7202SOL    HW133068   1.322   3.870   7.968  0.3731 -1.9972 -0.4983
 7202SOL    HW233069   1.329   3.863   8.119  1.8542  2.7622 -1.1628
 7203SOL     OW33070   2.139   0.791   4.304 -0.3637 -0.3273 -0.2841
 7203SOL    HW133071   2.218   0.791   4.357 -0.0406  2.1086 -0.7793
 7203SOL    HW233072   2.148   0.875   4.259 -2.3465 -0.3560 -0.7363
 7204SOL     OW33073   1.979   3.897   1.075 -0.4026 -0.2268  0.2021
 7204SOL    HW133074   2.073   3.915   1.073 -0.3624 -0.3382  1.2088
 7204SOL    HW233075   1.974   3.822   1.134 -2.6211  0.0625  0.3808
 7205SOL     OW33076   4.548   3.524   2.347 -0.2557  0.2840  0.1369
 7205SOL    HW133077   4.586   3.446   2.307  3.4278  1.7617  0.8084
 7205SOL    HW233078   4.504   3.551   2.266 -1.6536  2.5508  1.6612
 7206SOL     OW33079   2.751   3.938  11.404  0.2031 -0.6347 -0.3093
 7206SOL    HW133080   2.662   3.969  11.391 -0.3277 -0.7101  3.2139
 7206SOL    HW233081   2.779   3.975  11.488  0.1407  1.9521 -1.4382
 7207SOL     OW33082   3.784   1.093  12.517  0.6568 -0.1431  0.1014
 7207SOL    HW133083   3.833   1.027  12.566 -2.1811 -1.5911  1.0445
 7207SOL    HW233084   3.693   1.086  12.547  0.4740 -2.9044 -1.0144
 7208SOL     OW33085   0.702   1.510   9.139  0.4438 -0.0176 -0.1443
 7208SOL    HW133086   0.793   1.536   9.152 -0.6607  2.1304  3.3075
 7208SOL    HW233087   0.652   1.591   9.154 -1.2702 -0.7175 -2.0503
 7209SOL     OW33088   3.920   2.083   4.692 -0.2037  0.4101 -0.0312
 7209SOL    HW133089   3.942   2.175   4.707 -0.2795  0.9679 -3.3693
 7209SOL    HW233090   3.830   2.094   4.661 -0.9289 -1.1521  1.5371
 7210SOL     OW33091   2.128   4.349  10.422  0.3309 -0.4954  0.6798
 7210SOL    HW133092   2.171   4.423  10.379  2.4484 -0.9265  2.1021
 7210SOL    HW233093   2.167   4.272  10.380 -0.1788 -0.2149 -0.3185
 7211SOL     OW33094   4.138   1.069   6.688 -0.5233 -0.0702  0.2590
 7211SOL    HW133095   4.090   1.023   6.756  1.3598  0.2065  1.7805
 7211SOL    HW233096   4.117   1.159   6.715  1.4869  0.9136 -1.3685
 7212SOL     OW33097   1.191   3.328   8.084 -0.1100  0.2083 -0.3045
 7212SOL    HW133098   1.127   3.388   8.046 -0.4212 -0.3687 -0.7121
 7212SOL    HW233099   1.270   3.380   8.070 -0.6372  0.7132 -1.4001
 7213SOL     OW33100   2.521   1.660   4.419 -1.0181  0.6472 -0.4517
 7213SOL    HW133101   2.535   1.754   4.429 -1.3680  0.3515  2.6922
 7213SOL    HW233102   2.558   1.634   4.503  1.5591  0.8387 -1.5128
 7214SOL     OW33103   4.197   4.322   6.268 -0.0301  0.2912 -0.2026
 7214SOL    HW133104   4.146   4.253   6.224 -1.3360  0.7190  0.6402
 7214SOL    HW233105   4.241   4.370   6.198 -0.1567  1.1874  0.3364
 7215SOL     OW33106   2.833   3.139   3.961 -0.1177 -0.0090 -0.2040
 7215SOL    HW133107   2.927   3.155   3.958 -0.2898  1.3124  1.5229
 7215SOL    HW233108   2.801   3.185   3.883 -2.9034  0.2513  1.0719
 7216SOL     OW33109   4.338   2.675  14.493 -0.0545 -0.4005 -0.6660
 7216SOL    HW133110   4.324   2.586  14.524 -4.9831  0.5498 -0.1737
 7216SOL    HW233111   4.295   2.713  14.570  1.7095  0.3931 -0.0571
 7217SOL     OW33112   2.461   3.615   0.154 -0.5558 -0.0239 -0.1789
 7217SOL    HW133113   2.438   3.530   0.116  0.2362  0.1102 -0.9670
 7217SOL    HW233114   2.528   3.644   0.092  0.5901 -0.5093  0.8185
 7218SOL     OW33115   0.445   1.016   6.805 -0.7333  0.3570 -0.0619
 7218SOL    HW133116   0.470   1.108   6.814 -0.3605  0.4697 -2.2482
 7218SOL    HW233117   0.393   1.004   6.884 -2.2027 -2.0076 -1.3979
 7219SOL     OW33118   1.509   1.226   8.869 -0.1115  0.0555  0.2073
 7219SOL    HW133119   1.554   1.239   8.953 -1.3264 -1.6867  1.1500
 7219SOL    HW233120   1.508   1.130   8.862 -1.9705  0.1428 -0.7230
 7220SOL     OW33121   3.264   2.341   3.689 -0.3689 -0.3418 -0.2258
 7220SOL    HW133122   3.182   2.346   3.738 -0.6712 -1.5585 -0.5944
 7220SOL    HW233123   3.315   2.293   3.754 -0.2923 -0.1605 -0.1538
 7221SOL     OW33124   3.712   3.866  17.157 -0.3397 -0.0501 -0.7765
 7221SOL    HW133125   3.704   3.796  17.093 -2.7565 -0.8771  0.4220
 7221SOL    HW233126   3.755   3.930  17.100  1.0131 -0.0384  0.2703
 7222SOL     OW33127   2.942   2.760   0.634  0.5249 -0.1351  0.5553
 7222SOL    HW133128   2.916   2.780   0.544  1.8408  1.0378  0.4447
 7222SOL    HW233129   3.035   2.777   0.622  0.3783 -0.0146 -0.4123
 7223SOL     OW33130   1.472   3.008   8.251 -0.3604  0.4428 -0.2103
 7223SOL    HW133131   1.533   2.949   8.206 -0.2552  1.2973 -1.1914
 7223SOL    HW233132   1.402   3.005   8.185 -1.4288  1.5084  0.8918
 7224SOL     OW33133   4.426   1.455  10.054 -0.6741 -0.4105 -0.2471
 7224SOL    HW133134   4.382   1.417   9.978 -0.6153 -0.4796 -0.2466
 7224SOL    HW233135   4.517   1.431  10.037 -0.3610  0.3932  0.2981
 7225SOL     OW33136   4.594   2.443   7.172  0.2943 -0.5200 -0.3343
 7225SOL    HW133137   4.629   2.387   7.102 -0.2113 -0.9139 -0.2734
 7225SOL    HW233138   4.642   2.524   7.157  2.6598 -2.1118 -1.4506
 7226SOL     OW33139   0.605   0.917   3.078  0.2393 -0.3355 -0.3772
 7226SOL    HW133140   0.531   0.857   3.065 -0.9763  1.4496 -1.6841
 7226SOL    HW233141   0.595   0.931   3.173  1.1237  1.7719 -0.5988
 7227SOL     OW33142   1.533   4.453  10.688  0.1842  0.1039 -0.0105
 7227SOL    HW133143   1.496   4.538  10.713 -2.4011 -0.9000 -0.3862
 7227SOL    HW233144   1.605   4.447  10.751 -2.1043  2.0110  2.8151
 7228SOL     OW33145   0.698   0.322   5.335  0.1510 -0.0286 -0.9902
 7228SOL    HW133146   0.610   0.286   5.322  0.1917  0.0670 -1.5353
 7228SOL    HW233147   0.727   0.306   5.425 -0.2230  0.5210 -0.7695
 7229SOL     OW33148   2.216   3.484   2.005 -0.2318  0.0341  0.1601
 7229SOL    HW133149   2.239   3.525   1.921  2.1547 -0.9661  0.3206
 7229SOL    HW233150   2.122   3.469   1.998  0.0772 -0.6303 -2.4199
 7230SOL     OW33151   1.601   4.246   4.273  0.4246  0.2145  0.3235
 7230SOL    HW133152   1.689   4.250   4.310 -1.1735  0.9780  4.1359
 7230SOL    HW233153   1.567   4.335   4.269  3.2335  1.2211 -1.2553
 7231SOL     OW33154   1.628   4.350   7.991 -0.2294  0.2172 -0.0140
 7231SOL    HW133155   1.586   4.306   8.065  0.6865 -0.2920  0.2014
 7231SOL    HW233156   1.691   4.404   8.039  1.1915  0.2405 -1.9373
 7232SOL     OW33157   2.885   2.869   5.347 -0.2226  0.2649 -0.0249
 7232SOL    HW133158   2.899   2.856   5.253  0.3118 -0.0459  0.1016
 7232SOL    HW233159   2.963   2.838   5.392 -1.1122 -2.0307 -0.0999
 7233SOL     OW33160   4.202   0.922  11.825  0.5166 -0.3564 -0.1660
 7233SOL    HW133161   4.231   0.978  11.753  0.9046  2.1560  1.9681
 7233SOL    HW233162   4.279   0.912  11.881  0.2874 -0.7401  0.0808
 7234SOL     OW33163   0.089   4.467   4.419  0.6533  0.2361  0.2849
 7234SOL    HW133164   0.071   4.393   4.477 -0.5135 -0.3531 -0.8248
 7234SOL    HW233165   0.087   4.547   4.472 -0.4335 -0.0858  0.7331
 7235SOL     OW33166   3.919   4.549   7.706 -0.4856  0.1804 -0.1534
 7235SOL    HW133167   3.919   4.455   7.725  1.3768  0.1290 -0.3524
 7235SOL    HW233168   3.827   4.565   7.686 -0.3367  0.9718 -0.2090
 7236SOL     OW33169   0.644   1.283  15.929  0.4357 -0.4621  0.2806
 7236SOL    HW133170   0.549   1.278  15.930  0.4370 -0.9126 -2.6204
 7236SOL    HW233171   0.659   1.211  15.869  0.7688  0.0370 -0.2302
 7237SOL     OW33172   2.071   0.650   7.231 -0.2228 -0.1411  0.1931
 7237SOL    HW133173   1.977   0.665   7.240 -0.3524  0.2820 -1.9607
 7237SOL    HW233174   2.080   0.674   7.139 -0.1947  0.9729  0.4855
 7238SOL     OW33175   2.278   2.323   0.550  0.3748 -0.0940  0.0754
 7238SOL    HW133176   2.270   2.396   0.489 -0.9037 -0.1013  0.2316
 7238SOL    HW233177   2.208   2.330   0.616  0.5223 -3.4353  0.5924
 7239SOL     OW33178   1.986   3.350   6.744  0.4796 -0.2167  0.3978
 7239SOL    HW133179   1.974   3.422   6.682  1.5517  0.2644  0.7513
 7239SOL    HW233180   1.916   3.294   6.711 -0.0338  1.1517 -0.8235
 7240SOL     OW33181   3.736   3.884   5.175 -0.4842 -0.3395 -0.2742
 7240SOL    HW133182   3.709   3.945   5.106 -2.4179 -2.3383 -1.2866
 7240SOL    HW233183   3.739   3.798   5.133  0.1372 -0.3766 -0.1576
 7241SOL     OW33184   1.292   4.636   8.024 -0.4836 -0.0110  0.3549
 7241SOL    HW133185   1.282   4.664   8.115 -4.3890  0.2240 -0.1645
 7241SOL    HW233186   1.294   4.540   8.028  1.1464 -0.0251 -0.5887
 7242SOL     OW33187   0.165   2.554   8.238 -0.5807  0.3031  0.1111
 7242SOL    HW133188   0.181   2.633   8.187  1.0935 -1.1780 -1.6360
 7242SOL    HW233189   0.192   2.581   8.326  0.5195 -1.1795  0.2289
 7243SOL     OW33190   4.142   4.717   8.386 -0.7721  0.1789  0.3347
 7243SOL    HW133191   4.047   4.710   8.380 -0.4850 -1.2941 -2.7480
 7243SOL    HW233192   4.150   0.058   8.454  1.0312 -0.8835  1.1592
 7244SOL     OW33193   3.057   0.869   3.985  0.3995  0.0711  1.1470
 7244SOL    HW133194   3.056   0.798   3.920  1.9319  0.9666  0.1407
 7244SOL    HW233195   3.043   0.937   3.919 -1.0028 -1.1035  0.2083
 7245SOL     OW33196   2.031   1.483   1.967  0.0961 -0.1955  0.1280
 7245SOL    HW133197   2.061   1.401   2.006  2.5594  0.2120 -0.9126
 7245SOL    HW233198   1.945   1.457   1.936 -0.0896  0.2202  0.2987
 7246SOL     OW33199   1.507   0.755   3.433 -0.6706  0.1515 -0.2418
 7246SOL    HW133200   1.420   0.795   3.430 -1.5854 -1.8726 -0.1327
 7246SOL    HW233201   1.556   0.788   3.357 -1.5426 -0.5760 -1.1108
 7247SOL     OW33202   2.301   2.642   6.230  0.5589  0.0714  0.2641
 7247SOL    HW133203   2.273   2.551   6.217 -1.5639  0.5564  1.3496
 7247SOL    HW233204   2.393   2.621   6.245 -0.1356 -3.3513 -0.1201
 7248SOL     OW33205   4.380   3.562   7.409  0.5630  0.4101 -0.3366
 7248SOL    HW133206   4.442   3.506   7.363  2.8599  1.9637  0.8631
 7248SOL    HW233207   4.318   3.588   7.341 -1.7940 -0.3219  1.5066
 7249SOL     OW33208   3.877   0.989   8.873  0.0961 -0.1953  0.1907
 7249SOL    HW133209   3.782   0.987   8.873  0.0733  1.1020  0.7705
 7249SOL    HW233210   3.898   0.938   8.951  1.4551  1.1663  0.7205
 7250SOL     OW33211   2.843   0.712   7.044  0.7041  0.3786  0.0305
 7250SOL    HW133212   2.752   0.688   7.059  1.8530 -3.9617  0.0375
 7250SOL    HW233213   2.888   0.634   7.078 -0.6716  0.1769  1.3733
 7251SOL     OW33214   3.696   1.021   5.793  0.1901  0.2012  0.7659
 7251SOL    HW133215   3.719   0.929   5.778  3.7447  0.6463  3.3518
 7251SOL    HW233216   3.644   1.030   5.714  1.6859  0.9869 -0.1290
 7252SOL     OW33217   1.111   3.941   6.858  0.6360 -0.6322 -0.7325
 7252SOL    HW133218   1.199   3.978   6.858  0.9848 -1.4379 -2.0544
 7252SOL    HW233219   1.054   4.015   6.876  0.6511 -0.6210 -0.7311
 7253SOL     OW33220   3.943   3.724   4.200  0.4483  0.1930 -0.2911
 7253SOL    HW133221   4.000   3.649   4.183 -0.5872 -1.0538  1.7915
 7253SOL    HW233222   3.865   3.687   4.242 -1.6026  3.2601 -1.4282
 7254SOL     OW33223   3.622   2.255   1.544  0.1670 -0.3914  0.3363
 7254SOL    HW133224   3.598   2.293   1.629 -0.2290  0.6082 -0.2241
 7254SOL    HW233225   3.536   2.253   1.502 -0.8495  1.5135  2.3015
 7255SOL     OW33226   0.811   1.260   9.284  0.4107 -0.4400  0.0475
 7255SOL    HW133227   0.767   1.340   9.313 -1.0241 -0.8424 -0.9958
 7255SOL    HW233228   0.822   1.280   9.191  1.2905 -2.1847 -0.2170
 7256SOL     OW33229   3.910   1.028  11.814  0.2058 -0.4054 -0.2828
 7256SOL    HW133230   3.934   1.115  11.783  2.9865 -1.0838 -0.0239
 7256SOL    HW233231   3.817   1.045  11.830  0.8784  0.7108  2.4789
 7257SOL     OW33232   0.406   1.069  15.655 -0.4426  0.5337  0.1850
 7257SOL    HW133233   0.499   1.056  15.671 -0.2452  0.4759 -1.0490
 7257SOL    HW233234   0.410   1.091  15.562 -0.9744  1.0241  0.2761
 7258SOL     OW33235   4.653   1.218  11.110  0.4706 -0.5877 -0.5059
 7258SOL    HW133236   4.652   1.288  11.175  2.9890 -0.5286 -0.5172
 7258SOL    HW233237   0.019   1.192  11.124  0.4666 -0.3011  0.0583
 7259SOL     OW33238   2.747   4.599   5.277 -0.3976  0.5420 -0.6841
 7259SOL    HW133239   2.733   4.659   5.203  2.5665  2.1873  0.0754
 7259SOL    HW233240   2.697   4.526   5.244 -0.0924 -0.4526  1.0595
 7260SOL     OW33241   2.489   0.898   5.553  0.5457 -1.0177 -0.2128
 7260SOL    HW133242   2.567   0.911   5.607 -0.5772  1.8342  0.7155
 7260SOL    HW233243   2.421   0.862   5.610 -0.1910 -2.1907 -1.8451
 7261SOL     OW33244   4.195   1.314  15.849 -0.3584 -0.1318 -0.4067
 7261SOL    HW133245   4.231   1.403  15.847  0.3808 -0.4319 -0.7289
 7261SOL    HW233246   4.113   1.335  15.893  1.0892  0.9136  1.7746
 7262SOL     OW33247   2.198   0.007   3.187  0.2362  0.4213  0.1860
 7262SOL    HW133248   2.145   4.716   3.265 -1.3513 -1.6215 -1.3154
 7262SOL    HW233249   2.135   0.071   3.152 -1.9584 -2.8133 -1.8032
 7263SOL     OW33250   1.736   3.443   8.308  0.3422 -0.7313  1.1908
 7263SOL    HW133251   1.774   3.414   8.391 -0.4409  0.8723  2.1060
 7263SOL    HW233252   1.794   3.398   8.247  2.4304  2.7259  0.6386
 7264SOL     OW33253   3.683   2.444   3.840  0.0621 -0.0538  0.1573
 7264SOL    HW133254   3.689   2.533   3.875  2.1950  0.5839 -1.8374
 7264SOL    HW233255   3.690   2.466   3.747 -1.2627  2.0906  0.5679
 7265SOL     OW33256   1.364   3.735   2.342  0.0162  0.1980  0.4330
 7265SOL    HW133257   1.353   3.697   2.255  0.0827  1.8899 -0.3159
 7265SOL    HW233258   1.457   3.718   2.359 -0.6478 -3.4970  0.2250
 7266SOL     OW33259   3.706   3.082   3.695  0.5436  0.1208  0.1900
 7266SOL    HW133260   3.749   3.152   3.744  0.3314 -0.4424  1.1687
 7266SOL    HW233261   3.622   3.079   3.740  0.4050  0.5039 -0.0496
 7267SOL     OW33262   0.988   0.913   4.298 -0.2743  0.3413 -0.3814
 7267SOL    HW133263   1.008   0.852   4.227 -1.1293 -1.1170  0.6211
 7267SOL    HW233264   0.933   0.856   4.351  0.1966 -0.0580 -0.3245
 7268SOL     OW33265   0.075   1.871  17.107 -0.6449  0.5051 -0.4602
 7268SOL    HW133266   0.026   1.943  17.067  0.3234  1.5264  0.1800
 7268SOL    HW233267   0.166   1.894  17.089 -0.0194 -0.7188  1.1367
 7269SOL     OW33268   0.846   1.542   1.602 -0.2387  0.4934 -0.2641
 7269SOL    HW133269   0.836   1.479   1.531  3.6275 -0.1576 -0.2299
 7269SOL    HW233270   0.935   1.535   1.636 -0.4740 -0.6947  0.0941
 7270SOL     OW33271   2.112   3.676   1.546 -0.6734 -0.2693 -0.0538
 7270SOL    HW133272   2.175   3.724   1.493  0.2212 -1.1118  0.2673
 7270SOL    HW233273   2.159   3.678   1.629  0.4066  0.4968 -0.6930
 7271SOL     OW33274   3.168   0.205   8.109 -0.1756 -0.4601  0.4288
 7271SOL    HW133275   3.244   0.147   8.103 -0.0306 -0.1100 -0.9295
 7271SOL    HW233276   3.208   0.274   8.161 -1.4555  2.0604 -1.9402
 7272SOL     OW33277   0.928   2.277   3.692  0.1362  0.2334  0.5716
 7272SOL    HW133278   0.854   2.311   3.742 -1.2408 -0.5922 -0.9006
 7272SOL    HW233279   0.873   2.248   3.619  1.6873 -1.4025  0.0506
 7273SOL     OW33280   4.578   2.693   6.562 -0.8294 -0.0082 -0.3207
 7273SOL    HW133281   4.588   2.617   6.505 -1.5428 -0.2303 -0.1478
 7273SOL    HW233282   4.641   2.667   6.630 -0.5573  2.5812  0.4071
 7274SOL     OW33283   2.987   1.198  12.961 -0.0746 -0.6304  0.5344
 7274SOL    HW133284   2.952   1.143  13.032 -1.0243 -1.0186 -0.2273
 7274SOL    HW233285   3.076   1.168  12.948 -0.2825 -0.1913 -1.9093
 7275SOL     OW33286   2.349   0.829   0.958  0.5938  0.2480  0.0437
 7275SOL    HW133287   2.290   0.842   1.032  0.4864 -1.2906  0.2344
 7275SOL    HW233288   2.433   0.816   1.001  0.8883  2.5861  0.1559
 7276SOL     OW33289   3.749   0.089   6.036 -0.5027 -0.3517  0.2256
 7276SOL    HW133290   3.818   0.151   6.014 -1.4806  1.2053  1.5066
 7276SOL    HW233291   3.708   0.076   5.951  0.8597 -0.5592 -0.3899
 7277SOL     OW33292   3.507   4.471   8.457 -0.2880  0.0155 -0.0041
 7277SOL    HW133293   3.412   4.477   8.472 -0.5666 -0.3028 -1.6545
 7277SOL    HW233294   3.518   4.386   8.415  0.6747 -0.7698  1.8419
 7278SOL     OW33295   1.076   0.630   5.989 -0.3148 -0.3600  0.3874
 7278SOL    HW133296   1.075   0.618   6.084  1.1525  0.7118  0.5429
 7278SOL    HW233297   0.981   0.645   5.989 -0.6678 -2.7474 -0.1713
 7279SOL     OW33298   2.466   3.001  12.084  0.3138  0.0659  0.5891
 7279SOL    HW133299   2.401   3.055  12.039 -2.3572 -3.6906 -0.0284
 7279SOL    HW233300   2.539   3.053  12.048 -1.2722  1.4167 -0.6457
 7280SOL     OW33301   0.689   2.145   4.148 -0.1856  0.0233  0.0925
 7280SOL    HW133302   0.700   2.058   4.110  0.1302  0.0413  0.1448
 7280SOL    HW233303   0.771   2.146   4.198  0.1287 -0.3598 -0.4128
 7281SOL     OW33304   1.885   2.791   1.072  0.7413 -0.2097  0.1383
 7281SOL    HW133305   1.912   2.771   1.162  0.2695  0.9985  0.5476
 7281SOL    HW233306   1.793   2.763   1.078  0.4227  0.9350  0.6894
 7282SOL     OW33307   4.124   1.975   7.392  0.0096 -0.4803  0.0253
 7282SOL    HW133308   4.156   1.982   7.482 -1.5223 -0.6296  0.5778
 7282SOL    HW233309   4.188   2.031   7.347  0.3064 -0.4766  0.4544
 7283SOL     OW33310   2.406   4.630   5.575  0.2270 -0.1413 -0.1297
 7283SOL    HW133311   2.418   4.640   5.481  1.2548  1.4045  0.1528
 7283SOL    HW233312   2.450   4.712   5.598 -0.5623  0.6486 -1.4694
 7284SOL     OW33313   2.834   0.974   2.794  0.3937 -0.6818  0.2055
 7284SOL    HW133314   2.908   1.034   2.792 -0.2309  0.1290  1.3071
 7284SOL    HW233315   2.767   1.028   2.836 -0.7102 -1.7705 -0.1262
 7285SOL     OW33316   0.934   3.445   6.625 -0.0602  0.1036 -0.9545
 7285SOL    HW133317   1.019   3.430   6.667 -0.0377 -0.4714 -1.2067
 7285SOL    HW233318   0.897   3.520   6.671 -1.7760 -1.8838  0.8439
 7286SOL     OW33319   1.454   3.884  10.288  0.5980  0.0264 -0.1334
 7286SOL    HW133320   1.363   3.907  10.269  0.8842  0.4742 -0.9661
 7286SOL    HW233321   1.460   3.919  10.377  0.0307  2.5633 -1.0856
 7287SOL     OW33322   1.083   0.187   8.721  0.0807 -0.9576  0.2948
 7287SOL    HW133323   1.005   0.179   8.776  1.1218  0.6206  2.0337
 7287SOL    HW233324   1.126   0.257   8.770 -2.2324 -1.0816  2.5456
 7288SOL     OW33325   2.087   2.778   7.543 -0.3471  0.0884 -0.0787
 7288SOL    HW133326   2.104   2.776   7.449  0.1445  0.6394  0.0034
 7288SOL    HW233327   2.132   2.860   7.563  0.9096 -0.8611  0.9902
 7289SOL     OW33328   2.647   0.965  10.042  0.7311  0.5615 -0.3923
 7289SOL    HW133329   2.669   0.922  10.126  1.3153 -1.7546 -1.7148
 7289SOL    HW233330   2.553   0.983  10.046  0.6293  0.1345 -0.8512
 7290SOL     OW33331   2.376   3.686   5.032  0.6238  0.0132 -0.0210
 7290SOL    HW133332   2.462   3.660   5.064  0.7697  2.2857  1.4320
 7290SOL    HW233333   2.353   3.752   5.098 -2.3745 -0.8406 -0.2225
 7291SOL     OW33334   3.299   0.458   2.842 -0.0800  0.1345  0.2173
 7291SOL    HW133335   3.327   0.420   2.759 -1.4202 -1.1102  0.3369
 7291SOL    HW233336   3.241   0.389   2.874 -2.7748  2.4398  0.2227
 7292SOL     OW33337   2.956   4.441   8.732 -0.8502 -0.0182 -0.1112
 7292SOL    HW133338   2.988   4.358   8.697 -0.5810  0.8221 -1.8384
 7292SOL    HW233339   2.908   4.393   8.799  2.8673 -2.1457  1.0396
 7293SOL     OW33340   4.073   2.386  14.653  0.1380 -0.0399 -0.7188
 7293SOL    HW133341   4.016   2.434  14.591  0.8571  0.9202 -0.6327
 7293SOL    HW233342   4.161   2.397  14.617  1.5828 -2.2166  2.2197
 7294SOL     OW33343   3.193   1.400   6.954  0.9518 -0.0525 -0.2785
 7294SOL    HW133344   3.191   1.485   6.910  0.3723 -0.9711 -1.9846
 7294SOL    HW233345   3.116   1.354   6.922  0.9808 -1.5855  1.8218
 7295SOL     OW33346   2.877   0.859  10.587 -0.4472  0.7190  0.4994
 7295SOL    HW133347   2.864   0.954  10.591  1.4456  0.9617  1.1903
 7295SOL    HW233348   2.950   0.843  10.648 -0.9895  4.1489  2.0293
 7296SOL     OW33349   2.127   3.483   4.504 -0.1687  0.4787  0.1152
 7296SOL    HW133350   2.162   3.400   4.536  0.4711  0.7771  0.1830
 7296SOL    HW233351   2.037   3.453   4.490 -0.6308  1.9024  0.0215
 7297SOL     OW33352   1.291   2.846   2.079  0.3649  0.3575 -0.3008
 7297SOL    HW133353   1.313   2.892   2.161 -1.2676  1.4909 -0.5014
 7297SOL    HW233354   1.337   2.763   2.093 -0.1694 -0.0319 -0.9288
 7298SOL     OW33355   1.950   0.827  10.711 -0.0115 -0.4803 -0.0122
 7298SOL    HW133356   1.994   0.826  10.796  0.3295  0.9322 -0.1753
 7298SOL    HW233357   2.015   0.781  10.658  0.1061  0.8835 -1.0385
 7299SOL     OW33358   2.363   2.084   8.857  0.0089 -0.3800  0.2448
 7299SOL    HW133359   2.338   2.004   8.811 -0.0410 -0.4733  0.4348
 7299SOL    HW233360   2.315   2.156   8.815  1.3678 -0.3168 -1.1978
 7300SOL     OW33361   2.907   1.842   7.061 -0.3087  0.0686 -0.2624
 7300SOL    HW133362   2.981   1.869   7.007 -1.1986 -1.6802 -2.3315
 7300SOL    HW233363   2.945   1.877   7.141 -0.0896 -0.3246 -0.1949
 7301SOL     OW33364   2.202   2.757   5.266 -0.2564 -0.2881 -0.2054
 7301SOL    HW133365   2.154   2.731   5.187  2.4466  2.7030 -2.8085
 7301SOL    HW233366   2.167   2.692   5.326 -1.0577  0.6172  0.3056
 7302SOL     OW33367   3.343   2.180   7.723 -0.0542 -0.5741  0.1875
 7302SOL    HW133368   3.253   2.201   7.747  0.0047 -1.2694  1.0273
 7302SOL    HW233369   3.344   2.085   7.736  0.0235 -0.3353  1.9517
 7303SOL     OW33370   2.702   1.704  15.516  0.4620  0.2239 -0.2794
 7303SOL    HW133371   2.711   1.757  15.595  0.9250  0.3612 -0.4207
 7303SOL    HW233372   2.771   1.637  15.523 -1.1840 -1.4082  0.2668
 7304SOL     OW33373   2.454   4.370  10.584  0.2943 -0.5098 -0.1645
 7304SOL    HW133374   2.417   4.439  10.528 -4.6460 -1.5983  1.7461
 7304SOL    HW233375   2.535   4.351  10.537 -0.6584 -1.6187 -1.3602
 7305SOL     OW33376   2.164   1.440   9.743  0.5023  0.4024 -0.6519
 7305SOL    HW133377   2.096   1.400   9.796  1.2306  0.2780  0.1868
 7305SOL    HW233378   2.238   1.411   9.796 -0.6722 -0.7023  0.3765
 7306SOL     OW33379   2.478   1.969  17.306  0.0607 -0.6158  0.1196
 7306SOL    HW133380   2.471   2.007  17.394 -1.9542 -1.1855  0.2173
 7306SOL    HW233381   2.385   1.982  17.289 -0.5708 -2.6281  2.0249
 7307SOL     OW33382   4.348   2.597   3.450  0.1229 -0.2036 -0.5007
 7307SOL    HW133383   4.370   2.508   3.478  1.8747  0.1010 -0.9500
 7307SOL    HW233384   4.367   2.599   3.356 -1.7261  0.4024 -0.8524
 7308SOL     OW33385   1.005   0.213   8.463  0.3729 -0.0228 -0.0779
 7308SOL    HW133386   0.982   0.305   8.466  1.3903  0.2139  0.5537
 7308SOL    HW233387   1.033   0.200   8.553 -0.5597  1.6531  0.4424
 7309SOL     OW33388   4.714   2.152   5.903 -0.2588  1.0796  0.7099
 7309SOL    HW133389   0.021   2.214   5.969 -0.7776  1.6487  0.4223
 7309SOL    HW233390   0.044   2.075   5.913  1.5123  2.1812 -0.6112
 7310SOL     OW33391   2.774   4.573   7.527 -0.0078  0.4010  0.8641
 7310SOL    HW133392   2.825   4.520   7.589 -1.1085  0.9543  2.2644
 7310SOL    HW233393   2.685   4.551   7.558  1.0248 -0.7096  3.0643
 7311SOL     OW33394   2.760   0.067   8.821  0.2101 -0.6553 -0.0512
 7311SOL    HW133395   2.744   0.161   8.811 -1.2160 -0.9792 -0.8160
 7311SOL    HW233396   2.819   0.048   8.748  0.6336  0.3447  0.0323
 7312SOL     OW33397   3.395   3.751   2.420  0.0322 -0.1346 -0.6053
 7312SOL    HW133398   3.408   3.674   2.475 -1.8335 -0.2174 -0.2884
 7312SOL    HW233399   3.485   3.781   2.403  0.1107  0.3941  0.7181
 7313SOL     OW33400   2.118   2.985   2.681  0.5677 -0.2769 -0.3058
 7313SOL    HW133401   2.086   3.074   2.693 -0.7285 -0.5896 -1.3603
 7313SOL    HW233402   2.155   2.972   2.768 -0.2719 -0.1367  0.0734
 7314SOL     OW33403   1.056   0.236  16.728 -0.1472  0.6788  0.3702
 7314SOL    HW133404   0.970   0.270  16.752 -0.7980 -0.7341  0.0665
 7314SOL    HW233405   1.087   0.321  16.696 -0.0227  0.8406  0.9173
 7315SOL     OW33406   2.950   1.387  12.778  0.0655 -0.0847 -0.0002
 7315SOL    HW133407   2.888   1.446  12.822 -0.9674 -0.4471 -0.9783
 7315SOL    HW233408   2.984   1.344  12.856 -0.2751 -0.6941 -0.1939
 7316SOL     OW33409   3.733   0.577   7.526  0.0657  0.1367 -0.6277
 7316SOL    HW133410   3.700   0.588   7.437 -0.7578  1.6490 -0.1363
 7316SOL    HW233411   3.650   0.561   7.572  0.5773 -0.0676  0.2393
 7317SOL     OW33412   2.211   3.240   6.657  0.5173 -0.5859  0.3357
 7317SOL    HW133413   2.128   3.278   6.685 -0.4277 -1.3267 -1.4847
 7317SOL    HW233414   2.186   3.207   6.571  0.2060 -3.0574  1.3744
 7318SOL     OW33415   0.060   3.923  13.904 -0.0759  0.0659 -0.1424
 7318SOL    HW133416   0.049   3.999  13.847  0.5318  0.1177 -0.1951
 7318SOL    HW233417   0.033   3.957  13.990  1.6053  0.1239  0.3647
 7319SOL     OW33418   1.641   4.070   3.267 -0.6142 -0.0925  0.4478
 7319SOL    HW133419   1.693   4.061   3.346 -1.0575 -1.2090  0.6067
 7319SOL    HW233420   1.652   4.164   3.250 -0.4290  0.3714  3.2217
 7320SOL     OW33421   4.642   1.544   9.018 -0.4022 -0.1182 -0.8279
 7320SOL    HW133422   4.708   1.557   9.086 -0.3617  0.8620 -1.0462
 7320SOL    HW233423   4.617   1.453   9.034 -1.1705  0.3802  0.8121
 7321SOL     OW33424   1.477   2.984  11.255  0.1311 -0.0795 -0.2139
 7321SOL    HW133425   1.472   2.955  11.346  1.8790  0.8509  0.1793
 7321SOL    HW233426   1.514   2.905  11.215  1.2264  2.0051 -3.3529
 7322SOL     OW33427   1.288   2.749  11.423  0.7098 -0.5139  0.1343
 7322SOL    HW133428   1.284   2.844  11.421 -3.6967 -0.6958  1.6028
 7322SOL    HW233429   1.195   2.726  11.423  0.6939 -0.4208  1.2150
 7323SOL     OW33430   4.466   2.868   7.759 -0.2039 -0.2737  0.3071
 7323SOL    HW133431   4.453   2.790   7.813  0.4046 -1.2016 -0.8953
 7323SOL    HW233432   4.513   2.831   7.684 -0.3006 -0.7864  0.5006
 7324SOL     OW33433   4.576   3.653   3.257 -0.1591  0.0551  0.2566
 7324SOL    HW133434   4.640   3.723   3.246  2.0189 -1.5948  2.3563
 7324SOL    HW233435   4.616   3.596   3.323 -0.7568  0.5287  1.0199
 7325SOL     OW33436   4.289   0.499   5.289 -0.1573 -0.1243 -0.0301
 7325SOL    HW133437   4.316   0.539   5.206  0.9132  0.5833  0.6705
 7325SOL    HW233438   4.371   0.509   5.338 -1.0277 -0.2286  1.4428
 7326SOL     OW33439   0.482   2.624   8.493 -0.2296  0.3157  0.5723
 7326SOL    HW133440   0.475   2.712   8.531 -0.2114  0.2273  0.7815
 7326SOL    HW233441   0.391   2.594   8.502  0.3548 -1.8182 -0.6564
 7327SOL     OW33442   1.735   4.149   7.184  0.0510 -0.1140  0.5456
 7327SOL    HW133443   1.793   4.167   7.258 -0.2993  0.5862  0.6497
 7327SOL    HW233444   1.795   4.159   7.110  0.6878 -1.2669  0.9029
 7328SOL     OW33445   2.626   2.632   7.651  0.1303 -0.0858 -0.1323
 7328SOL    HW133446   2.602   2.552   7.604 -1.0404 -1.3370  2.5566
 7328SOL    HW233447   2.713   2.610   7.684  0.4896  1.0829 -0.3261
 7329SOL     OW33448   1.502   2.008   7.349 -0.0200  0.6628  0.1242
 7329SOL    HW133449   1.430   1.999   7.411 -0.4053  1.4950 -0.2012
 7329SOL    HW233450   1.464   1.948   7.284 -0.9615 -1.9598  3.1113
 7330SOL     OW33451   3.284   1.335   8.983 -0.2923  0.2902 -0.1027
 7330SOL    HW133452   3.361   1.303   8.936 -0.2659 -2.0810  1.5504
 7330SOL    HW233453   3.239   1.358   8.902 -1.5162  0.4701  0.6316
 7331SOL     OW33454   4.410   2.564   6.894  0.5175  0.1649  0.4220
 7331SOL    HW133455   4.495   2.524   6.913  0.5373  0.4852  1.0080
 7331SOL    HW233456   4.418   2.659   6.908  0.5317  0.5758 -2.3187
 7332SOL     OW33457   0.519   0.514   5.832 -0.4522 -0.1846  0.0491
 7332SOL    HW133458   0.589   0.484   5.774 -0.3818  0.7605 -0.3581
 7332SOL    HW233459   0.480   0.435   5.869 -0.0366 -1.2843 -1.8828
 7333SOL     OW33460   1.280   0.490   7.037 -0.3706  0.1928  0.0513
 7333SOL    HW133461   1.269   0.543   6.958 -0.4998  0.3887  0.2016
 7333SOL    HW233462   1.216   0.535   7.092  0.3007 -0.7417  1.5856
 7334SOL     OW33463   2.426   3.452   9.355  0.1950  0.0914 -0.8776
 7334SOL    HW133464   2.411   3.547   9.360 -1.9797 -0.4537  3.0712
 7334SOL    HW233465   2.509   3.446   9.310  0.9600  0.3591  0.4860
 7335SOL     OW33466   0.349   4.637   6.007 -0.1313  0.2857  0.8040
 7335SOL    HW133467   0.372   4.648   6.100 -0.7689 -0.0536  1.0023
 7335SOL    HW233468   0.421   4.586   5.970  0.2083  0.9400  0.5776
 7336SOL     OW33469   3.087   2.630   6.623  0.3076  0.3380  0.0380
 7336SOL    HW133470   3.082   2.714   6.577 -1.5047  0.2304  0.0449
 7336SOL    HW233471   3.118   2.656   6.709 -0.7843  0.3687  0.4243
 7337SOL     OW33472   0.331   3.384   0.136  0.4527 -0.2299 -0.0828
 7337SOL    HW133473   0.364   3.473   0.147  2.1743 -0.6958 -1.4273
 7337SOL    HW233474   0.415   3.339   0.128 -0.5852 -1.8590 -1.9295
 7338SOL     OW33475   0.398   1.109  15.912  0.4458  0.1146  0.4351
 7338SOL    HW133476   0.413   1.078  15.823  3.9199 -0.0360  1.0685
 7338SOL    HW233477   0.351   1.032  15.945  1.3981  0.8985  3.6096
 7339SOL     OW33478   0.533   0.981   9.417 -0.0438  0.0758 -0.3834
 7339SOL    HW133479   0.529   0.917   9.347 -1.5992  1.0944 -1.2247
 7339SOL    HW233480   0.490   0.933   9.487  1.6621  0.7561  1.1332
 7340SOL     OW33481   0.051   3.969  13.545  0.3598 -0.1105 -0.0513
 7340SOL    HW133482   4.697   3.918  13.563 -0.2503  1.0037  0.4981
 7340SOL    HW233483   0.046   4.041  13.609  1.5793  0.4433 -0.5741
 7341SOL     OW33484   0.179   1.845   6.215  0.2644 -0.1865  0.4781
 7341SOL    HW133485   0.249   1.784   6.191  1.9594  1.4638  1.2410
 7341SOL    HW233486   0.145   1.811   6.297  1.7108 -0.6840  0.8740
 7342SOL     OW33487   0.036   0.965  10.004  0.7548  0.3308  0.3877
 7342SOL    HW133488   0.049   0.973  10.098  0.8044 -0.1676  0.4264
 7342SOL    HW233489   0.124   0.939   9.975  0.8577  2.0569 -0.8303
 7343SOL     OW33490   3.873   3.132   6.846 -0.1209  0.0350 -0.4150
 7343SOL    HW133491   3.840   3.222   6.851 -0.3986  0.0039 -1.9533
 7343SOL    HW233492   3.855   3.095   6.760 -0.1663  0.8467 -0.7555
 7344SOL     OW33493   3.138   3.216  12.411  0.1049 -0.3550  0.0411
 7344SOL    HW133494   3.233   3.208  12.424 -0.0267 -0.5569  0.8699
 7344SOL    HW233495   3.137   3.255  12.324 -1.8316 -1.6509 -0.5023
 7345SOL     OW33496   0.017   4.190   3.280 -0.2793  0.1367  0.0614
 7345SOL    HW133497   0.102   4.145   3.279  0.3985  1.4632 -0.5090
 7345SOL    HW233498   0.021   4.235   3.364 -0.8890  0.5960 -0.1527
 7346SOL     OW33499   3.372   1.498   2.397 -0.7753 -0.3775 -0.1715
 7346SOL    HW133500   3.415   1.584   2.404  1.8906 -1.7535  0.3376
 7346SOL    HW233501   3.440   1.439   2.366 -1.0637 -1.2881  0.9247
 7347SOL     OW33502   0.131   1.085   9.577  0.1343  0.8563  0.2109
 7347SOL    HW133503   0.189   1.066   9.650 -2.2865 -1.5096  1.5137
 7347SOL    HW233504   0.058   1.030   9.603  0.6993 -0.4561 -0.9681
 7348SOL     OW33505   1.697   4.089   1.451  0.0410 -0.3092 -0.1770
 7348SOL    HW133506   1.791   4.086   1.468 -0.1250  1.2276  0.9826
 7348SOL    HW233507   1.673   4.179   1.474  1.4437 -0.5703  2.3256
 7349SOL     OW33508   0.268   1.878   4.740 -0.0552 -0.2589  0.1137
 7349SOL    HW133509   0.280   1.973   4.736 -0.8991 -0.2278 -1.4478
 7349SOL    HW233510   0.356   1.846   4.720  0.2606 -0.1197  1.2431
 7350SOL     OW33511   0.177   0.263  12.149 -0.1653  0.2162  0.1805
 7350SOL    HW133512   0.173   0.256  12.054  3.0237 -0.3732  0.0950
 7350SOL    HW233513   0.128   0.182  12.162  1.5732 -0.8146  0.3317
 7351SOL     OW33514   0.769   2.038   7.893  0.4835 -0.4992 -0.0648
 7351SOL    HW133515   0.727   1.959   7.860  0.4288 -0.6345  0.3288
 7351SOL    HW233516   0.705   2.079   7.951  0.0485  0.2643 -1.0827
 7352SOL     OW33517   3.456   0.887   8.772  0.5271  0.3997 -0.1711
 7352SOL    HW133518   3.380   0.941   8.795  1.3531  0.7598  1.7018
 7352SOL    HW233519   3.519   0.893   8.844  0.9714 -0.3819 -0.4992
 7353SOL     OW33520   3.787   4.419   9.210  0.0953 -0.2911  0.3668
 7353SOL    HW133521   3.879   4.444   9.222  0.7335 -2.8535  0.9919
 7353SOL    HW233522   3.795   4.377   9.124 -0.2036 -0.6480  0.5102
 7354SOL     OW33523   1.186   0.774   8.339 -0.1634  0.2142 -0.0066
 7354SOL    HW133524   1.242   0.703   8.308  0.7014  0.3412  1.2693
 7354SOL    HW233525   1.114   0.731   8.386 -1.0620  1.6145 -0.0884
 7355SOL     OW33526   1.744   2.103   9.077 -0.5823  0.1311 -0.0123
 7355SOL    HW133527   1.796   2.160   9.134 -0.6888 -0.6290  0.8401
 7355SOL    HW233528   1.659   2.107   9.121 -0.6782  2.1412 -0.3720
 7356SOL     OW33529   2.114   4.369   4.731  0.3185  0.3765  0.0506
 7356SOL    HW133530   2.130   4.463   4.729 -1.9739  0.7565 -0.5448
 7356SOL    HW233531   2.153   4.338   4.813 -0.3266  1.5433  0.8069
 7357SOL     OW33532   3.599   0.890  15.379 -0.0028  0.2659 -0.1647
 7357SOL    HW133533   3.682   0.850  15.353 -1.7726 -2.8461 -1.0436
 7357SOL    HW233534   3.542   0.836  15.325 -0.8704  1.3449 -0.3345
 7358SOL     OW33535   0.058   1.068   6.737 -0.5622  0.5800  0.1617
 7358SOL    HW133536   0.032   1.157   6.713  1.2658  1.5075  1.6373
 7358SOL    HW233537   0.014   1.058   6.821  1.4297  1.4801  1.3195
 7359SOL     OW33538   1.837   3.832   0.788 -0.1796 -0.4247 -0.4260
 7359SOL    HW133539   1.894   3.832   0.865  0.6235 -1.6420 -1.0057
 7359SOL    HW233540   1.895   3.776   0.736  2.4975  0.9665  1.0412
 7360SOL     OW33541   4.066   4.375  17.401 -0.0638 -0.1318  0.3146
 7360SOL    HW133542   3.998   4.413  17.456 -0.3441 -3.1512  2.0659
 7360SOL    HW233543   4.033   4.404  17.316  2.4556  0.4524 -0.4497
 7361SOL     OW33544   2.993   0.151   9.348  0.1440 -0.0482 -0.3163
 7361SOL    HW133545   2.983   0.070   9.399  2.0039  0.7073  1.2306
 7361SOL    HW233546   2.984   0.119   9.258 -1.4972  1.0344 -0.5296
 7362SOL     OW33547   1.570   1.068   5.456 -0.6613  0.0880 -0.7916
 7362SOL    HW133548   1.656   1.051   5.419 -0.8827  1.4611 -1.9389
 7362SOL    HW233549   1.545   1.153   5.421 -0.0024  1.0660  1.1100
 7363SOL     OW33550   3.105   3.363   6.581 -0.3360  0.0682 -0.4355
 7363SOL    HW133551   3.025   3.357   6.633 -0.3212  2.2643 -0.1645
 7363SOL    HW233552   3.103   3.273   6.546  3.0546 -0.4467  0.6231
 7364SOL     OW33553   0.860   4.302   4.280 -0.0957  0.1481 -0.1628
 7364SOL    HW133554   0.913   4.237   4.327  1.8114  1.2643 -0.7901
 7364SOL    HW233555   0.869   4.389   4.318  2.7039 -1.5157  3.0171
 7365SOL     OW33556   2.730   2.108   2.576  0.7414  0.2444 -0.0213
 7365SOL    HW133557   2.751   2.165   2.650 -0.4853  0.3874  0.2239
 7365SOL    HW233558   2.661   2.150   2.524  1.3248  0.1665 -0.8499
 7366SOL     OW33559   0.285   2.347   8.740  0.1817 -0.3517  0.2451
 7366SOL    HW133560   0.218   2.279   8.729  0.1419 -0.3450  0.4519
 7366SOL    HW233561   0.276   2.391   8.656  2.2525 -0.4553 -0.0391
 7367SOL     OW33562   1.483   2.585   1.357 -0.2397  0.2562 -0.3610
 7367SOL    HW133563   1.411   2.627   1.310 -0.9246 -0.3276  0.1524
 7367SOL    HW233564   1.470   2.494   1.330 -1.5074  1.0098 -2.2578
 7368SOL     OW33565   0.127   1.697  14.769 -0.4799  0.1632  0.8152
 7368SOL    HW133566   0.194   1.669  14.831  0.6627 -0.3522 -0.6641
 7368SOL    HW233567   0.105   1.785  14.802 -2.2285 -0.0925  0.3577
 7369SOL     OW33568   0.265   1.760   3.838  0.0707 -0.7737 -0.2122
 7369SOL    HW133569   0.295   1.851   3.839  0.8744 -1.0463  1.1404
 7369SOL    HW233570   0.220   1.756   3.923  0.7755 -1.6042  0.1265
 7370SOL     OW33571   2.904   3.231   8.082  0.0456 -0.1864  0.5948
 7370SOL    HW133572   2.972   3.166   8.061 -0.5247 -0.7698  0.5407
 7370SOL    HW233573   2.873   3.252   7.994  0.4154 -0.1620  0.4696
 7371SOL     OW33574   0.540   3.498  16.394  0.1424  0.0441 -0.1139
 7371SOL    HW133575   0.576   3.483  16.307  1.9463  1.7627  0.3383
 7371SOL    HW233576   0.457   3.450  16.401  0.5176 -0.2912  2.0139
 7372SOL     OW33577   0.042   0.916   8.034  0.3945 -0.2963  0.4525
 7372SOL    HW133578   0.095   0.880   7.962  1.3835  1.9491  0.0593
 7372SOL    HW233579   0.055   0.839   8.089 -0.6808 -0.8099 -0.0038
 7373SOL     OW33580   3.867   1.177   6.831  0.0399 -0.1540 -0.4826
 7373SOL    HW133581   3.874   1.202   6.923  2.3716 -2.0714 -0.1419
 7373SOL    HW233582   3.824   1.095   6.856 -0.6153  0.5607  0.7046
 7374SOL     OW33583   0.864   2.505   5.993  0.0522 -0.0443  0.3484
 7374SOL    HW133584   0.924   2.449   5.944 -0.2129 -0.0230 -0.0032
 7374SOL    HW233585   0.778   2.478   5.960 -0.1501  0.0400  0.8011
 7375SOL     OW33586   4.311   1.918  16.824 -0.0908 -0.1510 -0.2343
 7375SOL    HW133587   4.365   1.940  16.749 -1.4393  2.8997 -0.2948
 7375SOL    HW233588   4.312   1.823  16.811 -1.0615 -0.2476  0.3636
 7376SOL     OW33589   4.344   2.639   9.339 -0.4502 -0.0547 -0.0333
 7376SOL    HW133590   4.296   2.559   9.358 -1.7747  0.1435 -2.4950
 7376SOL    HW233591   4.434   2.621   9.365 -0.6985  0.4795  1.1718
 7377SOL     OW33592   3.309   3.321   4.485 -0.2771  0.6117  0.2902
 7377SOL    HW133593   3.241   3.281   4.431  1.2040 -2.1321  0.4749
 7377SOL    HW233594   3.291   3.277   4.569 -1.6283  2.9045  1.2232
 7378SOL     OW33595   4.557   4.069   8.385  0.1899 -0.2488 -0.6920
 7378SOL    HW133596   4.638   4.058   8.434  1.0350 -1.7707 -2.4296
 7378SOL    HW233597   4.544   4.164   8.389  1.5306 -0.0622 -0.6533
 7379SOL     OW33598   1.227   0.220   8.010  0.3076 -0.5136  0.6003
 7379SOL    HW133599   1.312   0.176   8.013  1.3332  1.3570 -1.4189
 7379SOL    HW233600   1.256   0.311   8.015 -0.5721 -0.1223 -1.7893
 7380SOL     OW33601   3.236   3.105   6.168  0.1629  0.4498 -0.0677
 7380SOL    HW133602   3.296   3.089   6.095  0.5399 -1.3953  0.6438
 7380SOL    HW233603   3.187   3.023   6.161  1.3071 -0.0589 -2.4129
 7381SOL     OW33604   2.266   3.776  15.235 -0.6530 -0.1467 -0.0796
 7381SOL    HW133605   2.171   3.789  15.241 -0.9930 -2.0137 -1.5969
 7381SOL    HW233606   2.265   3.681  15.229 -2.0738 -0.2171  1.2092
 7382SOL     OW33607   2.897   1.571   3.025 -0.4052  0.0241  0.3670
 7382SOL    HW133608   2.917   1.632   3.096  0.8375 -0.7053  0.6667
 7382SOL    HW233609   2.945   1.616   2.956 -2.2291 -1.3820 -1.7754
 7383SOL     OW33610   3.784   3.401   5.575 -0.0878  0.8391 -0.2793
 7383SOL    HW133611   3.696   3.437   5.590  0.5193  1.6381  1.2773
 7383SOL    HW233612   3.770   3.306   5.578 -2.1474  1.1190 -1.0652
 7384SOL     OW33613   4.241   1.768   6.064  0.6037 -0.2793 -0.0406
 7384SOL    HW133614   4.173   1.732   6.007 -2.1866  1.6978  1.9598
 7384SOL    HW233615   4.309   1.749   6.001  1.0199  0.0050  0.3190
 7385SOL     OW33616   1.679   4.197   5.156 -0.0394 -0.1022 -0.1074
 7385SOL    HW133617   1.627   4.256   5.103  0.5121 -0.4801 -1.0627
 7385SOL    HW233618   1.723   4.159   5.080 -0.1780 -1.8398  0.6737
 7386SOL     OW33619   1.531   4.490   4.246  0.3309  0.1619 -0.0769
 7386SOL    HW133620   1.523   4.554   4.175  0.0342  0.4310  0.2016
 7386SOL    HW233621   1.440   4.488   4.276  0.2804 -3.1050 -0.3856
 7387SOL     OW33622   1.600   4.354   9.504 -0.2046 -0.0777 -0.0501
 7387SOL    HW133623   1.522   4.352   9.561 -0.6957 -0.3404 -0.7343
 7387SOL    HW233624   1.625   4.262   9.505  3.1659  0.8630  1.3017
 7388SOL     OW33625   2.189   0.912  16.829 -0.0886  0.0349  0.6056
 7388SOL    HW133626   2.206   0.866  16.747  2.0435 -1.8630  2.1048
 7388SOL    HW233627   2.158   0.994  16.790 -1.4859 -0.9983 -0.4247
 7389SOL     OW33628   0.381   1.987   3.110 -0.0860  0.2357 -0.7103
 7389SOL    HW133629   0.308   1.929   3.087 -0.2995 -0.1604  1.0027
 7389SOL    HW233630   0.389   1.965   3.202  1.9338  0.6514 -0.7809
 7390SOL     OW33631   1.871   4.146   4.226 -0.6009  0.1430 -0.2772
 7390SOL    HW133632   1.854   4.136   4.132  1.2950 -0.0524 -0.6049
 7390SOL    HW233633   1.953   4.194   4.219 -2.2117  2.8372 -0.4515
 7391SOL     OW33634   1.671   0.194   9.761 -0.3191 -1.0634  0.0261
 7391SOL    HW133635   1.582   0.159   9.766 -0.1986 -1.0990  1.7222
 7391SOL    HW233636   1.728   0.121   9.787  0.6642  0.0567  0.9964
 7392SOL     OW33637   2.436   4.114   1.148  0.0362  0.2364  0.2273
 7392SOL    HW133638   2.518   4.112   1.099 -0.6684 -0.0203 -0.9497
 7392SOL    HW233639   2.382   4.156   1.081  0.1133 -1.2719 -0.7772
 7393SOL     OW33640   2.468   0.385   6.603  0.9865 -0.4621 -0.3565
 7393SOL    HW133641   2.561   0.366   6.588  0.6141 -1.3041 -1.5451
 7393SOL    HW233642   2.464   0.480   6.590  1.4956 -0.8353 -3.3082
 7394SOL     OW33643   4.082   1.725   8.721 -0.3988 -0.3864  0.5435
 7394SOL    HW133644   4.075   1.648   8.777 -2.2209 -0.2978  0.4475
 7394SOL    HW233645   4.154   1.770   8.766 -0.8292  0.5064  0.3468
 7395SOL     OW33646   1.708   3.030   1.123 -0.3215  0.1002 -0.5901
 7395SOL    HW133647   1.749   2.957   1.076 -0.1088 -0.8692  1.0983
 7395SOL    HW233648   1.621   2.991   1.135  0.6551 -1.5310  1.0143
 7396SOL     OW33649   3.184   1.522   9.357  0.2427 -0.3334  0.6941
 7396SOL    HW133650   3.229   1.597   9.317 -0.9638 -0.5126 -1.0118
 7396SOL    HW233651   3.147   1.558   9.438  0.5845  2.1702 -0.2600
 7397SOL     OW33652   0.719   4.063   5.633  0.5348 -0.4452 -0.4337
 7397SOL    HW133653   0.634   4.107   5.621  1.7773  1.5654 -1.8905
 7397SOL    HW233654   0.751   4.045   5.545  0.3280 -0.0873 -0.5846
 7398SOL     OW33655   1.384   4.254   8.505 -0.4977 -0.6220 -0.1622
 7398SOL    HW133656   1.458   4.225   8.558 -0.2098 -1.6816 -1.1645
 7398SOL    HW233657   1.390   4.194   8.431 -2.7758  0.7208 -1.4455
 7399SOL     OW33658   2.702   2.264   6.598  0.4508  0.6116 -0.1715
 7399SOL    HW133659   2.784   2.305   6.626  0.9173 -0.4499  0.0126
 7399SOL    HW233660   2.656   2.343   6.569  2.1447  2.5809  2.5305
 7400SOL     OW33661   3.569   4.370   3.716  0.1552  0.4803  0.5062
 7400SOL    HW133662   3.614   4.402   3.637 -0.1735 -1.9988 -0.6785
 7400SOL    HW233663   3.541   4.451   3.757 -0.3918  0.0354  1.0082
 7401SOL     OW33664   3.233   3.432  16.581  0.5327  0.1884  0.1659
 7401SOL    HW133665   3.182   3.502  16.541 -0.6339 -1.5487 -1.3752
 7401SOL    HW233666   3.309   3.418  16.524  0.5027 -0.7671  0.3575
 7402SOL     OW33667   4.380   0.824   8.767  0.2103  0.5208 -0.5246
 7402SOL    HW133668   4.308   0.885   8.784  0.2548  0.6680 -0.8693
 7402SOL    HW233669   4.447   0.884   8.734 -0.2419  1.3679  0.0996
 7403SOL     OW33670   4.006   3.834   5.297  1.5950 -0.1077  0.8249
 7403SOL    HW133671   3.942   3.901   5.271 -0.5392 -3.1867 -1.7037
 7403SOL    HW233672   3.966   3.815   5.382  0.8569  1.1861  0.7753
 7404SOL     OW33673   4.249   1.396  14.174  0.2729 -0.1510 -0.2949
 7404SOL    HW133674   4.176   1.418  14.232  1.2433  0.8014  0.5772
 7404SOL    HW233675   4.322   1.436  14.221 -0.6970  0.4561  0.7034
 7405SOL     OW33676   1.392   2.313   6.712  0.1034  0.3335 -0.0317
 7405SOL    HW133677   1.484   2.298   6.732  0.1627 -2.2265 -2.2751
 7405SOL    HW233678   1.391   2.407   6.695 -3.1055 -0.0679 -2.1400
 7406SOL     OW33679   3.361   1.465   3.650  0.2666 -0.2262 -0.0972
 7406SOL    HW133680   3.331   1.516   3.574 -1.2476  1.9488  1.9501
 7406SOL    HW233681   3.369   1.377   3.613  2.2474 -0.1603  0.1801
 7407SOL     OW33682   1.479   3.228   3.866 -0.0637 -0.3641  0.0937
 7407SOL    HW133683   1.558   3.188   3.902 -0.9122 -0.9956  1.2479
 7407SOL    HW233684   1.426   3.215   3.945 -1.8866 -0.7647 -1.2051
 7408SOL     OW33685   4.691   1.202   6.356  0.3445  0.3976 -0.0067
 7408SOL    HW133686   0.016   1.160   6.285 -0.1348 -0.8284  0.3816
 7408SOL    HW233687   4.603   1.211   6.319  0.3941 -4.5287 -1.3320
 7409SOL     OW33688   1.449   3.870  15.602 -0.0969  0.1801 -0.1192
 7409SOL    HW133689   1.449   3.957  15.561 -0.3544 -0.2954 -1.1316
 7409SOL    HW233690   1.444   3.883  15.697 -2.3486 -0.2222 -0.1858
 7410SOL     OW33691   1.472   4.119   1.937 -0.4788  0.2050  0.1105
 7410SOL    HW133692   1.510   4.162   2.013  0.3847 -1.2346  0.4931
 7410SOL    HW233693   1.550   4.124   1.882 -1.9323 -0.8043 -2.0449
 7411SOL     OW33694   3.274   1.767  16.756  0.0260  0.0945  0.4012
 7411SOL    HW133695   3.266   1.834  16.689  0.0071  0.8920  1.2060
 7411SOL    HW233696   3.369   1.756  16.748  0.0464 -0.0701  0.9018
 7412SOL     OW33697   3.878   2.668   5.684 -0.3147  0.1240 -0.7137
 7412SOL    HW133698   3.954   2.724   5.699 -1.0563  0.3812  1.9687
 7412SOL    HW233699   3.819   2.733   5.646  2.6760  2.6353 -1.0292
 7413SOL     OW33700   1.228   3.692   7.654 -0.0762 -0.2001  0.2924
 7413SOL    HW133701   1.324   3.702   7.654 -0.1301  0.3320  0.8261
 7413SOL    HW233702   1.196   3.782   7.650 -1.3578 -0.6485  0.5724
 7414SOL     OW33703   4.563   0.835   8.359  0.3463 -0.0633  0.3641
 7414SOL    HW133704   4.481   0.791   8.383  1.1860 -1.3570  0.8025
 7414SOL    HW233705   4.579   0.880   8.442  2.5573  1.4024 -0.8623
 7415SOL     OW33706   4.108   4.470   8.254 -0.0418  0.1749 -0.1409
 7415SOL    HW133707   4.142   4.552   8.289 -1.8944  0.2916  1.4194
 7415SOL    HW233708   4.042   4.493   8.189 -0.3239 -1.5791 -0.4859
 7416SOL     OW33709   3.551   3.731  13.312 -0.5967  0.2293  0.0619
 7416SOL    HW133710   3.535   3.719  13.405 -1.5654 -0.0265 -0.1419
 7416SOL    HW233711   3.557   3.827  13.318  1.0857  0.0179  1.8725
 7417SOL     OW33712   2.004   1.604   7.355  0.0200 -0.4241 -0.8427
 7417SOL    HW133713   2.092   1.596   7.392  0.0085 -0.5550 -0.8433
 7417SOL    HW233714   2.007   1.693   7.320  0.2870 -0.0316  0.1950
 7418SOL     OW33715   2.760   0.398   4.226  0.1801  0.2439  0.4546
 7418SOL    HW133716   2.678   0.348   4.217  0.1020  0.5222 -0.3329
 7418SOL    HW233717   2.742   0.484   4.189  0.1444 -0.1877 -0.5325
 7419SOL     OW33718   2.776   3.055   7.850  0.2937  0.2731  0.3550
 7419SOL    HW133719   2.731   3.015   7.924  1.0883  0.7855  1.1294
 7419SOL    HW233720   2.727   3.137   7.840 -2.1602 -0.9738  2.3180
 7420SOL     OW33721   0.694   3.523   5.629 -0.0218  0.3090 -0.3305
 7420SOL    HW133722   0.656   3.442   5.595 -1.8268  1.0411 -0.0919
 7420SOL    HW233723   0.623   3.588   5.639 -1.3309 -1.2097  0.2367
 7421SOL     OW33724   3.727   3.412   9.260  0.0187  0.1226  0.1862
 7421SOL    HW133725   3.760   3.324   9.278  0.1159  0.4539  1.6182
 7421SOL    HW233726   3.636   3.384   9.273 -0.3019  0.2172 -1.8217
 7422SOL     OW33727   1.005   2.496   4.043 -0.0576  0.3989 -0.5166
 7422SOL    HW133728   0.915   2.475   4.017 -1.0176  0.0661  3.0634
 7422SOL    HW233729   1.056   2.435   3.990 -0.8681 -0.7111 -0.0395
 7423SOL     OW33730   2.122   1.926   8.474  0.4170  0.2172 -0.2495
 7423SOL    HW133731   2.037   1.955   8.441 -0.0142  0.4869  1.1275
 7423SOL    HW233732   2.175   1.934   8.394 -0.8518  0.4391 -1.0667
 7424SOL     OW33733   3.815   4.648   6.598 -0.0804  0.6172  0.3087
 7424SOL    HW133734   3.751   4.609   6.538  0.0283  0.8076  0.0665
 7424SOL    HW233735   3.853   4.720   6.548  2.6531 -2.1087 -1.5617
 7425SOL     OW33736   1.627   0.486  16.508  0.3344  0.4341 -0.3845
 7425SOL    HW133737   1.692   0.556  16.516 -0.3669  0.9117  1.2508
 7425SOL    HW233738   1.682   0.418  16.547  1.4990  0.9886 -1.0818
 7426SOL     OW33739   3.619   4.313  16.892 -0.0547  0.1610 -0.8225
 7426SOL    HW133740   3.602   4.399  16.854  0.3869 -0.7707 -3.1504
 7426SOL    HW233741   3.714   4.318  16.885 -0.1486  0.8853 -1.4629
 7427SOL     OW33742   1.238   4.673   8.732 -0.1773  0.1092  0.3971
 7427SOL    HW133743   1.161   4.623   8.759 -0.3759 -0.0329 -0.4449
 7427SOL    HW233744   1.185   0.025   8.713  0.5068  1.0500  2.3099
 7428SOL     OW33745   3.941   1.149   8.162  0.4049  0.4090  0.6220
 7428SOL    HW133746   3.943   1.168   8.256 -0.1215  0.2122  0.6701
 7428SOL    HW233747   3.967   1.057   8.159  0.9248  0.5916 -0.3585
 7429SOL     OW33748   1.235   3.055   8.020  0.5485 -0.7664  0.1309
 7429SOL    HW133749   1.314   3.084   7.974 -0.7975 -0.8868 -2.2611
 7429SOL    HW233750   1.201   3.139   8.051  0.7994 -0.6570  0.1061
 7430SOL     OW33751   2.001   2.452  13.914 -0.1039 -0.4169 -0.2411
 7430SOL    HW133752   2.076   2.468  13.971 -0.6616 -0.6673  0.5619
 7430SOL    HW233753   2.047   2.437  13.832  1.2541  0.2854  0.3901
 7431SOL     OW33754   0.216   0.895   6.917 -0.2535 -0.1830  0.0936
 7431SOL    HW133755   0.207   0.951   6.840  2.2023 -0.0652 -0.1051
 7431SOL    HW233756   0.133   0.914   6.961 -0.7536  1.2935 -1.4592
 7432SOL     OW33757   3.464   4.020   4.534  0.0223 -0.2367  0.0476
 7432SOL    HW133758   3.389   4.071   4.563 -0.0736  0.6277 -1.7153
 7432SOL    HW233759   3.419   3.981   4.459  2.4056 -0.2175 -1.3847
 7433SOL     OW33760   3.397   0.409   2.584  0.1531  0.0759 -0.2594
 7433SOL    HW133761   3.333   0.469   2.548  0.5166 -0.0818 -1.1647
 7433SOL    HW233762   3.368   0.319   2.565 -0.9554  0.9672 -2.7463
 7434SOL     OW33763   3.214   1.639   3.875  0.2077  0.8956  0.0151
 7434SOL    HW133764   3.271   1.598   3.810  1.5937  1.3108  0.9540
 7434SOL    HW233765   3.150   1.568   3.878  3.3847 -2.0031  0.3932
 7435SOL     OW33766   0.854   0.740   1.990  0.3024  0.1979  0.5561
 7435SOL    HW133767   0.921   0.807   1.995 -1.1542  1.4566  3.2306
 7435SOL    HW233768   0.778   0.794   1.968  0.0920  0.3436  1.5960
 7436SOL     OW33769   2.225   3.178  15.791 -0.4361 -0.0510  0.0256
 7436SOL    HW133770   2.280   3.157  15.866 -0.3227 -1.7640 -0.5425
 7436SOL    HW233771   2.249   3.266  15.765 -1.3868  0.4479  0.8337
 7437SOL     OW33772   1.020   3.709  15.963 -0.2000 -0.3058  0.2450
 7437SOL    HW133773   1.106   3.679  15.990  0.0813 -0.3231 -0.6442
 7437SOL    HW233774   1.047   3.799  15.943  0.8962 -0.5886  0.4598
 7438SOL     OW33775   0.340   1.944   2.470  0.1864 -0.1258  0.2015
 7438SOL    HW133776   0.320   1.950   2.377  0.1583 -1.2195  0.1380
 7438SOL    HW233777   0.426   1.903   2.464 -0.1201 -0.4901 -1.7853
 7439SOL     OW33778   4.001   0.199   7.212 -0.8563 -0.1933 -0.3206
 7439SOL    HW133779   4.040   0.209   7.299  0.3222 -1.1114 -0.7440
 7439SOL    HW233780   4.036   0.276   7.168  2.6521 -1.3158  0.5616
 7440SOL     OW33781   0.858   1.798   2.253 -0.3676  0.2049 -0.4023
 7440SOL    HW133782   0.798   1.862   2.292 -2.9109 -2.2760 -0.2047
 7440SOL    HW233783   0.899   1.759   2.330 -0.9317 -0.1096 -0.2612
 7441SOL     OW33784   1.654   1.768   1.566  0.3036  0.6961  0.1011
 7441SOL    HW133785   1.617   1.704   1.628  2.8658 -0.8900  0.0186
 7441SOL    HW233786   1.571   1.792   1.526  0.7043  1.7905 -0.0656
 7442SOL     OW33787   2.501   0.141  15.302  0.5849 -0.1013  0.0471
 7442SOL    HW133788   2.545   0.132  15.387 -3.3138 -2.3725  1.8126
 7442SOL    HW233789   2.430   0.198  15.330 -0.6184 -1.7314  0.2950
 7443SOL     OW33790   4.383   0.154   8.826  0.4689  0.3376 -0.0425
 7443SOL    HW133791   4.368   0.203   8.907 -3.6558  0.6791 -1.0322
 7443SOL    HW233792   4.325   0.079   8.835  1.7406 -0.6568 -0.0673
 7444SOL     OW33793   3.845   2.099  15.873  0.1242 -0.0919 -0.8252
 7444SOL    HW133794   3.884   2.034  15.931 -2.4174  0.6780  1.7605
 7444SOL    HW233795   3.806   2.037  15.812 -0.2822 -0.4524 -0.1912
 7445SOL     OW33796   1.401   0.102   3.807 -0.1368 -0.0236  0.4027
 7445SOL    HW133797   1.401   0.066   3.718  0.7993  0.1229  0.3339
 7445SOL    HW233798   1.327   0.060   3.850  0.2478 -0.3278  0.7674
 7446SOL     OW33799   1.944   0.188   8.426 -0.3392  0.1904  0.4346
 7446SOL    HW133800   1.851   0.168   8.440 -0.7373  0.8132 -1.2419
 7446SOL    HW233801   1.977   0.105   8.393 -0.8810 -1.0105  2.9907
 7447SOL     OW33802   2.779   3.710   6.545  0.1790 -0.0493  0.5737
 7447SOL    HW133803   2.836   3.733   6.618 -1.0723 -1.4859  2.0085
 7447SOL    HW233804   2.835   3.650   6.495 -0.9277 -1.5314  1.1317
 7448SOL     OW33805   3.532   2.270   5.580 -0.2314 -0.2549 -0.2466
 7448SOL    HW133806   3.460   2.270   5.643  0.6313  0.9513  0.7368
 7448SOL    HW233807   3.595   2.205   5.609  0.7338  0.7303 -0.1419
 7449SOL     OW33808   0.393   4.348   7.435 -0.3361  0.4548 -0.0151
 7449SOL    HW133809   0.379   4.367   7.528  1.6503 -3.6949  1.1401
 7449SOL    HW233810   0.377   4.254   7.442 -2.3776  0.8065 -0.0569
 7450SOL     OW33811   3.686   4.560  11.187 -0.1418  0.3506  0.3020
 7450SOL    HW133812   3.760   4.536  11.243 -0.1898 -1.9025 -0.6101
 7450SOL    HW233813   3.710   4.651  11.170  0.5461 -0.2514 -1.8629
 7451SOL     OW33814   2.742   0.349   8.771 -0.5404 -0.2636 -0.7829
 7451SOL    HW133815   2.668   0.395   8.730 -0.3616 -0.7054 -1.6069
 7451SOL    HW233816   2.730   0.366   8.864  0.0747  1.4703 -1.0178
 7452SOL     OW33817   0.870   2.939   6.271 -0.0578  0.5774  0.0124
 7452SOL    HW133818   0.894   2.852   6.303  2.0807  1.3232  0.4494
 7452SOL    HW233819   0.949   2.987   6.295  1.8353 -1.9341 -1.2140
 7453SOL     OW33820   0.391   4.088   5.303 -0.0643 -0.6870 -0.0865
 7453SOL    HW133821   0.328   4.020   5.278 -1.4486  0.6880 -0.3425
 7453SOL    HW233822   0.409   4.128   5.218 -0.6425  1.5785  0.8609
 7454SOL     OW33823   1.076   3.258   8.328  0.1638 -0.3777  0.4999
 7454SOL    HW133824   1.137   3.282   8.258 -1.1805  0.3052 -0.4408
 7454SOL    HW233825   1.005   3.231   8.269 -1.6413 -1.5244  3.2200
 7455SOL     OW33826   0.491   3.375  14.672 -0.3010 -0.1591  0.1521
 7455SOL    HW133827   0.540   3.301  14.708 -1.2996 -1.3890 -0.9985
 7455SOL    HW233828   0.539   3.381  14.589 -0.5526 -2.3296 -0.1495
 7456SOL     OW33829   4.581   2.072  17.008  0.0604  0.1411 -0.3200
 7456SOL    HW133830   4.521   2.110  17.073  0.0101  2.5479 -1.7838
 7456SOL    HW233831   4.518   2.021  16.958  0.8109 -0.3792 -0.7305
 7457SOL     OW33832   3.553   0.372   5.905 -0.5126 -0.2625  0.5034
 7457SOL    HW133833   3.524   0.414   5.987  0.0397 -0.2268  0.6813
 7457SOL    HW233834   3.497   0.413   5.840  2.6873  1.0606 -1.4155
 7458SOL     OW33835   0.246   2.084   6.057  0.0301  0.5317  0.6601
 7458SOL    HW133836   0.281   2.145   6.122  3.1684  0.5143 -1.0198
 7458SOL    HW233837   0.212   2.011   6.109 -0.2880 -1.7983 -2.8365
 7459SOL     OW33838   3.241   3.831   5.703 -0.0265 -0.1777  0.2798
 7459SOL    HW133839   3.209   3.879   5.627  0.3391 -0.5113 -0.0873
 7459SOL    HW233840   3.232   3.740   5.674  0.6738  0.0983 -0.7915
 7460SOL     OW33841   0.305   3.395   6.413  0.6084 -0.4394  0.2126
 7460SOL    HW133842   0.368   3.336   6.371  0.7371  0.4509 -0.8383
 7460SOL    HW233843   0.294   3.461   6.344 -2.5427  0.9402  2.0406
 7461SOL     OW33844   3.442   3.979  15.491  0.4344  0.3837  0.2011
 7461SOL    HW133845   3.512   4.020  15.439  0.4864 -0.2939 -0.2734
 7461SOL    HW233846   3.451   4.029  15.572  0.9437  0.8180 -0.1250
 7462SOL     OW33847   1.693   1.360   0.552 -0.4662 -0.2040 -0.1491
 7462SOL    HW133848   1.652   1.446   0.545  0.9284  0.7252  3.2725
 7462SOL    HW233849   1.764   1.392   0.607  0.3893 -0.9682 -0.8001
 7463SOL     OW33850   2.464   2.385   6.889  0.0445 -0.2537 -0.2049
 7463SOL    HW133851   2.369   2.396   6.901  0.3131  0.4222  1.3894
 7463SOL    HW233852   2.459   2.315   6.824  1.5022 -0.5942  0.0426
 7464SOL     OW33853   1.973   1.622   6.338  0.2179 -0.4777  0.0451
 7464SOL    HW133854   1.893   1.572   6.324  2.1049 -3.0494 -1.6725
 7464SOL    HW233855   2.018   1.562   6.398 -2.2518 -0.4417  1.8883
 7465SOL     OW33856   3.260   3.243   8.045  0.2212  0.3063  0.2105
 7465SOL    HW133857   3.247   3.332   8.077  1.5579  1.1069 -1.4920
 7465SOL    HW233858   3.253   3.189   8.123 -2.1311  0.0738 -0.1425
 7466SOL     OW33859   1.704   0.977   0.292  0.1571 -0.4369  0.2663
 7466SOL    HW133860   1.622   0.972   0.342 -1.0136 -1.4856 -1.7762
 7466SOL    HW233861   1.758   0.919   0.346 -0.3182 -2.3547 -1.3355
 7467SOL     OW33862   1.002   3.830   7.093  0.6955 -0.2184 -0.0280
 7467SOL    HW133863   1.012   3.853   7.000  0.4080 -0.1229 -0.0353
 7467SOL    HW233864   0.959   3.913   7.114 -1.2190 -1.4486  0.9258
 7468SOL     OW33865   4.556   3.051   5.553 -0.8355  0.2687 -0.6290
 7468SOL    HW133866   4.635   3.097   5.581  0.2735 -2.5731  0.9246
 7468SOL    HW233867   4.597   2.977   5.509  1.2749  0.0793  1.7374
 7469SOL     OW33868   2.028   4.574   7.441  0.4613 -0.2343  0.3300
 7469SOL    HW133869   1.972   4.521   7.497 -1.5256  0.8912 -0.6024
 7469SOL    HW233870   1.982   4.550   7.361  0.0162  1.6610  0.0155
 7470SOL     OW33871   0.024   1.289   5.156 -0.1599 -0.2638  0.2892
 7470SOL    HW133872   0.070   1.207   5.139 -1.2033 -0.7754 -0.1230
 7470SOL    HW233873   4.721   1.300   5.065 -0.8004 -0.2453  0.4914
 7471SOL     OW33874   2.939   2.876   5.071 -0.0896  0.2932  0.6755
 7471SOL    HW133875   2.950   2.796   5.020 -1.6394  0.7949 -0.4454
 7471SOL    HW233876   2.980   2.949   5.026 -0.5783  1.6690  2.4488
 7472SOL     OW33877   1.312   4.016   5.295  0.2906  0.2421 -0.2466
 7472SOL    HW133878   1.237   3.987   5.244  0.4556 -1.8080  0.6603
 7472SOL    HW233879   1.291   4.109   5.304 -0.8054 -0.1306  1.0965
 7473SOL     OW33880   3.152   2.086   9.200 -0.3026  0.2759  0.2975
 7473SOL    HW133881   3.230   2.140   9.194  2.4218 -3.5373  1.6497
 7473SOL    HW233882   3.174   2.017   9.263 -0.6106  1.2627  1.4847
 7474SOL     OW33883   2.682   1.138   8.805 -0.2823  0.5796  0.0814
 7474SOL    HW133884   2.742   1.098   8.742 -0.8089 -0.0474 -0.0184
 7474SOL    HW233885   2.625   1.189   8.747  0.6188 -0.3068 -1.5943
 7475SOL     OW33886   1.662   2.986   6.412  0.0530  0.2060 -0.6101
 7475SOL    HW133887   1.754   2.974   6.387  0.6142  0.2292  1.4576
 7475SOL    HW233888   1.622   2.901   6.396 -0.2788  0.1017  0.7842
 7476SOL     OW33889   0.558   1.365   5.551 -0.4540  0.6034  0.1918
 7476SOL    HW133890   0.599   1.334   5.470  0.8477  1.1009  0.6664
 7476SOL    HW233891   0.626   1.347   5.616  0.2450  0.9296 -0.4575
 7477SOL     OW33892   3.487   2.046   3.387 -0.2964  0.0042 -0.5975
 7477SOL    HW133893   3.488   2.033   3.293  1.1521 -0.9804 -0.4441
 7477SOL    HW233894   3.577   2.029   3.414 -0.5592  1.6722  1.3848
 7478SOL     OW33895   3.804   3.616   3.121  0.0475  0.6940  0.2296
 7478SOL    HW133896   3.773   3.674   3.052  0.7065  0.3785 -0.3300
 7478SOL    HW233897   3.861   3.553   3.077 -0.9338 -0.8622  1.1627
 7479SOL     OW33898   3.089   4.180   7.314  0.1802  0.4427 -0.2454
 7479SOL    HW133899   3.003   4.140   7.327  0.6190 -0.5622 -0.4134
 7479SOL    HW233900   3.059   4.256   7.264  0.5219  0.7981  0.0932
 7480SOL     OW33901   2.697   1.485   0.189  0.3139  0.2144  0.1486
 7480SOL    HW133902   2.768   1.547   0.170  0.0557  0.0192 -1.4104
 7480SOL    HW233903   2.737   1.421   0.248  0.8575  1.6617  1.3741
 7481SOL     OW33904   2.291   4.009   5.949  0.3344 -0.1975  0.5639
 7481SOL    HW133905   2.350   4.005   6.025  1.1221  0.5862 -0.0206
 7481SOL    HW233906   2.303   4.099   5.920 -1.4332  0.2471  1.1890
 7482SOL     OW33907   2.461   4.624   0.165 -0.4267 -0.0147 -0.1299
 7482SOL    HW133908   2.453   4.660   0.253 -0.4025  2.8190 -1.3052
 7482SOL    HW233909   2.496   4.540   0.196 -0.1789  0.0623 -0.2016
 7483SOL     OW33910   0.737   2.276   1.491  0.2020  0.2989  0.2786
 7483SOL    HW133911   0.642   2.280   1.506  0.0080 -0.5130 -0.6732
 7483SOL    HW233912   0.744   2.180   1.488 -1.8570  0.1518  0.2285
 7484SOL     OW33913   0.846   1.824   4.185  0.3772 -0.2205  0.4391
 7484SOL    HW133914   0.845   1.847   4.278 -0.4299  1.8177 -0.0840
 7484SOL    HW233915   0.872   1.734   4.207  2.2796 -0.2054 -1.8405
 7485SOL     OW33916   1.189   3.766   3.720  0.1227 -0.4415  0.6120
 7485SOL    HW133917   1.152   3.678   3.712  1.1867 -0.7609 -0.6324
 7485SOL    HW233918   1.274   3.732   3.748 -0.1813 -1.1121  0.7288
 7486SOL     OW33919   2.623   3.155  15.574  0.1577 -0.6265  0.2963
 7486SOL    HW133920   2.706   3.135  15.530  0.8950  0.5214  1.1733
 7486SOL    HW233921   2.653   3.230  15.626  1.2399  0.5934 -2.0621
 7487SOL     OW33922   0.353   1.172   2.242  0.0976  0.0954 -0.1903
 7487SOL    HW133923   0.273   1.149   2.195  1.3389  0.1198 -2.3481
 7487SOL    HW233924   0.370   1.098   2.300  5.7417 -0.1069 -2.1509
 7488SOL     OW33925   3.152   4.235  10.510 -0.7538  0.2858 -0.0537
 7488SOL    HW133926   3.144   4.315  10.561 -0.5255  0.7010 -0.6799
 7488SOL    HW233927   3.246   4.221  10.499 -0.9703 -2.2816  1.0657
 7489SOL     OW33928   1.834   3.554   5.377 -0.4598  0.1814  0.2717
 7489SOL    HW133929   1.859   3.613   5.305  1.3751 -0.4336  0.4048
 7489SOL    HW233930   1.842   3.471   5.329  1.2744  0.6011 -0.1602
 7490SOL     OW33931   1.319   1.401  17.570 -0.7805 -0.8696 -0.1109
 7490SOL    HW133932   1.358   1.314  17.563 -0.1684 -0.7961  2.4211
 7490SOL    HW233933   1.265   1.388  17.648  1.1460 -0.8738  1.2255
 7491SOL     OW33934   2.358   0.073   4.650  0.3953 -0.2104  0.4613
 7491SOL    HW133935   2.348   0.168   4.654  1.0799 -0.1462  0.5656
 7491SOL    HW233936   2.426   0.059   4.716  0.7491 -0.8255 -0.0332
 7492SOL     OW33937   4.352   2.180  17.192 -0.4983 -0.1970 -0.0917
 7492SOL    HW133938   4.400   2.221  17.264  1.9114 -2.4183 -0.4212
 7492SOL    HW233939   4.262   2.164  17.220 -0.7218 -0.1694 -0.7856
 7493SOL     OW33940   4.406   3.482  15.455 -0.5793  0.0024 -0.3222
 7493SOL    HW133941   4.437   3.568  15.427 -1.5372  0.7772  1.0537
 7493SOL    HW233942   4.487   3.452  15.496  0.6098  1.0277 -1.9473
 7494SOL     OW33943   2.997   1.561  10.622  0.3775  0.3788 -0.2909
 7494SOL    HW133944   3.060   1.534  10.688 -0.2871  0.0495  0.2124
 7494SOL    HW233945   2.927   1.605  10.670  1.3947  0.3013  1.2605
 7495SOL     OW33946   1.521   3.887  11.146 -0.5916 -0.2053 -0.2498
 7495SOL    HW133947   1.544   3.924  11.061  0.8234 -1.6909 -0.5006
 7495SOL    HW233948   1.427   3.904  11.154 -0.4886  1.0991 -1.8417
 7496SOL     OW33949   1.400   2.186   7.847  0.4903 -0.0608  0.5274
 7496SOL    HW133950   1.425   2.279   7.847 -0.5664  0.2200  0.7182
 7496SOL    HW233951   1.484   2.145   7.827 -0.6271 -2.3870  0.5866
 7497SOL     OW33952   1.474   0.347  17.477  0.3845 -0.4232  0.1810
 7497SOL    HW133953   1.388   0.353  17.520  0.5873 -1.7464  0.7759
 7497SOL    HW233954   1.445   0.369  17.389 -0.0478  1.2117  0.7411
 7498SOL     OW33955   3.258   1.419   7.254  0.6916  0.3433  0.3213
 7498SOL    HW133956   3.337   1.380   7.294  0.5819 -0.1524  0.0516
 7498SOL    HW233957   3.249   1.379   7.168  1.1875  0.3972  0.2416
 7499SOL     OW33958   2.654   0.747  11.565 -0.3015 -0.0687  0.3840
 7499SOL    HW133959   2.696   0.684  11.624  1.0859  0.6258  0.1445
 7499SOL    HW233960   2.731   0.790  11.527 -0.9639  1.5082  0.8480
 7500SOL     OW33961   4.168   0.647  12.254  0.1175 -0.1271  0.2450
 7500SOL    HW133962   4.241   0.631  12.193  0.5679  1.9163  0.2548
 7500SOL    HW233963   4.157   0.575  12.316 -0.1506 -0.8067 -0.5911
 7501SOL     OW33964   3.614   2.120   4.311 -0.9165 -0.2185 -0.0630
 7501SOL    HW133965   3.527   2.146   4.342 -0.0884  1.1425  1.1207
 7501SOL    HW233966   3.657   2.205   4.303  1.1173 -1.1246  1.1128
 7502SOL     OW33967   2.959   0.969   3.164 -0.0483  0.2281 -0.1860
 7502SOL    HW133968   3.005   1.046   3.197  1.4063 -0.8527  0.2887
 7502SOL    HW233969   3.016   0.942   3.092  1.6517 -0.0388  1.2602
 7503SOL     OW33970   2.677   2.283  13.859  0.4832 -0.1865 -0.2012
 7503SOL    HW133971   2.642   2.251  13.942  3.4182 -0.5043  0.9236
 7503SOL    HW233972   2.635   2.368  13.844  0.7791 -0.1561 -0.8509
 7504SOL     OW33973   0.048   4.417   7.186 -0.1126 -0.0913  0.5254
 7504SOL    HW133974   0.018   4.483   7.124  0.3378  1.2626  1.7677
 7504SOL    HW233975   0.141   4.420   7.161  0.3723 -1.2233  2.1963
 7505SOL     OW33976   0.326   4.476   7.099 -0.2509  0.1378 -0.2936
 7505SOL    HW133977   0.368   4.557   7.073  3.4245 -1.4698  0.6946
 7505SOL    HW233978   0.342   4.482   7.193  1.9654 -1.4406 -0.5734
 7506SOL     OW33979   2.911   4.160   6.890  0.0262 -0.0260  0.2085
 7506SOL    HW133980   2.974   4.154   6.961  0.7343 -1.4142 -0.5466
 7506SOL    HW233981   2.982   4.135   6.831 -1.8279 -1.1513 -1.5498
 7507SOL     OW33982   2.794   1.124   2.047  0.2767  0.1336  0.4118
 7507SOL    HW133983   2.751   1.151   1.966  2.0176 -0.7785 -0.8146
 7507SOL    HW233984   2.741   1.049   2.074 -0.7014  0.5648 -0.3012
 7508SOL     OW33985   3.421   3.688   4.590  0.5256 -0.0742 -0.2264
 7508SOL    HW133986   3.450   3.639   4.513  0.3572  0.7331 -0.7962
 7508SOL    HW233987   3.390   3.767   4.547 -4.4690 -0.2213  3.0158
 7509SOL     OW33988   3.017   3.408  10.959  0.1426 -0.1919  0.3972
 7509SOL    HW133989   2.985   3.325  10.996 -0.1831 -0.4058 -0.3533
 7509SOL    HW233990   2.948   3.472  10.980  2.1476  2.1779 -0.3034
 7510SOL     OW33991   2.336   1.840   2.238 -0.4834 -0.1287  0.1416
 7510SOL    HW133992   2.366   1.756   2.272 -0.7240 -0.2647  0.0169
 7510SOL    HW233993   2.257   1.850   2.292 -0.9130  1.0825 -0.6951
 7511SOL     OW33994   4.323   3.781   9.601 -0.1883 -0.2618  0.1521
 7511SOL    HW133995   4.324   3.699   9.552  0.5584  0.2663 -0.7329
 7511SOL    HW233996   4.245   3.754   9.649  1.1123 -1.2187  1.7240
 7512SOL     OW33997   0.548   0.671   7.672  0.0091  0.3465  0.3297
 7512SOL    HW133998   0.470   0.680   7.616 -0.9666  0.1830  1.6546
 7512SOL    HW233999   0.621   0.701   7.618  1.0766 -1.5703  0.7285
 7513SOL     OW34000   4.628   0.784   3.143  0.1038 -0.4756 -0.1099
 7513SOL    HW134001   4.670   0.775   3.228 -0.0739 -3.3237 -0.3063
 7513SOL    HW234002   4.590   0.696   3.136 -0.1268 -0.1869 -2.7853
 7514SOL     OW34003   1.171   3.302  12.738 -0.3244  0.4399  0.5414
 7514SOL    HW134004   1.264   3.313  12.757 -0.2554  0.5782  0.1356
 7514SOL    HW234005   1.135   3.350  12.813  0.5582  1.2413  0.4527
 7515SOL     OW34006   1.409   1.992   5.953  0.1260  0.2168 -0.0342
 7515SOL    HW134007   1.493   1.957   5.982  0.6410  3.2577  2.1338
 7515SOL    HW234008   1.399   1.958   5.864  2.7800  0.8591 -0.5821
 7516SOL     OW34009   2.637   1.323   2.224  0.1471 -0.1036 -0.0159
 7516SOL    HW134010   2.663   1.266   2.151 -1.3945 -0.8052 -0.0239
 7516SOL    HW234011   2.637   1.267   2.302  1.2899  0.0355  0.0725
 7517SOL     OW34012   0.599   4.635   3.337 -0.9885  0.3157  0.0145
 7517SOL    HW134013   0.686   4.674   3.343 -1.7634  2.0728 -0.1300
 7517SOL    HW234014   0.545   4.703   3.295  0.0499  0.3760 -1.2042
 7518SOL     OW34015   0.846   2.409   9.149 -0.5478 -0.0487  0.4711
 7518SOL    HW134016   0.776   2.419   9.213 -2.5637 -2.0784 -1.4069
 7518SOL    HW234017   0.911   2.361   9.200 -1.0445 -0.4657  0.7138
 7519SOL     OW34018   2.238   1.365  13.704  0.1230  0.0300 -0.5869
 7519SOL    HW134019   2.156   1.351  13.752  0.5325 -0.4813 -0.0370
 7519SOL    HW234020   2.193   1.434  13.655  0.2987  1.6555  1.5607
 7520SOL     OW34021   3.741   2.902   6.087 -0.0906 -0.0743  0.3231
 7520SOL    HW134022   3.769   2.811   6.089 -2.5841 -0.8512 -0.7493
 7520SOL    HW234023   3.825   2.944   6.069  0.0799 -0.4363  0.2774
 7521SOL     OW34024   0.086   1.092   6.125  0.1808  0.2405 -0.1881
 7521SOL    HW134025   0.081   0.998   6.140  1.5613 -0.0298 -1.4073
 7521SOL    HW234026   0.067   1.097   6.031  0.2253 -1.5149 -0.2841
 7522SOL     OW34027   3.599   2.929   8.887  0.2990 -0.1811  0.6082
 7522SOL    HW134028   3.562   2.902   8.803 -1.1580  3.2754  0.1605
 7522SOL    HW234029   3.691   2.924   8.860 -0.8767 -0.2309 -3.3535
 7523SOL     OW34030   1.697   2.649   9.612 -0.7023 -0.6152 -0.0550
 7523SOL    HW134031   1.786   2.648   9.574 -0.5146  1.0025  0.3221
 7523SOL    HW234032   1.697   2.711   9.685 -1.0993  0.5348 -1.0225
 7524SOL     OW34033   1.056   4.675   5.472  0.3812 -0.2943 -0.3341
 7524SOL    HW134034   1.060   4.619   5.549 -2.4015 -0.7692 -0.5410
 7524SOL    HW234035   0.960   4.678   5.466  0.3514 -0.6859 -0.0152
 7525SOL     OW34036   2.764   1.722  11.017  0.0284  0.0478  0.4964
 7525SOL    HW134037   2.684   1.671  11.025  0.4962 -0.9364 -0.9487
 7525SOL    HW234038   2.797   1.679  10.938  0.4774  1.5658 -0.1443
 7526SOL     OW34039   4.476   2.695   4.360  0.4342  0.0802  0.4346
 7526SOL    HW134040   4.554   2.720   4.410  0.3966  1.4774 -0.1986
 7526SOL    HW234041   4.499   2.603   4.354 -0.3283  0.0129 -1.3718
 7527SOL     OW34042   1.418   1.970   4.455  0.7486 -0.2882 -0.2326
 7527SOL    HW134043   1.450   1.880   4.459  1.1998 -0.1598 -0.9777
 7527SOL    HW234044   1.351   1.968   4.524 -0.2384  2.4908 -1.1413
 7528SOL     OW34045   0.673   3.350   3.200  0.0446 -0.8235  0.9239
 7528SOL    HW134046   0.766   3.330   3.196 -0.0243 -1.5712  2.9372
 7528SOL    HW234047   0.643   3.262   3.223 -1.3678 -1.6139 -3.9622
 7529SOL     OW34048   1.713   1.781   7.641 -0.0537 -0.1927 -0.5770
 7529SOL    HW134049   1.798   1.792   7.684  0.5956 -0.4660 -1.7759
 7529SOL    HW234050   1.738   1.712   7.579 -0.2627  0.0685 -0.9564
 7530SOL     OW34051   2.712   0.603  10.294 -0.0006  0.2120 -0.2375
 7530SOL    HW134052   2.650   0.633  10.228 -0.3177  1.0976  0.4525
 7530SOL    HW234053   2.680   0.646  10.373  1.4978  0.6572  0.1262
 7531SOL     OW34054   1.986   2.296   4.319 -0.1153  0.2325  0.1404
 7531SOL    HW134055   1.960   2.207   4.295 -0.4273  0.3249  0.1302
 7531SOL    HW234056   2.079   2.297   4.296 -0.0238 -1.3617  0.4587
 7532SOL     OW34057   0.585   1.652   5.503 -0.6148 -0.1571 -0.0368
 7532SOL    HW134058   0.677   1.670   5.487 -0.0847 -0.2699  2.9162
 7532SOL    HW234059   0.582   1.579   5.565  1.7863  0.2607  0.5637
 7533SOL     OW34060   0.144   0.054   7.421  0.2406 -0.3677 -0.3735
 7533SOL    HW134061   0.207   4.718   7.456 -1.8338 -2.6937 -0.7111
 7533SOL    HW234062   0.092   0.064   7.501  1.5135 -0.0811  0.4110
 7534SOL     OW34063   2.831   2.715  11.452 -0.3163 -0.3713 -0.0720
 7534SOL    HW134064   2.808   2.675  11.368  1.1064  0.8531 -1.0616
 7534SOL    HW234065   2.745   2.731  11.490  0.4062 -0.5159  1.6072
 7535SOL     OW34066   1.989   4.274  17.105 -0.4248 -0.1361  0.4424
 7535SOL    HW134067   1.960   4.260  17.014 -0.3976 -0.5627  0.4998
 7535SOL    HW234068   1.916   4.331  17.127  0.2578  1.7617 -2.1612
 7536SOL     OW34069   0.705   3.289   3.571  0.4204  0.0706 -0.3254
 7536SOL    HW134070   0.612   3.268   3.571  1.0297 -2.6113  0.0112
 7536SOL    HW234071   0.717   3.349   3.497  1.3118  2.6239  1.8744
 7537SOL     OW34072   4.388   1.554   9.352  0.2114  0.2733  0.0079
 7537SOL    HW134073   4.465   1.499   9.361  0.7858  0.7167 -2.2828
 7537SOL    HW234074   4.329   1.530   9.423 -0.6627  0.6692 -0.5790
 7538SOL     OW34075   2.775   4.243  14.548  0.6048  0.0257 -0.4263
 7538SOL    HW134076   2.825   4.317  14.581 -0.6416  1.3284 -1.4716
 7538SOL    HW234077   2.840   4.173  14.556 -2.1503 -2.3601  0.8367
 7539SOL     OW34078   1.100   0.772   4.084 -0.4054  0.0825  0.0219
 7539SOL    HW134079   1.143   0.688   4.073  0.7314  0.4764  1.5144
 7539SOL    HW234080   1.166   0.830   4.046 -1.0194  0.3942 -0.5702
 7540SOL     OW34081   2.073   3.604   1.198 -0.1615 -0.4407  0.4517
 7540SOL    HW134082   2.156   3.619   1.243 -0.4194 -0.5379  0.9579
 7540SOL    HW234083   2.106   3.605   1.108  1.0258 -0.5374  0.8891
 7541SOL     OW34084   2.488   2.571   4.620  0.4249 -0.3424 -0.2675
 7541SOL    HW134085   2.410   2.568   4.675  0.9309 -1.1907  0.4067
 7541SOL    HW234086   2.464   2.614   4.538 -2.6187 -0.7039  0.4475
 7542SOL     OW34087   3.896   1.887  11.140 -0.1999  0.0351 -0.4361
 7542SOL    HW134088   3.933   1.877  11.228  0.3417 -0.3705 -0.7063
 7542SOL    HW234089   3.960   1.941  11.093 -1.1299  1.0990 -0.4766
 7543SOL     OW34090   0.933   4.224   2.748 -0.1654  0.1938  0.3730
 7543SOL    HW134091   0.891   4.291   2.695  1.3587  1.4122  0.6944
 7543SOL    HW234092   0.858   4.189   2.796  1.0938 -3.3432 -0.2766
 7544SOL     OW34093   4.309   2.071   3.664 -0.1686  0.6227  0.2905
 7544SOL    HW134094   4.260   2.005   3.713  1.3945 -1.6664 -1.2687
 7544SOL    HW234095   4.251   2.148   3.673  1.7215  2.0756  0.0106
 7545SOL     OW34096   0.222   3.630   6.280  0.0431 -0.4520 -0.3941
 7545SOL    HW134097   0.230   3.676   6.197 -0.5069 -0.1391 -0.2701
 7545SOL    HW234098   0.266   3.689   6.341  0.0064 -0.3673 -0.4509
 7546SOL     OW34099   4.107   2.373   2.534  0.6644 -0.2327  0.4401
 7546SOL    HW134100   4.189   2.352   2.490 -0.3406  1.4801 -2.2730
 7546SOL    HW234101   4.124   2.428   2.611 -0.5577  2.1794 -1.0154
 7547SOL     OW34102   4.155   1.593   2.803 -0.4527 -0.3252 -0.1486
 7547SOL    HW134103   4.159   1.517   2.745 -0.1482 -0.6564  0.3035
 7547SOL    HW234104   4.095   1.563   2.871 -1.3432  4.2028  1.0314
 7548SOL     OW34105   3.256   1.377  17.410 -0.4593 -0.3587  0.5046
 7548SOL    HW134106   3.178   1.415  17.450 -0.2460  1.2385 -0.5962
 7548SOL    HW234107   3.289   1.439  17.344  1.7338 -1.8099  0.2244
 7549SOL     OW34108   2.211   4.483   8.717  0.2570 -0.5328 -0.0953
 7549SOL    HW134109   2.125   4.490   8.759  0.0080 -1.7779 -0.3843
 7549SOL    HW234110   2.248   4.561   8.757  0.3195  0.1212 -1.4306
 7550SOL     OW34111   3.762   0.287   7.074 -0.4388  0.0345 -1.2575
 7550SOL    HW134112   3.815   0.207   7.076 -0.2034  0.2232  0.4458
 7550SOL    HW234113   3.794   0.328   7.155 -0.1071 -1.1446 -0.7949
 7551SOL     OW34114   4.565   1.150  10.002  0.1402 -0.6277 -0.2273
 7551SOL    HW134115   4.588   1.237   9.969  1.6677 -0.1071  2.1834
 7551SOL    HW234116   4.641   1.092   9.992 -1.3238 -2.5435 -0.2095
 7552SOL     OW34117   0.608   0.936   4.095  0.3307 -0.3315 -0.0306
 7552SOL    HW134118   0.530   0.893   4.058  1.0132 -1.5110 -0.1057
 7552SOL    HW234119   0.609   1.006   4.030  1.8861 -1.5425 -1.3059
 7553SOL     OW34120   3.053   1.497   9.089 -0.0131 -0.7279 -0.1308
 7553SOL    HW134121   3.132   1.476   9.041 -1.5038 -2.1341 -1.9598
 7553SOL    HW234122   3.078   1.487   9.181  0.1712  1.0496  0.0123
 7554SOL     OW34123   3.178   3.996   1.008 -0.4262  0.3169 -0.0318
 7554SOL    HW134124   3.132   3.920   1.043 -1.7194  0.3728 -1.6179
 7554SOL    HW234125   3.112   4.066   1.004 -0.2647  0.4718 -0.0084
 7555SOL     OW34126   0.353   3.468  13.118 -0.1330 -0.1121 -0.0886
 7555SOL    HW134127   0.338   3.385  13.074  1.9003  0.8996 -2.6476
 7555SOL    HW234128   0.277   3.520  13.091 -1.5878 -2.1290  0.1081
 7556SOL     OW34129   0.383   3.893   8.800 -0.2594  0.3666  0.8352
 7556SOL    HW134130   0.459   3.834   8.806 -0.8557 -0.4822  0.0924
 7556SOL    HW234131   0.382   3.901   8.704  1.2510  0.3734  0.8125
 7557SOL     OW34132   0.409   4.366   9.361  0.0947 -0.3718 -0.3130
 7557SOL    HW134133   0.454   4.374   9.445  1.0135  0.1503 -0.8570
 7557SOL    HW234134   0.480   4.374   9.296 -0.7651  2.0934 -0.9652
 7558SOL     OW34135   3.355   0.363   8.573  0.0599 -0.2131  0.3667
 7558SOL    HW134136   3.444   0.367   8.540 -0.2182  0.5343 -0.2731
 7558SOL    HW234137   3.348   0.446   8.620  0.2964  0.5107 -0.9087
 7559SOL     OW34138   2.847   1.766   3.234  0.9668  0.2807  0.0811
 7559SOL    HW134139   2.860   1.841   3.175  0.0676  1.6546  1.6288
 7559SOL    HW234140   2.941   1.756   3.249  1.3204  1.8692 -1.0504
 7560SOL     OW34141   3.649   4.562   3.126  0.3031 -0.1590 -0.0737
 7560SOL    HW134142   3.554   4.570   3.118  0.1092 -1.4798  0.9649
 7560SOL    HW234143   3.669   4.491   3.065 -2.1027 -0.7949 -0.1210
 7561SOL     OW34144   2.660   2.240   1.419 -0.3003 -0.1254  0.6953
 7561SOL    HW134145   2.573   2.207   1.396  0.7647 -0.4672 -2.8534
 7561SOL    HW234146   2.638   2.316   1.473  0.0076  0.7369 -0.3731
 7562SOL     OW34147   1.888   0.998   6.933 -0.5509 -1.0016  0.2106
 7562SOL    HW134148   1.843   0.990   6.849  1.7392  2.4601 -1.3752
 7562SOL    HW234149   1.924   0.912   6.954 -0.0400 -0.4059  1.7407
 7563SOL     OW34150   3.691   3.663  16.965 -0.0993  0.5146  0.2958
 7563SOL    HW134151   3.729   3.612  16.893  1.2640  0.2803  1.1994
 7563SOL    HW234152   3.600   3.633  16.954 -0.1854  0.9671 -0.2770
 7564SOL     OW34153   0.423   4.180   6.851  0.1872 -0.0712  0.2188
 7564SOL    HW134154   0.437   4.176   6.946  0.5531 -0.1115  0.1622
 7564SOL    HW234155   0.343   4.231   6.851 -0.5514 -1.2008  1.4299
 7565SOL     OW34156   0.060   2.054   3.816  0.3519  0.1285  0.2563
 7565SOL    HW134157   0.086   1.996   3.744 -1.8733  0.1190 -0.5248
 7565SOL    HW234158   4.698   2.022   3.840  1.1974 -1.6962  0.9506
 7566SOL     OW34159   3.368   4.684   7.688 -0.2602 -0.6862  0.4552
 7566SOL    HW134160   3.294   4.673   7.748  0.5341 -2.1728  1.1400
 7566SOL    HW234161   3.349   0.050   7.665  1.3280 -1.1126 -2.4883
 7567SOL     OW34162   1.597   0.535  10.419 -0.4892 -0.6796 -0.8053
 7567SOL    HW134163   1.667   0.483  10.379  2.9183  2.2273  1.4654
 7567SOL    HW234164   1.640   0.547  10.503 -1.7372  3.5798 -0.8048
 7568SOL     OW34165   1.274   1.325   8.499 -0.0331 -0.0654 -0.2540
 7568SOL    HW134166   1.239   1.267   8.432 -1.1775 -0.5982  0.7958
 7568SOL    HW234167   1.256   1.268   8.574 -0.3122 -0.1769 -0.4062
 7569SOL     OW34168   4.418   2.212   8.126 -0.6248  0.3079 -0.9464
 7569SOL    HW134169   4.428   2.295   8.173  2.4686 -0.6113 -0.0211
 7569SOL    HW234170   4.511   2.195   8.114 -0.5302  0.4919 -0.4764
 7570SOL     OW34171   1.965   3.624  11.087 -0.1408  0.1858  0.3450
 7570SOL    HW134172   1.876   3.618  11.052  0.5307  0.3675 -1.4292
 7570SOL    HW234173   1.951   3.677  11.165 -3.8646  0.7923 -0.7451
 7571SOL     OW34174   0.706   1.786   7.837  0.2931 -0.4512 -0.0048
 7571SOL    HW134175   0.619   1.758   7.809 -0.1221  0.5569  0.2509
 7571SOL    HW234176   0.756   1.725   7.783 -0.7580 -2.1316  0.9176
 7572SOL     OW34177   2.423   2.925   6.022  0.2220 -0.1839  0.4036
 7572SOL    HW134178   2.398   3.015   6.003 -1.0235  0.3098  4.3219
 7572SOL    HW234179   2.338   2.885   6.003  0.6634 -1.1730  0.5264
 7573SOL     OW34180   0.034   0.650   4.761 -1.1376  0.3508  0.3899
 7573SOL    HW134181   0.068   0.693   4.682 -1.3020 -0.1794  0.0338
 7573SOL    HW234182   4.721   0.574   4.718 -3.1822  1.9974 -0.6928
 7574SOL     OW34183   3.108   1.401   8.476 -0.5165  0.3369  0.5945
 7574SOL    HW134184   3.024   1.356   8.471  0.6699 -1.6651 -0.9302
 7574SOL    HW234185   3.118   1.428   8.385  1.0395 -2.0694  0.0644
 7575SOL     OW34186   0.197   1.967   8.503 -0.0767 -0.3077  1.3064
 7575SOL    HW134187   0.164   2.055   8.482  0.4008 -0.2473  0.8318
 7575SOL    HW234188   0.121   1.912   8.486 -0.9450  2.0217 -2.2927
 7576SOL     OW34189   2.553   2.004   8.056  0.7606 -0.1212 -0.1018
 7576SOL    HW134190   2.563   1.980   8.148 -0.7786  0.1514  0.1273
 7576SOL    HW234191   2.525   2.095   8.047 -1.5864 -0.8850 -0.3707
 7577SOL     OW34192   1.747   3.861   8.774  0.2403 -0.4466  0.1231
 7577SOL    HW134193   1.680   3.814   8.724  0.7712  0.4661 -1.4577
 7577SOL    HW234194   1.710   3.949   8.780  1.3342 -0.0265  0.6669
 7578SOL     OW34195   0.495   0.695  17.397  0.3123  0.1605  0.0254
 7578SOL    HW134196   0.437   0.636  17.445 -0.8286  1.4517  0.2166
 7578SOL    HW234197   0.437   0.771  17.401 -0.7260 -0.5758 -0.9074
 7579SOL     OW34198   1.394   3.947   4.027  0.4341 -0.0333 -0.0419
 7579SOL    HW134199   1.316   3.903   4.060  0.0934  2.2736  2.1460
 7579SOL    HW234200   1.427   3.983   4.109  0.0112  0.1661  0.0392
 7580SOL     OW34201   4.215   1.125   5.360  0.6127 -0.6835  0.0733
 7580SOL    HW134202   4.156   1.195   5.390 -0.5895 -0.7598 -2.1406
 7580SOL    HW234203   4.236   1.164   5.275  2.2976 -2.2459 -0.2250
 7581SOL     OW34204   4.203   4.497  10.202  0.1246 -0.0370 -0.0233
 7581SOL    HW134205   4.170   4.413  10.234  1.8079  0.0065  1.8557
 7581SOL    HW234206   4.132   4.541  10.155 -1.5074 -1.0844  1.4564
 7582SOL     OW34207   0.387   3.693   0.171  0.1913  0.7188  0.3724
 7582SOL    HW134208   0.410   3.757   0.104  2.4274 -0.2715  0.2159
 7582SOL    HW234209   0.297   3.723   0.183  0.5341  1.7262  0.4168
 7583SOL     OW34210   4.567   0.581   2.787  0.0206 -0.2858 -0.0930
 7583SOL    HW134211   4.644   0.637   2.800  0.3050 -0.8047  0.4580
 7583SOL    HW234212   4.501   0.643   2.818  0.1175 -0.3299  0.2050
 7584SOL     OW34213   2.439   0.340   2.230 -0.1505  0.1519  0.0265
 7584SOL    HW134214   2.441   0.315   2.138 -0.8947 -1.1284  0.3558
 7584SOL    HW234215   2.424   0.434   2.216 -1.0620 -0.5111 -3.3104
 7585SOL     OW34216   2.099   2.507  17.659  0.2366 -0.2705  0.5418
 7585SOL    HW134217   2.111   2.493  17.565  1.5223  1.4404  0.4361
 7585SOL    HW234218   2.004   2.513  17.665  0.1143 -1.8997  0.0221
 7586SOL     OW34219   0.657   0.950  11.649 -0.1620 -0.1711 -0.2185
 7586SOL    HW134220   0.678   0.956  11.555  1.6425  1.4939  0.3047
 7586SOL    HW234221   0.748   0.935  11.673 -0.2868  1.1230  0.9849
 7587SOL     OW34222   1.855   1.917   2.824 -0.8521 -0.4815 -0.6022
 7587SOL    HW134223   1.890   1.831   2.801 -0.5300 -0.4980 -0.0497
 7587SOL    HW234224   1.900   1.919   2.908 -1.4920  1.1358 -0.2993
 7588SOL     OW34225   0.496   2.578   9.521  0.0931  0.7943 -0.3758
 7588SOL    HW134226   0.448   2.615   9.447 -1.0875 -1.2364 -0.6251
 7588SOL    HW234227   0.532   2.662   9.552 -1.9703  1.5951 -0.1736
 7589SOL     OW34228   3.281   2.380   7.028 -0.0804  0.2153  0.1780
 7589SOL    HW134229   3.185   2.373   7.023 -0.0221 -0.5627  0.1236
 7589SOL    HW234230   3.295   2.325   7.105 -0.0211  0.7950  0.5764
 7590SOL     OW34231   2.645   4.560   3.152 -0.6003 -0.0303 -0.3860
 7590SOL    HW134232   2.695   4.525   3.226 -0.0362  1.6980  0.0454
 7590SOL    HW234233   2.716   4.594   3.098  0.4348 -0.3043  0.8062
 7591SOL     OW34234   2.301   1.473   7.175  0.1126  0.8687  0.1730
 7591SOL    HW134235   2.349   1.469   7.093  0.1254  1.6726  0.1445
 7591SOL    HW234236   2.372   1.473   7.239  0.3785 -2.9112 -0.1413
 7592SOL     OW34237   4.105   1.222   3.661 -0.5875 -0.2040 -0.3663
 7592SOL    HW134238   4.019   1.222   3.619 -0.7289 -1.6512 -0.0941
 7592SOL    HW234239   4.116   1.130   3.687 -1.4405  0.2114  1.4047
 7593SOL     OW34240   4.137   2.529   2.745 -0.0197  0.0811  0.1844
 7593SOL    HW134241   4.086   2.465   2.797 -1.2169 -1.6153 -3.0819
 7593SOL    HW234242   4.224   2.524   2.783 -1.1489  0.3174  2.8083
 7594SOL     OW34243   4.390   4.670   3.765 -0.3433  0.0572 -0.7992
 7594SOL    HW134244   4.331   4.722   3.820  0.7235 -0.1607  0.5546
 7594SOL    HW234245   4.349   4.583   3.769  1.3765 -0.6096  1.9329
 7595SOL     OW34246   1.222   3.037  11.110 -0.0952 -0.0165 -0.1708
 7595SOL    HW134247   1.248   2.945  11.109 -2.6662 -0.7422  0.8989
 7595SOL    HW234248   1.300   3.079  11.146  0.3502 -1.7175  0.8369
 7596SOL     OW34249   0.026   2.022  15.030  0.2323 -0.1281  0.0431
 7596SOL    HW134250   0.056   1.989  15.114 -0.9559  1.3264  1.0626
 7596SOL    HW234251   0.106   1.995  14.986  0.0839 -1.8834  0.8775
 7597SOL     OW34252   4.329   0.799   2.470 -0.3084 -0.3314 -0.0170
 7597SOL    HW134253   4.245   0.825   2.433  0.7337  1.4578 -1.1249
 7597SOL    HW234254   4.307   0.760   2.555  2.7622 -1.7112  0.1426
 7598SOL     OW34255   1.831   2.871  11.082  0.1702  0.1812 -0.4963
 7598SOL    HW134256   1.906   2.899  11.031 -1.8174 -0.1745 -3.6081
 7598SOL    HW234257   1.776   2.830  11.015 -1.5641  2.6648 -0.6277
 7599SOL     OW34258   0.033   0.815   6.594  0.1645  0.0464 -0.3873
 7599SOL    HW134259   0.050   0.888   6.654  0.3673 -0.6104  0.3602
 7599SOL    HW234260   4.697   0.774   6.655 -1.6938  1.3471 -1.3829
 7600SOL     OW34261   0.476   2.215   2.975  0.2352 -0.3290  0.0709
 7600SOL    HW134262   0.389   2.212   2.935  1.3410 -0.5096 -2.2735
 7600SOL    HW234263   0.461   2.163   3.055  0.1624 -0.8176 -0.2591
 7601SOL     OW34264   1.518   2.493   5.779  0.3671 -0.2229 -0.0890
 7601SOL    HW134265   1.595   2.466   5.828 -0.0903 -0.9577  0.2303
 7601SOL    HW234266   1.500   2.417   5.724  3.4903 -0.4806 -0.7107
 7602SOL     OW34267   3.291   3.852   9.219 -0.2182  0.2304 -0.5018
 7602SOL    HW134268   3.359   3.786   9.233 -0.4830  0.0145 -0.2365
 7602SOL    HW234269   3.344   3.915   9.169  0.6576  0.6604  0.9702
 7603SOL     OW34270   0.466   2.582   7.551  0.6776  0.4145 -0.1191
 7603SOL    HW134271   0.465   2.637   7.630  3.4662  0.2814  0.0194
 7603SOL    HW234272   0.524   2.627   7.489  0.0932  0.6229 -0.5110
 7604SOL     OW34273   0.211   1.564   7.214  0.3212  0.1972 -0.0456
 7604SOL    HW134274   0.151   1.618   7.162  0.2418  0.1850  0.0343
 7604SOL    HW234275   0.279   1.631   7.224  0.6661 -0.7984  3.9870
 7605SOL     OW34276   3.571   4.186   2.353  0.5919  0.1181 -0.2536
 7605SOL    HW134277   3.646   4.135   2.384 -0.4833  0.1406  2.3239
 7605SOL    HW234278   3.598   4.277   2.344 -1.4567  0.8319  0.8765
 7606SOL     OW34279   0.468   4.563   6.307 -0.0264  0.3749  0.3733
 7606SOL    HW134280   0.389   4.522   6.342  1.2063  0.5624  3.4630
 7606SOL    HW234281   0.498   4.617   6.380 -0.9210  0.9418  0.3189
 7607SOL     OW34282   2.934   0.055  16.204 -0.0718 -0.0142  0.6875
 7607SOL    HW134283   2.855   0.081  16.156 -0.2027 -1.3161  0.1754
 7607SOL    HW234284   3.003   0.102  16.159 -1.4332 -0.9944 -2.4772
 7608SOL     OW34285   0.044   0.752   9.012 -0.5506 -0.6362 -0.4367
 7608SOL    HW134286   0.042   0.738   8.917 -0.1907  0.4900 -0.6071
 7608SOL    HW234287   4.721   0.672   9.034  3.0581 -2.5784  0.3804
 7609SOL     OW34288   4.694   2.584   8.544 -0.4854 -0.0332  0.4678
 7609SOL    HW134289   4.678   2.510   8.602 -0.3511  0.3946  1.0485
 7609SOL    HW234290   4.611   2.606   8.501 -1.2253  0.4878  2.1541
 7610SOL     OW34291   2.791   3.958   8.580 -0.2571 -0.2559  0.5064
 7610SOL    HW134292   2.753   3.961   8.668 -0.6895  1.0314  0.2695
 7610SOL    HW234293   2.776   4.047   8.549 -2.7143 -1.3352 -1.3177
 7611SOL     OW34294   1.309   0.066  13.806  0.4446  0.1629 -0.4269
 7611SOL    HW134295   1.299   0.021  13.890 -0.2054  0.9200 -0.0933
 7611SOL    HW234296   1.218   0.061  13.777  0.1608  1.4183  0.2275
 7612SOL     OW34297   3.899   1.037  12.281 -0.2605 -0.3204  0.2640
 7612SOL    HW134298   3.831   1.093  12.243 -0.1697 -0.6645 -0.4023
 7612SOL    HW234299   3.858   1.032  12.367  1.9677  0.2216  1.3505
 7613SOL     OW34300   0.267   3.422   2.564  0.2427  0.0848  0.0457
 7613SOL    HW134301   0.223   3.372   2.495  2.5123 -2.7782  0.7248
 7613SOL    HW234302   0.335   3.475   2.522  0.1084 -0.0105 -0.2907
 7614SOL     OW34303   0.864   4.104   0.616  0.4437 -0.2970  0.2532
 7614SOL    HW134304   0.783   4.062   0.587 -0.7219  0.4068  2.4692
 7614SOL    HW234305   0.842   4.145   0.699  1.7782 -2.5456  1.7060
 7615SOL     OW34306   0.279   2.315   5.435  0.3611 -0.6543  0.4279
 7615SOL    HW134307   0.229   2.305   5.354  1.2450  1.2783 -0.3276
 7615SOL    HW234308   0.322   2.393   5.401  2.8893 -1.5430  1.5931
 7616SOL     OW34309   2.115   3.594  13.686  0.3007  0.1347  0.5314
 7616SOL    HW134310   2.182   3.638  13.739  0.0583  2.0289 -0.7152
 7616SOL    HW234311   2.049   3.663  13.680 -1.8900 -2.2072 -2.0937
 7617SOL     OW34312   0.330   0.841   9.987  0.2604  0.2089  0.6321
 7617SOL    HW134313   0.283   0.758   9.997  1.5652 -0.6161 -0.0439
 7617SOL    HW234314   0.397   0.830  10.054  1.8567 -1.4185 -1.2440
 7618SOL     OW34315   0.115   4.420   9.582 -0.5553 -0.2699 -0.3372
 7618SOL    HW134316   0.137   4.328   9.570  0.3903 -0.1707  0.6803
 7618SOL    HW234317   0.023   4.410   9.604 -0.8553  1.8099 -0.6523
 7619SOL     OW34318   4.493   1.709  15.036  0.1920  0.2834  0.5243
 7619SOL    HW134319   4.558   1.658  15.085  0.8123  0.3085 -0.2775
 7619SOL    HW234320   4.481   1.651  14.961  2.0929 -1.2303  1.3812
 7620SOL     OW34321   1.269   4.606  13.993 -0.0507 -0.2316 -0.0774
 7620SOL    HW134322   1.347   4.564  14.028 -0.0301  0.0528  0.2151
 7620SOL    HW234323   1.203   4.616  14.061 -0.0797 -1.2495  0.0465
 7621SOL     OW34324   1.168   0.136   4.722  0.1946  0.0051 -0.2200
 7621SOL    HW134325   1.188   0.200   4.790 -0.4525 -1.9443  1.7829
 7621SOL    HW234326   1.072   0.136   4.726  0.2379  1.2288  0.7435
 7622SOL     OW34327   1.721   3.297  17.683 -0.3221 -0.4915  0.2325
 7622SOL    HW134328   1.729   3.225  17.620  1.1425 -0.8551  0.8363
 7622SOL    HW234329   1.814   3.315  17.676 -0.5686  0.8833  0.4793
 7623SOL     OW34330   1.834   1.845   0.725 -0.0977  0.9115  0.1278
 7623SOL    HW134331   1.903   1.893   0.680 -0.9898 -0.3702 -2.6275
 7623SOL    HW234332   1.767   1.848   0.656 -1.0021  2.6008  1.0942
 7624SOL     OW34333   4.197   0.020   7.966 -0.0816 -0.1267 -0.0563
 7624SOL    HW134334   4.237   4.687   7.901  1.3572 -0.4942  1.1685
 7624SOL    HW234335   4.107   4.714   7.953 -0.3454  0.9464 -0.7996
 7625SOL     OW34336   4.604   3.660  14.264 -0.2129  0.0456  0.0677
 7625SOL    HW134337   4.624   3.703  14.347  1.4802 -1.0965  0.2576
 7625SOL    HW234338   4.531   3.714  14.235 -0.8396 -1.7967 -1.7085
 7626SOL     OW34339   2.554   3.224   8.321 -0.5101  0.0412 -0.4137
 7626SOL    HW134340   2.463   3.229   8.294 -0.9263  0.3041  1.0324
 7626SOL    HW234341   2.593   3.301   8.280  0.8560 -0.4998 -0.1560
 7627SOL     OW34342   0.423   3.357   7.819 -0.1875 -0.3728  0.3073
 7627SOL    HW134343   0.329   3.343   7.829 -0.4161  2.0645  1.5276
 7627SOL    HW234344   0.448   3.266   7.835 -0.2873 -0.1724  1.5539
 7628SOL     OW34345   1.351   2.264  13.598  0.5660  0.4455 -0.0928
 7628SOL    HW134346   1.335   2.286  13.690  1.6795 -0.8927  0.4155
 7628SOL    HW234347   1.406   2.187  13.610  1.7819  1.4324  0.7210
 7629SOL     OW34348   4.282   1.637  17.555 -0.6379 -0.0208  0.2241
 7629SOL    HW134349   4.305   1.728  17.541 -2.3266  0.6395  1.7044
 7629SOL    HW234350   4.267   1.634  17.650  0.5708  2.2300  0.4723
 7630SOL     OW34351   4.571   4.552  14.319 -0.0744  0.3188  0.4785
 7630SOL    HW134352   4.613   4.471  14.290  1.4100  0.3464  2.5731
 7630SOL    HW234353   4.494   4.559  14.262 -0.3643 -0.1186  0.8205
 7631SOL     OW34354   1.901   3.716   5.185  0.3238 -0.4873 -0.6552
 7631SOL    HW134355   1.827   3.728   5.125 -0.7184  1.8096  1.1069
 7631SOL    HW234356   1.942   3.801   5.169  0.3929 -0.5438 -0.7800
 7632SOL     OW34357   1.661   4.082   8.260 -0.4050 -0.4511 -0.7067
 7632SOL    HW134358   1.711   4.021   8.315  0.2561  3.5849  3.2080
 7632SOL    HW234359   1.698   4.060   8.175  2.1633  0.3889  0.1933
 7633SOL     OW34360   3.290   4.624   9.697  0.5577  0.2491 -0.2226
 7633SOL    HW134361   3.288   4.552   9.760  0.6120 -1.9040 -2.6795
 7633SOL    HW234362   3.315   4.571   9.621 -0.2644  0.9248 -0.9658
 7634SOL     OW34363   2.193   2.355   7.021  0.0850  0.2962  0.0009
 7634SOL    HW134364   2.112   2.381   6.978  0.4300  0.8549 -0.3116
 7634SOL    HW234365   2.166   2.266   7.043  2.1033 -0.0206  1.2386
 7635SOL     OW34366   4.459   3.296   7.271  0.6739  0.0093  0.3166
 7635SOL    HW134367   4.435   3.248   7.192  0.3390  0.0804  0.3745
 7635SOL    HW234368   4.516   3.365   7.237  0.6545  0.4021  1.0845
 7636SOL     OW34369   2.485   3.945  15.875 -0.0279  0.2737  0.3524
 7636SOL    HW134370   2.437   3.885  15.933  1.4163  1.9720  3.3419
 7636SOL    HW234371   2.445   4.032  15.877 -0.1994  0.1956  0.3222
 7637SOL     OW34372   1.853   4.110   4.973  0.0310 -0.0584  0.5376
 7637SOL    HW134373   1.925   4.048   4.965 -0.3694 -0.6203  1.2802
 7637SOL    HW234374   1.843   4.163   4.894 -0.2694  0.4124  0.8908
 7638SOL     OW34375   2.488   0.950  14.827  0.2254 -0.3506  0.1245
 7638SOL    HW134376   2.493   0.920  14.737  2.8897  0.4299  0.0151
 7638SOL    HW234377   2.432   0.884  14.869  0.6826 -1.1518 -0.5376
 7639SOL     OW34378   0.440   2.979  17.526  0.3340  0.1761 -0.4205
 7639SOL    HW134379   0.448   2.955  17.619 -0.9180 -0.8310 -0.5697
 7639SOL    HW234380   0.460   3.072  17.521  2.3805 -0.3205 -1.5978
 7640SOL     OW34381   4.472   3.472   7.641  0.5386  0.2404 -0.1893
 7640SOL    HW134382   4.494   3.564   7.654 -1.7022  0.4723  2.0591
 7640SOL    HW234383   4.425   3.478   7.558  1.0549  0.3897 -0.4668
 7641SOL     OW34384   1.322   4.459  13.518 -0.2978  0.3297  0.5503
 7641SOL    HW134385   1.299   4.461  13.611 -1.6485  1.2038  0.2004
 7641SOL    HW234386   1.364   4.373  13.513 -0.5713  0.0718  2.4224
 7642SOL     OW34387   2.385   3.810   6.678 -0.1552  0.2315  0.8320
 7642SOL    HW134388   2.358   3.759   6.754  1.0077  0.1962  1.2218
 7642SOL    HW234389   2.338   3.758   6.613 -0.0533 -0.9254  1.6835
 7643SOL     OW34390   3.280   3.592  14.849 -0.6073  0.0930 -0.8050
 7643SOL    HW134391   3.256   3.616  14.759 -0.3850 -0.7308 -1.0894
 7643SOL    HW234392   3.193   3.570  14.882 -0.2334 -0.0351  0.0860
 7644SOL     OW34393   3.198   2.879   0.661 -0.4183  0.4424 -0.0093
 7644SOL    HW134394   3.177   2.938   0.733 -0.8225  2.2741 -1.6128
 7644SOL    HW234395   3.238   2.950   0.610  0.0376 -0.1994 -0.5382
 7645SOL     OW34396   1.799   0.658   7.169 -0.1140 -0.0170  0.1334
 7645SOL    HW134397   1.726   0.600   7.147  1.6453 -2.0605 -0.4123
 7645SOL    HW234398   1.743   0.732   7.190  0.0335  0.0217  0.3832
 7646SOL     OW34399   1.457   2.372   3.502 -0.1932  0.2776 -0.2853
 7646SOL    HW134400   1.408   2.429   3.444  1.0894  0.0356 -1.6221
 7646SOL    HW234401   1.545   2.393   3.470  0.1884 -0.1978  0.4556
 7647SOL     OW34402   4.144   4.263   3.576  0.0388  0.1417 -0.0351
 7647SOL    HW134403   4.122   4.203   3.647  1.6062  0.3989  0.6779
 7647SOL    HW234404   4.158   4.202   3.504  0.3631  0.6784 -0.4346
 7648SOL     OW34405   1.491   2.472   0.442  0.3274  0.0432  0.2344
 7648SOL    HW134406   1.467   2.408   0.510  2.6073 -1.8460 -0.7409
 7648SOL    HW234407   1.437   2.437   0.371  1.1927 -0.4638 -0.1696
 7649SOL     OW34408   4.633   3.381  14.241 -0.0220 -0.4479  0.1167
 7649SOL    HW134409   4.604   3.354  14.328 -0.8124  2.9295  0.8727
 7649SOL    HW234410   4.621   3.475  14.248 -0.0634 -0.2173 -2.9822
 7650SOL     OW34411   2.078   2.309   6.368 -0.1856  0.0403  0.7599
 7650SOL    HW134412   1.996   2.332   6.410 -1.5698 -0.7698 -1.5190
 7650SOL    HW234413   2.072   2.214   6.370  3.0103 -0.1979 -0.8897
 7651SOL     OW34414   3.364   0.939   7.207  0.0665 -0.3824 -0.3996
 7651SOL    HW134415   3.297   0.976   7.266  0.7975  0.1216  0.1084
 7651SOL    HW234416   3.441   0.979   7.248  0.6174 -1.0200 -0.8269
 7652SOL     OW34417   2.857   2.537   5.738 -0.0467  0.2882 -0.0714
 7652SOL    HW134418   2.924   2.545   5.671 -0.2123  0.2704 -0.2381
 7652SOL    HW234419   2.906   2.483   5.800  0.9400 -0.2798 -1.3704
 7653SOL     OW34420   2.207   0.313   2.606  0.2968  0.3554  0.4210
 7653SOL    HW134421   2.265   0.267   2.667  0.2959 -0.7271 -0.3960
 7653SOL    HW234422   2.182   0.243   2.546  0.4624  0.4148  0.2839
 7654SOL     OW34423   1.901   3.039   6.061  0.0390 -0.3002  0.4106
 7654SOL    HW134424   1.834   3.107   6.054 -2.0847 -2.4441 -0.3868
 7654SOL    HW234425   1.919   3.030   6.154 -2.5159  0.4205  0.9721
 7655SOL     OW34426   1.194   1.907   7.679 -0.2789  0.0924 -0.2942
 7655SOL    HW134427   1.240   1.978   7.633  1.3865  0.1931  1.5505
 7655SOL    HW234428   1.179   1.955   7.760  1.4911 -3.4098  2.1401
 7656SOL     OW34429   3.757   0.559   5.909  0.3214  0.3014  0.3959
 7656SOL    HW134430   3.844   0.519   5.914 -0.2202 -0.4356  3.3952
 7656SOL    HW234431   3.702   0.481   5.912  1.4195 -0.4684  0.5175
 7657SOL     OW34432   2.901   1.914   3.654  0.4544  0.4604 -0.5342
 7657SOL    HW134433   2.968   1.976   3.623 -0.4233  1.6011 -0.1357
 7657SOL    HW234434   2.838   1.904   3.583 -1.4172  0.0472  1.1896
 7658SOL     OW34435   1.236   4.540  12.329 -0.1896 -0.5568 -0.0019
 7658SOL    HW134436   1.195   4.486  12.397 -0.8415 -2.0025 -1.5583
 7658SOL    HW234437   1.177   4.614  12.335 -0.5215 -0.6297 -2.4311
 7659SOL     OW34438   2.923   1.344   8.841  0.2305 -0.2098 -0.5284
 7659SOL    HW134439   2.860   1.365   8.772 -0.2343 -0.5894 -0.2165
 7659SOL    HW234440   2.895   1.394   8.918  1.5539 -2.0029  1.1145
 7660SOL     OW34441   3.891   0.218   3.768 -0.3573  0.2187 -0.3666
 7660SOL    HW134442   3.926   0.289   3.714  0.0185  0.1381 -0.2330
 7660SOL    HW234443   3.949   0.235   3.842  0.2589 -2.0974 -0.3196
 7661SOL     OW34444   2.565   4.662  17.059  0.5377  0.2607 -0.1802
 7661SOL    HW134445   2.530   4.650  17.147  0.5173 -2.7058 -0.6011
 7661SOL    HW234446   2.621   0.014  17.056  1.5077 -0.3751  1.7066
 7662SOL     OW34447   2.228   0.913  17.363  0.1444  0.4223 -0.1703
 7662SOL    HW134448   2.223   0.821  17.338 -0.6281  0.1355  1.0532
 7662SOL    HW234449   2.256   0.908  17.454 -0.3586  0.5876 -0.0109
 7663SOL     OW34450   3.382   2.228   9.202  0.6813  0.5655 -0.6195
 7663SOL    HW134451   3.415   2.173   9.274  0.9437 -0.1868 -1.3209
 7663SOL    HW234452   3.429   2.311   9.211  3.2290 -1.0813  1.6105
 7664SOL     OW34453   2.082   2.369  11.098 -0.5155  0.0861 -0.3723
 7664SOL    HW134454   2.084   2.275  11.078 -0.0634 -0.2404  1.1924
 7664SOL    HW234455   2.140   2.389  11.025 -1.3779  0.7297 -0.8746
 7665SOL     OW34456   3.528   1.022   5.591 -0.1547  0.1212  0.4922
 7665SOL    HW134457   3.553   1.076   5.516 -2.9806  1.5532  0.5593
 7665SOL    HW234458   3.437   1.051   5.584  0.7949  2.9800 -0.0876
 7666SOL     OW34459   1.216   2.320   0.717 -0.4550 -0.2425 -0.0131
 7666SOL    HW134460   1.305   2.305   0.685 -0.2304 -0.3966  0.6837
 7666SOL    HW234461   1.242   2.374   0.792 -1.1690 -1.7615  1.3292
 7667SOL     OW34462   3.282   2.383  11.851  0.5472 -0.7283  0.5641
 7667SOL    HW134463   3.322   2.299  11.874  0.4790 -0.6371  1.0172
 7667SOL    HW234464   3.334   2.450  11.896  2.8380 -2.4444  0.4756
 7668SOL     OW34465   1.609   2.911  11.740 -0.6340 -0.3611 -0.2451
 7668SOL    HW134466   1.584   2.828  11.781  0.4458 -0.3663  0.4090
 7668SOL    HW234467   1.529   2.962  11.742 -0.3770  0.0980 -1.6606
 7669SOL     OW34468   2.834   4.262  13.610 -0.0214  0.3243  0.1152
 7669SOL    HW134469   2.792   4.207  13.677  1.2956  0.3518  0.9729
 7669SOL    HW234470   2.773   4.252  13.537  1.9136  0.1252 -1.4799
 7670SOL     OW34471   2.484   4.565   8.123  0.4642 -0.1456 -0.0749
 7670SOL    HW134472   2.570   4.606   8.115  0.3214  0.1361 -0.1786
 7670SOL    HW234473   2.457   4.597   8.209  3.7787  2.4344  0.0016
 7671SOL     OW34474   1.917   4.618   4.012 -0.4562  0.0795  0.0037
 7671SOL    HW134475   1.837   4.634   3.963 -1.1342 -0.9388  0.8001
 7671SOL    HW234476   1.971   4.578   3.943  0.5462  0.5203  0.5322
 7672SOL     OW34477   3.610   0.496   9.249  0.3830 -0.1270  0.6202
 7672SOL    HW134478   3.699   0.529   9.259  0.9113 -1.2721 -0.3253
 7672SOL    HW234479   3.620   0.432   9.179  0.3297  1.9447 -1.2588
 7673SOL     OW34480   3.073   4.333   4.110  0.5737  0.5729 -0.4424
 7673SOL    HW134481   3.128   4.255   4.113  0.2602  0.4285  1.7717
 7673SOL    HW234482   3.010   4.321   4.039  0.2278  1.8282 -0.3519
 7674SOL     OW34483   0.466   3.109  10.908 -0.2936  0.1883 -0.3441
 7674SOL    HW134484   0.423   3.083  10.990  1.7800  0.3687  0.7946
 7674SOL    HW234485   0.403   3.159  10.856  0.6452  3.0195  1.2493
 7675SOL     OW34486   0.881   1.638   8.643 -0.5244  0.2156  0.4512
 7675SOL    HW134487   0.956   1.638   8.583 -1.4506  1.9753 -0.6926
 7675SOL    HW234488   0.848   1.548   8.646 -2.3014  0.8160 -1.3679
 7676SOL     OW34489   2.649   1.601   2.160  0.1315  0.0718 -0.5190
 7676SOL    HW134490   2.640   1.613   2.065 -1.9842 -1.9116 -0.5522
 7676SOL    HW234491   2.646   1.505   2.162  2.7415 -0.0160  0.0156
 7677SOL     OW34492   3.576   0.435   2.914  0.2608 -0.6386 -0.4541
 7677SOL    HW134493   3.486   0.455   2.886  0.8713  0.8151 -1.3553
 7677SOL    HW234494   3.615   0.516   2.947  0.5325 -0.7588 -0.4786
 7678SOL     OW34495   3.743   4.569   1.680 -0.0014  0.7168 -0.0989
 7678SOL    HW134496   3.758   4.642   1.740  0.5150 -0.8391  1.6686
 7678SOL    HW234497   3.833   4.570   1.649  0.0317  1.9120  0.0224
 7679SOL     OW34498   3.716   4.032  15.181 -0.7955 -0.0931 -0.6420
 7679SOL    HW134499   3.704   4.056  15.273  2.7518  0.0844 -0.2375
 7679SOL    HW234500   3.626   4.018  15.151 -1.7418 -0.2733  2.2653
 7680SOL     OW34501   3.369   3.591   5.800  0.6707 -0.2555 -0.4612
 7680SOL    HW134502   3.282   3.569   5.767  1.7407 -0.4416 -3.1405
 7680SOL    HW234503   3.370   3.567   5.893  0.3876 -0.2029 -0.4425
 7681SOL     OW34504   1.355   2.888   6.455 -0.1303  0.0165 -0.6960
 7681SOL    HW134505   1.413   2.885   6.532 -1.8412 -2.6195  0.4997
 7681SOL    HW234506   1.317   2.976   6.461  0.7054  0.2703  1.0834
 7682SOL     OW34507   1.730   3.196   6.616  0.3847  0.1532 -0.0459
 7682SOL    HW134508   1.695   3.142   6.686 -1.6330  1.3350 -0.1244
 7682SOL    HW234509   1.725   3.136   6.542 -0.7229  0.7143 -0.4212
 7683SOL     OW34510   3.986   2.151   8.504 -0.3976  0.0503 -0.3210
 7683SOL    HW134511   4.016   2.062   8.486  1.7551  0.9616 -1.2197
 7683SOL    HW234512   4.041   2.205   8.447 -0.3437  2.5029  2.0955
 7684SOL     OW34513   1.762   4.688   4.644 -0.6054  0.5332  0.1206
 7684SOL    HW134514   1.696   0.025   4.674 -2.6297 -1.0771 -1.0244
 7684SOL    HW234515   1.737   4.683   4.552 -3.1455  0.4593  0.8306
 7685SOL     OW34516   0.720   3.236  10.886 -0.3606 -0.4638  0.5494
 7685SOL    HW134517   0.726   3.230  10.791  0.5951 -2.4349  0.7457
 7685SOL    HW234518   0.631   3.203  10.899  0.6483 -2.6865  1.7349
 7686SOL     OW34519   1.037   4.098   4.868  0.1259  0.1486 -0.2698
 7686SOL    HW134520   1.117   4.046   4.878  0.6874  1.1865  0.6391
 7686SOL    HW234521   1.066   4.163   4.932  0.4850 -2.0034  1.7812
 7687SOL     OW34522   2.288   4.724  14.379 -0.1325 -0.2814  0.3207
 7687SOL    HW134523   2.283   0.016  14.473 -0.8128 -1.0045  0.4167
 7687SOL    HW234524   2.358   0.060  14.357 -0.4959  0.3186  0.8333
 7688SOL     OW34525   3.162   0.823   5.289  0.2949  0.5401  0.3798
 7688SOL    HW134526   3.213   0.902   5.309 -0.0207  0.7491  0.3617
 7688SOL    HW234527   3.201   0.794   5.206  0.4651  1.8889 -0.0234
 7689SOL     OW34528   4.439   0.150   6.232  0.1169 -0.2204  0.2235
 7689SOL    HW134529   4.363   0.110   6.275 -0.2217 -1.9610 -1.9727
 7689SOL    HW234530   4.480   0.069   6.203  1.0794  0.2553  0.2780
 7690SOL     OW34531   4.668   2.283   4.399  0.1184 -0.2841 -0.2675
 7690SOL    HW134532   0.028   2.273   4.443  0.4897 -0.2267 -0.9690
 7690SOL    HW234533   4.623   2.356   4.440  1.1947 -0.5874  1.4486
 7691SOL     OW34534   1.456   3.716  15.860  0.2008 -0.2328  0.6562
 7691SOL    HW134535   1.384   3.711  15.922  1.5319 -0.0548  2.2301
 7691SOL    HW234536   1.454   3.632  15.813  0.6905  0.5595 -0.8089
 7692SOL     OW34537   2.136   2.377   3.560  0.4893  0.1025 -0.4072
 7692SOL    HW134538   2.179   2.375   3.645 -1.7864  0.0576  0.7284
 7692SOL    HW234539   2.214   2.389   3.505  1.2109 -2.6819 -0.0229
 7693SOL     OW34540   1.660   0.785   6.261  0.1482  0.6083  0.2545
 7693SOL    HW134541   1.673   0.833   6.179 -0.9899  0.0835 -0.2263
 7693SOL    HW234542   1.572   0.747   6.263 -0.1164  1.2002  0.0139
 7694SOL     OW34543   2.567   2.533  15.149  0.5441  0.1834 -0.8495
 7694SOL    HW134544   2.621   2.543  15.227 -0.1781 -0.5637 -0.2652
 7694SOL    HW234545   2.623   2.547  15.072  0.4785 -1.2769 -1.1531
 7695SOL     OW34546   4.272   2.004   9.269  0.0600  0.2337  0.5067
 7695SOL    HW134547   4.343   1.949   9.236 -0.7029 -0.9445  0.8171
 7695SOL    HW234548   4.276   1.990   9.364 -0.5781  2.3360  0.8407
 7696SOL     OW34549   1.719   4.490   1.134 -0.2710  0.6368 -0.1583
 7696SOL    HW134550   1.650   4.528   1.187  0.1856  0.0135  0.8885
 7696SOL    HW234551   1.685   4.400   1.133 -1.7705  1.2005 -0.3635
 7697SOL     OW34552   4.194   4.389   3.233  1.0687 -0.3674 -0.7810
 7697SOL    HW134553   4.278   4.388   3.188 -0.1643 -0.0255 -3.0953
 7697SOL    HW234554   4.166   4.300   3.213 -0.5569  0.5252 -2.5334
 7698SOL     OW34555   2.410   3.496   7.189 -0.0014 -0.3650  0.3173
 7698SOL    HW134556   2.415   3.488   7.284 -2.1016 -0.0011  0.4481
 7698SOL    HW234557   2.493   3.537   7.164 -0.3017 -1.1100 -1.9457
 7699SOL     OW34558   2.986   4.109   2.393  0.1577  0.3807  0.3535
 7699SOL    HW134559   3.005   4.160   2.314 -3.2590  2.4779  0.8897
 7699SOL    HW234560   3.037   4.029   2.389 -1.2271 -0.5314  1.0702
 7700SOL     OW34561   1.761   1.568   0.799 -0.3921  0.0947 -0.4264
 7700SOL    HW134562   1.768   1.663   0.787 -0.1592  0.2333  0.8353
 7700SOL    HW234563   1.682   1.564   0.852 -1.7726 -2.9261 -2.6891
 7701SOL     OW34564   0.860   1.569   5.177 -0.3748 -0.0714 -0.4899
 7701SOL    HW134565   0.824   1.508   5.113  0.0691  0.2276 -1.0208
 7701SOL    HW234566   0.804   1.552   5.253  1.3187 -0.9104  0.5756
 7702SOL     OW34567   0.129   1.282   7.659  0.1602  0.0733  0.0821
 7702SOL    HW134568   0.086   1.336   7.592 -1.0096 -1.3658 -0.3338
 7702SOL    HW234569   0.212   1.329   7.654 -0.1395  0.7251  1.3030
 7703SOL     OW34570   3.681   4.294  13.718  0.4592 -0.3018  0.4485
 7703SOL    HW134571   3.673   4.361  13.786 -1.3732 -0.4533  0.3977
 7703SOL    HW234572   3.773   4.297  13.696  0.6852  1.8270  1.7284
 7704SOL     OW34573   3.548   3.566  14.302 -0.1993  0.0869  0.4988
 7704SOL    HW134574   3.506   3.589  14.385  0.9917  1.2264  0.7898
 7704SOL    HW234575   3.621   3.627  14.316  0.7177 -0.4298 -1.9201
 7705SOL     OW34576   4.334   3.243   4.229 -0.2599 -0.3793 -0.1414
 7705SOL    HW134577   4.376   3.314   4.180 -2.3545  1.7817  1.2179
 7705SOL    HW234578   4.322   3.283   4.315  3.5430  1.7008 -0.5758
 7706SOL     OW34579   2.540   0.097   4.398 -0.6396  0.1032 -0.3999
 7706SOL    HW134580   2.492   0.071   4.476  0.4690 -0.2914  0.1531
 7706SOL    HW234581   2.533   0.193   4.399  2.3950  0.3238  0.6080
 7707SOL     OW34582   3.136   0.680   7.870 -0.2004  0.2016 -0.3843
 7707SOL    HW134583   3.110   0.714   7.785  1.8149  0.9668 -0.6839
 7707SOL    HW234584   3.081   0.725   7.934  2.9664  1.0667  1.7179
 7708SOL     OW34585   2.469   2.959   3.148 -0.5153 -0.4476 -0.2422
 7708SOL    HW134586   2.461   2.945   3.053  0.1357 -2.1539 -0.0563
 7708SOL    HW234587   2.410   2.893   3.184 -1.7939  0.8560  0.0046
 7709SOL     OW34588   3.928   1.699   4.278 -0.0028 -0.0296 -0.3964
 7709SOL    HW134589   3.919   1.791   4.303  0.9279  0.0169 -0.2396
 7709SOL    HW234590   3.863   1.703   4.208 -0.8690 -1.1158  0.3501
 7710SOL     OW34591   3.073   1.034  11.618  0.5769  0.2313  0.0280
 7710SOL    HW134592   3.033   1.083  11.690 -2.4857 -0.1318 -1.4494
 7710SOL    HW234593   3.109   1.100  11.559 -0.7114  1.5504  0.7103
 7711SOL     OW34594   2.238   1.655   5.718 -0.0754 -0.1607 -0.2193
 7711SOL    HW134595   2.183   1.587   5.679  0.7225 -0.9035 -0.0743
 7711SOL    HW234596   2.204   1.737   5.685 -3.5768 -1.6873 -0.3338
 7712SOL     OW34597   1.642   3.629   1.473 -0.2214  0.0492 -0.2212
 7712SOL    HW134598   1.620   3.598   1.386 -1.2817  0.0110  0.0612
 7712SOL    HW234599   1.632   3.723   1.455 -1.7759 -0.2110 -0.6741
 7713SOL     OW34600   0.118   1.710   1.513 -0.3072 -0.2864  0.0074
 7713SOL    HW134601   0.033   1.734   1.476 -0.5250 -1.3195 -0.1683
 7713SOL    HW234602   0.155   1.642   1.456  1.7377  1.4276 -0.7382
 7714SOL     OW34603   3.905   0.476   9.274 -0.0022  0.2673  0.2489
 7714SOL    HW134604   3.960   0.552   9.251  0.8320 -0.5088 -0.3474
 7714SOL    HW234605   3.954   0.401   9.239  2.0076  1.6038  0.1400
 7715SOL     OW34606   3.492   1.434   3.928 -0.1987  0.6625  0.6486
 7715SOL    HW134607   3.531   1.363   3.877  1.3671  1.4784  0.7162
 7715SOL    HW234608   3.431   1.454   3.857  0.2429  1.0272  0.3695
 7716SOL     OW34609   3.912   3.845  10.327  0.4277 -0.5839  0.6873
 7716SOL    HW134610   3.884   3.897  10.402 -1.0756 -1.7163  0.9035
 7716SOL    HW234611   3.869   3.897  10.259 -0.2694 -2.5649 -0.3754
 7717SOL     OW34612   3.533   1.200   5.005 -0.4612 -0.3307 -0.9614
 7717SOL    HW134613   3.467   1.217   5.073  2.2683  0.8460  1.3625
 7717SOL    HW234614   3.607   1.186   5.063 -1.0906 -2.4794 -0.6780
 7718SOL     OW34615   2.482   1.619  17.346 -0.2050  0.4617  0.1563
 7718SOL    HW134616   2.553   1.629  17.283 -1.7776  1.2147 -1.5058
 7718SOL    HW234617   2.421   1.682  17.307 -0.1792 -0.3769 -1.2344
 7719SOL     OW34618   3.021   2.386   2.830  0.1845  0.1218  0.5702
 7719SOL    HW134619   3.045   2.338   2.751  0.2883 -2.4574  2.1767
 7719SOL    HW234620   2.956   2.452   2.804  0.6449 -0.0353 -0.9641
 7720SOL     OW34621   0.443   4.095   0.693 -0.4300 -0.2362 -0.6498
 7720SOL    HW134622   0.476   4.006   0.701 -2.8610 -0.8400  2.4930
 7720SOL    HW234623   0.521   4.150   0.702 -2.2351  2.6406 -2.4353
 7721SOL     OW34624   3.343   0.465   5.020  0.0831  0.1733  0.1936
 7721SOL    HW134625   3.388   0.448   5.103  0.5460  0.2674 -0.0382
 7721SOL    HW234626   3.273   0.399   5.011 -1.5802  2.0982 -0.9081
 7722SOL     OW34627   4.356   0.689   5.618  0.1028  0.4647  0.2236
 7722SOL    HW134628   4.421   0.624   5.589  1.0469  0.8733  1.3880
 7722SOL    HW234629   4.341   0.733   5.535  3.4842  0.2546 -0.4992
 7723SOL     OW34630   3.493   0.986   3.037 -0.0441 -0.1557 -0.5962
 7723SOL    HW134631   3.517   1.030   3.119 -2.9126 -1.3845  0.9125
 7723SOL    HW234632   3.464   1.057   2.980 -0.5000  1.1353  1.2422
 7724SOL     OW34633   4.627   0.101   5.006 -0.0636  0.5256 -0.1430
 7724SOL    HW134634   4.677   0.022   5.023 -0.2317 -0.0403 -2.2889
 7724SOL    HW234635   4.653   0.149   5.085 -2.3116  0.2506  0.7566
 7725SOL     OW34636   4.706   1.505   2.280 -0.1121 -0.5996  0.6044
 7725SOL    HW134637   0.059   1.478   2.328  1.8054  0.9198 -1.6694
 7725SOL    HW234638   0.024   1.525   2.197  0.1583  0.8365  1.0898
 7726SOL     OW34639   0.219   1.386   6.757 -0.2154 -0.0117 -0.0189
 7726SOL    HW134640   0.147   1.374   6.695  1.9132 -2.3550 -2.0104
 7726SOL    HW234641   0.166   1.435   6.820 -0.4302 -1.6752  1.0981
 7727SOL     OW34642   2.784   0.375  16.627  0.4054  0.4968  0.3617
 7727SOL    HW134643   2.758   0.333  16.709  2.1088 -0.1376  0.5701
 7727SOL    HW234644   2.878   0.355  16.632  0.1864 -0.4190  0.7271
 7728SOL     OW34645   0.865   1.975  11.398 -0.1818  0.9305  0.1638
 7728SOL    HW134646   0.897   1.957  11.310  1.4493  1.4126  0.6553
 7728SOL    HW234647   0.939   2.010  11.447  1.8815 -1.3269 -1.3330
 7729SOL     OW34648   0.562   3.831   6.019 -0.5331  0.0292 -0.1574
 7729SOL    HW134649   0.523   3.836   5.931  0.3096 -2.0422 -0.6611
 7729SOL    HW234650   0.645   3.787   5.999 -0.6136 -0.0444 -0.3351
 7730SOL     OW34651   1.259   2.004   5.306 -0.4423 -0.3474  0.0137
 7730SOL    HW134652   1.175   1.968   5.332 -1.1886  1.9434  0.7970
 7730SOL    HW234653   1.261   1.992   5.211  0.1766  0.2981 -0.0566
 7731SOL     OW34654   2.643   1.783   5.636 -0.2597 -0.2855  0.0541
 7731SOL    HW134655   2.601   1.833   5.706  0.1712  1.9401 -1.2407
 7731SOL    HW234656   2.578   1.791   5.566 -1.1789 -3.5195  0.5910
 7732SOL     OW34657   2.239   1.115   0.955 -0.3995 -0.6888 -0.1549
 7732SOL    HW134658   2.318   1.156   0.920  1.2030 -0.5366  3.6670
 7732SOL    HW234659   2.270   1.031   0.986 -0.0368  0.1066  1.6193
 7733SOL     OW34660   1.639   1.551  10.891  0.3010 -0.4889  0.4460
 7733SOL    HW134661   1.611   1.530  10.802 -0.7514  1.4656  0.3178
 7733SOL    HW234662   1.610   1.471  10.935 -3.4241  1.3353  1.3399
 7734SOL     OW34663   0.941   0.461   6.991  0.2194 -0.7079  0.1412
 7734SOL    HW134664   0.997   0.409   6.933  0.1572  0.0893 -0.6430
 7734SOL    HW234665   0.907   0.535   6.941  4.1483  1.7658  1.1159
 7735SOL     OW34666   0.991   3.897  17.431 -0.4006  0.4439 -0.9154
 7735SOL    HW134667   1.047   3.821  17.418  0.1651  0.7903 -0.4812
 7735SOL    HW234668   1.018   3.942  17.351 -0.8721  1.0760 -0.7235
 7736SOL     OW34669   4.207   4.006   1.401 -0.1739 -0.1451 -0.4925
 7736SOL    HW134670   4.295   3.983   1.431 -0.5553  2.9329  3.0036
 7736SOL    HW234671   4.221   3.995   1.307  0.3266 -1.2841 -0.2851
 7737SOL     OW34672   3.089   3.704   4.005  0.0089  0.8289  0.2003
 7737SOL    HW134673   3.148   3.702   3.930  0.3167 -0.9364  0.5011
 7737SOL    HW234674   3.040   3.785   3.987 -0.0480 -0.0514 -3.5440
 7738SOL     OW34675   4.203   1.608   6.570  0.1503 -0.2495  0.1680
 7738SOL    HW134676   4.222   1.653   6.652 -0.3559 -2.5471  1.5243
 7738SOL    HW234677   4.202   1.688   6.517  1.8619  0.1366  0.7224
 7739SOL     OW34678   3.420   2.441  10.946  0.1278 -0.1672 -0.8123
 7739SOL    HW134679   3.364   2.365  10.932 -1.8628  1.5825 -2.2511
 7739SOL    HW234680   3.390   2.470  11.032  1.2293  1.7625 -1.0934
 7740SOL     OW34681   1.429   3.817   5.156 -0.4848  0.1371 -0.0843
 7740SOL    HW134682   1.385   3.768   5.226  1.7671 -1.4198  0.2434
 7740SOL    HW234683   1.424   3.906   5.192 -3.1069 -0.2739  0.5809
 7741SOL     OW34684   2.594   1.277   8.319  0.5524 -0.2572  0.1057
 7741SOL    HW134685   2.547   1.236   8.392 -0.5569  1.9701  0.6662
 7741SOL    HW234686   2.522   1.323   8.276  1.2493  0.2214 -0.5500
 7742SOL     OW34687   0.927   1.288  13.497  0.3497 -0.5765  0.2497
 7742SOL    HW134688   0.951   1.340  13.421 -1.3728  1.1113  0.8466
 7742SOL    HW234689   0.991   1.218  13.482  0.4555 -0.3132 -0.5118
 7743SOL     OW34690   1.215   4.619  16.419 -0.0871  0.0372 -0.2563
 7743SOL    HW134691   1.191   4.699  16.372  2.3371  0.7718 -0.2752
 7743SOL    HW234692   1.193   4.660  16.502  0.6582  1.4243 -0.7363
 7744SOL     OW34693   3.934   3.539   9.528  0.0237 -0.0936 -0.2076
 7744SOL    HW134694   3.938   3.521   9.434 -0.3857  2.9960 -0.8069
 7744SOL    HW234695   3.847   3.501   9.544  0.1536 -1.4549 -2.7166
 7745SOL     OW34696   2.972   0.085   7.645 -0.3394  0.0374  0.5353
 7745SOL    HW134697   3.012   0.164   7.608 -1.5526  1.1819  1.6521
 7745SOL    HW234698   2.888   0.088   7.600  0.6544 -0.7162 -1.3592
 7746SOL     OW34699   2.623   0.435   3.534  0.1204  0.4730 -0.2767
 7746SOL    HW134700   2.610   0.489   3.456  2.0824  1.3923  0.0215
 7746SOL    HW234701   2.630   0.344   3.505  3.0413  0.0598  1.7764
 7747SOL     OW34702   0.178   4.654   2.689 -0.1012 -0.2333  0.3294
 7747SOL    HW134703   0.267   4.624   2.671  0.1466 -0.0766  1.3060
 7747SOL    HW234704   0.157   4.707   2.612 -2.3402 -0.1281  1.0151
 7748SOL     OW34705   0.919   4.402   6.350  0.4986 -0.0827 -0.3106
 7748SOL    HW134706   0.850   4.451   6.395  0.3549 -0.8020  0.2495
 7748SOL    HW234707   0.890   4.396   6.259 -1.7793 -2.2799  0.5677
 7749SOL     OW34708   3.001   2.486  16.615  0.0032  0.0402  0.1474
 7749SOL    HW134709   3.044   2.548  16.673  0.6021 -0.8858  0.7008
 7749SOL    HW234710   2.964   2.539  16.545 -1.6982 -1.8132 -0.3769
 7750SOL     OW34711   1.181   2.609   7.358  0.0479  0.0036  0.1782
 7750SOL    HW134712   1.231   2.602   7.276  1.6469  0.0669  1.1427
 7750SOL    HW234713   1.244   2.571   7.419 -0.8415  0.1658  1.2045
 7751SOL     OW34714   1.295   1.720   6.063 -0.0566  0.5526 -0.3193
 7751SOL    HW134715   1.359   1.790   6.047 -0.3543  0.5174 -1.7055
 7751SOL    HW234716   1.206   1.753   6.050 -0.8511 -0.6316  2.1139
 7752SOL     OW34717   3.038   4.271  14.673 -0.3789 -0.3647 -0.2639
 7752SOL    HW134718   3.062   4.356  14.638  2.2371 -0.4338  1.4162
 7752SOL    HW234719   3.091   4.211  14.620  3.0914  2.5693 -0.0998
 7753SOL     OW34720   3.023   2.122  11.725 -0.9090  0.2677  0.5110
 7753SOL    HW134721   3.101   2.129  11.670 -1.3911  0.5470 -0.1341
 7753SOL    HW234722   3.066   2.090  11.805 -0.5940 -3.9411 -1.3620
 7754SOL     OW34723   0.366   4.296   0.394  0.0542 -0.4101  0.2559
 7754SOL    HW134724   0.397   4.293   0.485  3.8884  0.9754 -1.0152
 7754SOL    HW234725   0.363   4.203   0.371 -1.1602 -0.2829 -0.0808
 7755SOL     OW34726   2.129   1.297   2.425  0.0253 -0.0213  0.6444
 7755SOL    HW134727   2.223   1.306   2.439  0.0037 -0.8673  1.2927
 7755SOL    HW234728   2.118   1.271   2.333  0.2408  1.2440  0.2552
 7756SOL     OW34729   1.190   3.327   5.391 -0.4178 -0.3654 -0.7463
 7756SOL    HW134730   1.243   3.247   5.399 -0.9722 -0.6368  0.1266
 7756SOL    HW234731   1.216   3.367   5.474  2.5723  0.9646 -2.2865
 7757SOL     OW34732   1.601   4.358   8.308  0.2507 -0.2040 -0.1984
 7757SOL    HW134733   1.626   4.266   8.313 -0.2461 -0.2276  1.9033
 7757SOL    HW234734   1.675   4.399   8.353 -1.4652  0.7058  1.8078
 7758SOL     OW34735   3.183   1.987   7.876  0.2445  0.6625 -0.7320
 7758SOL    HW134736   3.177   1.894   7.854  0.0281  0.7282 -0.9481
 7758SOL    HW234737   3.275   1.996   7.901  0.2482 -1.6657  0.1351
 7759SOL     OW34738   1.701   2.922  12.685  0.1328  0.1666  0.1855
 7759SOL    HW134739   1.652   2.882  12.756  0.6988 -1.6237 -0.4307
 7759SOL    HW234740   1.725   3.006  12.723 -0.7328  0.5305 -0.0651
 7760SOL     OW34741   1.065   1.053  10.553  0.2183  0.5899 -0.2925
 7760SOL    HW134742   1.117   0.973  10.541  1.5436  1.2120  1.2782
 7760SOL    HW234743   1.011   1.015  10.622 -2.2227  0.2652 -2.3797
 7761SOL     OW34744   2.167   3.228   4.588 -0.0096  1.1222  0.1291
 7761SOL    HW134745   2.075   3.201   4.594  0.5190 -0.3258  1.7446
 7761SOL    HW234746   2.195   3.209   4.677  0.1812 -1.8158 -0.5488
 7762SOL     OW34747   2.410   0.572  15.325  0.6111  0.7975 -0.1677
 7762SOL    HW134748   2.404   0.642  15.390 -0.9106  0.1027  0.4461
 7762SOL    HW234749   2.504   0.564  15.339 -0.0942 -3.9105  1.7488
 7763SOL     OW34750   3.783   0.101   9.290  0.2551  0.2491 -0.4507
 7763SOL    HW134751   3.820   0.048   9.360 -0.5561 -2.4572 -2.0783
 7763SOL    HW234752   3.866   0.142   9.265  1.1085 -1.2576 -0.0593
 7764SOL     OW34753   3.111   4.662   0.206 -0.2443 -0.3213 -0.2784
 7764SOL    HW134754   3.092   4.568   0.207 -1.9021  0.0147 -0.3155
 7764SOL    HW234755   3.142   4.674   0.295 -3.3027  0.2684  0.7147
 7765SOL     OW34756   4.089   4.045   6.182  0.4836 -0.5055 -0.0065
 7765SOL    HW134757   4.072   3.973   6.121 -2.0219 -0.8734  1.1082
 7765SOL    HW234758   4.181   4.065   6.164  0.5251  0.0319  0.8366
 7766SOL     OW34759   3.497   3.740  13.595  0.3643  0.5265  0.6319
 7766SOL    HW134760   3.420   3.776  13.549  0.9346  2.8560  1.5312
 7766SOL    HW234761   3.460   3.749  13.683 -0.9409  1.2913  0.0070
 7767SOL     OW34762   4.616   1.669   7.427 -0.4220 -0.3505  0.4336
 7767SOL    HW134763   4.708   1.686   7.443 -0.1249  0.5044 -2.0709
 7767SOL    HW234764   4.590   1.706   7.342  2.9885  3.1113  0.9458
 7768SOL     OW34765   4.505   1.092  15.886 -0.4277  0.1203  0.6327
 7768SOL    HW134766   4.579   1.145  15.915  0.4718 -1.5134  1.3506
 7768SOL    HW234767   4.523   1.014  15.939 -0.4962 -0.7951 -0.7075
 7769SOL     OW34768   0.113   1.871  12.457  0.2084  0.4914  0.0981
 7769SOL    HW134769   0.073   1.800  12.408  1.2781 -1.7820  2.5058
 7769SOL    HW234770   0.033   1.904  12.499  1.2937  3.2236  0.0365
 7770SOL     OW34771   3.671   3.464   3.967 -0.4717 -0.1261  0.3455
 7770SOL    HW134772   3.759   3.428   3.977  0.3589  1.4170 -1.3906
 7770SOL    HW234773   3.684   3.550   3.927 -0.4312 -0.0578  0.5065
 7771SOL     OW34774   4.647   2.761   8.954  0.3457 -0.3936 -0.1134
 7771SOL    HW134775   4.688   2.760   8.867  1.6203 -2.3001  0.5342
 7771SOL    HW234776   4.555   2.753   8.928  0.6039 -3.0606 -0.1045
 7772SOL     OW34777   4.015   3.317   9.003  0.6589  0.1632  0.1087
 7772SOL    HW134778   4.026   3.412   9.008 -2.1909  0.3950  1.9940
 7772SOL    HW234779   4.087   3.297   9.062  0.3738 -0.0897  0.3700
 7773SOL     OW34780   3.317   1.564   5.115  0.1396 -0.2168  0.6078
 7773SOL    HW134781   3.261   1.488   5.131 -0.1650  0.0970  1.0408
 7773SOL    HW234782   3.248   1.628   5.099  0.7588  0.1503 -0.5792
 7774SOL     OW34783   2.961   0.086   5.125 -0.2639 -0.0494  0.6082
 7774SOL    HW134784   3.055   0.068   5.123  0.2351  2.5669  0.4732
 7774SOL    HW234785   2.940   0.104   5.217 -0.2813 -0.1398  0.6218
 7775SOL     OW34786   2.318   0.021   5.035  0.3058  0.7248  0.2907
 7775SOL    HW134787   2.224   0.003   5.034  0.7595 -1.6202  0.1872
 7775SOL    HW234788   2.328   0.066   5.119  0.3794  1.3251 -0.0383
 7776SOL     OW34789   4.261   0.047  14.701 -0.1679  0.2907 -0.1967
 7776SOL    HW134790   4.328   4.725  14.751  1.3140  2.4932 -0.0844
 7776SOL    HW234791   4.183   0.042  14.755 -2.0403  2.7887 -2.6475
 7777SOL     OW34792   3.726   0.647  10.202  0.7682  0.6782 -0.5353
 7777SOL    HW134793   3.675   0.566  10.213  1.1505  0.3335 -1.3202
 7777SOL    HW234794   3.735   0.655  10.107  0.3536  0.8688 -0.5595
 7778SOL     OW34795   2.872   1.978   1.277  0.2308 -0.2784  0.2416
 7778SOL    HW134796   2.802   2.042   1.291  0.5365  0.1302 -0.0999
 7778SOL    HW234797   2.819   1.899   1.283 -0.0739 -0.2472 -2.0425
 7779SOL     OW34798   0.136   1.368   3.884  0.2479  0.3270 -0.1274
 7779SOL    HW134799   0.077   1.377   3.810  0.2819 -0.2389 -0.2230
 7779SOL    HW234800   0.224   1.387   3.851  0.6030  0.8363  1.1044
 7780SOL     OW34801   0.719   2.407   8.099 -0.1053  0.2286 -0.2095
 7780SOL    HW134802   0.786   2.346   8.068 -0.7332 -1.9746  2.7098
 7780SOL    HW234803   0.763   2.438   8.178  0.4153 -0.8114 -0.0941
 7781SOL     OW34804   3.817   1.962   8.663 -0.0041  0.2374  0.0922
 7781SOL    HW134805   3.861   1.906   8.726 -2.4882 -1.5882  0.2139
 7781SOL    HW234806   3.879   2.027   8.628  1.0876 -1.6757 -1.4885
 7782SOL     OW34807   0.960   4.451   3.546 -0.9771 -0.1298 -0.0025
 7782SOL    HW134808   0.978   4.358   3.541  1.2024  0.1981  1.6855
 7782SOL    HW234809   0.924   4.459   3.635 -0.7581  2.2443 -0.1242
 7783SOL     OW34810   3.779   0.079  11.083  0.8848  0.7883 -0.2126
 7783SOL    HW134811   3.777   0.082  10.987  0.7672  0.0108 -0.2328
 7783SOL    HW234812   3.701   0.126  11.112  0.1217  0.1829 -1.2991
 7784SOL     OW34813   3.793   4.232   8.252 -0.0291  0.0053 -0.6587
 7784SOL    HW134814   3.746   4.259   8.173 -0.4009 -0.3916 -0.5701
 7784SOL    HW234815   3.879   4.210   8.217  0.2361 -0.7928  0.4997
 7785SOL     OW34816   4.390   4.241   4.528  0.3344  0.3145  0.3040
 7785SOL    HW134817   4.482   4.225   4.508 -0.0296 -0.2194 -0.9441
 7785SOL    HW234818   4.395   4.297   4.606 -0.5167 -0.9258  1.2561
 7786SOL     OW34819   1.685   2.630   4.987 -0.5801 -0.2235 -0.3562
 7786SOL    HW134820   1.615   2.615   4.922  0.1739  0.6314 -1.3732
 7786SOL    HW234821   1.690   2.725   4.997  0.7344 -0.1245 -1.9760
 7787SOL     OW34822   4.342   4.014   9.750  0.7574  0.2174 -0.0184
 7787SOL    HW134823   4.336   3.931   9.703 -1.4284  0.7666 -0.7033
 7787SOL    HW234824   4.338   3.982   9.840 -2.0644  1.7295  0.3934
 7788SOL     OW34825   3.791   3.710   4.811 -0.4427 -0.1902 -0.3319
 7788SOL    HW134826   3.749   3.645   4.868  2.8834 -2.1768 -0.1384
 7788SOL    HW234827   3.722   3.776   4.806 -0.0725  0.2556  0.5402
 7789SOL     OW34828   1.550   1.540   0.971  0.2102 -0.4382  0.0671
 7789SOL    HW134829   1.476   1.601   0.969  1.4699  1.0844 -1.0534
 7789SOL    HW234830   1.596   1.579   1.045  1.9618 -1.5736 -0.4201
 7790SOL     OW34831   1.765   1.717  16.179 -0.0615 -0.7804 -0.0578
 7790SOL    HW134832   1.709   1.718  16.101 -0.0578 -1.2065 -0.0609
 7790SOL    HW234833   1.693   1.710  16.242 -0.4831 -2.2961 -0.7187
 7791SOL     OW34834   1.327   3.547  15.063  0.1027  0.1647 -0.3982
 7791SOL    HW134835   1.304   3.622  15.117  0.7492  0.1411 -0.0862
 7791SOL    HW234836   1.360   3.493  15.135  1.1228  0.8424 -0.3600
 7792SOL     OW34837   2.361   1.621  13.162  0.5392 -0.3640 -0.3219
 7792SOL    HW134838   2.333   1.592  13.249 -0.7714 -2.5281 -1.4576
 7792SOL    HW234839   2.315   1.705  13.159  1.6481  0.2575  0.0607
 7793SOL     OW34840   3.793   1.393   1.003  0.3375  0.1664 -0.0603
 7793SOL    HW134841   3.821   1.301   0.998 -2.0806 -0.4389 -2.9635
 7793SOL    HW234842   3.835   1.434   0.927  0.1680  0.4673  0.0090
 7794SOL     OW34843   3.614   0.449   5.043 -0.4294  0.4047  0.2861
 7794SOL    HW134844   3.555   0.420   4.973  0.6282  0.0440 -0.4533
 7794SOL    HW234845   3.667   0.370   5.046 -1.4030 -0.3678 -2.5034
 7795SOL     OW34846   1.602   3.363  15.511 -0.4577  0.4927  0.4637
 7795SOL    HW134847   1.650   3.443  15.488  1.1418 -0.1395  1.5782
 7795SOL    HW234848   1.620   3.349  15.604 -0.1863  0.4441  0.4029
 7796SOL     OW34849   2.517   3.933   6.160 -0.6804  0.2340 -0.5310
 7796SOL    HW134850   2.589   3.900   6.214 -0.4499  1.9710  0.2404
 7796SOL    HW234851   2.559   3.936   6.074  0.9137  1.4143  0.2774
 7797SOL     OW34852   4.645   2.333   8.686  0.3127 -0.2831  0.6100
 7797SOL    HW134853   4.554   2.321   8.714 -0.2918 -0.0111 -1.2167
 7797SOL    HW234854   4.694   2.302   8.763  0.6772  0.5746  0.7268
 7798SOL     OW34855   3.567   3.955   6.902 -0.1600 -0.1278  0.7519
 7798SOL    HW134856   3.618   3.884   6.864 -2.0698 -1.5570  0.9061
 7798SOL    HW234857   3.604   3.941   6.990  0.7705 -0.4209  0.3126
 7799SOL     OW34858   0.090   2.453   5.719 -0.4313 -0.3482  0.1387
 7799SOL    HW134859   0.185   2.446   5.726 -0.3718  0.4186  0.1310
 7799SOL    HW234860   0.063   2.415   5.802 -1.1869 -0.3391 -0.0985
 7800SOL     OW34861   3.709   0.008   7.415  0.0333 -0.1309  0.0212
 7800SOL    HW134862   3.615   4.717   7.411 -0.0178  0.6850 -1.7721
 7800SOL    HW234863   3.714   0.103   7.426 -2.5008 -0.1191  0.9131
 7801SOL     OW34864   4.694   3.471   9.293 -0.5839  0.3836 -0.5114
 7801SOL    HW134865   4.699   3.514   9.207  0.3872  0.7115 -0.2917
 7801SOL    HW234866   0.055   3.482   9.333 -1.0562  3.4764 -0.3220
 7802SOL     OW34867   2.494   2.239   8.241 -0.7025  0.4048 -0.0101
 7802SOL    HW134868   2.526   2.209   8.325 -0.4282  0.3713 -0.1260
 7802SOL    HW234869   2.406   2.201   8.245 -0.4560 -0.0714  0.6707
 7803SOL     OW34870   2.230   1.453  11.122 -0.0056  0.3683 -0.0141
 7803SOL    HW134871   2.199   1.531  11.077  2.5184  0.3625 -1.7637
 7803SOL    HW234872   2.261   1.387  11.061 -2.1500 -0.5891 -0.0709
 7804SOL     OW34873   3.406   2.905   4.378  0.5270  0.0456  0.4514
 7804SOL    HW134874   3.499   2.888   4.363  1.1267  1.2687  2.9091
 7804SOL    HW234875   3.414   3.000   4.368 -0.8423  0.2361  1.1390
 7805SOL     OW34876   3.258   4.487  12.802 -0.0638 -0.0554  0.4759
 7805SOL    HW134877   3.289   4.480  12.892 -0.2321  1.1868  0.6239
 7805SOL    HW234878   3.342   4.476  12.758 -0.9550  0.0758 -1.2362
 7806SOL     OW34879   2.448   0.557   3.737  0.1222 -0.3440 -0.6954
 7806SOL    HW134880   2.531   0.517   3.709  1.4151  3.4996 -2.3756
 7806SOL    HW234881   2.417   0.585   3.651  1.2573  1.6294 -0.4782
 7807SOL     OW34882   2.623   0.609  14.972  0.3245  0.1288 -0.5895
 7807SOL    HW134883   2.618   0.682  15.034  0.6719  0.0590 -0.4795
 7807SOL    HW234884   2.616   0.530  15.026  0.1885 -0.5381 -1.5802
 7808SOL     OW34885   3.376   4.661   0.940  0.1280  0.2413 -0.6439
 7808SOL    HW134886   3.409   4.596   0.878 -0.0480  0.8859 -1.4055
 7808SOL    HW234887   3.424   4.647   1.022  0.7642  1.2910 -0.8287
 7809SOL     OW34888   0.860   1.430  12.161 -0.8672  0.1890 -0.9405
 7809SOL    HW134889   0.837   1.440  12.253  1.5177  1.2055 -0.4532
 7809SOL    HW234890   0.775   1.431  12.118 -1.5189 -1.4383  0.2912
 7810SOL     OW34891   1.243   1.406   3.724 -0.0685  0.2591 -0.2918
 7810SOL    HW134892   1.164   1.362   3.692  0.4496  0.2330 -1.5517
 7810SOL    HW234893   1.211   1.496   3.729  1.2877  0.7239 -0.0260
 7811SOL     OW34894   1.869   3.013   0.562  0.2978  0.5972  0.4506
 7811SOL    HW134895   1.781   2.982   0.541  1.2045 -0.9044 -1.0728
 7811SOL    HW234896   1.844   3.104   0.581 -0.7442  0.7767 -1.6907
 7812SOL     OW34897   4.335   3.432   6.006  0.0020 -0.5417 -0.3977
 7812SOL    HW134898   4.406   3.475   5.958  0.1251  0.7056  0.9112
 7812SOL    HW234899   4.389   3.390   6.073  0.3548  1.4138  0.5577
 7813SOL     OW34900   1.709   0.836   0.707  0.0816  0.0408  0.2371
 7813SOL    HW134901   1.710   0.924   0.671  0.1655  0.2600  0.7689
 7813SOL    HW234902   1.788   0.796   0.672 -0.5418 -0.6212 -0.4014
 7814SOL     OW34903   0.478   1.989   6.210  0.5839  0.1540  0.3611
 7814SOL    HW134904   0.414   2.058   6.227  0.5881  0.0991  0.5907
 7814SOL    HW234905   0.467   1.940   6.291 -0.4624  0.1553  0.2102
 7815SOL     OW34906   1.532   1.077  12.816  1.0202  0.4844 -0.3174
 7815SOL    HW134907   1.480   1.142  12.862  1.4504 -0.3082  1.2802
 7815SOL    HW234908   1.588   1.052  12.890 -0.5816  1.4099  1.1939
 7816SOL     OW34909   3.575   0.710   2.982 -1.0368  0.1850  0.2762
 7816SOL    HW134910   3.658   0.718   3.030  0.0744  0.7627 -1.7131
 7816SOL    HW234911   3.523   0.787   3.006 -1.0132  0.0105  0.8944
 7817SOL     OW34912   3.641   2.289  10.279  0.1485 -0.1379  0.8270
 7817SOL    HW134913   3.575   2.293  10.348  0.6947  0.4159  1.3168
 7817SOL    HW234914   3.636   2.378  10.245  0.4440 -1.6140 -3.1432
 7818SOL     OW34915   1.176   1.580  12.265  0.5535 -0.1325 -0.1774
 7818SOL    HW134916   1.152   1.619  12.181 -0.5761 -0.1738  0.1270
 7818SOL    HW234917   1.085   1.579  12.293  1.1175 -0.9277  1.6314
 7819SOL     OW34918   2.855   2.810   1.969 -0.7663  0.3595  0.5551
 7819SOL    HW134919   2.860   2.859   1.887 -0.6119  0.3196  0.5404
 7819SOL    HW234920   2.814   2.728   1.942  1.3882 -0.3767 -0.4741
 7820SOL     OW34921   1.501   0.284  16.116 -0.1151  0.0006  0.2603
 7820SOL    HW134922   1.416   0.261  16.080  0.9073 -1.3815 -1.2797
 7820SOL    HW234923   1.485   0.378  16.114 -0.2018 -0.0673 -1.7459
 7821SOL     OW34924   1.956   4.202   3.670 -0.2941 -0.2184 -0.3450
 7821SOL    HW134925   1.903   4.259   3.725 -2.7484  0.2953 -3.2168
 7821SOL    HW234926   2.020   4.171   3.734  1.2236  1.9519 -0.8087
 7822SOL     OW34927   3.137   2.798   1.087  0.2546 -0.6941 -0.4978
 7822SOL    HW134928   3.164   2.706   1.090 -0.2748 -0.9083 -2.4727
 7822SOL    HW234929   3.213   2.846   1.057 -0.1007  0.2560  0.1273
 7823SOL     OW34930   2.875   3.325   6.755 -0.0326 -0.3260  0.0765
 7823SOL    HW134931   2.905   3.237   6.774  1.3968 -0.1216 -1.2174
 7823SOL    HW234932   2.862   3.361   6.843 -0.4099  0.0076 -0.1134
 7824SOL     OW34933   2.487   2.460   7.339 -0.0997 -0.2786 -0.3914
 7824SOL    HW134934   2.415   2.399   7.327  0.2467 -1.1446  1.9038
 7824SOL    HW234935   2.523   2.408   7.410  0.2348  1.2069  0.5437
 7825SOL     OW34936   2.796   0.923   0.045 -0.1167 -1.3282 -0.2666
 7825SOL    HW134937   2.806   1.013   0.075  0.4838 -1.2014 -0.8533
 7825SOL    HW234938   2.884   0.906   0.011  0.6217 -1.3813  1.7015
 7826SOL     OW34939   4.131   1.333   8.096 -0.5075 -0.2299  0.0806
 7826SOL    HW134940   4.078   1.255   8.116 -0.5709 -0.4855 -1.0882
 7826SOL    HW234941   4.200   1.292   8.045  0.4534  1.7504 -0.1911
 7827SOL     OW34942   4.530   4.715   2.304  0.2717  0.0894  0.2377
 7827SOL    HW134943   4.493   4.640   2.257  1.5045 -1.5072  1.8368
 7827SOL    HW234944   4.622   4.688   2.302  0.7252  1.6685  0.0342
 7828SOL     OW34945   2.604   1.029  11.292  0.0446  0.7276 -0.7492
 7828SOL    HW134946   2.695   1.044  11.317 -0.3078  1.6370 -0.0412
 7828SOL    HW234947   2.563   0.974  11.359 -1.7198  1.8222 -0.9307
 7829SOL     OW34948   4.593   4.177   5.697 -0.0958  0.2443 -0.5946
 7829SOL    HW134949   4.656   4.222   5.753 -1.7389  1.3568  0.4020
 7829SOL    HW234950   4.522   4.162   5.760 -0.2143  1.4794 -0.4346
 7830SOL     OW34951   2.037   0.728   3.772  0.1086 -0.2467 -0.2965
 7830SOL    HW134952   2.120   0.767   3.801  0.2472  0.1708 -1.2676
 7830SOL    HW234953   1.989   0.770   3.843  0.1772  1.7599 -1.4695
 7831SOL     OW34954   4.006   0.175   1.844  0.4065 -0.5610  0.0289
 7831SOL    HW134955   4.101   0.179   1.838  0.6484 -3.0521  2.7392
 7831SOL    HW234956   3.984   0.121   1.768 -0.2579  1.7502 -1.4232
 7832SOL     OW34957   3.180   4.604   6.552  0.0142 -0.6089  0.4470
 7832SOL    HW134958   3.248   4.599   6.619 -0.9183 -0.3083  1.4146
 7832SOL    HW234959   3.123   4.672   6.588 -0.7763  0.0199 -1.9897
 7833SOL     OW34960   3.518   4.366   6.514  0.0241  0.4082  0.1372
 7833SOL    HW134961   3.480   4.334   6.596  0.6656 -1.9232 -0.4599
 7833SOL    HW234962   3.440   4.378   6.459 -0.0649 -1.0789 -0.0605
 7834SOL     OW34963   4.000   0.637   5.657 -0.3161 -0.1416  0.0403
 7834SOL    HW134964   4.060   0.703   5.625  0.4681 -0.8531  0.0371
 7834SOL    HW234965   4.047   0.605   5.734  1.5328  1.3594 -0.4928
 7835SOL     OW34966   0.038   3.447   4.808 -0.3786  0.5046 -0.0719
 7835SOL    HW134967   0.094   3.417   4.736  0.9787  1.1035  0.7501
 7835SOL    HW234968   0.069   3.537   4.816 -1.2127  0.8265 -0.4885
 7836SOL     OW34969   2.084   1.047   0.241 -0.0256  0.1127 -0.0200
 7836SOL    HW134970   2.150   0.997   0.288 -0.6587  0.3432  1.0979
 7836SOL    HW234971   2.045   0.974   0.192 -0.4626 -0.6522  1.4798
 7837SOL     OW34972   4.333   3.825   0.772  0.0175  0.0251  0.3244
 7837SOL    HW134973   4.382   3.826   0.854 -1.4965 -0.4301  1.2408
 7837SOL    HW234974   4.374   3.751   0.728 -0.7493  1.1345 -2.2356
 7838SOL     OW34975   2.047   0.008   5.120 -0.3484  0.0364  0.5528
 7838SOL    HW134976   2.050   4.683   5.201 -1.8379 -1.3522 -0.2531
 7838SOL    HW234977   1.954   0.000   5.099  0.4301  0.8728 -3.2436
 7839SOL     OW34978   4.591   1.541   6.585 -0.0507  0.6115 -0.4929
 7839SOL    HW134979   4.543   1.622   6.602 -0.9487 -0.5583  2.6285
 7839SOL    HW234980   4.622   1.572   6.500 -0.0037  1.0361 -0.3180
 7840SOL     OW34981   3.819   2.401   2.299 -0.4237 -0.1713  0.2037
 7840SOL    HW134982   3.814   2.314   2.339 -1.6151  0.1454  0.7388
 7840SOL    HW234983   3.911   2.423   2.313  0.1974 -1.3834 -1.9433
 7841SOL     OW34984   3.499   1.725   2.384 -0.0921  0.0309 -0.5828
 7841SOL    HW134985   3.468   1.815   2.378 -0.1933  0.0717  0.6329
 7841SOL    HW234986   3.592   1.715   2.367  0.2523 -1.1892  2.1409
 7842SOL     OW34987   1.585   3.843   6.042 -0.1760 -0.2254 -0.5836
 7842SOL    HW134988   1.591   3.898   5.965 -2.3979  0.1016 -0.5141
 7842SOL    HW234989   1.570   3.908   6.111  0.1081 -2.2765  1.4180
 7843SOL     OW34990   1.712   3.936   8.051  0.2786 -0.2197 -0.2648
 7843SOL    HW134991   1.763   3.856   8.043 -0.0261 -0.5165  0.7702
 7843SOL    HW234992   1.712   3.965   7.959 -0.6030  1.7130  0.3349
 7844SOL     OW34993   2.771   2.289  15.598  0.1873 -0.5082  0.4956
 7844SOL    HW134994   2.715   2.277  15.522  1.3452 -1.4580 -0.2150
 7844SOL    HW234995   2.698   2.281  15.660 -0.5680 -2.6603 -0.6670
 7845SOL     OW34996   4.343   3.709   1.837  0.1751 -0.0835 -0.1634
 7845SOL    HW134997   4.419   3.729   1.781  0.5474 -0.1304  0.3213
 7845SOL    HW234998   4.382   3.676   1.918 -0.3435 -2.0587 -0.7297
 7846SOL     OW34999   3.512   1.457  11.833 -0.3666 -0.2397  0.2915
 7846SOL    HW135000   3.449   1.400  11.876  2.4734 -1.9165  2.2740
 7846SOL    HW235001   3.458   1.529  11.801 -1.1671 -0.5784  0.9123
 7847SOL     OW35002   4.427   2.440   3.697  0.0069 -0.4011 -0.5391
 7847SOL    HW135003   4.469   2.363   3.735  3.4148  1.5391 -0.3608
 7847SOL    HW235004   4.495   2.494   3.656 -0.0181 -0.1790 -0.2878
 7848SOL     OW35005   4.615   3.764  13.604 -0.3349  0.2420 -0.0143
 7848SOL    HW135006   4.568   3.682  13.587 -1.1069  1.1286 -2.0870
 7848SOL    HW235007   4.551   3.805  13.662  0.9623  0.3420  1.3500
 7849SOL     OW35008   0.504   0.360   4.175  0.3209 -0.1170 -0.1858
 7849SOL    HW135009   0.571   0.412   4.130  0.4705 -0.6663 -0.5949
 7849SOL    HW235010   0.517   0.376   4.269 -2.1566 -0.4005  0.1979
 7850SOL     OW35011   1.773   3.529   4.897  0.0409 -0.7266  0.3311
 7850SOL    HW135012   1.762   3.449   4.948  1.8950 -0.7918  0.6202
 7850SOL    HW235013   1.699   3.580   4.929  1.6323  2.3432 -0.9474
 7851SOL     OW35014   4.412   1.450  15.229 -0.3953 -0.1520  0.4645
 7851SOL    HW135015   4.390   1.379  15.291 -1.6847  0.1807  0.3934
 7851SOL    HW235016   4.341   1.440  15.165 -0.4446 -1.8590  0.7755
 7852SOL     OW35017   1.602   1.835  15.361 -0.5282 -0.2022 -0.5579
 7852SOL    HW135018   1.529   1.895  15.374  0.7453  1.5060 -1.2874
 7852SOL    HW235019   1.565   1.762  15.410 -0.5027  0.3127  0.2254
 7853SOL     OW35020   0.013   0.722   8.732  0.4087 -0.3582  0.0348
 7853SOL    HW135021   4.673   0.690   8.670 -0.4807  0.6389  0.4388
 7853SOL    HW235022   0.062   0.786   8.680  1.5253 -0.1291  1.3561
 7854SOL     OW35023   1.979   0.110   4.742 -0.1309  0.1619  0.3975
 7854SOL    HW135024   2.067   0.072   4.748 -0.3980 -0.7300 -1.0983
 7854SOL    HW235025   1.940   0.038   4.692  2.9784 -1.5375  0.3724
 7855SOL     OW35026   3.928   2.977  12.959 -0.1738  0.7499 -0.0261
 7855SOL    HW135027   3.919   2.909  12.892  0.8254 -0.2827  0.8896
 7855SOL    HW235028   3.858   3.042  12.949 -2.4777 -1.7921 -0.1693
 7856SOL     OW35029   4.153   1.279  13.453 -0.1464 -0.5659 -0.0115
 7856SOL    HW135030   4.248   1.290  13.443 -0.8001  2.9471 -2.2080
 7856SOL    HW235031   4.129   1.297  13.362 -1.3343 -0.3676  0.3464
 7857SOL     OW35032   2.098   1.231   0.548  0.1127 -0.1008 -0.5546
 7857SOL    HW135033   2.114   1.281   0.629  3.8974 -0.8240 -0.8195
 7857SOL    HW235034   2.057   1.149   0.573  0.4252 -0.1115 -0.0570
 7858SOL     OW35035   2.882   0.519  15.170  0.1193 -0.0756  0.3174
 7858SOL    HW135036   2.921   0.487  15.088  0.6872  0.0405  0.5382
 7858SOL    HW235037   2.891   0.446  15.231 -0.9526 -0.7536 -0.3373
 7859SOL     OW35038   1.386   3.287  11.189 -0.4971 -0.1651 -0.0383
 7859SOL    HW135039   1.377   3.348  11.261 -0.4818 -0.1031 -0.0888
 7859SOL    HW235040   1.428   3.212  11.232 -0.6864  0.8673  1.9340
 7860SOL     OW35041   2.860   0.704   6.739 -0.8365  0.2120  0.2983
 7860SOL    HW135042   2.769   0.705   6.711 -0.4782 -0.9639 -0.9210
 7860SOL    HW235043   2.848   0.699   6.834  0.5404  0.3928  0.4888
 7861SOL     OW35044   2.283   0.355   7.817  0.1508  0.0911  0.3652
 7861SOL    HW135045   2.298   0.323   7.906 -0.3578 -0.8364  0.1119
 7861SOL    HW235046   2.197   0.314   7.805  1.1196 -2.3416  1.8145
 7862SOL     OW35047   3.604   4.381   8.935  0.7423  0.5776 -0.3792
 7862SOL    HW135048   3.689   4.409   8.902  1.0994 -1.2177 -0.9826
 7862SOL    HW235049   3.601   4.292   8.901 -1.9652 -0.7739  3.3408
 7863SOL     OW35050   3.249   1.089   7.674  0.0016 -0.3050  0.2355
 7863SOL    HW135051   3.217   1.090   7.764 -0.7499 -0.4194 -0.0300
 7863SOL    HW235052   3.330   1.141   7.668  0.4491 -0.9711  0.5839
 7864SOL     OW35053   1.522   2.087  13.620 -0.5565 -0.2317 -0.6276
 7864SOL    HW135054   1.611   2.074  13.586 -0.1475 -3.1708  1.5448
 7864SOL    HW235055   1.519   2.012  13.680  1.7613 -0.6882 -1.0572
 7865SOL     OW35056   4.541   1.815   5.826  0.5159 -0.4685  0.1872
 7865SOL    HW135057   4.626   1.811   5.869 -0.0035  0.4209  1.3078
 7865SOL    HW235058   4.549   1.860   5.742 -1.1315 -1.5726 -0.5607
 7866SOL     OW35059   1.692   3.225   6.005 -0.1783 -0.1052  0.4281
 7866SOL    HW135060   1.659   3.253   6.090 -1.1411 -1.6521  0.5597
 7866SOL    HW235061   1.623   3.166   5.974 -1.1148  0.4914  1.4028
 7867SOL     OW35062   0.970   0.865  10.323 -0.2042  0.1864 -0.1168
 7867SOL    HW135063   1.066   0.868  10.326 -0.1803 -2.0780  1.1666
 7867SOL    HW235064   0.964   0.902  10.235 -1.6877  1.8294  0.6802
 7868SOL     OW35065   1.888   1.429  16.341  0.2920  0.8855 -0.1288
 7868SOL    HW135066   1.975   1.469  16.333 -0.9886  3.5694 -0.5866
 7868SOL    HW235067   1.848   1.501  16.390 -1.3544  0.6437 -1.1093
 7869SOL     OW35068   0.749   2.969   2.783 -0.8136 -0.4066 -0.3339
 7869SOL    HW135069   0.826   2.913   2.796 -0.8594 -0.8292 -1.9143
 7869SOL    HW235070   0.676   2.909   2.797  0.0361 -0.8286  2.3832
 7870SOL     OW35071   1.946   2.724   2.370  0.1633  0.0371  0.3336
 7870SOL    HW135072   1.891   2.719   2.292  1.0708  2.6322 -0.4395
 7870SOL    HW235073   1.941   2.817   2.390 -1.4208  0.3902 -1.7188
 7871SOL     OW35074   4.386   1.416   4.182  0.2544 -0.2516 -0.2298
 7871SOL    HW135075   4.380   1.329   4.221 -0.9832  0.1170  0.3902
 7871SOL    HW235076   4.461   1.413   4.123  0.1919 -0.4551 -0.2975
 7872SOL     OW35077   1.966   4.342   5.627 -0.5149  0.5407 -0.1442
 7872SOL    HW135078   1.935   4.328   5.538  0.2504 -0.9981 -0.1621
 7872SOL    HW235079   1.934   4.432   5.635 -0.0592  0.5346  1.7142
 7873SOL     OW35080   2.305   1.703  13.672  0.0172 -0.1922 -0.1760
 7873SOL    HW135081   2.235   1.676  13.614 -0.0276  2.8447 -1.5263
 7873SOL    HW235082   2.349   1.617  13.674  1.3787  0.4639 -2.1221
 7874SOL     OW35083   4.238   2.004  16.506 -0.3217  0.1654  0.5838
 7874SOL    HW135084   4.208   2.092  16.484 -0.9223 -0.3933 -0.8344
 7874SOL    HW235085   4.331   2.015  16.486 -0.4419 -2.4398 -1.3866
 7875SOL     OW35086   1.340   1.483   2.774  0.3380  0.0949 -0.6482
 7875SOL    HW135087   1.402   1.433   2.828  2.0620  2.0382 -0.8457
 7875SOL    HW235088   1.392   1.564   2.778 -0.8221  0.8297 -0.5628
 7876SOL     OW35089   2.529   0.078   4.883  0.2172 -0.9201 -0.0426
 7876SOL    HW135090   2.448   0.042   4.919 -0.2105 -0.5605 -0.6333
 7876SOL    HW235091   2.574   0.103   4.963 -0.9830  0.3648  0.2329
 7877SOL     OW35092   0.048   1.269   3.339 -0.4976  0.7722  0.0716
 7877SOL    HW135093   0.018   1.355   3.309 -0.2497  0.0223 -2.2615
 7877SOL    HW235094   0.092   1.237   3.261 -1.2178  1.4068 -0.5975
 7878SOL     OW35095   0.035   0.782   4.201 -0.1046  0.2935 -0.3617
 7878SOL    HW135096   0.123   0.758   4.229 -0.3117  1.4360  1.2364
 7878SOL    HW235097   0.047   0.801   4.108  1.7999 -1.6169 -0.5014
 7879SOL     OW35098   2.015   0.195  16.778  0.1823  0.4778  0.1846
 7879SOL    HW135099   2.092   0.143  16.753  0.9092  2.3440 -1.4512
 7879SOL    HW235100   1.958   0.163  16.708 -0.0059  4.0842 -1.2750
 7880SOL     OW35101   2.648   3.931   8.821 -0.6312  0.5234  0.1890
 7880SOL    HW135102   2.656   3.880   8.903 -3.0483  1.5066  1.0392
 7880SOL    HW235103   2.634   4.019   8.856 -1.4594  0.2599  0.5311
 7881SOL     OW35104   1.335   0.222   7.538  0.2760  0.2176  0.1582
 7881SOL    HW135105   1.352   0.308   7.576  1.0187 -0.5100  1.4517
 7881SOL    HW235106   1.422   0.184   7.547 -0.4941 -1.0332  2.2376
 7882SOL     OW35107   1.493   3.029  15.438  0.4607 -0.2274  0.3665
 7882SOL    HW135108   1.423   3.031  15.372  0.4827  2.5453  0.4176
 7882SOL    HW235109   1.460   3.082  15.510 -1.8758 -2.1512  0.6982
 7883SOL     OW35110   2.456   0.403  10.584 -0.2346 -0.5067 -0.3902
 7883SOL    HW135111   2.533   0.368  10.540  0.0429 -2.2549  1.5153
 7883SOL    HW235112   2.420   0.317  10.606 -1.5192  0.5138  1.4040
 7884SOL     OW35113   3.137   3.972   2.659 -0.2544  0.3312  0.4798
 7884SOL    HW135114   3.135   3.928   2.574 -3.0437  2.6332 -0.6414
 7884SOL    HW235115   3.214   3.933   2.699  0.4535  0.2797 -0.9487
 7885SOL     OW35116   2.424   0.058   0.695  0.3508  0.5642 -0.4912
 7885SOL    HW135117   2.478   0.086   0.768  1.9569 -0.5036 -1.2600
 7885SOL    HW235118   2.352   0.009   0.735  1.1972 -0.8168 -0.6323
 7886SOL     OW35119   1.076   1.357   3.291 -0.1735  0.1952 -0.0721
 7886SOL    HW135120   1.124   1.331   3.213 -0.6093  0.9811 -0.6008
 7886SOL    HW235121   1.103   1.289   3.353  1.0446  1.1848  0.4643
 7887SOL     OW35122   0.125   2.265   3.213 -0.2361  0.3474 -0.1372
 7887SOL    HW135123   0.057   2.278   3.280  0.2310  2.0257  0.0010
 7887SOL    HW235124   0.085   2.330   3.156 -0.3867  0.6818  0.3531
 7888SOL     OW35125   1.353   1.968   1.592 -0.2544 -0.4849  0.0979
 7888SOL    HW135126   1.289   1.972   1.663 -0.2737  0.7724  0.0172
 7888SOL    HW235127   1.308   1.896   1.548  0.8532 -0.1411 -1.6008
 7889SOL     OW35128   0.073   2.858   2.560  0.3629 -0.5210  0.1275
 7889SOL    HW135129   0.141   2.806   2.518 -0.8609 -0.2204 -2.2073
 7889SOL    HW235130   0.119   2.891   2.637  0.9155  1.9062 -1.2581
 7890SOL     OW35131   2.087   1.696   4.992  0.0799 -0.1368 -0.4720
 7890SOL    HW135132   2.161   1.693   5.052  1.2768 -1.0253 -1.9864
 7890SOL    HW235133   2.053   1.781   5.018  1.5415  0.6985 -1.2617
 7891SOL     OW35134   1.204   3.138   8.998  0.3455 -0.1308 -0.1247
 7891SOL    HW135135   1.222   3.047   9.019  0.1972  0.0948  0.9880
 7891SOL    HW235136   1.114   3.131   9.027  0.0272  0.6584 -0.9030
 7892SOL     OW35137   0.289   1.187   8.627 -0.0055  0.2485 -0.9671
 7892SOL    HW135138   0.216   1.196   8.567  0.1790  4.4236 -0.5526
 7892SOL    HW235139   0.280   1.098   8.661  0.4831  0.6728  0.2750
 7893SOL     OW35140   2.853   0.424  13.715 -0.2839 -0.2532  0.2255
 7893SOL    HW135141   2.791   0.497  13.710 -1.3730 -1.2177 -0.2469
 7893SOL    HW235142   2.915   0.455  13.782 -0.3436  1.7552 -0.6582
 7894SOL     OW35143   4.259   2.457   6.076 -0.3863 -0.5574  0.3157
 7894SOL    HW135144   4.176   2.418   6.048 -0.1960 -0.0721 -0.9222
 7894SOL    HW235145   4.251   2.545   6.040 -0.1456 -1.1537 -1.1946
 7895SOL     OW35146   1.079   1.827   5.986 -0.1119 -0.1193 -0.2067
 7895SOL    HW135147   1.012   1.805   6.051  1.3768 -0.8072  1.0895
 7895SOL    HW235148   1.066   1.922   5.987  0.2796 -0.1047  3.7230
 7896SOL     OW35149   2.284   1.709  17.174 -0.3471 -0.5464  0.1313
 7896SOL    HW135150   2.203   1.744  17.210 -1.9680 -3.4716 -0.6922
 7896SOL    HW235151   2.273   1.718  17.079  0.5437  0.3332  0.1153
 7897SOL     OW35152   1.361   1.541  17.330  0.2054 -0.1460  0.1072
 7897SOL    HW135153   1.334   1.499  17.411 -3.9401  1.5089 -0.3584
 7897SOL    HW235154   1.355   1.473  17.263  1.2779  1.5766 -1.7432
 7898SOL     OW35155   3.600   2.296   3.093 -0.5686 -0.2221  0.2362
 7898SOL    HW135156   3.673   2.241   3.120 -1.0139 -0.7173  0.4408
 7898SOL    HW235157   3.606   2.373   3.151  0.1489 -0.1863  0.1159
 7899SOL     OW35158   3.407   0.120   3.208  0.5484 -0.0243  0.0493
 7899SOL    HW135159   3.325   0.168   3.206 -0.8808 -2.3985  1.9197
 7899SOL    HW235160   3.403   0.047   3.145 -3.8979  0.9618 -0.7440
 7900SOL     OW35161   4.443   0.666   4.763  0.1639 -0.4600  0.0410
 7900SOL    HW135162   4.504   0.627   4.701  0.6207  1.0851 -0.4747
 7900SOL    HW235163   4.412   0.590   4.812 -1.4131 -0.3924 -0.8626
 7901SOL     OW35164   1.122   4.416   2.866 -0.4167  0.1978 -0.1802
 7901SOL    HW135165   1.206   4.381   2.897 -0.8627 -1.0203 -0.3672
 7901SOL    HW235166   1.069   4.344   2.833 -2.0766  0.9129  0.9343
 7902SOL     OW35167   3.445   3.075   7.180 -0.1225 -0.4862  0.2031
 7902SOL    HW135168   3.504   2.999   7.187  1.3156  0.5804 -0.3002
 7902SOL    HW235169   3.435   3.088   7.275 -0.4185 -2.5715  0.4760
 7903SOL     OW35170   1.729   0.159   7.254  0.0679  0.4305  0.2976
 7903SOL    HW135171   1.682   0.236   7.284 -0.4698 -0.0505  0.6845
 7903SOL    HW235172   1.743   0.114   7.338 -1.0418 -1.3854 -0.4875
 7904SOL     OW35173   3.282   2.767   8.864  0.2877 -0.5890 -0.7282
 7904SOL    HW135174   3.217   2.696   8.863  0.2751 -0.6379  2.6099
 7904SOL    HW235175   3.358   2.722   8.902 -0.3571 -0.8683  0.2130
 7905SOL     OW35176   0.651   2.153  15.880  0.0823 -0.3219 -0.2254
 7905SOL    HW135177   0.574   2.145  15.823  1.5931 -0.0144 -2.3271
 7905SOL    HW235178   0.639   2.075  15.934 -2.0058  0.0102 -0.1715
 7906SOL     OW35179   0.141   4.112   3.564  0.1834  0.7664  0.0152
 7906SOL    HW135180   0.103   4.172   3.627 -0.9146  1.4444 -1.2868
 7906SOL    HW235181   0.231   4.112   3.597 -0.4874  1.2065  1.7908
 7907SOL     OW35182   4.081   4.163   4.061 -0.0911 -0.5585  0.2312
 7907SOL    HW135183   4.015   4.100   4.089  0.5162 -1.3281 -0.0508
 7907SOL    HW235184   4.118   4.165   4.149 -1.0388 -2.7065  0.6720
 7908SOL     OW35185   2.920   0.472   7.144 -0.3194  0.2281 -0.5814
 7908SOL    HW135186   2.915   0.409   7.071 -0.3525 -0.4646  0.0177
 7908SOL    HW235187   2.868   0.423   7.207 -0.3533  0.6118 -0.3156
 7909SOL     OW35188   2.846   2.056   3.337 -0.5281  0.2602  0.2912
 7909SOL    HW135189   2.920   2.057   3.276 -0.6182 -0.2460  0.1665
 7909SOL    HW235190   2.772   2.022   3.286  0.1968 -0.2703 -0.3956
 7910SOL     OW35191   3.344   1.277  11.978  0.7457  0.0311 -0.8137
 7910SOL    HW135192   3.388   1.192  11.974 -0.1729 -0.5332  0.8037
 7910SOL    HW235193   3.273   1.255  11.918 -0.0215  0.1761  0.0399
 7911SOL     OW35194   0.827   4.030  11.151 -0.3376  0.1747 -0.3089
 7911SOL    HW135195   0.801   3.939  11.137  0.0530  0.1781 -1.0226
 7911SOL    HW235196   0.914   4.024  11.191 -0.4156 -1.4082 -0.3613
 7912SOL     OW35197   2.598   0.454   3.221  0.8308 -0.7874  0.1825
 7912SOL    HW135198   2.629   0.371   3.256 -1.1046 -0.0149  3.7216
 7912SOL    HW235199   2.614   0.438   3.128 -0.5857 -0.1004 -0.1671
 7913SOL     OW35200   3.119   3.359   6.222 -0.0216 -0.1989 -0.3943
 7913SOL    HW135201   3.172   3.280   6.223  1.8890  1.0995  0.1755
 7913SOL    HW235202   3.199   3.403   6.194 -0.8221  2.2219  1.1281
 7914SOL     OW35203   0.209   1.729   3.050  0.1907  0.2605 -0.1291
 7914SOL    HW135204   0.224   1.641   3.085 -2.2942 -1.0163 -2.2475
 7914SOL    HW235205   0.185   1.708   2.960  1.3762 -1.6503 -0.0093
 7915SOL     OW35206   3.326   1.791   0.820  0.6533 -0.1610  0.1143
 7915SOL    HW135207   3.374   1.862   0.862  2.1555 -0.7580 -0.6107
 7915SOL    HW235208   3.347   1.720   0.881 -1.1234  0.3011  1.2664
 7916SOL     OW35209   3.039   3.652  17.194 -0.4346 -0.1015  0.4776
 7916SOL    HW135210   3.039   3.628  17.101  0.4204  1.4012  0.1022
 7916SOL    HW235211   3.129   3.673  17.217 -0.5995 -1.1076  2.0485
 7917SOL     OW35212   3.440   1.456   4.885  0.5027  0.0463  0.1463
 7917SOL    HW135213   3.443   1.371   4.930 -0.0253  0.6040  1.2495
 7917SOL    HW235214   3.388   1.503   4.951  0.8962  0.2447  0.3142
 7918SOL     OW35215   0.611   4.640   0.884 -0.1233  0.6786 -0.4184
 7918SOL    HW135216   0.517   4.630   0.873 -0.5289  2.0045  1.7881
 7918SOL    HW235217   0.633   4.624   0.792 -0.2030  0.4513 -0.3969
 7919SOL     OW35218   0.749   1.652   2.937  0.1952  0.7263  0.2522
 7919SOL    HW135219   0.792   1.566   2.944 -0.2884  0.3469 -1.4944
 7919SOL    HW235220   0.753   1.689   3.025 -1.1826  0.4063  0.4546
 7920SOL     OW35221   0.645   2.396   2.874 -0.0772  0.6859 -0.0544
 7920SOL    HW135222   0.650   2.456   2.948 -1.6218  1.3799 -0.5327
 7920SOL    HW235223   0.603   2.323   2.920 -0.2201  1.2300  0.6739
 7921SOL     OW35224   1.229   1.958   4.638 -0.2300  0.5235  0.2147
 7921SOL    HW135225   1.212   1.871   4.674 -0.2791  0.9489  1.2369
 7921SOL    HW235226   1.164   2.008   4.688  0.3428 -0.2152  1.7169
 7922SOL     OW35227   4.617   0.756   1.307 -0.9515  0.8214  0.0374
 7922SOL    HW135228   4.660   0.762   1.222 -2.4949 -0.0619 -0.7925
 7922SOL    HW235229   4.688   0.718   1.359  1.5061  1.3296 -2.9114
 7923SOL     OW35230   0.850   1.374   1.054  0.4925 -0.3405 -0.1585
 7923SOL    HW135231   0.945   1.382   1.045  0.3518  1.3096 -0.3035
 7923SOL    HW235232   0.813   1.461   1.039  2.4577  0.4649 -0.3324
 7924SOL     OW35233   4.633   3.514   3.922 -0.0109 -0.4370  0.2810
 7924SOL    HW135234   4.570   3.580   3.893  1.3426  0.5029 -0.5512
 7924SOL    HW235235   4.638   3.474   3.835  0.1300  2.1536 -0.9133
 7925SOL     OW35236   2.289   1.542   3.611 -0.3974 -0.9348 -0.3481
 7925SOL    HW135237   2.259   1.555   3.701 -0.0773  0.0622 -0.3836
 7925SOL    HW235238   2.261   1.624   3.570  2.1687 -0.1011 -0.4418
 7926SOL     OW35239   0.742   2.106   6.198 -0.5522 -0.5242 -0.0120
 7926SOL    HW135240   0.748   2.157   6.117  1.3414  1.7783  1.5650
 7926SOL    HW235241   0.655   2.069   6.185 -0.8483  0.3462 -0.5250
 7927SOL     OW35242   3.063   1.462   4.646  0.7707 -0.7818  0.4672
 7927SOL    HW135243   3.043   1.530   4.710  1.6807 -0.9855  0.9602
 7927SOL    HW235244   3.136   1.500   4.598  0.6076 -0.4938  0.4488
 7928SOL     OW35245   2.627   3.544   5.133  0.1115  0.2668  0.4554
 7928SOL    HW135246   2.712   3.535   5.090 -1.2665  0.6049 -2.3435
 7928SOL    HW235247   2.641   3.600   5.210 -2.2497 -3.1879  3.3895
 7929SOL     OW35248   4.619   3.349  13.407 -0.4052 -0.4613 -0.0497
 7929SOL    HW135249   4.525   3.365  13.404 -0.7186 -2.2787  0.2462
 7929SOL    HW235250   4.622   3.267  13.456  3.9798 -1.2969 -1.6896
 7930SOL     OW35251   0.376   1.825   4.139 -0.0179  0.4640 -0.3216
 7930SOL    HW135252   0.442   1.840   4.072 -1.3867  1.5131 -1.4479
 7930SOL    HW235253   0.371   1.729   4.142  3.3901  0.3639  1.7866
 7931SOL     OW35254   0.613   2.735   4.656  0.2729  0.0331  0.8985
 7931SOL    HW135255   0.581   2.660   4.705 -0.5635  0.3153  0.7882
 7931SOL    HW235256   0.680   2.775   4.711 -1.0077  0.6031  2.0397
 7932SOL     OW35257   1.952   1.085  11.298 -0.0456 -0.0759 -0.0477
 7932SOL    HW135258   1.975   1.002  11.256 -2.1188 -1.0655  0.7336
 7932SOL    HW235259   2.017   1.150  11.272  1.4532 -0.0817  3.6200
 7933SOL     OW35260   4.582   0.701   5.831  0.0871  1.2907 -0.2607
 7933SOL    HW135261   4.661   0.752   5.813  0.0237  1.5905  0.3100
 7933SOL    HW235262   4.520   0.720   5.761 -2.5247  0.2484  1.7528
 7934SOL     OW35263   1.942   1.292   8.150 -0.6831  0.2436 -0.5486
 7934SOL    HW135264   1.953   1.205   8.188 -2.8629  0.0126 -0.4670
 7934SOL    HW235265   1.961   1.270   8.059  2.2572  1.4381 -0.2289
 7935SOL     OW35266   2.101   3.775  14.542  0.4388  0.3560  0.7293
 7935SOL    HW135267   2.159   3.851  14.533 -1.7621  1.9996  0.6702
 7935SOL    HW235268   2.038   3.802  14.475  0.4495 -2.7086 -0.5225
 7936SOL     OW35269   4.082   0.962   1.762  0.0144  0.4517  0.0770
 7936SOL    HW135270   4.020   0.924   1.700 -0.6176  2.1546 -0.3105
 7936SOL    HW235271   4.163   0.912   1.751 -2.5265 -3.9124  1.0227
 7937SOL     OW35272   1.059   1.909   2.067  0.5928  0.5642  0.3449
 7937SOL    HW135273   1.015   1.884   1.986 -2.7478  1.0128  2.0221
 7937SOL    HW235274   1.008   1.864   2.134  0.2433  0.8989  0.3010
 7938SOL     OW35275   2.206   3.094  11.783 -0.1854  0.3938  0.5719
 7938SOL    HW135276   2.199   3.138  11.868 -0.0090  0.1871  0.6934
 7938SOL    HW235277   2.300   3.094  11.766  0.1029 -0.0079  2.1704
 7939SOL     OW35278   2.038   1.539   2.507  0.0647 -0.1308 -0.5353
 7939SOL    HW135279   2.127   1.547   2.540 -0.5229  0.9117  0.7994
 7939SOL    HW235280   2.043   1.445   2.488 -1.2070 -0.0542 -1.2671
 7940SOL     OW35281   1.266   1.030   1.330  0.0713  0.5222  0.0886
 7940SOL    HW135282   1.324   0.955   1.342  0.3377  0.5523 -1.0255
 7940SOL    HW235283   1.184   0.986   1.309  2.3195 -1.8211 -3.6565
 7941SOL     OW35284   4.317   3.023   8.768  0.6561 -0.3048 -0.1649
 7941SOL    HW135285   4.385   3.071   8.815 -0.1037 -0.0283  0.6465
 7941SOL    HW235286   4.261   3.101   8.762 -1.0108 -1.3948  1.0929
 7942SOL     OW35287   2.107   2.968   5.432 -0.0445  0.2790 -0.1947
 7942SOL    HW135288   2.031   2.976   5.375  1.5908 -1.8663 -2.6579
 7942SOL    HW235289   2.159   2.909   5.377  0.5512  1.3945 -0.8178
 7943SOL     OW35290   1.647   1.476   4.146  0.2373 -0.1053  0.2499
 7943SOL    HW135291   1.606   1.541   4.089  1.2368  0.2143 -0.0989
 7943SOL    HW235292   1.704   1.529   4.202  1.5820 -2.2714  0.9146
 7944SOL     OW35293   1.138   1.610   8.515 -0.0997  0.3347 -0.0013
 7944SOL    HW135294   1.121   1.635   8.424 -2.6549 -3.0486 -0.4389
 7944SOL    HW235295   1.167   1.522   8.492 -0.0604  0.6054 -0.9721
 7945SOL     OW35296   1.749   1.534   4.410  0.1723  0.0275 -0.2215
 7945SOL    HW135297   1.746   1.586   4.491  1.4920 -0.1938 -0.0310
 7945SOL    HW235298   1.807   1.461   4.431  0.8946  0.8734  0.7457
 7946SOL     OW35299   3.069   4.434   5.343 -0.2817  0.3580  0.6060
 7946SOL    HW135300   3.119   4.484   5.408  1.3113 -0.1077 -0.2427
 7946SOL    HW235301   3.086   4.483   5.263  0.3440  1.4048  1.3832
 7947SOL     OW35302   2.653   0.157   5.107  0.0571 -0.5078  0.1132
 7947SOL    HW135303   2.703   0.235   5.082  0.5997 -0.8849  0.0087
 7947SOL    HW235304   2.614   0.182   5.191  0.3830  1.2984 -0.2809
 7948SOL     OW35305   2.323   4.566   3.026 -0.1803 -0.1172 -0.0648
 7948SOL    HW135306   2.382   4.628   2.982 -0.3317 -0.2473 -0.4535
 7948SOL    HW235307   2.280   4.637   3.073  0.6944 -0.2963  0.9986
 7949SOL     OW35308   0.117   3.097   0.243  0.3158  0.1525  0.6430
 7949SOL    HW135309   0.095   3.133   0.329  1.2473  0.1784  0.8719
 7949SOL    HW235310   0.093   3.005   0.251  0.1310  0.2521  1.2455
 7950SOL     OW35311   2.917   1.582  14.302 -0.6661 -0.2854  0.5210
 7950SOL    HW135312   2.834   1.539  14.279 -0.2944  0.6084 -2.5927
 7950SOL    HW235313   2.900   1.599  14.394 -1.7275 -0.7442  0.4065
 7951SOL     OW35314   0.869   1.687  10.080  1.0997  0.1828  0.1350
 7951SOL    HW135315   0.928   1.640  10.021  0.5427 -1.0494  0.5629
 7951SOL    HW235316   0.863   1.777  10.047 -1.7795  0.3481  1.1413
 7952SOL     OW35317   2.187   1.633  17.424 -0.5143  0.0479 -0.0501
 7952SOL    HW135318   2.225   1.692  17.489 -1.5682  0.8310 -0.1458
 7952SOL    HW235319   2.258   1.626  17.361  0.1486  1.0329  0.5940
 7953SOL     OW35320   2.353   1.191  14.186  0.1412 -0.2893 -0.7954
 7953SOL    HW135321   2.342   1.097  14.173  3.2595 -1.0378  1.8171
 7953SOL    HW235322   2.446   1.211  14.171  0.2154  0.1354  0.2159
 7954SOL     OW35323   0.269   0.299  13.521  0.0584 -0.0934  0.3234
 7954SOL    HW135324   0.187   0.350  13.525  0.9695  1.4094 -0.0528
 7954SOL    HW235325   0.313   0.354  13.457  0.0312 -0.1324  0.2713
 7955SOL     OW35326   1.622   2.178   3.784 -0.8014 -0.1254 -0.3950
 7955SOL    HW135327   1.554   2.192   3.850 -0.0461 -0.3244  0.4348
 7955SOL    HW235328   1.580   2.118   3.723 -1.8568 -1.0628  1.2686
 7956SOL     OW35329   0.856   4.436   0.712 -0.2388  0.5582 -0.0470
 7956SOL    HW135330   0.866   4.480   0.627  0.4601 -0.4456 -0.4803
 7956SOL    HW235331   0.886   4.509   0.766 -0.6365  0.0652  0.8323
 7957SOL     OW35332   0.051   3.831   3.211 -0.7749  0.4115 -0.2593
 7957SOL    HW135333   0.089   3.829   3.123  2.6938 -0.8633  1.2475
 7957SOL    HW235334   0.096   3.911   3.237  0.8823 -0.3607 -0.7465
 7958SOL     OW35335   0.006   0.666   3.679  0.3506 -0.5427 -0.0360
 7958SOL    HW135336   4.690   0.626   3.755  0.5586 -0.3846  0.1604
 7958SOL    HW235337   4.712   0.759   3.695  0.3461 -0.3828 -0.9633
 7959SOL     OW35338   1.059   0.253   4.277  0.6107 -0.0255  0.4925
 7959SOL    HW135339   1.019   0.340   4.277  1.5073  0.3795 -1.7847
 7959SOL    HW235340   1.005   0.212   4.209  1.3207 -0.1727  0.0187
 7960SOL     OW35341   3.853   0.536   2.923 -0.3655  0.0044 -0.0622
 7960SOL    HW135342   3.813   0.608   2.875  0.3792 -0.3498 -1.2083
 7960SOL    HW235343   3.874   0.469   2.858  1.2886  2.0579 -1.6206
 7961SOL     OW35344   1.959   1.040   5.991  0.3461 -0.0066 -0.1161
 7961SOL    HW135345   1.940   1.097   5.917 -0.6982 -1.5224 -1.0108
 7961SOL    HW235346   1.895   0.970   5.975  0.6003 -0.3059  0.1835
 7962SOL     OW35347   2.881   2.552  15.591 -0.2471 -0.1504  0.2688
 7962SOL    HW135348   2.855   2.460  15.596 -0.2499 -0.2375 -1.4192
 7962SOL    HW235349   2.965   2.550  15.637 -0.1164  1.0724  0.0894
 7963SOL     OW35350   3.739   4.168   6.072  0.1446 -0.1208 -0.4056
 7963SOL    HW135351   3.685   4.178   5.993  0.3660 -0.1798 -0.5625
 7963SOL    HW235352   3.813   4.119   6.036  0.5702 -1.2679  2.0514
 7964SOL     OW35353   2.086   4.554   7.155  0.0501  0.0002 -0.6011
 7964SOL    HW135354   2.132   4.503   7.088 -2.5661 -2.0242 -0.8538
 7964SOL    HW235355   2.041   4.618   7.099 -0.3851  0.5141  0.3297
 7965SOL     OW35356   0.760   1.192   8.291  0.5741 -0.0084 -0.2184
 7965SOL    HW135357   0.679   1.228   8.327 -0.1107 -1.0420 -0.7163
 7965SOL    HW235358   0.834   1.235   8.334 -0.9990  1.7151  0.7589
 7966SOL     OW35359   3.578   3.351   5.733 -0.1065  0.1647  0.2368
 7966SOL    HW135360   3.488   3.318   5.732 -0.2586  0.5250  1.5491
 7966SOL    HW235361   3.609   3.352   5.823 -2.0280  1.2570  0.8989
 7967SOL     OW35362   1.993   4.550  16.458  0.1490 -0.4563 -0.1863
 7967SOL    HW135363   1.971   4.480  16.520 -3.0935  0.5497 -0.2238
 7967SOL    HW235364   1.936   4.540  16.382  2.0963  1.1875 -1.8508
 7968SOL     OW35365   0.672   0.702   9.072 -0.5846 -0.5331  0.2368
 7968SOL    HW135366   0.605   0.745   9.126 -1.2036 -0.8140 -0.3030
 7968SOL    HW235367   0.723   0.774   9.035 -2.4117 -0.1897 -1.6165
 7969SOL     OW35368   0.220   3.551  14.065 -0.0036  0.4710  0.7722
 7969SOL    HW135369   0.254   3.631  14.106  0.0945  0.7135  0.2109
 7969SOL    HW235370   0.133   3.581  14.039  0.5560  0.4041 -1.1763
 7970SOL     OW35371   1.541   3.363   5.150 -0.3584  0.1001  0.1979
 7970SOL    HW135372   1.549   3.377   5.244  1.0568  0.6500  0.0022
 7970SOL    HW235373   1.477   3.292   5.144 -1.7805  1.3534  0.5835
 7971SOL     OW35374   1.021   1.494   3.950  0.7306 -0.1539 -0.0767
 7971SOL    HW135375   1.080   1.567   3.931  1.2434 -1.0526 -1.8901
 7971SOL    HW235376   0.961   1.505   3.876 -0.1881  0.2147  0.7303
 7972SOL     OW35377   1.687   2.922  11.440 -0.4254  0.3883  0.2524
 7972SOL    HW135378   1.729   2.837  11.424 -0.0990  0.3136  1.5724
 7972SOL    HW235379   1.652   2.911  11.528 -0.0144 -0.6005  0.2930
 7973SOL     OW35380   2.095   2.880   0.915 -0.3101  0.1120 -0.5491
 7973SOL    HW135381   2.041   2.834   0.979 -0.9397 -1.1782 -2.0112
 7973SOL    HW235382   2.053   2.966   0.918  0.2933  0.4643 -1.7788
 7974SOL     OW35383   2.218   2.519   4.196  0.2205  0.1856 -0.4725
 7974SOL    HW135384   2.135   2.506   4.149  0.1942 -0.0966 -0.3495
 7974SOL    HW235385   2.237   2.440   4.247  2.2288  0.5715 -0.6194
 7975SOL     OW35386   3.028   1.510   5.401 -0.0706 -0.2553 -0.6283
 7975SOL    HW135387   2.998   1.601   5.403 -0.2264 -0.2894 -1.3969
 7975SOL    HW235388   2.941   1.474   5.384 -0.2385  0.0027 -0.3327
 7976SOL     OW35389   2.254   3.642   6.866  0.0588 -0.3825 -0.0661
 7976SOL    HW135390   2.208   3.612   6.945 -2.6880  0.1546 -1.4645
 7976SOL    HW235391   2.299   3.560   6.850  0.3592 -0.5837  1.7964
 7977SOL     OW35392   4.446   0.306   3.699  0.2363  0.1078 -0.5984
 7977SOL    HW135393   4.522   0.280   3.648 -1.2003  0.1871 -2.7591
 7977SOL    HW235394   4.376   0.242   3.682  0.3866 -0.0942 -0.4573
 7978SOL     OW35395   0.391   0.893  16.920 -0.0523 -0.1595  0.0772
 7978SOL    HW135396   0.318   0.941  16.880  0.3582  0.8407  0.5126
 7978SOL    HW235397   0.364   0.806  16.892 -2.4412  0.5823  0.0502
 7979SOL     OW35398   2.514   0.868   3.739 -0.1410 -0.3651  0.1942
 7979SOL    HW135399   2.586   0.807   3.729  0.6803  0.9006 -1.6612
 7979SOL    HW235400   2.560   0.931   3.795 -0.6631  0.5740 -0.4297
 7980SOL     OW35401   3.347   3.365   0.190 -0.0159  0.5894  0.3036
 7980SOL    HW135402   3.338   3.453   0.152 -1.2147  0.3598  0.0463
 7980SOL    HW235403   3.432   3.365   0.235 -0.1599 -1.2627  0.5806
 7981SOL     OW35404   3.679   2.785   4.394  0.7001 -0.3208 -0.9008
 7981SOL    HW135405   3.736   2.711   4.372  1.7235  0.3068 -0.3703
 7981SOL    HW235406   3.738   2.860   4.391  0.5879 -0.1872  0.1259
 7982SOL     OW35407   2.274   4.423   8.435  0.1026 -0.3773  0.7240
 7982SOL    HW135408   2.231   4.450   8.516  0.7997  2.0750  0.2824
 7982SOL    HW235409   2.309   4.337   8.458  1.4403 -0.0778 -0.2076
 7983SOL     OW35410   4.410   1.590   5.896 -0.5697  0.2989 -0.8899
 7983SOL    HW135411   4.417   1.536   5.818  0.7283  0.0034 -0.5798
 7983SOL    HW235412   4.452   1.673   5.875  2.0115 -0.3984  1.3957
 7984SOL     OW35413   3.762   0.500  14.154  0.1597 -0.1784  0.4967
 7984SOL    HW135414   3.731   0.540  14.235 -0.3559  0.8136 -0.1903
 7984SOL    HW235415   3.792   0.571  14.098 -1.6099 -1.0625 -1.6012
 7985SOL     OW35416   0.355   3.991   4.520 -0.0820  0.0068  0.0674
 7985SOL    HW135417   0.331   3.912   4.472  0.5197 -0.2489  0.1850
 7985SOL    HW235418   0.368   4.055   4.450  1.0289 -1.3759 -1.0060
 7986SOL     OW35419   2.544   1.493  13.746  0.5265  0.4185 -0.2073
 7986SOL    HW135420   2.638   1.489  13.731  0.3319 -0.2940 -1.2154
 7986SOL    HW235421   2.505   1.497  13.659 -0.1384 -1.4085  0.0130
 7987SOL     OW35422   2.868   4.483   2.276  0.5082  0.0575 -0.3871
 7987SOL    HW135423   2.859   4.569   2.317 -1.4781 -1.4239  2.3347
 7987SOL    HW235424   2.791   4.486   2.220  1.3167  1.7403 -1.4055
 7988SOL     OW35425   2.794   2.539   2.800  0.3984 -0.1366  0.2785
 7988SOL    HW135426   2.704   2.527   2.770  0.8096 -1.9673 -0.2248
 7988SOL    HW235427   2.784   2.551   2.895  0.1250 -0.8352  0.3362
 7989SOL     OW35428   2.924   3.935   2.830 -0.2508  0.1417 -0.5583
 7989SOL    HW135429   2.900   4.027   2.844  2.3760  0.3736  2.4968
 7989SOL    HW235430   2.988   3.947   2.760  0.0568 -1.1771 -0.5067
 7990SOL     OW35431   2.332   4.126   3.511  0.0670  0.7814 -0.4918
 7990SOL    HW135432   2.302   4.037   3.531  0.3434  0.6131 -0.8289
 7990SOL    HW235433   2.395   4.096   3.445  1.8503  0.2655  1.4093
 7991SOL     OW35434   3.038   3.553   2.497  0.0399  0.2295  0.1778
 7991SOL    HW135435   3.065   3.635   2.455 -1.1669 -0.0654 -1.1788
 7991SOL    HW235436   3.008   3.507   2.419 -0.0008  1.7580 -0.7053
 7992SOL     OW35437   4.292   1.111  15.717  0.1987  0.2932 -0.0141
 7992SOL    HW135438   4.344   1.083  15.792  1.7159  0.3629 -1.0367
 7992SOL    HW235439   4.252   1.193  15.746  0.1933  0.2550  0.0853
 7993SOL     OW35440   3.240   1.650   2.098  0.1612 -0.4950 -0.5882
 7993SOL    HW135441   3.313   1.596   2.067 -0.1123 -0.0482 -1.9877
 7993SOL    HW235442   3.167   1.623   2.042 -0.0275 -2.5943  0.6484
 7994SOL     OW35443   3.151   2.890   7.842  0.0634  0.1500  0.2466
 7994SOL    HW135444   3.073   2.898   7.787 -0.1871  0.7987  0.6968
 7994SOL    HW235445   3.156   2.796   7.857 -0.0901 -0.0600 -0.9991
 7995SOL     OW35446   4.524   0.929   6.498 -0.5833  0.1410 -0.2668
 7995SOL    HW135447   4.614   0.901   6.513 -0.3593  0.2378 -1.4057
 7995SOL    HW235448   4.492   0.959   6.583  0.9377 -0.1193  0.3944
 7996SOL     OW35449   1.823   2.752   3.574  0.1244  0.1352 -0.2526
 7996SOL    HW135450   1.834   2.659   3.594  0.6114  0.3472  0.4302
 7996SOL    HW235451   1.891   2.796   3.625  1.3528 -0.2016 -1.5936
 7997SOL     OW35452   3.260   3.287   2.148 -0.3092  0.2295  0.2015
 7997SOL    HW135453   3.311   3.360   2.112  1.0857 -0.3948  0.9215
 7997SOL    HW235454   3.178   3.326   2.117 -0.0891  0.9402  0.4944
 7998SOL     OW35455   3.201   0.820   2.312 -0.3697  0.0338 -0.4178
 7998SOL    HW135456   3.133   0.886   2.300  0.0770  0.7199  0.8320
 7998SOL    HW235457   3.159   0.746   2.268 -0.9991  0.0774  0.0928
 7999SOL     OW35458   1.014   1.801   0.702 -0.3147 -0.1076 -0.8235
 7999SOL    HW135459   1.071   1.878   0.699  0.3161 -0.6152 -1.8195
 7999SOL    HW235460   0.952   1.821   0.632 -1.9075 -1.9391  0.0522
 8000SOL     OW35461   1.185   4.025   8.996 -0.1826 -0.3384 -0.4053
 8000SOL    HW135462   1.151   4.114   9.000 -1.4357 -0.8082 -0.5411
 8000SOL    HW235463   1.279   4.044   8.999 -0.1350 -0.4568 -1.1556
 8001SOL     OW35464   3.065   4.074   9.235 -0.5391  0.5932  0.1597
 8001SOL    HW135465   3.046   4.152   9.184 -0.2184  1.2676  1.0803
 8001SOL    HW235466   3.160   4.074   9.247 -0.6689  2.1799  1.1350
 8002SOL     OW35467   2.705   3.290   4.196  0.1820  0.8610  0.8123
 8002SOL    HW135468   2.632   3.352   4.186  0.7835  1.0673 -2.2500
 8002SOL    HW235469   2.777   3.345   4.163 -0.7958  1.8394  0.2878
 8003SOL     OW35470   1.512   2.162   1.504  0.3036 -0.0456  0.2863
 8003SOL    HW135471   1.458   2.091   1.540  1.4979 -0.3957  1.4069
 8003SOL    HW235472   1.592   2.110   1.502  0.9890  0.9434  1.5395
 8004SOL     OW35473   1.353   3.984  16.097 -0.1118  0.2659  0.5145
 8004SOL    HW135474   1.404   4.044  16.151  0.6462  0.8142 -0.8114
 8004SOL    HW235475   1.347   4.028  16.013  1.3189  0.6831  0.6359
 8005SOL     OW35476   3.873   3.993   4.142  0.3301  0.1016 -0.2217
 8005SOL    HW135477   3.808   4.011   4.209  0.8526  2.8178 -0.4295
 8005SOL    HW235478   3.880   3.898   4.152 -1.2624  0.1063  0.8441
 8006SOL     OW35479   4.161   3.148  11.759  0.5002  0.0130 -0.1896
 8006SOL    HW135480   4.120   3.075  11.805  2.2378 -1.0901 -0.3818
 8006SOL    HW235481   4.081   3.194  11.733 -0.6920 -2.1051 -0.2729
 8007SOL     OW35482   3.188   3.599   5.573 -0.3636 -0.7705 -0.0034
 8007SOL    HW135483   3.221   3.512   5.592  0.0225 -0.8416 -1.0109
 8007SOL    HW235484   3.171   3.601   5.479  1.7879  1.8150 -0.3592
 8008SOL     OW35485   3.250   4.266   7.691 -0.0918  0.4168 -0.4896
 8008SOL    HW135486   3.217   4.332   7.753 -0.5752 -0.8847  0.6335
 8008SOL    HW235487   3.192   4.190   7.699  1.2721 -0.6360 -0.7653
 8009SOL     OW35488   2.188   0.809   0.351  0.1257 -0.0705 -0.1804
 8009SOL    HW135489   2.232   0.734   0.391  2.0030  0.6261 -0.9309
 8009SOL    HW235490   2.257   0.869   0.378 -0.1389 -0.6591  1.7851
 8010SOL     OW35491   0.864   3.846   4.282  0.3600 -0.2182 -0.1860
 8010SOL    HW135492   0.883   3.904   4.356 -3.5209  1.0628 -0.1421
 8010SOL    HW235493   0.943   3.794   4.277  0.4503 -0.2395  1.5517
 8011SOL     OW35494   1.419   3.047   6.698  0.3334  0.2624  0.5321
 8011SOL    HW135495   1.379   3.040   6.785  0.2684 -0.2491  0.4623
 8011SOL    HW235496   1.493   2.985   6.704  0.2084  0.2308  1.8552
 8012SOL     OW35497   2.468   1.148   0.813  0.3114  0.4302  0.2355
 8012SOL    HW135498   2.525   1.203   0.867  1.8171 -2.3431  1.4593
 8012SOL    HW235499   2.523   1.070   0.809 -2.7738 -1.7330 -0.0307
 8013SOL     OW35500   0.617   3.467  10.458  0.7955 -0.2799  0.0424
 8013SOL    HW135501   0.636   3.561  10.463 -0.9884  0.2218 -2.5152
 8013SOL    HW235502   0.682   3.436  10.395  0.3010 -2.5873  0.6840
 8014SOL     OW35503   2.603   4.432   8.646  0.0160 -0.5952  0.0497
 8014SOL    HW135504   2.661   4.486   8.592  1.0962  0.0985  1.8873
 8014SOL    HW235505   2.618   4.469   8.733 -1.3803 -1.8256  0.7977
 8015SOL     OW35506   2.331   4.406   5.710 -0.1278  0.1684  0.3267
 8015SOL    HW135507   2.302   4.350   5.639 -0.2326  0.7449 -0.0856
 8015SOL    HW235508   2.349   4.492   5.673 -0.7465  0.7150  1.2914
 8016SOL     OW35509   0.343   1.919  16.326 -0.3962  0.3061  0.2355
 8016SOL    HW135510   0.259   1.953  16.296 -1.3704 -2.7457 -0.5184
 8016SOL    HW235511   0.386   1.873  16.254 -0.7067 -1.0045  0.8942
 8017SOL     OW35512   1.923   3.552  14.595  0.6659  0.5005  0.1023
 8017SOL    HW135513   1.959   3.487  14.535  1.3121 -0.0490  1.0793
 8017SOL    HW235514   1.960   3.632  14.557  1.1772 -0.4577 -1.4206
 8018SOL     OW35515   3.388   0.216   1.268 -0.2136 -0.2304  0.0174
 8018SOL    HW135516   3.360   0.125   1.275 -0.4678 -0.2522 -1.3392
 8018SOL    HW235517   3.332   0.259   1.332 -0.8564  1.2710 -1.5610
 8019SOL     OW35518   4.125   3.294   1.050  0.4435  0.7428  0.0615
 8019SOL    HW135519   4.110   3.221   0.991 -1.7213  1.0219  0.2737
 8019SOL    HW235520   4.071   3.281   1.128  0.0446 -6.4590 -1.4208
 8020SOL     OW35521   2.291   1.761   1.828 -0.2126 -0.3211 -0.0448
 8020SOL    HW135522   2.324   1.851   1.825 -1.6431  0.1869 -0.5187
 8020SOL    HW235523   2.227   1.771   1.758  2.7799  1.3214 -2.5839
 8021SOL     OW35524   1.722   0.226  16.245 -0.4007  0.6274 -0.2228
 8021SOL    HW135525   1.633   0.261  16.239 -0.6903 -0.0880 -0.0739
 8021SOL    HW235526   1.752   0.235  16.154  1.9570 -1.6398  0.3396
 8022SOL     OW35527   4.200   1.599   0.114  0.0124  0.0567 -0.0870
 8022SOL    HW135528   4.212   1.665   0.183  0.9139 -1.1191  0.8725
 8022SOL    HW235529   4.119   1.556   0.142 -0.5090  1.2459  0.2270
 8023SOL     OW35530   3.602   3.420   7.416 -0.3192 -0.1689  0.1570
 8023SOL    HW135531   3.611   3.411   7.511 -2.1674 -0.9910  0.2527
 8023SOL    HW235532   3.509   3.444   7.415 -0.5601 -1.0827  0.5632
 8024SOL     OW35533   0.274   0.243   9.112 -0.1572 -0.3945 -0.0822
 8024SOL    HW135534   0.205   0.269   9.051 -1.1152 -0.2805  1.0410
 8024SOL    HW235535   0.274   0.315   9.175  1.5632 -0.4810 -0.0058
 8025SOL     OW35536   3.984   2.668   8.983  0.4859  0.2537 -0.1260
 8025SOL    HW135537   4.075   2.662   9.012  0.5729  0.8208 -0.2780
 8025SOL    HW235538   3.996   2.610   8.908 -0.3640  1.7067 -1.3779
 8026SOL     OW35539   2.575   2.300   5.282  0.0328  0.7575 -0.3408
 8026SOL    HW135540   2.601   2.267   5.368  0.1723 -0.9952 -1.0511
 8026SOL    HW235541   2.511   2.365   5.311 -0.4197 -0.2629  0.9705
 8027SOL     OW35542   3.249   3.538  12.156  0.4344  0.0872 -0.4079
 8027SOL    HW135543   3.214   3.591  12.227 -1.1167 -2.8127  1.0054
 8027SOL    HW235544   3.199   3.458  12.176  1.1380 -0.0098  0.9929
 8028SOL     OW35545   4.575   4.163  12.613  0.6024 -0.5383  0.1175
 8028SOL    HW135546   4.614   4.097  12.670 -3.1461 -0.5267  2.6765
 8028SOL    HW235547   4.635   4.163  12.538 -1.7101  0.3557 -1.7258
 8029SOL     OW35548   4.009   0.052  14.800  0.4499  0.3993  0.0875
 8029SOL    HW135549   3.952   4.702  14.815  1.1796 -0.4709 -1.5140
 8029SOL    HW235550   3.945   0.123  14.804  0.7066  0.6370 -0.0179
 8030SOL     OW35551   4.149   3.989   4.991  0.0018 -0.1484  0.4986
 8030SOL    HW135552   4.101   3.929   4.934 -1.2365  2.0422 -0.7373
 8030SOL    HW235553   4.085   4.013   5.058  2.6725  3.3576  1.8226
 8031SOL     OW35554   0.494   0.145   3.142 -0.1966  0.1371 -0.1737
 8031SOL    HW135555   0.548   0.190   3.207 -0.3685 -1.9232  1.3841
 8031SOL    HW235556   0.555   0.126   3.072 -2.1058 -0.2121 -1.7304
 8032SOL     OW35557   0.396   3.686   8.218 -0.0362 -0.0776  0.1675
 8032SOL    HW135558   0.461   3.739   8.172 -0.9323  1.3218  0.5121
 8032SOL    HW235559   0.371   3.632   8.142 -3.2538  2.5953 -0.6777
 8033SOL     OW35560   1.996   3.325   1.148 -0.0079 -0.7124  0.4799
 8033SOL    HW135561   2.018   3.405   1.197  1.0019 -0.7451  0.0888
 8033SOL    HW235562   1.903   3.321   1.169 -0.8610  1.6437 -2.8912
 8034SOL     OW35563   0.991   2.053   4.761  0.5271 -0.5764 -0.7547
 8034SOL    HW135564   0.897   2.040   4.752  0.5435 -0.6919 -0.7656
 8034SOL    HW235565   0.994   2.146   4.742  0.2935 -0.0353  1.8071
 8035SOL     OW35566   0.028   0.251   5.198 -0.0345 -0.3185  0.5950
 8035SOL    HW135567   0.009   0.342   5.173 -2.4527 -1.4813 -1.7829
 8035SOL    HW235568   4.724   0.251   5.289 -1.5863  1.4601  0.1024
 8036SOL     OW35569   1.617   2.733  17.218  0.5339  0.3165  0.1581
 8036SOL    HW135570   1.623   2.785  17.138 -0.2963 -0.7206 -0.5655
 8036SOL    HW235571   1.560   2.788  17.272  1.0634  2.4680 -1.4618
 8037SOL     OW35572   2.720   3.305   3.757 -0.1102 -0.4252  0.3676
 8037SOL    HW135573   2.634   3.277   3.726  0.3569 -0.0395 -1.2824
 8037SOL    HW235574   2.692   3.372   3.819 -0.7238 -0.6089  0.2885
 8038SOL     OW35575   4.350   1.880   0.027 -0.2032 -0.3218  0.4660
 8038SOL    HW135576   4.356   1.905   0.120 -0.1504 -1.3535  0.7341
 8038SOL    HW235577   4.255   1.890   0.013 -0.5531  0.5423  3.3174
 8039SOL     OW35578   1.418   3.862   1.582  0.0411  0.4055 -0.3827
 8039SOL    HW135579   1.444   3.781   1.625 -0.6939 -0.2061 -1.0925
 8039SOL    HW235580   1.386   3.922   1.650 -0.9282 -1.0994  0.5061
 8040SOL     OW35581   3.027   3.808   4.985  0.2649  0.0252 -0.0440
 8040SOL    HW135582   3.102   3.805   4.927  1.9578  0.1712  2.1345
 8040SOL    HW235583   3.032   3.897   5.017  0.8914  1.0118 -2.9042
 8041SOL     OW35584   2.036   2.321   0.190  0.4301  0.4153 -0.0955
 8041SOL    HW135585   2.032   2.383   0.117  2.1206  0.9043  0.2265
 8041SOL    HW235586   2.040   2.374   0.270 -1.3568 -0.3657  0.5082
 8042SOL     OW35587   1.128   4.013   8.717  0.0661 -0.3443  0.4398
 8042SOL    HW135588   1.127   4.108   8.705  1.6429 -0.0850  2.3158
 8042SOL    HW235589   1.088   4.004   8.804 -3.0074 -0.6028 -1.0218
 8043SOL     OW35590   0.327   2.378   5.706 -0.3314 -0.6300 -0.3128
 8043SOL    HW135591   0.342   2.376   5.611  2.6630  1.5239  0.1167
 8043SOL    HW235592   0.306   2.285   5.716 -1.6051 -0.4198 -1.1108
 8044SOL     OW35593   1.889   2.655   2.666 -0.7580 -0.3432 -0.1367
 8044SOL    HW135594   1.835   2.716   2.616 -3.0098 -2.5849 -0.4175
 8044SOL    HW235595   1.856   2.570   2.638 -1.8327 -1.0785  3.3084
 8045SOL     OW35596   4.379   0.005   5.069  0.4389  0.7204  0.0775
 8045SOL    HW135597   4.450   0.031   5.011  0.6779  1.7152  0.8178
 8045SOL    HW235598   4.416   0.033   5.153 -1.9140  2.5560  0.5216
 8046SOL     OW35599   0.083   3.086   4.115 -0.0052  0.4492 -0.0986
 8046SOL    HW135600   0.097   3.172   4.077  2.1846 -0.3634 -1.1493
 8046SOL    HW235601   0.126   3.090   4.201 -0.0992 -0.6545  0.0085
 8047SOL     OW35602   1.784   2.120   6.218  0.1046 -0.3197  0.2184
 8047SOL    HW135603   1.851   2.071   6.266 -0.4605  1.2703  2.6414
 8047SOL    HW235604   1.800   2.093   6.128 -0.8733  0.5268 -0.2172
 8048SOL     OW35605   2.454   0.791  16.840 -0.6407 -0.4600  0.0133
 8048SOL    HW135606   2.367   0.806  16.803  0.0120  1.3571 -0.8004
 8048SOL    HW235607   2.437   0.770  16.932  2.0856  1.0716  0.8772
 8049SOL     OW35608   3.927   0.134   8.781  0.4540  0.7335 -0.2416
 8049SOL    HW135609   3.952   0.213   8.830  0.4054  1.1806 -0.9396
 8049SOL    HW235610   3.836   0.127   8.808  0.9950 -1.4245  1.0479
 8050SOL     OW35611   0.889   3.508   5.804  0.3142 -0.2045  0.3059
 8050SOL    HW135612   0.835   3.506   5.725 -0.6052  0.8748  0.9139
 8050SOL    HW235613   0.907   3.415   5.820  1.7488 -0.1266 -0.8361
 8051SOL     OW35614   1.500   4.528   9.708  0.6836  0.0996 -0.2747
 8051SOL    HW135615   1.552   4.502   9.784  0.8357 -1.2256 -0.8374
 8051SOL    HW235616   1.439   4.455   9.697  1.0363 -0.4869  1.5636
 8052SOL     OW35617   4.369   1.506  15.535 -0.3270 -0.1509  0.1162
 8052SOL    HW135618   4.440   1.552  15.489 -0.9855  0.6198 -0.1329
 8052SOL    HW235619   4.392   1.415  15.522  1.7617 -0.0554  3.0204
 8053SOL     OW35620   0.502   0.749   8.458 -0.0562 -0.4627  0.2200
 8053SOL    HW135621   0.531   0.659   8.442  1.9281  0.1135  0.5241
 8053SOL    HW235622   0.442   0.725   8.528 -0.7831 -1.1044 -0.6222
 8054SOL     OW35623   4.708   4.337   5.892 -0.3798 -0.0424 -0.1103
 8054SOL    HW135624   4.637   4.357   5.952  0.0625  0.1670  0.3422
 8054SOL    HW235625   0.019   4.423   5.873 -0.5340  0.0969  0.2419
 8055SOL     OW35626   4.478   1.920  15.214 -0.0914 -0.2593 -0.0319
 8055SOL    HW135627   4.468   1.838  15.166  2.2419  0.6508 -2.0991
 8055SOL    HW235628   4.556   1.952  15.167  0.7921 -3.3397 -0.6469
 8056SOL     OW35629   3.558   2.527  10.181  0.2922 -0.1965 -0.2718
 8056SOL    HW135630   3.622   2.592  10.153 -1.2244  1.7657  0.8083
 8056SOL    HW235631   3.515   2.565  10.258  0.6619 -2.9707  1.2984
 8057SOL     OW35632   1.263   3.519   6.007  0.0754  0.2782 -0.5508
 8057SOL    HW135633   1.245   3.544   5.916 -0.0540 -0.3842 -0.7086
 8057SOL    HW235634   1.281   3.602   6.049 -1.8780 -0.0351  0.8856
 8058SOL     OW35635   4.420   3.743   9.044 -0.3580 -0.3761 -0.3348
 8058SOL    HW135636   4.464   3.782   9.120  1.3142 -3.4009  0.2365
 8058SOL    HW235637   4.390   3.824   9.004 -1.8694 -0.5563  0.3909
 8059SOL     OW35638   2.227   0.338   3.946 -0.2276 -0.6283  0.0682
 8059SOL    HW135639   2.235   0.253   3.903  0.1831 -0.8627  0.6053
 8059SOL    HW235640   2.232   0.315   4.038  1.2542 -1.0627 -0.1134
 8060SOL     OW35641   4.569   3.190   5.930  0.1935  0.1551  0.2152
 8060SOL    HW135642   4.523   3.258   5.980 -0.0718  0.9057 -1.0474
 8060SOL    HW235643   4.527   3.198   5.844 -1.1507  1.5949  1.0128
 8061SOL     OW35644   0.728   4.622   7.513  0.1370  0.5637 -0.7454
 8061SOL    HW135645   0.663   4.690   7.530 -0.8791 -0.5752 -0.1355
 8061SOL    HW235646   0.792   4.636   7.584 -1.5462 -0.6314  0.9936
 8062SOL     OW35647   4.619   1.761   2.183 -0.5568  0.1895 -0.5311
 8062SOL    HW135648   4.661   1.684   2.222  2.0865  2.0679  0.3904
 8062SOL    HW235649   4.663   1.833   2.229 -0.1695  0.1612 -0.8509
 8063SOL     OW35650   3.451   3.130   3.254 -0.3067  0.0494  0.3717
 8063SOL    HW135651   3.495   3.148   3.338 -0.4857 -0.9423  0.6790
 8063SOL    HW235652   3.487   3.202   3.201  1.0457  1.0115  2.5799
 8064SOL     OW35653   1.543   4.270   9.231 -0.0964 -0.1358 -0.1668
 8064SOL    HW135654   1.521   4.352   9.187 -1.5838  0.5750  1.8944
 8064SOL    HW235655   1.575   4.306   9.314 -0.3073 -0.3042 -0.0113
 8065SOL     OW35656   0.355   2.367   3.308  0.6877 -0.1193 -0.2008
 8065SOL    HW135657   0.280   2.312   3.285  2.1125 -1.1454 -2.3741
 8065SOL    HW235658   0.366   2.419   3.228 -1.3871  1.1904  0.3729
 8066SOL     OW35659   1.775   1.465   3.368  0.2023 -0.0572  0.4051
 8066SOL    HW135660   1.808   1.383   3.332 -0.3365  0.4735 -1.3032
 8066SOL    HW235661   1.800   1.457   3.460  2.6595  1.7689 -0.1017
 8067SOL     OW35662   2.227   2.904   8.109 -0.3498  0.1319 -0.5537
 8067SOL    HW135663   2.318   2.896   8.136 -0.4100  1.4936  0.0431
 8067SOL    HW235664   2.216   2.819   8.066  1.2816 -0.3093 -0.0933
 8068SOL     OW35665   0.549   4.360   9.598  0.7598  0.0942  0.6494
 8068SOL    HW135666   0.618   4.302   9.568 -0.4895 -1.0084 -0.1047
 8068SOL    HW235667   0.514   4.322   9.678  1.1876 -0.7765  0.4188
 8069SOL     OW35668   2.029   2.240   9.051 -0.1220 -0.1191  0.7819
 8069SOL    HW135669   2.107   2.295   9.044  0.4674 -0.7789  2.1218
 8069SOL    HW235670   1.984   2.277   9.127 -0.5423  0.9415  0.0030
 8070SOL     OW35671   3.888   3.499  14.291 -0.7039 -0.2497  0.4325
 8070SOL    HW135672   3.879   3.583  14.337 -0.0508 -0.5140  1.0421
 8070SOL    HW235673   3.962   3.455  14.332 -2.0776 -1.2552  1.8183
 8071SOL     OW35674   0.064   4.635  13.112 -0.1351 -0.0490 -0.1141
 8071SOL    HW135675   0.143   4.608  13.065 -0.0985  0.7736 -0.5323
 8071SOL    HW235676   0.001   4.574  13.073 -0.5109  1.2514 -1.5540
 8072SOL     OW35677   1.823   2.307   2.042  0.3959 -0.1373  0.4346
 8072SOL    HW135678   1.765   2.374   2.079  2.1097  2.7924 -2.1440
 8072SOL    HW235679   1.757   2.244   2.013 -1.5760  2.2224 -0.2303
 8073SOL     OW35680   1.255   2.904   4.669 -0.1492  0.2536 -0.3379
 8073SOL    HW135681   1.251   2.857   4.586  1.0647 -0.0515 -0.2216
 8073SOL    HW235682   1.197   2.978   4.652 -0.2535  0.5983  1.4824
 8074SOL     OW35683   3.250   1.899   2.173  0.2459 -0.0341  0.0975
 8074SOL    HW135684   3.196   1.946   2.110  1.3074  2.0815  0.7652
 8074SOL    HW235685   3.249   1.813   2.132  0.3238  0.1654 -0.3241
 8075SOL     OW35686   1.299   0.002   4.531 -0.2320  0.6090  0.3240
 8075SOL    HW135687   1.293   0.049   4.448  0.4709 -2.4275 -1.4564
 8075SOL    HW235688   1.259   0.061   4.596 -0.4117  0.9098 -0.0625
 8076SOL     OW35689   0.906   1.950   6.517 -0.0519  0.3366 -0.5227
 8076SOL    HW135690   0.881   1.862   6.547 -0.3738 -0.1281 -2.1688
 8076SOL    HW235691   0.824   1.997   6.501 -0.6914 -0.6364 -0.0924
 8077SOL     OW35692   4.060   1.212  12.036  0.1450  0.2592  0.2253
 8077SOL    HW135693   4.091   1.124  12.015  0.9921  0.5843  0.1320
 8077SOL    HW235694   4.056   1.240  11.945 -0.3498 -1.2404 -0.2245
 8078SOL     OW35695   3.173   3.188   2.404 -0.0720 -0.0560 -0.0686
 8078SOL    HW135696   3.195   3.216   2.316 -3.7214 -2.5224 -1.7425
 8078SOL    HW235697   3.079   3.171   2.396 -0.3123  0.9482  0.4779
 8079SOL     OW35698   2.460   1.483   4.807  0.0988 -0.0549 -0.5464
 8079SOL    HW135699   2.545   1.527   4.806 -0.1979  0.5185 -0.9404
 8079SOL    HW235700   2.479   1.406   4.753 -1.1053  0.0117 -1.0703
 8080SOL     OW35701   3.603   1.646  15.088 -0.0183 -0.3789 -0.7184
 8080SOL    HW135702   3.580   1.715  15.150  0.2492 -2.5125  1.7562
 8080SOL    HW235703   3.537   1.581  15.109  1.5363 -1.2285  1.5673
 8081SOL     OW35704   2.522   3.758   8.115  0.3688  0.2761  0.4601
 8081SOL    HW135705   2.591   3.779   8.052  0.3856  1.3798  0.8416
 8081SOL    HW235706   2.576   3.783   8.190 -1.2869  1.2368  1.3466
 8082SOL     OW35707   0.444   2.009   8.565  0.1140 -0.0914  0.3778
 8082SOL    HW135708   0.353   1.996   8.537  0.0590  0.3383  0.3623
 8082SOL    HW235709   0.481   1.922   8.548 -0.3795 -0.3736  0.7508
 8083SOL     OW35710   4.205   2.109   6.998  0.3868 -0.0935  0.0702
 8083SOL    HW135711   4.144   2.064   7.055  0.3664  0.7992  0.7645
 8083SOL    HW235712   4.154   2.168   6.942  0.2771  0.9396  1.2529
 8084SOL     OW35713   3.902   3.062  14.701  0.3557  0.4554 -0.0508
 8084SOL    HW135714   3.928   3.004  14.629  0.2909 -0.2602  0.4979
 8084SOL    HW235715   3.922   3.146  14.660 -0.8884  0.1156 -1.3737
 8085SOL     OW35716   0.574   3.067   3.235  0.3818  0.3337 -0.5606
 8085SOL    HW135717   0.663   3.039   3.215  0.0036 -1.1058 -0.1667
 8085SOL    HW235718   0.573   3.030   3.323  0.1158  0.3766 -0.5457
 8086SOL     OW35719   0.199   4.302  11.961  0.0363 -0.0930  0.7014
 8086SOL    HW135720   0.284   4.342  11.944 -1.2518  1.7387 -1.4698
 8086SOL    HW235721   0.223   4.210  11.948  0.0144 -0.3219  2.2388
 8087SOL     OW35722   2.510   3.926   3.373 -0.7197 -0.5687 -0.2690
 8087SOL    HW135723   2.556   3.945   3.291 -0.3751  0.2066  0.1055
 8087SOL    HW235724   2.467   3.845   3.346  0.2082 -1.1354 -0.0415
 8088SOL     OW35725   2.674   1.922  15.174 -0.0394 -0.5497 -0.0481
 8088SOL    HW135726   2.663   1.876  15.091  2.9928 -0.0625 -0.7088
 8088SOL    HW235727   2.678   2.015  15.151  0.6749 -0.5405  0.1221
 8089SOL     OW35728   1.557   0.847  17.434 -0.1037  0.3257  0.6841
 8089SOL    HW135729   1.586   0.931  17.471  2.6494 -0.1076 -0.4739
 8089SOL    HW235730   1.490   0.888  17.380 -1.3272 -2.4018  0.1443
 8090SOL     OW35731   1.454   2.917  17.479 -0.1760  0.3293 -0.7775
 8090SOL    HW135732   1.451   2.957  17.566  0.9658  0.3200 -0.7274
 8090SOL    HW235733   1.428   2.999  17.437 -0.1654 -0.2202 -1.8546
 8091SOL     OW35734   1.639   1.741   8.068  0.4634 -0.3301  0.1204
 8091SOL    HW135735   1.715   1.700   8.108  0.7521  0.5416  0.4544
 8091SOL    HW235736   1.585   1.668   8.038 -1.4511  1.0970  0.1290
 8092SOL     OW35737   1.072   0.916   9.025  0.6642 -0.0080  0.5654
 8092SOL    HW135738   1.112   0.955   9.103  3.0545 -0.6738 -0.3134
 8092SOL    HW235739   0.981   0.933   9.047  0.6241  0.4935  0.0106
 8093SOL     OW35740   2.611   2.376   7.566  0.2302 -0.4353  0.0436
 8093SOL    HW135741   2.660   2.316   7.511  0.2658  0.6381 -1.1036
 8093SOL    HW235742   2.594   2.318   7.640 -0.2275  1.9806  1.8720
 8094SOL     OW35743   3.178   2.656   7.161 -0.0583 -0.0045  0.4791
 8094SOL    HW135744   3.200   2.611   7.243 -0.0212  1.5072  1.3098
 8094SOL    HW235745   3.188   2.744   7.198  1.2905  0.6803 -1.5776
 8095SOL     OW35746   0.403   2.604  17.352 -0.0822  0.2654  0.5082
 8095SOL    HW135747   0.461   2.612  17.428  0.3229 -1.9598  0.4243
 8095SOL    HW235748   0.330   2.653  17.390  0.0822  0.4735  0.5562
 8096SOL     OW35749   4.430   1.308  13.440  0.3360  0.4243 -0.0941
 8096SOL    HW135750   4.450   1.258  13.361  1.2168 -2.3185  1.8832
 8096SOL    HW235751   4.483   1.388  13.435  0.8898  0.0573 -0.0663
 8097SOL     OW35752   3.688   0.211  17.565 -0.2277 -0.1572 -0.3245
 8097SOL    HW135753   3.690   0.302  17.594 -1.5862 -0.0949 -0.4113
 8097SOL    HW235754   3.599   0.212  17.530 -0.1589 -0.6206 -0.5151
 8098SOL     OW35755   1.822   3.085  12.874 -0.3872 -0.2487  0.0819
 8098SOL    HW135756   1.857   3.037  12.949 -1.0045 -0.1164  0.4584
 8098SOL    HW235757   1.903   3.072  12.825  0.8287  3.1182  1.2089
 8099SOL     OW35758   3.351   3.989   6.752  0.7632  0.0231 -0.3072
 8099SOL    HW135759   3.413   3.964   6.821 -0.9263 -3.1761  0.0530
 8099SOL    HW235760   3.407   4.003   6.677 -0.6658  0.4335 -1.3029
 8100SOL     OW35761   3.111   1.954   6.910 -0.0347 -0.3685 -0.2128
 8100SOL    HW135762   3.146   1.945   6.998 -1.7814  1.7868  0.7084
 8100SOL    HW235763   3.196   1.959   6.866  0.5381 -0.2813  0.9114
 8101SOL     OW35764   2.188   1.870   8.726 -0.0365 -0.3579  0.1890
 8101SOL    HW135765   2.134   1.936   8.768 -1.0476 -0.8806 -0.2911
 8101SOL    HW235766   2.167   1.884   8.633 -0.3013 -1.4774  0.0782
 8102SOL     OW35767   2.145   3.521   8.623 -0.1575 -0.4106  0.0127
 8102SOL    HW135768   2.202   3.501   8.698 -1.0555  0.3776  0.9095
 8102SOL    HW235769   2.076   3.575   8.660  0.8439  0.7386  0.1967
 8103SOL     OW35770   0.618   2.932   3.476 -0.1201  0.2271 -0.1050
 8103SOL    HW135771   0.591   2.967   3.561  2.8990 -1.2263  1.4436
 8103SOL    HW235772   0.711   2.919   3.492  0.0935  1.1926 -0.5381
 8104SOL     OW35773   0.898   3.933   8.840 -0.3293 -0.2601 -0.0603
 8104SOL    HW135774   0.918   3.884   8.919 -2.2604  2.0877  1.8809
 8104SOL    HW235775   0.836   3.868   8.805  0.2535 -0.5221 -0.5946
 8105SOL     OW35776   0.843   2.313   8.616  0.4192 -0.0523 -0.7290
 8105SOL    HW135777   0.790   2.304   8.696 -0.2016 -0.1019 -1.1472
 8105SOL    HW235778   0.781   2.351   8.554  1.0032  1.6538 -0.2706
 8106SOL     OW35779   1.100   4.196  13.586  0.9657 -0.1691 -0.7022
 8106SOL    HW135780   1.025   4.232  13.539  0.8285 -1.7005 -1.6467
 8106SOL    HW235781   1.079   4.208  13.679 -0.3405  0.6111 -1.0834
 8107SOL     OW35782   2.657   4.264  14.961 -0.3247 -0.3676 -0.8430
 8107SOL    HW135783   2.726   4.220  14.911 -0.8266  0.9372 -2.7263
 8107SOL    HW235784   2.590   4.195  14.963 -2.4711  1.6633 -1.8119
 8108SOL     OW35785   0.710   0.395   8.942  0.0547 -0.1317  0.1749
 8108SOL    HW135786   0.637   0.404   9.002  0.7278 -2.4510  1.3138
 8108SOL    HW235787   0.776   0.429   9.002  0.3358 -2.0082  0.9135
 8109SOL     OW35788   3.411   3.392   8.622 -0.4758 -0.2560  0.9414
 8109SOL    HW135789   3.424   3.447   8.700  1.0738  1.5545 -0.5900
 8109SOL    HW235790   3.317   3.375   8.633 -0.3636 -0.3627  1.7906
 8110SOL     OW35791   1.430   3.348  12.802 -0.5401 -0.4377  0.6835
 8110SOL    HW135792   1.425   3.441  12.777  1.1579 -1.6253 -4.1244
 8110SOL    HW235793   1.522   3.340  12.825 -0.1795 -0.8726 -0.8833
 8111SOL     OW35794   4.133   3.256  13.929  0.2147  0.3416  0.1627
 8111SOL    HW135795   4.051   3.222  13.892 -0.4195  1.1370  0.8346
 8111SOL    HW235796   4.101   3.344  13.952 -0.2770 -0.4820  2.6249
 8112SOL     OW35797   4.053   0.457   4.608 -0.3349 -0.3710  0.0428
 8112SOL    HW135798   4.050   0.552   4.620  0.0636 -0.3307 -0.1900
 8112SOL    HW235799   3.966   0.425   4.633  0.2995 -0.9653  1.4470
 8113SOL     OW35800   4.617   3.707   8.387  0.5277 -1.3185 -0.2767
 8113SOL    HW135801   4.605   3.657   8.469  0.7888  4.0873  3.0446
 8113SOL    HW235802   4.709   3.732   8.386 -0.7657  3.4494  1.1353
 8114SOL     OW35803   1.782   4.415   4.443 -0.1064  0.0083  0.6705
 8114SOL    HW135804   1.804   4.386   4.531 -0.5185  0.6264  0.9820
 8114SOL    HW235805   1.877   4.424   4.431 -0.3835  1.3351 -0.5922
 8115SOL     OW35806   0.437   2.353   8.156  0.3920 -0.1068  0.2516
 8115SOL    HW135807   0.442   2.329   8.248  2.6650  1.3611  0.5257
 8115SOL    HW235808   0.522   2.392   8.133 -0.1892  0.0186 -1.6841
 8116SOL     OW35809   1.418   2.657   0.638  0.0334 -0.2435  0.2521
 8116SOL    HW135810   1.333   2.614   0.649  0.3874 -1.3842 -1.4145
 8116SOL    HW235811   1.449   2.633   0.550 -0.5104  1.3852 -0.3737
 8117SOL     OW35812   1.086   3.127   4.670 -0.2340 -0.2063  0.1474
 8117SOL    HW135813   1.083   3.206   4.615 -0.2564 -2.0984 -2.5925
 8117SOL    HW235814   1.017   3.070   4.637 -0.1300 -0.4437  0.3484
 8118SOL     OW35815   1.543   4.324   8.835  0.6082 -0.0238 -0.2815
 8118SOL    HW135816   1.570   4.397   8.891 -1.3482  1.9524 -1.8763
 8118SOL    HW235817   1.487   4.278   8.897  1.9999  0.6777  1.5003
 8119SOL     OW35818   4.702   1.249  15.978  0.1225  0.3278  0.3501
 8119SOL    HW135819   0.026   1.328  15.956 -0.3574  0.6850  0.5670
 8119SOL    HW235820   4.704   1.261  16.073  1.0750  0.7483  0.2790
 8120SOL     OW35821   2.761   1.940   4.791 -0.2754  0.0497  0.2099
 8120SOL    HW135822   2.666   1.925   4.785 -0.6763  2.5356  0.4134
 8120SOL    HW235823   2.776   1.964   4.700  0.1783 -0.5855  0.1197
 8121SOL     OW35824   2.391   2.458   5.812 -0.4968 -0.3841 -0.1747
 8121SOL    HW135825   2.449   2.390   5.846 -0.9625 -0.8151 -0.2375
 8121SOL    HW235826   2.416   2.535   5.864  1.6400 -1.9144  1.0444
 8122SOL     OW35827   3.201   1.728  15.007 -0.0958 -0.0046 -0.5297
 8122SOL    HW135828   3.243   1.757  15.087 -1.9608  1.9658 -0.2796
 8122SOL    HW235829   3.282   1.708  14.959  0.9029  0.7640  0.8267
 8123SOL     OW35830   4.498   2.704  16.744 -0.3373 -0.6356  0.1791
 8123SOL    HW135831   4.446   2.784  16.739  1.1844  0.3487 -0.3000
 8123SOL    HW235832   4.585   2.745  16.737 -1.1690  1.1780  0.4524
 8124SOL     OW35833   2.870   2.203  17.385 -0.2846  0.1359  0.1209
 8124SOL    HW135834   2.836   2.238  17.303  1.9024  0.0486 -0.8340
 8124SOL    HW235835   2.959   2.239  17.384 -0.6263  1.0116  1.5490
 8125SOL     OW35836   3.862   2.913   8.089  0.8598 -0.6643  0.7096
 8125SOL    HW135837   3.931   2.966   8.129 -0.0205 -1.5287  3.3934
 8125SOL    HW235838   3.865   2.950   8.001 -0.4598 -2.2700  0.0029
 8126SOL     OW35839   2.458   2.214  14.397 -0.0785 -0.5988  0.0179
 8126SOL    HW135840   2.385   2.158  14.369 -0.3649  0.0443 -0.5018
 8126SOL    HW235841   2.406   2.276  14.447 -0.4275 -0.5847 -0.3582
 8127SOL     OW35842   3.079   4.373   7.902  0.6828 -0.0659  0.1217
 8127SOL    HW135843   3.006   4.338   7.953  0.5612 -1.7411 -1.2099
 8127SOL    HW235844   3.142   4.382   7.973  0.0091  1.3115  0.5566
 8128SOL     OW35845   0.691   0.036   1.103  0.3255 -0.4162 -0.5622
 8128SOL    HW135846   0.620   0.100   1.108  0.2639 -0.5598  0.4756
 8128SOL    HW235847   0.666   4.714   1.023  0.0919 -2.7109  0.8658
 8129SOL     OW35848   3.723   4.249   6.897  0.3376 -0.1268  0.1724
 8129SOL    HW135849   3.699   4.230   6.987 -0.3772 -1.4147 -0.2787
 8129SOL    HW235850   3.817   4.263   6.906  0.1053  0.9928  0.7652
 8130SOL     OW35851   0.840   3.365  11.098  0.9343  0.3903  0.1829
 8130SOL    HW135852   0.875   3.413  11.024 -0.9069  1.8904  0.2747
 8130SOL    HW235853   0.783   3.305  11.051 -0.2669  0.4413  1.5670
 8131SOL     OW35854   1.843   2.116   1.497  0.1943  0.4048 -0.2871
 8131SOL    HW135855   1.814   2.204   1.471  2.2143  0.9934 -0.5325
 8131SOL    HW235856   1.932   2.122   1.462  0.6552 -0.4464  0.7712
 8132SOL     OW35857   2.877   1.456  15.551 -0.4660  0.4681 -0.4870
 8132SOL    HW135858   2.883   1.462  15.646  0.0734 -2.6374 -0.2959
 8132SOL    HW235859   2.799   1.400  15.548  0.5386 -0.9304 -0.7847
 8133SOL     OW35860   2.059   0.941  17.104 -0.1221  0.0951  0.0008
 8133SOL    HW135861   1.987   0.955  17.166 -0.5040 -0.0595 -0.4037
 8133SOL    HW235862   2.134   0.919  17.159 -0.0470 -0.7123 -0.4165
 8134SOL     OW35863   3.526   1.779  11.890 -0.1021 -0.2056  0.4379
 8134SOL    HW135864   3.604   1.735  11.925  1.1236  1.4492 -0.2242
 8134SOL    HW235865   3.528   1.840  11.964  2.7293 -1.5643  1.4634
 8135SOL     OW35866   0.750   2.014   5.395  0.1465 -0.4486  1.1069
 8135SOL    HW135867   0.767   1.966   5.477  3.4020 -1.5844 -0.2357
 8135SOL    HW235868   0.681   2.072   5.426 -1.9977 -1.7586 -1.2283
 8136SOL     OW35869   2.439   1.681   4.003  0.3802  0.5033 -0.3808
 8136SOL    HW135870   2.497   1.724   4.066 -1.4426  0.0030  1.6266
 8136SOL    HW235871   2.486   1.670   3.920  2.1069  0.7567  0.5711
 8137SOL     OW35872   1.362   0.609   4.743  0.2707  0.0076 -0.1915
 8137SOL    HW135873   1.433   0.559   4.704  0.9061  0.6901  0.0939
 8137SOL    HW235874   1.399   0.697   4.752  0.0185 -0.1238  2.3970
 8138SOL     OW35875   3.107   1.920  12.072  0.1337 -0.2532 -0.3017
 8138SOL    HW135876   3.112   1.825  12.060 -2.3535 -0.5116  0.5499
 8138SOL    HW235877   3.145   1.940  11.987 -2.4612  2.0197 -0.9463
 8139SOL     OW35878   0.315   4.440   4.148  0.7479 -0.0324 -0.3711
 8139SOL    HW135879   0.225   4.471   4.134  0.7316  0.0283 -0.1342
 8139SOL    HW235880   0.359   4.482   4.075 -0.0546  1.6889  0.1214
 8140SOL     OW35881   3.027   1.549  17.083 -0.6458  0.3008  0.1814
 8140SOL    HW135882   3.113   1.560  17.124  0.1108  0.6914 -1.5227
 8140SOL    HW235883   2.991   1.492  17.151 -0.8795 -0.2492 -0.4129
 8141SOL     OW35884   0.791   2.428   6.263 -0.1415  0.1437 -0.3018
 8141SOL    HW135885   0.815   2.398   6.175  0.9536  0.5765 -0.1473
 8141SOL    HW235886   0.839   2.370   6.321 -0.1405 -0.0691 -0.5150
 8142SOL     OW35887   3.160   3.722  12.336  0.0267  0.2114  0.0631
 8142SOL    HW135888   3.240   3.774  12.330  0.5318 -0.7179 -1.2743
 8142SOL    HW235889   3.093   3.763  12.282  0.2658 -0.3552 -0.6637
 8143SOL     OW35890   0.488   3.811   0.649  0.5356 -0.4370  0.3140
 8143SOL    HW135891   0.490   3.734   0.704 -0.9300 -0.4501  0.3353
 8143SOL    HW235892   0.485   3.774   0.561 -0.3891  0.2811  0.0429
 8144SOL     OW35893   0.765   0.285   5.584  0.3340  0.2873  0.0343
 8144SOL    HW135894   0.852   0.244   5.588  1.0241  1.5849 -1.8956
 8144SOL    HW235895   0.776   0.368   5.630  2.7171  0.1977 -0.3649
 8145SOL     OW35896   0.062   1.398   2.829  0.1269  0.5318  0.4271
 8145SOL    HW135897   0.092   1.483   2.863  1.3117  0.3213 -0.0842
 8145SOL    HW235898   4.693   1.415   2.821  0.3005  0.7002 -1.4347
 8146SOL     OW35899   4.413   1.959   7.874  0.2803  0.3489  0.0455
 8146SOL    HW135900   4.380   1.883   7.921  0.9756  1.4562  2.2980
 8146SOL    HW235901   4.331   2.005   7.858  0.7386  0.8588 -0.8478
 8147SOL     OW35902   2.591   0.326   2.472  0.4902 -0.0981  0.2163
 8147SOL    HW135903   2.504   0.317   2.432  0.9748 -0.3056 -0.7975
 8147SOL    HW235904   2.622   0.409   2.435  0.7739 -0.9566 -1.4675
 8148SOL     OW35905   0.260   4.219   8.441  0.2051 -0.2116  0.3732
 8148SOL    HW135906   0.167   4.221   8.462  0.5963 -0.2675  2.1140
 8148SOL    HW235907   0.277   4.313   8.444  1.0178 -0.3412 -0.0154
 8149SOL     OW35908   0.257   0.103   8.053 -0.0569  0.4318  0.4995
 8149SOL    HW135909   0.184   0.165   8.049  0.8501  1.4837  0.3802
 8149SOL    HW235910   0.312   0.114   7.976  2.0672 -3.1399  1.4950
 8150SOL     OW35911   0.439   1.552   4.141  0.3521  0.1284 -0.4039
 8150SOL    HW135912   0.529   1.560   4.110  0.0911  5.0314  0.0504
 8150SOL    HW235913   0.415   1.471   4.096 -1.8820  0.5905 -0.0450
 8151SOL     OW35914   3.814   1.379   9.799  0.3927  0.8432 -0.4637
 8151SOL    HW135915   3.815   1.471   9.826 -0.8288  0.3947  1.1159
 8151SOL    HW235916   3.765   1.394   9.719 -0.1559  0.8404 -0.1287
 8152SOL     OW35917   1.210   2.959   3.819  0.3191 -0.0156  0.1466
 8152SOL    HW135918   1.212   2.871   3.782 -0.4770 -0.4014  1.0017
 8152SOL    HW235919   1.239   2.935   3.908  0.6457 -0.0052  0.0430
 8153SOL     OW35920   3.789   4.698  13.355 -0.1506 -0.3022 -0.5377
 8153SOL    HW135921   3.718   4.640  13.329 -1.8360  0.6896  1.8640
 8153SOL    HW235922   3.857   4.638  13.386  2.7601  3.7591  0.9517
 8154SOL     OW35923   3.651   3.800   8.202 -0.0676  0.2593 -1.1423
 8154SOL    HW135924   3.746   3.797   8.210 -0.1653 -0.9869 -0.4520
 8154SOL    HW235925   3.623   3.848   8.280  3.1175  0.2145 -0.0026
 8155SOL     OW35926   4.618   0.172   8.673  0.1714 -0.3066 -0.2194
 8155SOL    HW135927   4.561   0.138   8.742 -1.3012  2.2132 -0.1793
 8155SOL    HW235928   4.566   0.198   8.596  0.4406 -2.3271 -1.0772
 8156SOL     OW35929   1.425   0.821   5.818 -0.0589  0.2733 -0.1321
 8156SOL    HW135930   1.470   0.815   5.734  1.6318  0.5437  0.7614
 8156SOL    HW235931   1.412   0.915   5.833 -0.4536  0.0747  0.7444
 8157SOL     OW35932   1.374   0.747   8.018 -0.6282 -0.1330  0.1729
 8157SOL    HW135933   1.342   0.831   7.985  1.9011  0.4849 -0.6382
 8157SOL    HW235934   1.459   0.778   8.048 -0.5796 -1.7450  1.7457
 8158SOL     OW35935   1.669   0.520   5.664 -0.5835  0.3420  0.0383
 8158SOL    HW135936   1.602   0.468   5.710 -0.8625  1.6504  1.1247
 8158SOL    HW235937   1.750   0.475   5.688 -0.3722 -0.6230 -2.5226
 8159SOL     OW35938   2.649   0.022   9.232 -0.6461 -0.3703  0.0771
 8159SOL    HW135939   2.727   4.693   9.234  0.4167  1.1440 -0.4840
 8159SOL    HW235940   2.685   0.110   9.242  0.1284 -0.7581  0.7061
 8160SOL     OW35941   1.851   4.440   7.260  0.1327  0.4671 -0.0841
 8160SOL    HW135942   1.781   4.435   7.195 -0.3994  0.6652  0.4867
 8160SOL    HW235943   1.925   4.455   7.200 -0.3159  0.5971 -0.6053
 8161SOL     OW35944   1.758   0.616   3.105  0.3085 -0.2381  0.1243
 8161SOL    HW135945   1.672   0.598   3.066  0.9928 -1.0381 -1.0010
 8161SOL    HW235946   1.732   0.690   3.159  1.6377  0.2655  0.0724
 8162SOL     OW35947   3.640   2.255   5.901  0.2680  0.3418 -0.4382
 8162SOL    HW135948   3.697   2.203   5.957 -0.5092 -0.4553 -0.3914
 8162SOL    HW235949   3.661   2.208   5.820  2.8161  1.7314 -0.5882
 8163SOL     OW35950   2.757   4.675   2.736 -1.0463  0.6172  0.5793
 8163SOL    HW135951   2.748   4.581   2.751 -0.5851  0.6448  1.0086
 8163SOL    HW235952   2.684   4.707   2.683  1.3361  1.7229 -2.0183
 8164SOL     OW35953   2.568   3.132  16.558  0.2438  0.3344  0.2879
 8164SOL    HW135954   2.522   3.216  16.552 -0.5541 -0.1715 -0.7577
 8164SOL    HW235955   2.568   3.104  16.467 -1.6911  1.3321 -0.0276
 8165SOL     OW35956   2.919   0.699   2.740  0.8141  0.2667 -0.4312
 8165SOL    HW135957   2.866   0.777   2.760  0.2434  0.0312 -1.0570
 8165SOL    HW235958   2.858   0.644   2.692  1.4677 -2.0317  1.3994
 8166SOL     OW35959   3.117   2.033   4.835  0.3918  0.5577  0.1569
 8166SOL    HW135960   3.171   2.050   4.758  0.4158 -0.3751 -0.0333
 8166SOL    HW235961   3.083   2.121   4.854  0.8815  0.0924  3.2059
 8167SOL     OW35962   1.995   4.261   5.157 -0.3305  0.2880  0.2539
 8167SOL    HW135963   1.956   4.199   5.095  0.7009 -0.1374  0.0312
 8167SOL    HW235964   1.942   4.242   5.235  1.0397 -2.6150  0.4763
 8168SOL     OW35965   1.888   1.152   7.366 -0.2661  0.2122  0.1318
 8168SOL    HW135966   1.937   1.135   7.446 -1.9013  0.3586  1.1600
 8168SOL    HW235967   1.947   1.210   7.318  1.5088 -1.1762  0.6437
 8169SOL     OW35968   3.709   1.982  14.800  0.0399  0.0825  0.0221
 8169SOL    HW135969   3.652   2.053  14.770 -0.2185 -0.4998 -0.8569
 8169SOL    HW235970   3.706   1.938  14.715  2.1363  2.2772 -1.1771
 8170SOL     OW35971   1.525   0.506   3.020  1.0209  0.6192 -0.4555
 8170SOL    HW135972   1.457   0.442   3.041  1.1335  0.4114 -0.7235
 8170SOL    HW235973   1.492   0.524   2.932 -1.5516  0.0081  0.3772
 8171SOL     OW35974   2.827   3.783   7.272  0.0436  0.1678  0.1757
 8171SOL    HW135975   2.758   3.719   7.254 -1.3161  1.6798  0.0987
 8171SOL    HW235976   2.853   3.810   7.184  0.6492 -0.0390  0.2833
 8172SOL     OW35977   1.714   0.293  13.207  0.2630  0.0377  0.5172
 8172SOL    HW135978   1.665   0.271  13.286  1.4181  0.8609  1.4541
 8172SOL    HW235979   1.802   0.259  13.226  1.1818  2.9134  1.3273
 8173SOL     OW35980   1.552   4.282   5.609 -0.3756  0.5912 -0.3791
 8173SOL    HW135981   1.533   4.197   5.568  0.0370  0.0441  0.5647
 8173SOL    HW235982   1.483   4.341   5.579 -0.6546 -0.1273 -1.1318
 8174SOL     OW35983   4.346   0.907   1.742  0.0684  0.1099  0.0437
 8174SOL    HW135984   4.398   0.910   1.662  1.7331 -0.1109  1.1264
 8174SOL    HW235985   4.399   0.838   1.782 -2.4201 -1.7291  0.1953
 8175SOL     OW35986   2.715   2.596  15.364 -0.1847  0.4728 -0.3484
 8175SOL    HW135987   2.780   2.578  15.432  0.8867  0.0223 -1.4714
 8175SOL    HW235988   2.650   2.644  15.415  0.7471  0.6710  0.6439
 8176SOL     OW35989   4.343   1.737   8.029 -0.0891  0.3218  0.0877
 8176SOL    HW135990   4.340   1.658   8.082  2.3468  1.5266  2.0564
 8176SOL    HW235991   4.311   1.714   7.941 -0.0391  0.3206  0.0696
 8177SOL     OW35992   0.412   1.558   8.584 -0.1281  0.2283  0.0111
 8177SOL    HW135993   0.380   1.638   8.542  0.0386  1.7663  2.8035
 8177SOL    HW235994   0.483   1.590   8.639 -1.4110  2.7257  0.2326
 8178SOL     OW35995   0.415   3.309   0.930  0.0998 -0.3450  0.0526
 8178SOL    HW135996   0.465   3.283   1.008 -0.2126  1.7494  0.9528
 8178SOL    HW235997   0.338   3.253   0.928 -1.6260  1.9310  1.4242
 8179SOL     OW35998   4.476   3.546   2.926 -0.5169 -0.2818 -0.5142
 8179SOL    HW135999   4.404   3.509   2.875 -0.1407 -2.0168  0.2270
 8179SOL    HW236000   4.486   3.626   2.873 -1.0322  1.1513  1.5618
 8180SOL     OW36001   3.554   0.418   4.567  0.5786 -0.3422 -0.5114
 8180SOL    HW136002   3.543   0.491   4.627  0.8528 -1.3491  0.7868
 8180SOL    HW236003   3.512   0.360   4.631  1.5390 -1.2431 -0.6922
 8181SOL     OW36004   3.314   0.643  15.788  0.5160  0.0088 -0.1192
 8181SOL    HW136005   3.230   0.689  15.789  0.6102  0.2126 -1.4104
 8181SOL    HW236006   3.360   0.690  15.718  1.8376  0.6166  1.1376
 8182SOL     OW36007   4.546   4.032   0.720  0.2305 -0.2140  0.0088
 8182SOL    HW136008   4.459   3.999   0.698  0.9068 -1.5068 -0.7092
 8182SOL    HW236009   4.544   4.072   0.807  0.6174  0.1086 -0.1336
 8183SOL     OW36010   2.424   3.252   8.989 -0.3741 -0.1763 -0.0990
 8183SOL    HW136011   2.461   3.212   9.068 -0.0902  0.8331  0.2806
 8183SOL    HW236012   2.505   3.277   8.945 -0.8708  2.2515  0.3611
 8184SOL     OW36013   4.150   4.122   5.468 -0.2026 -0.2208  0.1907
 8184SOL    HW136014   4.220   4.060   5.446 -0.5202 -0.1407 -1.0695
 8184SOL    HW236015   4.132   4.156   5.381  1.7303  0.6203  0.1159
 8185SOL     OW36016   2.871   3.252   5.890  0.2607 -0.1105 -0.1698
 8185SOL    HW136017   2.807   3.184   5.871 -2.1989  1.8926  0.9745
 8185SOL    HW236018   2.866   3.267   5.984  0.2445 -0.1352 -0.1669
 8186SOL     OW36019   3.803   4.096  12.417 -0.0392 -0.1350 -0.3210
 8186SOL    HW136020   3.826   4.032  12.349  1.4842  0.0186  0.0400
 8186SOL    HW236021   3.708   4.096  12.411 -0.2787 -1.1153  3.1877
 8187SOL     OW36022   0.312   3.675   8.462 -0.3129  0.5229 -0.5399
 8187SOL    HW136023   0.308   3.770   8.477  1.9218  0.2336  1.7995
 8187SOL    HW236024   0.324   3.686   8.367 -0.9824 -1.1061 -0.8120
 8188SOL     OW36025   2.888   1.123   6.575  0.0172 -0.0548 -0.1513
 8188SOL    HW136026   2.868   1.035   6.542  0.1846  0.0513 -0.5340
 8188SOL    HW236027   2.814   1.128   6.635  0.0488 -1.0325 -0.0299
 8189SOL     OW36028   1.360   0.129   4.932 -0.9988  0.5963  0.0733
 8189SOL    HW136029   1.286   0.087   4.975  0.7801 -0.9311  1.6525
 8189SOL    HW236030   1.423   0.134   5.003 -0.2630  3.0763 -0.7422
 8190SOL     OW36031   1.906   1.131   2.125 -0.6543  0.6295  0.6262
 8190SOL    HW136032   1.997   1.152   2.107 -0.8367 -0.0103 -0.9976
 8190SOL    HW236033   1.894   1.170   2.212  2.2297 -0.5841  1.5777
 8191SOL     OW36034   2.685   2.072  12.340  0.4238 -0.2678 -0.1697
 8191SOL    HW136035   2.758   2.017  12.312 -0.4052 -1.4862  0.0677
 8191SOL    HW236036   2.621   2.038  12.278  0.0038  0.4510 -0.1291
 8192SOL     OW36037   3.218   1.635  17.255  0.1336  0.0196  0.6667
 8192SOL    HW136038   3.180   1.699  17.315  1.1543  0.3600  0.9499
 8192SOL    HW236039   3.311   1.645  17.274 -0.0936  0.1720  1.6739
 8193SOL     OW36040   3.148   2.564   1.424  0.1076 -0.1187 -0.2650
 8193SOL    HW136041   3.160   2.544   1.331  0.3556 -0.9324 -0.0588
 8193SOL    HW236042   3.053   2.578   1.419  0.1517 -0.0403 -0.8866
 8194SOL     OW36043   3.676   4.049   9.165  0.8075  0.0254 -0.4716
 8194SOL    HW136044   3.741   4.035   9.096  2.5731 -1.5257  1.5201
 8194SOL    HW236045   3.598   4.064   9.111 -0.5506  2.0142  2.0772
 8195SOL     OW36046   2.992   2.006  16.376 -0.2874  0.7655  0.2750
 8195SOL    HW136047   3.061   1.959  16.329  0.6841  2.5572 -0.0763
 8195SOL    HW236048   2.974   1.949  16.450  0.0773 -0.8873 -0.9190
 8196SOL     OW36049   0.181   4.341   6.869 -0.2353 -0.5717 -0.0351
 8196SOL    HW136050   0.216   4.381   6.949 -3.0871  1.5583  0.1853
 8196SOL    HW236051   0.108   4.402   6.859 -1.0141 -1.2488  1.4953
 8197SOL     OW36052   4.492   1.370   6.011 -0.2000 -0.2836 -0.6135
 8197SOL    HW136053   4.473   1.454   5.969 -1.2951  0.5093  1.4740
 8197SOL    HW236054   4.471   1.389   6.102  0.4806  0.9676 -0.7171
 8198SOL     OW36055   2.015   2.108   1.726  0.2048 -0.4066  0.1139
 8198SOL    HW136056   1.939   2.057   1.756  1.0761 -1.9158 -0.2630
 8198SOL    HW236057   2.083   2.043   1.712  0.6378  0.1652 -0.4407
 8199SOL     OW36058   1.602   3.302   3.509  0.3183  0.2116  0.5695
 8199SOL    HW136059   1.584   3.209   3.494  0.3702  0.8033 -3.0485
 8199SOL    HW236060   1.647   3.301   3.594 -1.4229  0.6810  1.5028
 8200SOL     OW36061   3.327   1.830   1.656 -0.2433  0.1249 -0.4525
 8200SOL    HW136062   3.415   1.797   1.638  0.1594  1.5306 -1.1218
 8200SOL    HW236063   3.330   1.923   1.635 -0.8425  0.7182  2.0751
 8201SOL     OW36064   4.704   3.936   5.987 -0.0157  0.1833  0.3551
 8201SOL    HW136065   0.049   3.917   5.925  1.2771  0.8824  1.6108
 8201SOL    HW236066   0.030   3.951   6.066 -0.9126 -0.6748  1.1084
 8202SOL     OW36067   0.654   1.448   9.850 -0.3945  0.5649  0.1102
 8202SOL    HW136068   0.696   1.523   9.808  2.0532 -0.6504  0.3789
 8202SOL    HW236069   0.618   1.486   9.930 -1.2798  1.0740 -0.5367
 8203SOL     OW36070   2.527   2.460   2.754  0.0176  0.1446  0.2582
 8203SOL    HW136071   2.484   2.542   2.778  0.6878  0.0619  1.7074
 8203SOL    HW236072   2.463   2.424   2.693  0.5231 -0.0117 -0.1806
 8204SOL     OW36073   2.029   4.254  14.925  0.0104  0.1841 -0.3578
 8204SOL    HW136074   2.119   4.223  14.913  0.6539  2.1137 -0.6305
 8204SOL    HW236075   2.035   4.348  14.941  1.2370 -0.1334  1.1367
 8205SOL     OW36076   2.357   0.572   0.460  0.3609 -0.2681 -0.7204
 8205SOL    HW136077   2.372   0.615   0.544  1.1950 -1.0934 -0.4499
 8205SOL    HW236078   2.319   0.489   0.489  0.4829 -0.4564 -1.1012
 8206SOL     OW36079   2.471   1.023  13.244  0.1755  0.0418  0.3874
 8206SOL    HW136080   2.432   0.971  13.174  0.3482  1.3992 -0.7307
 8206SOL    HW236081   2.421   1.103  13.230 -0.6309 -0.4150  0.6587
 8207SOL     OW36082   0.448   0.077   6.798  0.5622 -0.4388  0.5335
 8207SOL    HW136083   0.462   0.035   6.883 -1.1739  1.3892  1.7171
 8207SOL    HW236084   0.494   0.158   6.821  0.8689 -1.0444  2.0316
 8208SOL     OW36085   2.241   2.374   6.164 -0.0106  0.0365  0.1907
 8208SOL    HW136086   2.243   2.295   6.110 -0.1332  0.4727 -0.4450
 8208SOL    HW236087   2.164   2.353   6.218  0.7223 -0.0361  1.2133
 8209SOL     OW36088   1.401   2.563   4.073  0.2797  0.2521  0.1104
 8209SOL    HW136089   1.435   2.570   4.162  0.7525 -0.9552  0.0271
 8209SOL    HW236090   1.454   2.622   4.020  1.6202 -1.6212 -0.6301
 8210SOL     OW36091   1.286   4.356   5.991  0.1411 -0.5209 -0.3068
 8210SOL    HW136092   1.276   4.262   6.006  0.1836 -0.5164 -0.2480
 8210SOL    HW236093   1.358   4.366   5.929  0.2460  2.3634  0.2814
 8211SOL     OW36094   1.416   3.163  10.755 -0.1776 -0.0272 -0.1249
 8211SOL    HW136095   1.439   3.249  10.718 -1.3044  1.4251  2.6128
 8211SOL    HW236096   1.508   3.155  10.781 -0.7293 -2.1146  1.1760
 8212SOL     OW36097   2.355   0.893   8.153 -0.3586  0.4112 -0.3242
 8212SOL    HW136098   2.343   0.922   8.243  0.0841 -1.6815  0.4068
 8212SOL    HW236099   2.355   0.799   8.168 -1.5276  1.0166  3.3883
 8213SOL     OW36100   2.364   4.529  10.393  0.9450  0.1425 -0.2537
 8213SOL    HW136101   2.331   4.552  10.306  1.4535  0.3783 -0.3841
 8213SOL    HW236102   2.456   4.554  10.383  0.8398  1.5674  2.3909
 8214SOL     OW36103   2.604   2.934  12.342 -0.2015  0.1073  0.2266
 8214SOL    HW136104   2.593   2.842  12.320  1.5762  0.8013 -3.5315
 8214SOL    HW236105   2.685   2.960  12.299  0.6469 -1.0347  1.1711
 8215SOL     OW36106   2.643   3.985   7.669  0.5303  0.4353 -0.3521
 8215SOL    HW136107   2.680   4.073   7.660  0.3587  0.6870  1.3492
 8215SOL    HW236108   2.698   3.942   7.735  2.1447  0.0937 -1.9214
 8216SOL     OW36109   4.324   3.627   8.469  0.0267 -0.3778 -0.3863
 8216SOL    HW136110   4.284   3.594   8.549  0.2914 -0.1341 -0.1507
 8216SOL    HW236111   4.418   3.623   8.490  0.1969  0.2074 -1.0315
 8217SOL     OW36112   4.595   3.469   0.915 -0.2106  0.1387 -0.2324
 8217SOL    HW136113   4.577   3.418   0.836 -1.1181  1.4691 -0.8932
 8217SOL    HW236114   4.684   3.438   0.929 -0.6869 -0.4979  1.3576
 8218SOL     OW36115   1.897   0.639   9.840  0.3590  0.3540 -0.3306
 8218SOL    HW136116   1.893   0.686   9.923  2.3638 -0.6928  0.3435
 8218SOL    HW236117   1.804   0.636   9.818  0.5021  1.0239 -1.0026
 8219SOL     OW36118   3.892   3.179  14.158  0.8881  0.1171  0.2200
 8219SOL    HW136119   3.826   3.229  14.109  0.7187 -0.4176 -0.1043
 8219SOL    HW236120   3.962   3.167  14.093 -1.2124 -0.5463 -1.9485
 8220SOL     OW36121   1.311   1.236   1.187  0.6280  0.7030 -0.1792
 8220SOL    HW136122   1.355   1.196   1.112 -1.9366 -0.3378 -1.1513
 8220SOL    HW236123   1.314   1.160   1.244  0.0822 -0.0554 -1.1510
 8221SOL     OW36124   4.359   2.754  15.305  0.3335  0.3869 -0.3925
 8221SOL    HW136125   4.448   2.769  15.338  0.0785  1.3308 -0.1396
 8221SOL    HW236126   4.357   2.834  15.252  2.2512  0.7314  0.0387
 8222SOL     OW36127   3.085   1.226   0.379 -0.2547  0.1298  0.3434
 8222SOL    HW136128   3.137   1.300   0.411 -0.5490  0.9277 -1.0057
 8222SOL    HW236129   3.152   1.181   0.327 -0.8719 -0.0420 -0.2969
 8223SOL     OW36130   2.945   1.526  11.684 -0.0055  0.2823 -0.0997
 8223SOL    HW136131   2.899   1.607  11.661 -0.1576 -0.0949 -1.1259
 8223SOL    HW236132   3.021   1.546  11.630 -1.1658 -0.7949 -2.1311
 8224SOL     OW36133   2.793   3.017  14.855 -0.1598 -0.5247 -0.4817
 8224SOL    HW136134   2.822   2.951  14.917 -1.7737 -1.2553 -0.4930
 8224SOL    HW236135   2.878   3.042  14.819 -0.9239  3.7365  0.5920
 8225SOL     OW36136   3.637   1.948   2.916 -0.3879  0.8164  0.1481
 8225SOL    HW136137   3.637   2.031   2.868 -3.4107  0.2304 -0.8561
 8225SOL    HW236138   3.554   1.952   2.962 -0.4766  0.0839  0.0451
 8226SOL     OW36139   3.093   3.325  15.639  0.4944 -0.5418  0.0424
 8226SOL    HW136140   3.014   3.338  15.587  0.8873 -1.0126 -0.6799
 8226SOL    HW236141   3.159   3.339  15.570 -0.2240  1.1907 -0.2996
 8227SOL     OW36142   4.136   2.239   8.896 -0.1772  0.4579 -0.3606
 8227SOL    HW136143   4.042   2.231   8.881 -0.4042  1.1853  0.6638
 8227SOL    HW236144   4.144   2.302   8.968 -2.0769  0.7939 -0.4450
 8228SOL     OW36145   0.591   1.061   6.101 -0.3600 -0.0168 -0.3676
 8228SOL    HW136146   0.501   1.046   6.130 -0.1660  0.7957  0.6407
 8228SOL    HW236147   0.631   1.052   6.188  1.2776  0.0916 -1.1189
 8229SOL     OW36148   2.875   1.779   1.799 -0.1829  0.3405  0.2654
 8229SOL    HW136149   2.894   1.837   1.725 -1.3021  3.1859  2.2190
 8229SOL    HW236150   2.781   1.784   1.814  0.0295  0.0839  1.7196
 8230SOL     OW36151   3.952   3.471  14.041  0.3554  0.1275 -0.1435
 8230SOL    HW136152   3.971   3.467  14.135  2.2686 -1.4646 -0.6020
 8230SOL    HW236153   3.856   3.474  14.040  0.3004 -1.8624  0.6193
 8231SOL     OW36154   1.060   1.439   6.705 -0.0065  0.4149 -0.6950
 8231SOL    HW136155   1.154   1.457   6.698  0.0705  0.3349  0.0960
 8231SOL    HW236156   1.060   1.346   6.682 -1.9189  0.0520  0.7538
 8232SOL     OW36157   4.148   2.998  14.945  0.2051 -0.2777  0.2063
 8232SOL    HW136158   4.201   3.001  15.024 -1.1814  2.0736  1.0469
 8232SOL    HW236159   4.192   2.927  14.898 -2.4295 -2.7476  1.5364
 8233SOL     OW36160   0.069   2.367  13.759 -0.0657  0.5778  0.4507
 8233SOL    HW136161   0.116   2.448  13.742 -0.0185  0.3711 -0.3643
 8233SOL    HW236162   0.138   2.301  13.766 -0.4175  0.0913 -0.7155
 8234SOL     OW36163   0.517   0.320   2.203 -0.4388 -0.1793 -0.1168
 8234SOL    HW136164   0.588   0.257   2.212  0.3070  0.6626 -0.1338
 8234SOL    HW236165   0.478   0.300   2.288 -2.6566  0.5752 -0.9504
 8235SOL     OW36166   2.635   2.193  10.232 -0.5910  0.3270  0.4530
 8235SOL    HW136167   2.700   2.243  10.182 -0.3823 -1.1743 -0.7676
 8235SOL    HW236168   2.601   2.139  10.161 -0.7216 -0.9888  1.5061
 8236SOL     OW36169   1.388   1.762  14.537  0.2320  0.5120  0.4269
 8236SOL    HW136170   1.441   1.716  14.472  1.2698  2.9156 -0.4224
 8236SOL    HW236171   1.311   1.785  14.484 -1.1273  0.7873  2.5112
 8237SOL     OW36172   2.878   4.543   9.245 -0.1382  0.7349  0.2873
 8237SOL    HW136173   2.896   4.552   9.339  0.2226 -0.2871  0.3185
 8237SOL    HW236174   2.962   4.553   9.202 -1.8416 -1.1818 -3.5081
 8238SOL     OW36175   0.777   3.484   7.441  0.6774 -0.0754 -0.4039
 8238SOL    HW136176   0.766   3.475   7.536  1.4442 -1.1603 -0.4259
 8238SOL    HW236177   0.707   3.549   7.429 -0.9053 -1.7161 -0.0717
 8239SOL     OW36178   2.273   1.177   8.339 -0.1125 -0.4112 -0.0097
 8239SOL    HW136179   2.215   1.233   8.287 -0.3974  0.0431  0.8002
 8239SOL    HW236180   2.228   1.147   8.417 -0.0409 -0.7274 -0.0912
 8240SOL     OW36181   2.108   2.793   6.346 -0.2919  0.0869  0.2497
 8240SOL    HW136182   2.164   2.816   6.420 -0.0783 -2.4642  0.8832
 8240SOL    HW236183   2.165   2.735   6.295  0.8721  0.0945  1.5386
 8241SOL     OW36184   1.701   2.403   0.238 -0.4597  0.1414  0.2740
 8241SOL    HW136185   1.620   2.399   0.289 -1.0799 -1.3640 -0.8397
 8241SOL    HW236186   1.710   2.497   0.220 -0.7245 -0.0651 -0.9280
 8242SOL     OW36187   0.727   0.524  11.140  0.2833 -0.0232 -0.0159
 8242SOL    HW136188   0.741   0.515  11.046 -1.6001 -0.6213 -0.2304
 8242SOL    HW236189   0.779   0.602  11.160  0.5382  0.4057 -2.3629
 8243SOL     OW36190   4.480   1.244  16.794 -0.1668  0.0718 -0.1528
 8243SOL    HW136191   4.391   1.277  16.778 -0.3070 -0.8874 -1.2934
 8243SOL    HW236192   4.488   1.268  16.886 -0.4675 -2.2046  0.4418
 8244SOL     OW36193   1.917   3.643   8.702  0.3601  0.2967 -0.1504
 8244SOL    HW136194   1.902   3.616   8.792  2.5100 -2.3630 -0.5828
 8244SOL    HW236195   1.856   3.716   8.707  0.0954  0.0841 -0.3076
 8245SOL     OW36196   1.058   0.143   7.798 -0.1174 -0.2650 -0.7849
 8245SOL    HW136197   1.108   0.175   7.873  0.7742 -1.0646 -1.0422
 8245SOL    HW236198   0.967   0.129   7.824 -0.2896 -0.2601 -1.3821
 8246SOL     OW36199   4.194   2.122   7.934  0.0260 -0.1615 -0.1591
 8246SOL    HW136200   4.117   2.176   7.915 -0.2590 -0.9783 -1.3254
 8246SOL    HW236201   4.255   2.193   7.953 -0.9735  0.1813  1.7270
 8247SOL     OW36202   0.721   3.190   3.884 -0.5070 -0.3359 -0.1061
 8247SOL    HW136203   0.790   3.194   3.951  0.5087  0.5317 -1.2029
 8247SOL    HW236204   0.678   3.272   3.909  1.4583  0.6989 -0.0656
 8248SOL     OW36205   3.809   1.783  11.669  0.2300 -0.5844 -0.2603
 8248SOL    HW136206   3.729   1.833  11.685  1.3073  0.2767  2.4822
 8248SOL    HW236207   3.862   1.829  11.735  0.4833 -0.2577 -0.6946
 8249SOL     OW36208   4.328   1.373  11.647 -0.0632 -0.8201 -0.1667
 8249SOL    HW136209   4.266   1.438  11.614  0.2264 -0.6767 -0.4296
 8249SOL    HW236210   4.415   1.405  11.623 -0.9844  0.8258 -1.3268
 8250SOL     OW36211   2.997   3.252   5.352  0.0915 -0.0008 -0.3644
 8250SOL    HW136212   2.974   3.262   5.259  0.4584  0.0950 -0.4455
 8250SOL    HW236213   3.011   3.158   5.363 -0.5059  0.1008  1.1940
 8251SOL     OW36214   2.849   1.917  13.240 -0.5203 -0.2663  0.6853
 8251SOL    HW136215   2.790   1.882  13.305 -0.4900 -0.2068  0.7447
 8251SOL    HW236216   2.934   1.888  13.274  0.5478  0.7300 -1.0828
 8252SOL     OW36217   1.471   0.590   2.752  0.6674  0.4378  0.1863
 8252SOL    HW136218   1.380   0.619   2.753  0.2225 -0.8562 -1.3678
 8252SOL    HW236219   1.517   0.672   2.731  0.2019  0.7310  0.3299
 8253SOL     OW36220   0.979   1.557   4.503  0.2544 -0.2911 -0.6062
 8253SOL    HW136221   1.049   1.496   4.480 -0.3651 -1.2830  0.1396
 8253SOL    HW236222   0.940   1.582   4.419  0.8441 -0.2918 -0.8790
 8254SOL     OW36223   4.561   2.064   0.673  0.0934  0.2985 -0.1528
 8254SOL    HW136224   4.601   2.115   0.743  0.0694 -0.9572  0.7774
 8254SOL    HW236225   4.631   2.032   0.617  0.6592 -0.2241  0.8528
 8255SOL     OW36226   2.622   3.714   3.021 -0.0409 -0.0539  0.7619
 8255SOL    HW136227   2.625   3.758   3.106 -2.9459  1.4057  0.1177
 8255SOL    HW236228   2.633   3.625   3.054  2.5796  0.3875  1.1060
 8256SOL     OW36229   3.807   4.623   0.663 -0.4303 -0.2007  0.4503
 8256SOL    HW136230   3.862   4.700   0.673  0.4640 -0.7005 -0.5974
 8256SOL    HW236231   3.723   4.664   0.640 -0.4829 -1.1060 -0.9883
 8257SOL     OW36232   1.177   4.252   5.323 -0.0871  0.4685 -0.2956
 8257SOL    HW136233   1.241   4.293   5.381  2.4991 -2.6616 -0.9224
 8257SOL    HW236234   1.115   4.323   5.310  0.4862  1.1855  0.8257
 8258SOL     OW36235   0.329   3.773   2.566  0.1567  1.1906  0.0607
 8258SOL    HW136236   0.409   3.721   2.561 -0.7521 -0.0719 -1.4770
 8258SOL    HW236237   0.264   3.714   2.529  0.1576  0.9167  0.5031
 8259SOL     OW36238   2.666   2.570   6.878  0.0299  0.2665  0.1861
 8259SOL    HW136239   2.586   2.518   6.869 -0.0727  0.4867 -0.1848
 8259SOL    HW236240   2.729   2.502   6.856 -0.6288  0.0624 -1.0464
 8260SOL     OW36241   1.395   0.958   1.011 -1.3068 -0.2417 -0.6451
 8260SOL    HW136242   1.417   0.886   0.952  2.5988  1.9354 -1.8156
 8260SOL    HW236243   1.416   0.924   1.098 -2.2999 -3.8604 -1.8281
 8261SOL     OW36244   2.285   4.012   7.696  0.4859 -0.0276  0.0723
 8261SOL    HW136245   2.340   4.032   7.771  0.2428  0.1976  0.1909
 8261SOL    HW236246   2.230   4.090   7.690 -1.8168 -1.7217 -0.8294
 8262SOL     OW36247   2.182   3.823   4.198  0.0196  0.0387 -0.2651
 8262SOL    HW136248   2.100   3.773   4.195  0.6773 -1.1491  2.1030
 8262SOL    HW236249   2.167   3.893   4.261 -0.9984 -0.1312 -0.3206
 8263SOL     OW36250   1.468   1.749  10.927 -0.8473 -0.5039  0.5475
 8263SOL    HW136251   1.522   1.803  10.985 -1.5143 -0.1085  0.8038
 8263SOL    HW236252   1.521   1.671  10.912 -1.0348 -0.3190 -1.0429
 8264SOL     OW36253   2.734   1.274   4.103  0.5306 -0.1543 -0.3831
 8264SOL    HW136254   2.773   1.227   4.177 -0.6976 -1.1602 -0.3772
 8264SOL    HW236255   2.704   1.351   4.152  0.4726 -0.5580  0.2036
 8265SOL     OW36256   3.823   0.448   4.796  0.4155 -0.2645  0.2386
 8265SOL    HW136257   3.756   0.437   4.728  1.7447  2.4205 -1.5052
 8265SOL    HW236258   3.832   0.359   4.832 -0.0136  0.3732  1.9294
 8266SOL     OW36259   0.062   1.307  16.799  0.4233 -0.4413  0.4570
 8266SOL    HW136260   0.083   1.397  16.773 -1.9733  0.1505  0.5859
 8266SOL    HW236261   4.693   1.307  16.783  0.5368  0.9108 -0.2023
 8267SOL     OW36262   1.259   2.853   4.100 -0.4519 -0.3611  0.0879
 8267SOL    HW136263   1.328   2.875   4.163 -0.8420 -0.9182  0.7120
 8267SOL    HW236264   1.209   2.793   4.155 -2.8783 -0.0080 -1.7414
 8268SOL     OW36265   2.039   2.494   1.343 -0.0927 -0.5710 -0.0678
 8268SOL    HW136266   1.961   2.438   1.346 -0.5267  0.0003 -1.0544
 8268SOL    HW236267   2.059   2.483   1.436  0.8682 -1.8757 -0.4213
 8269SOL     OW36268   1.614   1.135  17.286  0.1770 -0.4548  0.3482
 8269SOL    HW136269   1.665   1.151  17.366 -1.5870  2.7412  0.8236
 8269SOL    HW236270   1.671   1.071  17.244  0.6929 -0.0289  0.3973
 8270SOL     OW36271   0.891   3.124   8.195 -0.3463 -0.1470 -0.0901
 8270SOL    HW136272   0.896   3.103   8.102  0.7217 -1.0755  0.1878
 8270SOL    HW236273   0.845   3.044   8.221 -0.3709 -0.2708 -0.5123
 8271SOL     OW36274   3.475   3.158   4.312 -0.0091  0.0592 -0.6087
 8271SOL    HW136275   3.440   3.226   4.370 -0.3547 -1.9779  1.5537
 8271SOL    HW236276   3.496   3.206   4.232 -0.0668  1.0870 -0.0152
 8272SOL     OW36277   3.086   4.277  16.628  0.9046 -0.2102 -0.7610
 8272SOL    HW136278   3.054   4.187  16.626 -0.2518  0.2424 -2.2453
 8272SOL    HW236279   3.073   4.312  16.540 -2.2379  0.0519 -0.1762
 8273SOL     OW36280   1.812   2.797   8.444  0.1121 -0.2289 -0.6222
 8273SOL    HW136281   1.828   2.756   8.360  3.2623 -1.4826  0.5755
 8273SOL    HW236282   1.831   2.889   8.423  1.2287 -0.8451 -2.2397
 8274SOL     OW36283   3.260   2.793   5.864 -0.1754 -0.3573 -0.2220
 8274SOL    HW136284   3.348   2.833   5.861 -0.4292  0.1451 -0.8518
 8274SOL    HW236285   3.211   2.874   5.877 -1.1865 -0.8668 -0.9077
 8275SOL     OW36286   0.914   0.976   7.890 -0.4319 -0.2814  0.4657
 8275SOL    HW136287   0.875   1.050   7.938 -2.3262 -0.9840  0.0086
 8275SOL    HW236288   0.943   0.926   7.966  0.2483 -0.2954  0.1895
 8276SOL     OW36289   1.437   2.977   0.053  0.1136  0.1384 -0.2949
 8276SOL    HW136290   1.393   2.897   0.082  1.0295  0.0145  0.7579
 8276SOL    HW236291   1.418   3.052   0.109  0.9936 -0.4291  0.7603
 8277SOL     OW36292   2.941   4.464   6.728 -0.4834  0.3346  0.6352
 8277SOL    HW136293   3.022   4.450   6.776 -0.8970 -2.8806  0.3880
 8277SOL    HW236294   2.967   4.407   6.656 -0.6977 -1.3177  1.8736
 8278SOL     OW36295   3.751   3.455  16.022 -0.0452  0.6269  0.6274
 8278SOL    HW136296   3.724   3.365  16.005  2.2299  0.4028 -1.9531
 8278SOL    HW236297   3.730   3.498  15.939 -0.9918  0.6255  0.8615
 8279SOL     OW36298   2.918   2.943   7.056  0.2138 -0.0273 -0.3405
 8279SOL    HW136299   2.845   2.884   7.039 -1.4940  1.3614  2.0990
 8279SOL    HW236300   2.988   2.886   7.087 -1.3063 -1.8415 -0.2445
 8280SOL     OW36301   2.450   0.421  14.523  0.2496 -0.3771  0.7373
 8280SOL    HW136302   2.520   0.445  14.463  0.1279  1.7052  1.4412
 8280SOL    HW236303   2.389   0.484  14.485  0.4677  0.1681  1.2925
 8281SOL     OW36304   4.621   0.729   2.142 -0.0720  0.0581 -0.2910
 8281SOL    HW136305   4.700   0.680   2.119 -0.3380 -0.0931 -0.8737
 8281SOL    HW236306   4.612   0.713   2.236 -1.5001 -0.2073 -0.4767
 8282SOL     OW36307   3.836   2.512  13.259 -0.0442  0.2245 -0.0194
 8282SOL    HW136308   3.771   2.493  13.327  1.9325  0.4296  1.9369
 8282SOL    HW236309   3.895   2.439  13.279  0.0408  0.1122 -0.7071
 8283SOL     OW36310   4.379   0.769   2.877 -0.2682  0.6452 -0.1212
 8283SOL    HW136311   4.316   0.728   2.818  1.2140  0.1655 -1.3578
 8283SOL    HW236312   4.351   0.732   2.961  0.9622 -1.0857 -0.4786
 8284SOL     OW36313   3.309   0.098   3.726 -1.1247  0.1344 -0.0028
 8284SOL    HW136314   3.268   0.114   3.641  1.9292 -1.9243 -1.9030
 8284SOL    HW236315   3.399   0.125   3.707 -1.8223  2.8103  0.5659
 8285SOL     OW36316   3.326   2.883   3.231  0.8997 -0.2719 -0.1091
 8285SOL    HW136317   3.294   2.864   3.319  1.2864  0.0862  0.1116
 8285SOL    HW236318   3.383   2.954   3.262 -0.7454  1.9209 -2.1664
 8286SOL     OW36319   2.198   1.551  14.032  0.1734 -0.1530  0.4153
 8286SOL    HW136320   2.206   1.635  14.077  1.0011  0.4451 -0.8444
 8286SOL    HW236321   2.288   1.532  14.005 -0.1917 -1.3119  0.0303
 8287SOL     OW36322   2.021   0.150   3.051 -0.8694 -0.0941  0.2584
 8287SOL    HW136323   1.978   0.129   2.968 -1.3344 -0.7028  0.6514
 8287SOL    HW236324   1.944   0.183   3.099 -0.5928  2.4789 -1.0559
 8288SOL     OW36325   2.438   2.085  10.395 -0.6009 -0.0175 -0.1130
 8288SOL    HW136326   2.422   2.013  10.334 -0.6710  0.6898 -0.9253
 8288SOL    HW236327   2.516   2.126  10.357 -1.1587  1.8180  0.7684
 8289SOL     OW36328   3.437   0.090   1.972  0.4035  0.6380  0.1160
 8289SOL    HW136329   3.351   0.127   1.990 -1.0905 -2.3374 -1.0343
 8289SOL    HW236330   3.480   0.170   1.942  1.6922  0.2441  0.8644
 8290SOL     OW36331   0.493   4.227   1.740 -0.0329  0.5316  0.4419
 8290SOL    HW136332   0.538   4.303   1.777  3.2761 -0.3675 -1.7230
 8290SOL    HW236333   0.441   4.197   1.815  1.1577 -1.3826  0.5061
 8291SOL     OW36334   1.358   0.846   4.512 -0.0936  0.3674 -0.0076
 8291SOL    HW136335   1.421   0.896   4.564  2.0352 -2.9256  0.6019
 8291SOL    HW236336   1.398   0.759   4.509 -1.0897 -0.1486  1.3294
 8292SOL     OW36337   2.413   2.963   5.149  0.3379 -0.1878 -0.1146
 8292SOL    HW136338   2.363   2.884   5.168  1.4299 -0.3205  2.1638
 8292SOL    HW236339   2.485   2.950   5.210  2.7017  1.3898 -2.6016
 8293SOL     OW36340   2.897   1.296   7.859  0.2391 -0.0243  0.1708
 8293SOL    HW136341   2.901   1.231   7.789 -1.4650  0.0824 -0.0105
 8293SOL    HW236342   2.824   1.260   7.909 -0.9673 -0.0595 -1.6004
 8294SOL     OW36343   2.685   0.900  15.449 -0.4072  0.9212 -0.2927
 8294SOL    HW136344   2.627   0.937  15.382  1.1866  3.6615 -0.1788
 8294SOL    HW236345   2.682   0.813  15.410  1.3763  0.3879  0.7816
 8295SOL     OW36346   4.286   3.884   3.335  0.2104 -0.6195  1.1288
 8295SOL    HW136347   4.222   3.819   3.308  0.2633  0.2931 -1.2599
 8295SOL    HW236348   4.338   3.891   3.254 -2.4823 -1.2318 -0.6636
 8296SOL     OW36349   4.200   1.751   3.405  0.5095 -0.1519 -1.0893
 8296SOL    HW136350   4.196   1.832   3.353  2.6211  0.3500 -0.4575
 8296SOL    HW236351   4.135   1.696   3.361 -1.6446  2.6463 -1.4442
 8297SOL     OW36352   1.916   3.246   8.176 -0.7245  0.2787  0.9579
 8297SOL    HW136353   1.975   3.186   8.131 -0.2615  1.5877 -0.1783
 8297SOL    HW236354   1.980   3.312   8.204  1.0643 -0.6885 -0.8820
 8298SOL     OW36355   3.926   1.590   6.411 -0.8270 -0.0394  0.2311
 8298SOL    HW136356   3.837   1.554   6.417 -0.7331 -0.5803 -1.6098
 8298SOL    HW236357   3.960   1.551   6.491  0.1099 -1.7673 -1.0184
 8299SOL     OW36358   3.466   1.427   1.585 -0.4746  0.0966 -0.0180
 8299SOL    HW136359   3.415   1.494   1.631 -1.6686  0.5552 -1.9843
 8299SOL    HW236360   3.448   1.351   1.641 -0.7256  0.5282  0.4916
 8300SOL     OW36361   3.439   4.032   0.964  0.4158 -0.1029 -0.1192
 8300SOL    HW136362   3.348   4.007   0.983  0.1189  1.6110  0.7081
 8300SOL    HW236363   3.458   4.111   1.015  0.6658  0.0451 -0.4476
 8301SOL     OW36364   4.518   4.078   8.095  0.3210 -0.7732 -0.6033
 8301SOL    HW136365   4.500   4.032   8.177  0.4475  0.2647  0.0074
 8301SOL    HW236366   4.490   4.166   8.121 -0.1292 -1.3535  0.8922
 8302SOL     OW36367   3.449   1.486   0.723 -0.8998 -0.4322  0.4017
 8302SOL    HW136368   3.491   1.415   0.770  0.1583 -1.1657 -1.6925
 8302SOL    HW236369   3.376   1.504   0.783  0.0015 -0.1586  1.4084
 8303SOL     OW36370   1.926   0.068   5.510 -0.2766 -0.9107  0.0196
 8303SOL    HW136371   1.892   0.045   5.596 -3.0359 -1.4771 -1.2444
 8303SOL    HW236372   1.972   4.717   5.474  1.7255 -1.0911  2.9534
 8304SOL     OW36373   2.672   1.235   8.040 -0.1069 -0.1018 -0.5895
 8304SOL    HW136374   2.661   1.249   8.134 -2.8266 -0.6733 -0.8357
 8304SOL    HW236375   2.605   1.291   8.000 -0.8328 -0.1718  0.5038
 8305SOL     OW36376   0.175   2.167   5.181  0.3039  0.5119 -0.3991
 8305SOL    HW136377   0.158   2.074   5.192  4.1799 -0.2525 -0.7436
 8305SOL    HW236378   0.087   2.190   5.152  0.7459  1.6267 -0.8335
 8306SOL     OW36379   4.147   1.271   1.725  0.2764 -0.1733 -0.0175
 8306SOL    HW136380   4.192   1.260   1.808 -1.4360 -1.7463  0.7133
 8306SOL    HW236381   4.096   1.189   1.728 -1.6321  1.0504  1.0055
 8307SOL     OW36382   0.506   1.552   7.514  0.8306  0.4718  0.0563
 8307SOL    HW136383   0.549   1.615   7.456  0.6666  0.4595 -0.0775
 8307SOL    HW236384   0.458   1.500   7.450  1.2460  1.5957 -1.1692
 8308SOL     OW36385   0.259   2.740   6.323  0.0465  0.0782 -0.0084
 8308SOL    HW136386   0.337   2.793   6.305 -0.4701  0.4232 -1.1975
 8308SOL    HW236387   0.202   2.807   6.360 -0.6664  0.7383 -2.2950
 8309SOL     OW36388   2.590   1.641  15.270  0.2602  0.6863 -0.2098
 8309SOL    HW136389   2.592   1.686  15.354 -2.3411 -2.0881  1.3045
 8309SOL    HW236390   2.685   1.650  15.262  0.1587  1.3945 -0.6272
 8310SOL     OW36391   4.724   1.521   6.861  0.1779 -0.3504 -0.4235
 8310SOL    HW136392   4.636   1.515   6.898  0.1934  5.2589  0.5034
 8310SOL    HW236393   0.001   1.613   6.833 -1.2843  0.5240  2.3656
 8311SOL     OW36394   0.383   0.014   1.312 -0.3530 -0.3218  0.3069
 8311SOL    HW136395   0.435   0.069   1.253  1.4793 -0.1804  2.0768
 8311SOL    HW236396   0.382   0.058   1.397 -2.1180  1.8541 -0.8061
 8312SOL     OW36397   2.608   1.749   2.421  0.3700  0.0733  0.2098
 8312SOL    HW136398   2.688   1.704   2.448  0.6099  0.0383 -0.5627
 8312SOL    HW236399   2.596   1.703   2.337  0.5013  1.2986 -0.4783
 8313SOL     OW36400   2.578   0.907   3.470  0.2205 -0.1254  0.0246
 8313SOL    HW136401   2.541   0.890   3.556  0.2102 -2.0631 -0.3627
 8313SOL    HW236402   2.608   0.816   3.465 -1.8142 -0.9147  2.1428
 8314SOL     OW36403   1.429   0.101   6.011  0.2320 -0.1402  0.0151
 8314SOL    HW136404   1.473   0.181   6.040  0.6151 -0.1018 -0.6929
 8314SOL    HW236405   1.509   0.050   6.023  0.4661 -0.2822 -2.2411
 8315SOL     OW36406   0.178   0.441   4.423 -0.0228  0.5408 -0.0170
 8315SOL    HW136407   0.165   0.347   4.436 -1.8567  0.5446 -1.8499
 8315SOL    HW236408   0.087   0.462   4.403 -0.4707 -0.8902  0.4624
 8316SOL     OW36409   4.379   4.086   6.165 -0.5877 -0.1059 -0.0785
 8316SOL    HW136410   4.460   4.124   6.200 -1.1723  0.8308  0.2569
 8316SOL    HW236411   4.405   3.994   6.176  0.8443  0.1967 -0.9405
 8317SOL     OW36412   1.436   2.649  13.107  0.4996 -0.0450 -0.1051
 8317SOL    HW136413   1.371   2.588  13.071 -0.3401  0.9323 -0.2310
 8317SOL    HW236414   1.373   2.702  13.156  0.8379  2.4586 -2.3705
 8318SOL     OW36415   0.146   3.677   8.844  0.4696  0.2685 -0.2297
 8318SOL    HW136416   0.128   3.619   8.770  2.9486 -1.6417  0.6750
 8318SOL    HW236417   0.084   3.645   8.909 -0.2226 -3.0476 -2.4999
 8319SOL     OW36418   3.727   3.210   4.434 -0.3208  0.2162 -0.5062
 8319SOL    HW136419   3.661   3.171   4.376  0.1772 -2.7570  0.9291
 8319SOL    HW236420   3.678   3.242   4.510 -1.7302  0.2659 -1.4277
 8320SOL     OW36421   4.063   1.593  16.777 -0.2738 -0.0487 -0.1443
 8320SOL    HW136422   4.063   1.532  16.851 -1.6465 -0.3097 -0.3700
 8320SOL    HW236423   4.155   1.611  16.756 -0.7931  0.1410 -2.2640
 8321SOL     OW36424   2.665   1.486   9.119  0.2777 -0.3760 -0.5423
 8321SOL    HW136425   2.727   1.532   9.063  0.1463 -0.7592 -0.9997
 8321SOL    HW236426   2.709   1.480   9.204 -1.0625  1.5377  0.2990
 8322SOL     OW36427   1.679   2.150   8.071  0.2698  0.1519  0.3407
 8322SOL    HW136428   1.627   2.114   8.143 -0.0074  0.6072  0.3707
 8322SOL    HW236429   1.646   2.090   8.004 -1.0796  0.4900  0.6993
 8323SOL     OW36430   3.105   3.205   4.029 -0.2842 -0.0587  0.7076
 8323SOL    HW136431   3.098   3.207   4.124  2.7621 -1.6617  0.9776
 8323SOL    HW236432   3.170   3.271   4.006 -1.4859  0.5469 -0.9187
 8324SOL     OW36433   2.538   2.682   7.183  0.1354  0.3726 -0.4303
 8324SOL    HW136434   2.516   2.602   7.231  0.4405 -0.9799 -2.5477
 8324SOL    HW236435   2.493   2.748   7.236  0.2730  0.8817 -0.9446
 8325SOL     OW36436   2.225   0.369  11.861  0.1003 -0.1471 -0.4872
 8325SOL    HW136437   2.286   0.407  11.923 -0.9921  2.6542 -1.1462
 8325SOL    HW236438   2.167   0.315  11.915  0.3511 -1.9955 -2.0412
 8326SOL     OW36439   0.132   3.406   7.717 -0.2909  0.1406  0.4447
 8326SOL    HW136440   0.179   3.389   7.635 -0.5954 -1.2943  0.5656
 8326SOL    HW236441   0.107   3.498   7.708 -1.1001 -0.0352  0.9408
 8327SOL     OW36442   3.944   1.660  12.166  0.4269 -0.0597  0.0493
 8327SOL    HW136443   4.011   1.723  12.139  1.8720 -1.0897  1.2080
 8327SOL    HW236444   3.987   1.625  12.245 -0.0561  0.3305  0.4882
 8328SOL     OW36445   2.792   2.917   9.366  0.3941  0.0229  0.3658
 8328SOL    HW136446   2.737   2.990   9.395  0.4993 -0.0762  0.8029
 8328SOL    HW236447   2.855   2.906   9.437  0.5493  3.2647  0.7372
 8329SOL     OW36448   0.995   2.794   7.478  0.3436 -0.2510 -0.3417
 8329SOL    HW136449   0.961   2.733   7.544 -0.6801  1.2922  0.5418
 8329SOL    HW236450   1.062   2.739   7.437 -0.1083 -1.2236  0.2105
 8330SOL     OW36451   2.577   4.000   9.232 -0.4972 -0.2337 -0.4055
 8330SOL    HW136452   2.642   4.062   9.264  1.6885 -1.4426 -2.4636
 8330SOL    HW236453   2.519   3.987   9.306 -0.4253  0.3760 -0.2362
 8331SOL     OW36454   3.590   1.955  15.428  0.6353  0.1706  0.0107
 8331SOL    HW136455   3.511   1.944  15.481  0.2476 -3.7476 -1.3789
 8331SOL    HW236456   3.594   2.050  15.426 -1.1592  0.2534  0.5695
 8332SOL     OW36457   3.305   3.180   6.969 -0.5775 -0.0401 -0.0656
 8332SOL    HW136458   3.372   3.155   6.905 -1.9539 -1.2611 -1.0316
 8332SOL    HW236459   3.341   3.133   7.045 -1.6506  0.6254  0.8491
 8333SOL     OW36460   2.595   1.893   1.641 -0.0831  0.2215  0.2444
 8333SOL    HW136461   2.639   1.969   1.679 -0.4492 -0.0329  1.2058
 8333SOL    HW236462   2.511   1.928   1.612  0.0277 -0.2476 -0.6181
 8334SOL     OW36463   2.388   0.034  11.786  0.1608 -0.8503 -0.2540
 8334SOL    HW136464   2.459   0.047  11.723  0.3644 -1.8632 -0.2285
 8334SOL    HW236465   2.435   0.034  11.868  2.5804  3.7012 -1.6796
 8335SOL     OW36466   0.866   3.750  15.437  0.3422 -0.5569 -0.5835
 8335SOL    HW136467   0.869   3.721  15.346  0.5044 -2.8740  0.1646
 8335SOL    HW236468   0.854   3.668  15.486 -0.9640 -0.7644 -1.2409
 8336SOL     OW36469   0.808   1.093   4.429  0.0012 -0.3652 -0.4062
 8336SOL    HW136470   0.881   1.070   4.372 -0.6733 -0.7686 -1.0947
 8336SOL    HW236471   0.853   1.082   4.513 -1.3985  0.3399  0.4317
 8337SOL     OW36472   2.231   4.204   9.668 -0.3508 -0.0649 -0.1467
 8337SOL    HW136473   2.181   4.140   9.719  0.0033 -1.4772 -1.5285
 8337SOL    HW236474   2.160   4.266   9.654 -1.0674 -1.0884 -1.1113
 8338SOL     OW36475   4.011   2.455  17.180 -0.4015 -0.4524  0.0822
 8338SOL    HW136476   4.087   2.415  17.223 -0.4095  0.7641  1.2430
 8338SOL    HW236477   4.023   2.543  17.218 -0.2179 -0.9648  1.2319
 8339SOL     OW36478   0.943   2.335   0.398 -0.0001 -0.1433  0.2754
 8339SOL    HW136479   0.849   2.341   0.386  0.2058  2.9127  0.2874
 8339SOL    HW236480   0.958   2.351   0.491  1.1018 -1.2147  0.2877
 8340SOL     OW36481   1.235   4.360   1.761  0.2658 -0.3037 -0.2221
 8340SOL    HW136482   1.323   4.385   1.732  0.1468  0.7122  0.2819
 8340SOL    HW236483   1.255   4.342   1.852 -0.8604  4.0046  0.8840
 8341SOL     OW36484   0.774   0.204  11.109 -0.2300 -0.3406  0.0561
 8341SOL    HW136485   0.783   0.290  11.151  0.5795 -1.3099  1.9123
 8341SOL    HW236486   0.706   0.226  11.046  1.1427  1.2563 -0.8559
 8342SOL     OW36487   3.396   1.815   2.671 -0.5632  0.1703  0.0500
 8342SOL    HW136488   3.390   1.906   2.697  2.2985  0.3057  0.1931
 8342SOL    HW236489   3.491   1.807   2.671 -0.6199 -0.5882 -0.7990
 8343SOL     OW36490   4.087   4.231  13.924 -0.3918 -0.0740 -0.9307
 8343SOL    HW136491   4.060   4.139  13.932 -0.9773  0.3253  1.6650
 8343SOL    HW236492   4.082   4.268  14.012 -0.4429 -3.0762  0.3321
 8344SOL     OW36493   0.214   3.147   6.725 -0.1951 -0.2034 -0.0467
 8344SOL    HW136494   0.149   3.194   6.671  1.1713  1.2175 -0.4488
 8344SOL    HW236495   0.285   3.128   6.663 -1.0335 -2.7964 -0.2111
 8345SOL     OW36496   0.698   2.533  10.865  0.3452  0.7677 -0.2968
 8345SOL    HW136497   0.651   2.614  10.846  0.3052  1.1339  1.3979
 8345SOL    HW236498   0.767   2.549  10.801 -1.9138 -0.8574 -3.1513
 8346SOL     OW36499   4.645   1.631   2.987 -0.4228  0.0845 -0.5545
 8346SOL    HW136500   4.555   1.599   2.992 -1.0001  1.6362 -1.0208
 8346SOL    HW236501   4.640   1.701   3.052  0.3324  1.2182 -1.7285
 8347SOL     OW36502   0.188   1.069  16.486 -0.4436  0.1408 -0.0819
 8347SOL    HW136503   0.218   1.155  16.457  0.2697 -0.2345 -0.4351
 8347SOL    HW236504   0.096   1.078  16.462 -0.7812 -1.2656  0.6974
 8348SOL     OW36505   4.093   4.702   2.848 -0.2664  0.2743 -0.0989
 8348SOL    HW136506   4.179   4.706   2.889 -0.4677  2.5847  0.1017
 8348SOL    HW236507   4.033   4.692   2.921 -1.7667  1.0063 -1.2166
 8349SOL     OW36508   2.915   1.939   1.569 -0.8266  0.1291  0.4921
 8349SOL    HW136509   2.894   1.936   1.476  0.5557  2.3793  0.1301
 8349SOL    HW236510   2.882   2.025   1.594 -0.2383  0.6819 -0.7116
 8350SOL     OW36511   2.354   3.272   7.048  0.7449  0.2802  0.1411
 8350SOL    HW136512   2.372   3.350   7.100 -2.6680  4.3112 -4.6612
 8350SOL    HW236513   2.371   3.310   6.961  2.0537 -1.2357 -0.2693
 8351SOL     OW36514   3.001   0.282   9.783 -0.7764 -0.2072  0.1164
 8351SOL    HW136515   3.004   0.189   9.805 -2.5452 -0.4795 -0.7812
 8351SOL    HW236516   2.951   0.321   9.855 -0.0169  0.1806  0.4314
 8352SOL     OW36517   3.565   0.862   3.615 -0.2793 -0.3024  0.5487
 8352SOL    HW136518   3.518   0.929   3.665  0.2315  0.8051 -0.4692
 8352SOL    HW236519   3.519   0.782   3.639 -3.3219  1.5338  0.8801
 8353SOL     OW36520   1.724   3.860   1.736 -0.3283 -0.2550  0.1633
 8353SOL    HW136521   1.640   3.849   1.691 -0.7671 -1.6276  1.3193
 8353SOL    HW236522   1.715   3.810   1.817 -0.9464  0.5770  0.6037
 8354SOL     OW36523   1.730   1.259   4.681 -0.3890  0.4291  0.2816
 8354SOL    HW136524   1.702   1.325   4.617 -0.4136  0.5011  0.3661
 8354SOL    HW236525   1.696   1.297   4.762  0.9253  0.9612  0.5972
 8355SOL     OW36526   4.374   3.983   5.130  0.5664  0.2540 -0.4509
 8355SOL    HW136527   4.286   3.982   5.093  1.3815 -0.5297 -2.3551
 8355SOL    HW236528   4.355   3.948   5.217  0.4858  0.3536 -0.4283
 8356SOL     OW36529   2.923   0.481   2.524 -0.1039  0.1292 -0.0921
 8356SOL    HW136530   2.858   0.509   2.460  0.8218  2.8628  0.1440
 8356SOL    HW236531   2.928   0.386   2.513  0.6739 -0.0453  1.7521
 8357SOL     OW36532   2.641   2.685  12.822  0.3651 -0.2971  0.3031
 8357SOL    HW136533   2.594   2.634  12.756  0.6906 -0.3285  0.0995
 8357SOL    HW236534   2.702   2.717  12.756 -0.3059  1.3515  0.4898
 8358SOL     OW36535   3.497   1.082   3.745 -0.0421  0.2735  0.4134
 8358SOL    HW136536   3.463   1.086   3.835  0.3992  1.2221  0.5313
 8358SOL    HW236537   3.561   1.153   3.748 -1.1228  1.2227  1.3929
 8359SOL     OW36538   1.275   3.101   7.601 -0.3999  0.1207 -0.3579
 8359SOL    HW136539   1.318   3.031   7.651 -0.6111 -0.1596 -0.5686
 8359SOL    HW236540   1.329   3.105   7.522  2.1513 -3.1041  1.2434
 8360SOL     OW36541   0.307   4.380   5.155  0.1876  0.2204 -0.4245
 8360SOL    HW136542   0.297   4.374   5.250 -2.5059 -1.5068 -0.8247
 8360SOL    HW236543   0.225   4.339   5.125  1.0577 -1.0651 -1.0391
 8361SOL     OW36544   3.859   4.042   7.925  0.2401  0.4884  0.1260
 8361SOL    HW136545   3.878   4.118   7.869  3.6558 -1.9596 -2.0524
 8361SOL    HW236546   3.801   3.986   7.873 -2.3018  1.4119  1.9976
 8362SOL     OW36547   2.106   3.378   9.151 -0.3074 -0.3657  0.0679
 8362SOL    HW136548   2.135   3.341   9.068 -1.7880 -0.1605 -0.5537
 8362SOL    HW236549   2.107   3.470   9.125  1.3918 -0.5441 -0.4686
 8363SOL     OW36550   1.517   3.576   1.158  0.2341  0.1045  0.1048
 8363SOL    HW136551   1.450   3.643   1.145  1.0411  1.3838  2.5466
 8363SOL    HW236552   1.593   3.624   1.122  0.1232  0.9091  0.9523
 8364SOL     OW36553   1.492   0.278   1.883 -0.3282  0.7832  0.0588
 8364SOL    HW136554   1.425   0.246   1.822  0.2671 -0.9030  0.2943
 8364SOL    HW236555   1.562   0.221   1.850 -1.0084  0.0788 -0.1564
 8365SOL     OW36556   1.642   2.145  17.564  0.5928  0.2866 -0.1910
 8365SOL    HW136557   1.736   2.151  17.582  0.3859  2.8534 -0.0743
 8365SOL    HW236558   1.630   2.093  17.484 -0.8477  1.0754 -0.4898
 8366SOL     OW36559   4.042   1.150   1.981 -0.3933  0.2421 -0.2344
 8366SOL    HW136560   4.049   1.077   1.920 -1.9300 -1.8620  2.1157
 8366SOL    HW236561   4.130   1.187   1.990 -1.0521  2.5207 -3.0122
 8367SOL     OW36562   1.401   0.500  14.836  0.1415  0.4406  0.1120
 8367SOL    HW136563   1.383   0.498  14.742  0.9504 -0.5170 -0.0210
 8367SOL    HW236564   1.462   0.427  14.844  0.5301  0.9234  1.5517
 8368SOL     OW36565   2.572   0.116   5.636  0.2233 -0.4078  0.5660
 8368SOL    HW136566   2.593   0.190   5.693 -1.0220 -0.6610  1.3553
 8368SOL    HW236567   2.654   0.086   5.598  1.1058  0.5242  1.7520
 8369SOL     OW36568   4.427   2.855   2.427 -0.1777 -0.0410 -0.0393
 8369SOL    HW136569   4.373   2.804   2.366  1.1882  2.5254 -3.3783
 8369SOL    HW236570   4.464   2.781   2.475 -1.1463  0.4085  1.3847
 8370SOL     OW36571   2.377   3.411   6.806  0.2068 -0.2369 -0.0063
 8370SOL    HW136572   2.446   3.422   6.740  1.6371 -0.5514  1.4556
 8370SOL    HW236573   2.314   3.358   6.755  2.3506 -2.5866 -0.1833
 8371SOL     OW36574   0.900   0.015   2.611 -0.0292 -0.4004 -0.0510
 8371SOL    HW136575   0.962   0.085   2.591 -0.4874  1.2190  4.1852
 8371SOL    HW236576   0.926   4.716   2.700 -0.5255  0.4022  0.3095
 8372SOL     OW36577   4.698   3.688   5.555  0.7813 -0.0875 -0.4017
 8372SOL    HW136578   4.682   3.727   5.469 -2.1674 -1.6958 -0.5958
 8372SOL    HW236579   4.627   3.624   5.561  2.1238 -1.6441 -1.0547
 8373SOL     OW36580   0.893   3.143  12.148 -0.0282  0.3486 -0.1334
 8373SOL    HW136581   0.887   3.073  12.212  0.0620 -2.3777 -3.1183
 8373SOL    HW236582   0.928   3.213  12.203  0.0666  1.3999 -1.5160
 8374SOL     OW36583   0.165   4.015   0.457 -0.2563  0.3648  0.3483
 8374SOL    HW136584   0.246   4.011   0.407 -1.1568  1.1118 -1.1703
 8374SOL    HW236585   0.155   3.922   0.475 -0.1828  0.6126  1.6490
 8375SOL     OW36586   1.392   1.872   3.461  0.1325 -0.1375 -0.3078
 8375SOL    HW136587   1.304   1.904   3.438 -0.0128 -0.5340 -0.2997
 8375SOL    HW236588   1.429   1.952   3.498  1.1488  0.4113 -2.5428
 8376SOL     OW36589   1.140   0.503   3.099  0.2539  0.1750  0.5450
 8376SOL    HW136590   1.217   0.449   3.116  0.1044 -0.2224 -0.0615
 8376SOL    HW236591   1.150   0.540   3.011 -3.3580  0.1634  0.1547
 8377SOL     OW36592   2.237   0.868  17.636 -0.3189 -0.0842 -0.1539
 8377SOL    HW136593   2.317   0.847  17.684 -1.7856 -1.9626  1.4754
 8377SOL    HW236594   2.168   0.834  17.693 -0.4829  1.7795  0.7591
 8378SOL     OW36595   0.421   3.234   4.730  0.4327 -0.7210  0.0697
 8378SOL    HW136596   0.488   3.169   4.750  1.2043 -0.3723 -1.4239
 8378SOL    HW236597   0.485   3.303   4.715  0.5751 -0.7995  0.3184
 8379SOL     OW36598   0.422   0.136  16.311  0.3005  0.0864 -0.4916
 8379SOL    HW136599   0.514   0.121  16.335  0.2342  1.2763  0.4924
 8379SOL    HW236600   0.395   0.192  16.383 -0.3415  2.2543 -2.3998
 8380SOL     OW36601   4.566   1.142   4.698 -0.1465  0.0006 -0.3076
 8380SOL    HW136602   4.523   1.152   4.613  2.0333  1.7954 -1.1915
 8380SOL    HW236603   4.508   1.074   4.733 -0.4844  0.5233  0.1536
 8381SOL     OW36604   1.591   1.492   3.648 -0.5231  0.0552 -0.1003
 8381SOL    HW136605   1.581   1.582   3.615 -0.7455 -0.3709 -1.1813
 8381SOL    HW236606   1.503   1.468   3.619 -0.4459  1.3268 -1.3665
 8382SOL     OW36607   2.266   2.990  17.200 -0.1810 -0.0182  0.2356
 8382SOL    HW136608   2.247   3.022  17.112  3.8812  0.2588 -0.5419
 8382SOL    HW236609   2.246   2.896  17.196  0.0755  0.0848 -2.9669
 8383SOL     OW36610   4.305   0.420   2.295  0.1664  0.0309  0.3797
 8383SOL    HW136611   4.289   0.419   2.389 -0.1292  0.6202  0.3370
 8383SOL    HW236612   4.274   0.509   2.279 -0.7761 -0.2970  0.3679
 8384SOL     OW36613   1.406   3.875  12.025 -0.3129  0.3154  0.0878
 8384SOL    HW136614   1.331   3.845  11.974 -0.9396  0.5009  0.9068
 8384SOL    HW236615   1.365   3.878  12.111  2.5456 -1.8284  1.5202
 8385SOL     OW36616   3.571   3.596   7.155  0.0365 -0.3780 -0.8425
 8385SOL    HW136617   3.666   3.591   7.141  0.0691  1.5153 -1.3294
 8385SOL    HW236618   3.550   3.505   7.173 -0.5528  0.0185  0.4515
 8386SOL     OW36619   0.356   3.152   9.543  0.0327  0.1258  0.4066
 8386SOL    HW136620   0.441   3.151   9.586  1.3173 -0.7756 -2.1647
 8386SOL    HW236621   0.360   3.236   9.496  0.2367 -0.0513  0.1069
 8387SOL     OW36622   4.101   2.146   6.029  0.2928  0.6146 -0.1710
 8387SOL    HW136623   4.196   2.160   6.023  0.1871  0.7675 -1.3004
 8387SOL    HW236624   4.107   2.074   6.093  2.0777 -0.7912 -1.9408
 8388SOL     OW36625   4.188   0.020   3.209  0.1131 -0.4547  0.3559
 8388SOL    HW136626   4.145   4.668   3.172 -0.8935  0.9790 -1.4655
 8388SOL    HW236627   4.243   0.040   3.133 -0.9763 -0.2868 -0.3953
 8389SOL     OW36628   3.806   4.416   4.451  0.0641  0.2604  0.3792
 8389SOL    HW136629   3.849   4.471   4.516  2.6325 -1.0640 -0.1668
 8389SOL    HW236630   3.866   4.413   4.376  1.3978  1.2578  1.4013
 8390SOL     OW36631   1.618   1.327   5.409  0.0962  0.4256  0.2853
 8390SOL    HW136632   1.575   1.379   5.477 -0.0448  0.8417 -0.1251
 8390SOL    HW236633   1.582   1.366   5.330  0.6875 -0.9459 -0.6700
 8391SOL     OW36634   4.314   3.135   8.123 -0.5302  0.1547 -0.1749
 8391SOL    HW136635   4.377   3.091   8.066  1.3039  3.2735 -0.5794
 8391SOL    HW236636   4.353   3.223   8.123 -0.6601  0.2131 -0.5466
 8392SOL     OW36637   2.601   0.991   7.738 -0.2118 -0.2348  0.0602
 8392SOL    HW136638   2.647   0.970   7.819 -1.8928  0.1725  1.1181
 8392SOL    HW236639   2.604   0.908   7.691  3.1915  0.2869 -0.5837
 8393SOL     OW36640   1.873   1.651  11.025  0.3475  0.5341  0.1962
 8393SOL    HW136641   1.820   1.628  10.948 -0.1780  0.4853  0.5661
 8393SOL    HW236642   1.811   1.699  11.081  1.7622  3.1188 -0.4765
 8394SOL     OW36643   2.800   0.704   8.369  0.5790  0.1055  0.4075
 8394SOL    HW136644   2.851   0.702   8.450 -0.0023  0.4417  0.7789
 8394SOL    HW236645   2.832   0.631   8.316  2.3809  1.6855 -0.6727
 8395SOL     OW36646   1.017   0.563   8.103 -0.2388  0.3153  0.2696
 8395SOL    HW136647   1.083   0.525   8.044 -1.5587 -1.5935  0.0055
 8395SOL    HW236648   1.030   0.493   8.167 -0.2703  1.2895  1.3367
 8396SOL     OW36649   0.913   0.320   3.343  0.5153  0.4378 -0.3420
 8396SOL    HW136650   0.969   0.262   3.395  0.0166 -0.1274 -0.4268
 8396SOL    HW236651   0.938   0.408   3.372  0.8312  0.1438  0.2792
 8397SOL     OW36652   4.449   2.034   4.860  0.7558 -0.0748 -0.5341
 8397SOL    HW136653   4.433   2.105   4.798 -0.3295  0.9593  0.9080
 8397SOL    HW236654   4.369   1.982   4.853 -0.5390  2.0057 -1.1904
 8398SOL     OW36655   4.663   0.263   5.473  0.4759 -0.3758  0.2239
 8398SOL    HW136656   4.723   0.290   5.542 -0.1901  0.1288  0.6052
 8398SOL    HW236657   4.611   0.196   5.518 -0.0726 -0.2955 -0.2882
 8399SOL     OW36658   0.941   1.558   3.466 -0.8032 -0.3996  0.7605
 8399SOL    HW136659   0.941   1.515   3.381  1.8233  1.5217 -0.1904
 8399SOL    HW236660   1.033   1.582   3.459 -0.7830 -0.3946  1.0220
 8400SOL     OW36661   3.867   1.383   8.642 -0.1382  0.4430  0.8472
 8400SOL    HW136662   3.887   1.301   8.687  0.7370 -0.1086 -0.5501
 8400SOL    HW236663   3.949   1.432   8.640 -0.7818  1.4694 -1.0223
 8401SOL     OW36664   3.962   1.233  16.259  0.2829  0.6839 -0.1794
 8401SOL    HW136665   3.952   1.244  16.164 -0.0770 -2.6701 -0.5364
 8401SOL    HW236666   3.893   1.169  16.280  2.6601 -2.5449 -2.2039
 8402SOL     OW36667   1.761   1.310   0.024  0.1689 -0.1520  0.3138
 8402SOL    HW136668   1.731   1.342   0.109 -0.3882 -0.9659  0.4152
 8402SOL    HW236669   1.851   1.344   0.024  1.0380 -2.4386 -0.4084
 8403SOL     OW36670   3.670   1.433   6.920  0.4540 -0.1752 -0.3482
 8403SOL    HW136671   3.600   1.396   6.867  1.7811 -0.5539 -1.8301
 8403SOL    HW236672   3.730   1.464   6.853  1.0605  0.1029  0.3276
 8404SOL     OW36673   0.205   2.140  13.685  0.3522  0.0528  0.9688
 8404SOL    HW136674   0.159   2.102  13.611  1.1869  0.3244  0.3018
 8404SOL    HW236675   0.165   2.091  13.757  2.1939  0.6915  2.4398
 8405SOL     OW36676   0.009   4.259   4.585  0.2430 -0.0343  0.5503
 8405SOL    HW136677   0.069   4.225   4.652  2.4230 -0.6977 -1.7214
 8405SOL    HW236678   4.712   4.177   4.539  0.4618 -1.6670  3.3515
 8406SOL     OW36679   2.796   4.132   5.027  0.5337 -0.0999 -0.2155
 8406SOL    HW136680   2.861   4.088   5.081  0.2866 -0.6231 -0.3512
 8406SOL    HW236681   2.718   4.118   5.081  0.0862 -0.6468 -1.0000
 8407SOL     OW36682   3.921   4.571   4.639 -0.1935  0.5015  0.1712
 8407SOL    HW136683   3.966   4.575   4.723 -1.0129  0.4192  0.6115
 8407SOL    HW236684   3.912   4.666   4.633 -0.6903  0.4077 -0.5982
 8408SOL     OW36685   3.847   3.709   7.045 -0.1913  0.3685  0.3716
 8408SOL    HW136686   3.871   3.793   7.085  0.8907 -1.1346  2.8491
 8408SOL    HW236687   3.826   3.742   6.957  0.1649 -2.1377 -0.6417
 8409SOL     OW36688   2.141   4.046  11.165 -0.5777  0.4641  0.8113
 8409SOL    HW136689   2.135   4.104  11.089  0.3626  0.2085  0.5415
 8409SOL    HW236690   2.158   3.958  11.130  2.6667  0.1595  3.1007
 8410SOL     OW36691   4.137   1.358   3.891 -0.1140 -0.1140 -0.4983
 8410SOL    HW136692   4.104   1.337   3.803 -0.1294  0.0985 -0.5440
 8410SOL    HW236693   4.054   1.348   3.936 -0.4955  1.2415 -0.9218
 8411SOL     OW36694   0.899   0.502   2.144  0.1398 -0.1099 -0.4758
 8411SOL    HW136695   0.883   0.561   2.070  2.1066 -1.7502 -2.2392
 8411SOL    HW236696   0.991   0.521   2.163  0.3314  0.8388 -2.3353
 8412SOL     OW36697   0.234   2.736   4.372 -0.1345 -0.7020  0.6385
 8412SOL    HW136698   0.298   2.799   4.405 -0.3575 -0.5980  0.8721
 8412SOL    HW236699   0.272   2.712   4.287  0.6844  1.0107  0.5188
 8413SOL     OW36700   2.517   1.251   7.718  0.2863  0.2364  0.5660
 8413SOL    HW136701   2.457   1.259   7.793 -0.0019 -1.1191  0.4827
 8413SOL    HW236702   2.553   1.164   7.734 -0.4166 -0.2462 -0.4742
 8414SOL     OW36703   3.112   3.444   5.087  0.2833  0.2032 -0.0475
 8414SOL    HW136704   3.152   3.361   5.114 -1.3761 -0.4487  0.3501
 8414SOL    HW236705   3.182   3.481   5.033  0.1689  0.2503 -0.1620
 8415SOL     OW36706   3.003   2.738   9.846  0.0641 -0.1606  0.2987
 8415SOL    HW136707   3.029   2.651   9.878  1.3882 -0.5695 -1.8930
 8415SOL    HW236708   3.083   2.786   9.865  0.6253 -0.2607 -1.8013
 8416SOL     OW36709   3.746   0.149   5.114 -0.0142  0.0576  0.1593
 8416SOL    HW136710   3.760   0.059   5.144  2.2233  0.7967  1.3410
 8416SOL    HW236711   3.750   0.193   5.199 -1.7920  1.5065 -0.5044
 8417SOL     OW36712   4.072   4.380  16.121 -0.0181  0.5938 -0.2816
 8417SOL    HW136713   3.987   4.409  16.087 -0.1978 -0.2693 -0.5756
 8417SOL    HW236714   4.074   4.434  16.199 -1.6975  0.3209 -0.0468
 8418SOL     OW36715   3.003   0.297   7.428  0.1413  0.0386  0.0895
 8418SOL    HW136716   2.916   0.332   7.409  0.8187  1.6379 -0.1174
 8418SOL    HW236717   3.017   0.235   7.357 -0.4996 -0.3725  0.3250
 8419SOL     OW36718   3.782   1.226   1.999 -0.6336  0.4343 -0.3982
 8419SOL    HW136719   3.875   1.205   1.994 -0.2340  1.3780  3.4923
 8419SOL    HW236720   3.779   1.252   2.091 -0.7047 -3.0830  0.6123
 8420SOL     OW36721   2.240   4.528   6.655  0.5965 -0.5947  0.0089
 8420SOL    HW136722   2.291   4.468   6.601  0.7014 -1.0334  0.5955
 8420SOL    HW236723   2.288   4.609   6.642 -2.1757  0.6895 -2.4387
 8421SOL     OW36724   3.911   0.801   5.336 -0.5631 -0.4601  0.3823
 8421SOL    HW136725   3.998   0.776   5.306  0.0426  1.6686  0.3632
 8421SOL    HW236726   3.934   0.866   5.403 -0.2462 -1.0661  0.8608
 8422SOL     OW36727   0.324   0.659   7.326 -0.2567 -0.2984 -0.1391
 8422SOL    HW136728   0.323   0.614   7.241 -1.9181  0.3491 -0.4739
 8422SOL    HW236729   0.317   0.749   7.296  0.5244  0.6912  2.7087
 8423SOL     OW36730   3.746   3.020   9.738 -0.3633  0.1548 -0.0930
 8423SOL    HW136731   3.671   3.080   9.736  0.5727  1.3486  0.1337
 8423SOL    HW236732   3.736   2.997   9.830 -3.5317 -2.3476 -1.0666
 8424SOL     OW36733   2.083   1.510   0.372  0.2990 -0.6113  0.4261
 8424SOL    HW136734   2.003   1.554   0.344  1.5092  1.6834  0.5843
 8424SOL    HW236735   2.145   1.563   0.323  1.8219 -1.6212  1.2615
 8425SOL     OW36736   3.870   2.906   8.815 -0.3423  0.5885  0.2363
 8425SOL    HW136737   3.887   2.816   8.843 -1.4721  0.0009 -0.9312
 8425SOL    HW236738   3.882   2.899   8.720 -1.5219 -2.3424  0.2880
 8426SOL     OW36739   1.338   3.446   0.372 -0.3640 -0.1997  0.5962
 8426SOL    HW136740   1.255   3.435   0.325  0.6502  0.9892 -1.4911
 8426SOL    HW236741   1.324   3.531   0.414  0.9258  0.3768 -0.1475
 8427SOL     OW36742   2.360   1.854  11.052  0.1041  0.3403  0.6178
 8427SOL    HW136743   2.277   1.825  11.014  0.0961 -0.9552  1.6413
 8427SOL    HW236744   2.402   1.771  11.073 -0.8747 -0.3201 -0.0143
 8428SOL     OW36745   0.001   4.565   6.875  0.0255 -1.0015 -0.5516
 8428SOL    HW136746   4.631   4.567   6.873  0.0326 -0.9767 -1.0303
 8428SOL    HW236747   0.016   4.621   6.798  0.8509  0.9613  1.0438
 8429SOL     OW36748   4.531   0.849   7.749 -0.6753 -0.1222 -0.0127
 8429SOL    HW136749   4.444   0.870   7.783  0.0523  0.0580  1.7537
 8429SOL    HW236750   4.573   0.930   7.775  1.1775 -1.5659  1.4630
 8430SOL     OW36751   4.160   2.448   9.400 -0.1205 -0.0708  0.3771
 8430SOL    HW136752   4.088   2.400   9.441 -0.3036  0.5074  0.7416
 8430SOL    HW236753   4.196   2.379   9.345 -1.6623  0.0078 -0.7275
 8431SOL     OW36754   0.297   0.667   6.309  0.0212 -0.7917 -0.7003
 8431SOL    HW136755   0.258   0.583   6.285  3.9897 -2.0603 -2.7300
 8431SOL    HW236756   0.276   0.675   6.402  1.6999  0.2346 -0.3906
 8432SOL     OW36757   2.823   1.459   0.979  0.1470 -0.2667 -0.3030
 8432SOL    HW136758   2.815   1.461   1.075 -0.5950 -1.5349 -0.3450
 8432SOL    HW236759   2.910   1.418   0.982  0.3967  0.4277  2.8600
 8433SOL     OW36760   0.980   0.322   1.728  0.0164  0.8085 -0.3706
 8433SOL    HW136761   0.923   0.399   1.723 -0.8240  0.3172  2.1556
 8433SOL    HW236762   0.929   0.258   1.778  2.1428 -1.3020 -0.8851
 8434SOL     OW36763   2.815   1.052   5.946 -0.1877  0.1444 -0.7328
 8434SOL    HW136764   2.904   1.069   5.977 -0.2991  0.4643 -0.5760
 8434SOL    HW236765   2.812   1.141   5.910 -1.2417  0.9689  1.3913
 8435SOL     OW36766   0.195   2.770  11.380  0.4543  0.2759 -0.0624
 8435SOL    HW136767   0.264   2.721  11.335  0.0823 -1.0228  0.7940
 8435SOL    HW236768   0.121   2.721  11.345  1.0366 -2.1924  2.1350
 8436SOL     OW36769   2.798   1.906  17.652  0.1457 -0.1009  0.1571
 8436SOL    HW136770   2.708   1.877  17.661 -0.0220  0.2936 -0.2807
 8436SOL    HW236771   2.836   1.839  17.595 -0.7102  0.7585 -1.4205
 8437SOL     OW36772   1.183   2.737  11.116 -0.6063 -0.0298 -0.5674
 8437SOL    HW136773   1.089   2.757  11.107 -1.4687 -3.9552 -0.1872
 8437SOL    HW236774   1.189   2.683  11.037  0.1875 -0.9289  0.1152
 8438SOL     OW36775   1.923   1.311   6.698 -0.0779  0.5323 -0.2057
 8438SOL    HW136776   1.960   1.266   6.774 -2.0236  1.9826  1.5729
 8438SOL    HW236777   1.832   1.324   6.724 -0.1136  1.7206 -0.8974
 8439SOL     OW36778   3.841   4.303   2.170  0.2341 -0.1281  0.1035
 8439SOL    HW136779   3.905   4.257   2.225  0.4515  1.9037  1.5673
 8439SOL    HW236780   3.805   4.368   2.231  0.0415 -1.7445  1.7066
 8440SOL     OW36781   1.259   4.462   3.751  0.7266  0.5656  0.0028
 8440SOL    HW136782   1.260   4.490   3.842  1.1467  0.3244  0.0769
 8440SOL    HW236783   1.288   4.370   3.754  0.5369  0.4409 -1.7205
 8441SOL     OW36784   3.009   1.244   3.660  0.0107 -0.0627  0.9067
 8441SOL    HW136785   2.919   1.229   3.689 -0.7366 -1.0837 -1.9540
 8441SOL    HW236786   3.003   1.312   3.592 -2.2025 -2.9866 -1.8334
 8442SOL     OW36787   2.077   1.570   5.912  0.3027 -0.0071 -0.5732
 8442SOL    HW136788   2.147   1.603   5.855  0.3876  0.5817 -0.1280
 8442SOL    HW236789   2.124   1.501   5.957  2.3096  0.1907 -2.3529
 8443SOL     OW36790   4.336   2.098   7.271  0.0266  0.1989  0.4220
 8443SOL    HW136791   4.310   2.105   7.180  0.2755 -1.7615  0.1815
 8443SOL    HW236792   4.430   2.109   7.258 -0.3791  0.3201 -2.3556
 8444SOL     OW36793   1.219   0.127   5.383  0.1450 -0.0510  0.1985
 8444SOL    HW136794   1.159   0.066   5.426 -1.9256  2.3048  0.6415
 8444SOL    HW236795   1.168   0.141   5.304  0.9474  1.5453 -0.0393
 8445SOL     OW36796   4.551   3.842   9.284  0.1963 -0.4115 -1.4309
 8445SOL    HW136797   4.551   3.785   9.361  0.2466  1.4521 -0.0322
 8445SOL    HW236798   4.643   3.869   9.292 -0.5177  1.2025  1.3076
 8446SOL     OW36799   4.507   0.120  17.338  0.2889  0.1708 -0.6423
 8446SOL    HW136800   4.527   0.160  17.422 -0.4266 -0.7843 -0.0290
 8446SOL    HW236801   4.588   0.069  17.335  0.3435  0.3645 -2.4901
 8447SOL     OW36802   0.508   3.483   3.015 -0.0431  0.5319 -0.1634
 8447SOL    HW136803   0.571   3.551   2.991 -1.2595  0.4368 -3.5308
 8447SOL    HW236804   0.564   3.440   3.080  0.4820 -0.0574 -1.0089
 8448SOL     OW36805   0.896   3.279   8.664  0.0743 -0.3357 -0.5424
 8448SOL    HW136806   0.856   3.197   8.690 -0.7891  0.6800  1.3170
 8448SOL    HW236807   0.877   3.287   8.571  3.1693 -1.1115 -1.2557
 8449SOL     OW36808   3.860   4.658   5.397 -0.2699  0.3083 -0.7001
 8449SOL    HW136809   3.829   4.568   5.396 -0.2645  0.3018 -0.1321
 8449SOL    HW236810   3.803   4.702   5.460 -1.6174 -0.2267 -1.5336
 8450SOL     OW36811   3.678   3.614   4.252  0.3833 -0.2824  0.2580
 8450SOL    HW136812   3.597   3.587   4.295  0.9197  0.4862  1.7823
 8450SOL    HW236813   3.670   3.570   4.168  0.1859 -0.5321  0.4078
 8451SOL     OW36814   3.857   2.273   9.609 -0.6100  0.2025  0.0434
 8451SOL    HW136815   3.811   2.298   9.529  1.2436  1.2802 -0.6767
 8451SOL    HW236816   3.894   2.355   9.640  0.1293  0.9274 -2.7487
 8452SOL     OW36817   0.188   2.634  14.572 -0.0949 -0.4219 -0.2289
 8452SOL    HW136818   0.129   2.604  14.503 -0.7432  1.8686 -0.6943
 8452SOL    HW236819   0.230   2.555  14.606 -1.6135 -1.0137  0.2630
 8453SOL     OW36820   2.052   3.977   6.145  0.0320  0.0881 -0.1418
 8453SOL    HW136821   2.101   4.006   6.069  1.1325 -0.1518  0.4872
 8453SOL    HW236822   2.044   4.050   6.207  2.5498 -0.0021  0.2806
 8454SOL     OW36823   0.696   2.090   4.768  0.4543 -0.7502 -0.4412
 8454SOL    HW136824   0.676   2.077   4.675  1.8877  1.1331 -1.0150
 8454SOL    HW236825   0.636   2.163   4.788  0.5193 -0.1913 -2.3115
 8455SOL     OW36826   3.634   1.939  13.863 -1.2248 -0.7935  0.6429
 8455SOL    HW136827   3.705   1.994  13.896 -0.4942 -0.7620 -0.9826
 8455SOL    HW236828   3.577   2.008  13.829 -1.2496 -2.6286 -3.1200
 8456SOL     OW36829   2.767   2.077   8.553 -0.1098  0.0980  0.6317
 8456SOL    HW136830   2.702   2.007   8.553 -0.1554  0.1501  1.7747
 8456SOL    HW236831   2.844   2.025   8.531  0.9842  1.3154  1.6010
 8457SOL     OW36832   3.181   1.923  16.945  0.5075 -0.9410  0.0129
 8457SOL    HW136833   3.229   1.876  16.876  0.1723 -1.5896  0.2349
 8457SOL    HW236834   3.110   1.866  16.973  1.4101 -2.4225 -0.7236
 8458SOL     OW36835   3.505   0.682   7.682  0.4468 -0.2332 -0.7226
 8458SOL    HW136836   3.497   0.758   7.740  0.9729 -0.1811 -0.7205
 8458SOL    HW236837   3.463   0.730   7.610  0.0420  1.6115  0.7466
 8459SOL     OW36838   1.483   3.356   8.287 -0.6656  0.1972  0.5848
 8459SOL    HW136839   1.558   3.398   8.328  0.2332 -2.3221  1.5330
 8459SOL    HW236840   1.440   3.320   8.365 -1.7558  1.0884  0.3839
 8460SOL     OW36841   4.323   2.736   5.958  0.0763 -0.4663 -0.6443
 8460SOL    HW136842   4.363   2.726   5.872 -1.1397  1.6091 -1.4442
 8460SOL    HW236843   4.404   2.752   6.006 -0.7877  0.3192  0.5554
 8461SOL     OW36844   0.853   3.603   6.938  0.1057  0.3543 -0.1191
 8461SOL    HW136845   0.891   3.657   7.007 -0.3579  0.3483  0.1412
 8461SOL    HW236846   0.932   3.603   6.885  0.2034  0.8576  0.0263
 8462SOL     OW36847   3.943   0.063  14.272 -0.2542 -0.1023  0.5439
 8462SOL    HW136848   4.002   0.079  14.198 -2.6558 -0.7431 -1.5460
 8462SOL    HW236849   3.994   0.106  14.340  2.1895 -0.6516 -0.9333
 8463SOL     OW36850   3.778   0.198   3.453  0.1908 -0.3944  0.3456
 8463SOL    HW136851   3.741   0.187   3.540 -2.6332  1.3781 -0.6460
 8463SOL    HW236852   3.832   0.119   3.459  2.0805  0.7371 -2.0874
 8464SOL     OW36853   0.496   4.335   2.112  0.3489  0.0334  0.1742
 8464SOL    HW136854   0.432   4.266   2.128 -0.1270  0.3065 -0.5924
 8464SOL    HW236855   0.570   4.295   2.158 -1.7578 -1.3884  2.3478
 8465SOL     OW36856   4.657   4.589   0.661 -0.9326  0.5324  0.4736
 8465SOL    HW136857   4.698   4.514   0.703 -1.9195 -1.6239 -2.3896
 8465SOL    HW236858   4.593   4.540   0.610  0.3039 -0.1115 -0.4780
 8466SOL     OW36859   3.017   2.150   0.996  0.1357  0.5641  0.2104
 8466SOL    HW136860   2.981   2.069   1.031 -0.3371 -0.6603 -3.1656
 8466SOL    HW236861   3.080   2.189   1.056  0.8401  1.8056 -1.3262
 8467SOL     OW36862   1.610   3.613  12.521  0.4799  0.5355 -0.0845
 8467SOL    HW136863   1.536   3.619  12.460 -0.1007  0.7028  0.6458
 8467SOL    HW236864   1.680   3.585  12.461  0.5544 -0.3359  0.4234
 8468SOL     OW36865   2.158   0.947  11.511  0.8639 -0.0871 -0.0655
 8468SOL    HW136866   2.244   0.922  11.476  0.0146 -2.4599 -0.4905
 8468SOL    HW236867   2.118   0.860  11.504  0.9416  0.0243 -1.9400
 8469SOL     OW36868   2.331   0.384   1.956  0.3174  0.3549  0.2220
 8469SOL    HW136869   2.283   0.448   1.905  0.5968  0.9756  0.7411
 8469SOL    HW236870   2.422   0.400   1.932  0.8782 -2.9549  0.0787
 8470SOL     OW36871   2.264   0.980   6.395 -0.4414  0.3554 -0.0329
 8470SOL    HW136872   2.249   0.933   6.312 -1.7690  1.4826 -0.4267
 8470SOL    HW236873   2.179   1.023   6.405  0.6896  2.8118 -1.0725
 8471SOL     OW36874   3.914   4.692   3.063  0.4936 -0.0535  0.0712
 8471SOL    HW136875   3.866   0.043   3.096  1.4531  0.5974 -0.0292
 8471SOL    HW236876   3.844   4.626   3.054  0.4625 -0.1173  0.8056
 8472SOL     OW36877   2.734   1.681   5.899  0.6429 -0.0609 -0.6002
 8472SOL    HW136878   2.800   1.734   5.854  2.0819  0.4930  2.1501
 8472SOL    HW236879   2.677   1.752   5.928 -0.5543 -0.5367 -1.7913
 8473SOL     OW36880   2.884   3.524   4.963  0.6170 -0.1731 -0.2291
 8473SOL    HW136881   2.912   3.613   4.983 -1.0149  0.0240  1.1460
 8473SOL    HW236882   2.945   3.467   5.011 -0.5260 -0.2745  1.1075
 8474SOL     OW36883   3.479   1.439   7.849  0.3862  0.3133  0.3803
 8474SOL    HW136884   3.426   1.516   7.830 -0.5978  0.1881  2.5819
 8474SOL    HW236885   3.550   1.479   7.900  1.4415  0.6837 -1.3747
 8475SOL     OW36886   2.233   0.669   4.767  0.1064 -0.5744 -0.0668
 8475SOL    HW136887   2.190   0.584   4.766  2.0996 -1.5841  0.2964
 8475SOL    HW236888   2.266   0.658   4.856  0.2432 -1.6121 -0.2545
 8476SOL     OW36889   3.428   3.929   0.664  0.2435  0.6267 -0.1569
 8476SOL    HW136890   3.456   3.959   0.578  0.6091 -0.2294 -0.3381
 8476SOL    HW236891   3.496   3.863   0.677  1.0439  1.0677 -2.0689
 8477SOL     OW36892   0.300   1.701   4.968 -0.7096  0.0786 -0.0206
 8477SOL    HW136893   0.293   1.769   4.901 -0.6666 -1.2421 -1.3785
 8477SOL    HW236894   0.227   1.646   4.940 -0.1367 -1.4982  1.5517
 8478SOL     OW36895   2.973   3.419   4.270  0.1103  0.7410  0.1829
 8478SOL    HW136896   3.030   3.354   4.309 -0.2671 -1.0609 -2.2828
 8478SOL    HW236897   2.913   3.444   4.340  1.0544 -0.1638  1.2890
 8479SOL     OW36898   2.935   0.941   7.378  0.3251  0.2749 -0.2761
 8479SOL    HW136899   2.920   0.848   7.392  1.4811  0.2818  1.0162
 8479SOL    HW236900   2.904   0.954   7.289 -0.6749 -2.1582 -0.2725
 8480SOL     OW36901   2.328   4.000  17.029  0.5005  0.1319  0.3090
 8480SOL    HW136902   2.247   3.955  17.005  0.4983  0.1547  0.2729
 8480SOL    HW236903   2.292   4.034  17.111 -2.3784  0.7610 -1.1963
 8481SOL     OW36904   0.911   0.638   8.787 -0.1130 -0.0415  0.0855
 8481SOL    HW136905   0.920   0.644   8.882  1.3742 -1.4149  0.0275
 8481SOL    HW236906   0.830   0.587   8.791 -0.8973  1.0857 -1.6041
 8482SOL     OW36907   4.533   3.291   5.062 -0.0396 -0.6507  0.1441
 8482SOL    HW136908   4.539   3.207   5.015 -0.2827 -0.2987 -0.5220
 8482SOL    HW236909   4.622   3.296   5.096 -0.5732  1.3401  1.2606
 8483SOL     OW36910   1.009   0.227   5.836 -0.0374  0.4368  0.0872
 8483SOL    HW136911   1.008   0.233   5.740  0.8319 -1.9022 -0.0795
 8483SOL    HW236912   1.095   0.187   5.844  0.3108  0.4963 -3.1058
 8484SOL     OW36913   3.594   0.256   2.306 -0.0357 -0.4922  0.1800
 8484SOL    HW136914   3.578   0.329   2.366 -2.4115  0.4362 -1.5696
 8484SOL    HW236915   3.507   0.217   2.310  0.2177 -0.9797  0.8438
 8485SOL     OW36916   2.163   0.063   7.524 -0.1087 -0.1077  0.7865
 8485SOL    HW136917   2.246   0.025   7.550  1.4655  2.2275 -0.8811
 8485SOL    HW236918   2.132   0.001   7.458 -1.6369  1.9410 -0.4733
 8486SOL     OW36919   0.417   0.767   5.231 -0.0938  0.7047  0.2956
 8486SOL    HW136920   0.359   0.842   5.248  0.0886  1.1895 -1.2082
 8486SOL    HW236921   0.470   0.762   5.310  0.5333  0.7631 -0.1217
 8487SOL     OW36922   0.884   3.055   7.935  0.2191  0.1499 -0.5140
 8487SOL    HW136923   0.863   3.133   7.882  2.2098 -0.6170 -2.4335
 8487SOL    HW236924   0.969   3.032   7.898 -1.4393 -0.8140 -3.7096
 8488SOL     OW36925   4.168   0.098   4.700  0.6684  0.4206  0.0015
 8488SOL    HW136926   4.088   0.149   4.688  1.6769  2.3600  1.6465
 8488SOL    HW236927   4.174   0.086   4.795 -2.5120 -1.2870 -0.0440
 8489SOL     OW36928   1.949   2.770  17.468  0.4751  0.2433 -0.4129
 8489SOL    HW136929   1.860   2.799  17.487  1.3992  2.2545  0.7679
 8489SOL    HW236930   1.930   2.679  17.446  0.7110  0.2561 -0.6759
 8490SOL     OW36931   1.790   1.417   1.839 -0.0368  0.5419 -0.0267
 8490SOL    HW136932   1.704   1.413   1.882 -0.8215 -1.5324 -1.8171
 8490SOL    HW236933   1.779   1.337   1.787 -0.5884  0.8531 -0.3917
 8491SOL     OW36934   0.346   1.611   0.823 -0.1422  0.4581  0.2115
 8491SOL    HW136935   0.373   1.553   0.751  3.0085  0.7058  1.2006
 8491SOL    HW236936   0.423   1.606   0.880 -0.1623  0.8579  0.2743
 8492SOL     OW36937   3.046   4.710  16.429 -0.4061  0.3159 -0.4008
 8492SOL    HW136938   2.991   0.020  16.359  0.6993  0.2257 -1.3226
 8492SOL    HW236939   3.124   4.686  16.378  1.8461 -0.8052  3.5575
 8493SOL     OW36940   3.162   1.102  13.264  0.4607 -0.2345 -0.6008
 8493SOL    HW136941   3.134   1.141  13.347 -1.2309 -0.1055 -1.2205
 8493SOL    HW236942   3.089   1.046  13.239  1.0114 -0.7954 -0.9489
 8494SOL     OW36943   3.119   1.984   1.933 -0.1198  0.1842 -0.6378
 8494SOL    HW136944   3.090   2.067   1.894  2.9097  1.3746 -0.3838
 8494SOL    HW236945   3.044   1.925   1.919  0.5979 -0.9138  0.2295
 8495SOL     OW36946   4.590   0.396   6.260  0.1553 -0.0241  0.5033
 8495SOL    HW136947   4.558   0.462   6.197 -1.6514 -1.0012  0.4086
 8495SOL    HW236948   4.530   0.326   6.236  0.8913 -0.5440  0.1747
 8496SOL     OW36949   2.907   3.814   6.767 -0.2929 -0.6478 -0.0130
 8496SOL    HW136950   3.002   3.810   6.780 -0.1258 -1.1453 -1.3442
 8496SOL    HW236951   2.863   3.851   6.844 -0.2256  0.4340 -0.5042
 8497SOL     OW36952   1.277   0.575   8.702  0.5317  1.0034  0.4014
 8497SOL    HW136953   1.351   0.611   8.751  0.5875 -0.6875  1.5816
 8497SOL    HW236954   1.228   0.532   8.773  1.6555  1.4886  1.4749
 8498SOL     OW36955   2.648   0.254  16.390 -0.0472  0.2605 -0.0207
 8498SOL    HW136956   2.668   0.307  16.467  0.0470 -0.9058  0.7604
 8498SOL    HW236957   2.689   0.302  16.318 -0.6066  0.7063 -0.0382
 8499SOL     OW36958   4.144   2.843   9.336 -0.2563 -0.1198  0.2617
 8499SOL    HW136959   4.151   2.862   9.242 -1.6272  2.9329  0.7538
 8499SOL    HW236960   4.204   2.772   9.354  0.4341  0.6510  1.0059
 8500SOL     OW36961   3.255   1.595  10.515  0.3294  0.4891  0.6067
 8500SOL    HW136962   3.247   1.625  10.424  2.9186 -0.7759 -0.0097
 8500SOL    HW236963   3.166   1.574  10.543  0.1619 -0.3459 -0.5684
 8501SOL     OW36964   1.062   3.978  16.064  0.2517  0.1204  0.1909
 8501SOL    HW136965   1.059   4.068  16.097  0.9772 -0.7880  2.7811
 8501SOL    HW236966   1.152   3.952  16.088  0.4835 -1.9702 -2.9370
 8502SOL     OW36967   2.398   3.686   0.785  0.0859 -0.6798 -0.3147
 8502SOL    HW136968   2.478   3.736   0.799  1.6629 -2.5263 -2.6917
 8502SOL    HW236969   2.372   3.736   0.708  0.9522  0.6685  0.2650
 8503SOL     OW36970   2.310   2.096   3.526 -0.1019 -0.0908 -0.1514
 8503SOL    HW136971   2.394   2.050   3.517 -0.4836 -1.1999  1.9700
 8503SOL    HW236972   2.341   2.183   3.550  0.7829 -0.5771  0.4614
 8504SOL     OW36973   4.264   0.897   8.198  0.1360  0.8118  0.3541
 8504SOL    HW136974   4.297   0.820   8.244 -1.2172  0.6124  1.0058
 8504SOL    HW236975   4.342   0.938   8.162  1.3364 -1.3414  0.5161
 8505SOL     OW36976   3.313   0.843  16.554 -0.2856 -0.1244 -0.8251
 8505SOL    HW136977   3.311   0.938  16.543  0.3683  0.1358  1.3558
 8505SOL    HW236978   3.394   0.827  16.603 -0.7058  0.2469 -0.0234
 8506SOL     OW36979   4.136   2.766  12.946  0.2710 -0.1582 -0.4686
 8506SOL    HW136980   4.097   2.703  13.007  2.5526  0.2389  1.4031
 8506SOL    HW236981   4.227   2.738  12.958  0.1685  0.4279  1.7878
 8507SOL     OW36982   1.722   3.058   8.363 -0.1466  0.4858 -0.2483
 8507SOL    HW136983   1.775   3.080   8.286  0.1628  1.0012  0.1133
 8507SOL    HW236984   1.638   3.097   8.340 -0.0007  1.3073  0.6035
 8508SOL     OW36985   0.115   0.496   6.181  0.4426 -0.3816  0.0534
 8508SOL    HW136986   0.025   0.467   6.196  0.8934 -2.5997 -1.4436
 8508SOL    HW236987   0.142   0.430   6.117  0.3368  0.2931 -0.6884
 8509SOL     OW36988   2.066   3.796  12.126  0.0214 -0.0184 -0.4282
 8509SOL    HW136989   2.154   3.831  12.111  0.4955 -0.2728  1.6752
 8509SOL    HW236990   2.091   3.726  12.188  0.8879 -0.3925 -1.2014
 8510SOL     OW36991   3.295   1.900  11.638 -0.0112 -0.4447  0.3242
 8510SOL    HW136992   3.268   1.858  11.557  0.0951 -0.5327  0.3332
 8510SOL    HW236993   3.310   1.990  11.610  0.7216 -0.2015  1.4638
 8511SOL     OW36994   0.697   3.248  14.464  0.3745  0.2473 -0.0888
 8511SOL    HW136995   0.633   3.191  14.422  0.4130 -0.4612  0.8123
 8511SOL    HW236996   0.774   3.222  14.413  0.1287  1.0068 -0.8481
 8512SOL     OW36997   0.008   4.634   8.630 -0.0733  0.4517  0.1178
 8512SOL    HW136998   4.659   4.605   8.682  0.4868 -2.2026 -0.6023
 8512SOL    HW236999   4.710   0.002   8.622 -5.0183 -1.1211 -2.9956
 8513SOL     OW37000   2.201   1.047   5.867  0.4389 -0.4213  0.1083
 8513SOL    HW137001   2.164   1.039   5.780  0.9017 -0.7649 -0.0530
 8513SOL    HW237002   2.139   0.996   5.918 -1.8678  0.8962 -1.3914
 8514SOL     OW37003   2.977   1.661   0.564 -0.1950 -0.6155 -0.0983
 8514SOL    HW137004   2.935   1.603   0.627 -2.0982  0.0713 -0.7452
 8514SOL    HW237005   2.905   1.665   0.502 -0.0421  1.7946 -0.1455
 8515SOL     OW37006   3.442   0.587   4.773 -0.6656 -0.2184  0.3159
 8515SOL    HW137007   3.420   0.548   4.858 -0.5997  2.6802  1.6479
 8515SOL    HW237008   3.388   0.665   4.769  0.0812  0.2889  0.2358
 8516SOL     OW37009   0.872   0.432   4.878 -0.3497 -0.1265 -0.2582
 8516SOL    HW137010   0.836   0.513   4.914 -2.2568 -0.4097 -1.5263
 8516SOL    HW237011   0.805   0.366   4.897 -0.3107 -0.0092  0.3059
 8517SOL     OW37012   0.326   1.604  16.947  0.0960  0.2104  0.1634
 8517SOL    HW137013   0.352   1.513  16.932  1.7525  0.8838 -1.1049
 8517SOL    HW237014   0.406   1.655  16.931  0.4651 -0.5166 -0.2716
 8518SOL     OW37015   2.706   4.390   6.966 -0.3858 -0.5111  0.7281
 8518SOL    HW137016   2.676   4.439   6.890 -2.2570 -1.0271  1.1443
 8518SOL    HW237017   2.758   4.325   6.918 -0.9594 -0.9932  0.7641
 8519SOL     OW37018   2.719   2.669  13.083  0.3765  0.1038 -0.2541
 8519SOL    HW137019   2.696   2.703  12.996  2.3293  1.5430 -0.1844
 8519SOL    HW237020   2.729   2.578  13.054  1.0226  0.1422 -0.1421
 8520SOL     OW37021   1.056   2.020   8.210  0.1227 -0.0670  0.7081
 8520SOL    HW137022   1.140   2.045   8.250 -0.5768  1.7602  1.0232
 8520SOL    HW237023   1.011   2.101   8.232  0.1350  0.9775 -3.2259
 8521SOL     OW37024   0.219   0.437  13.744  0.3227  0.6590  0.3397
 8521SOL    HW137025   0.268   0.514  13.713 -1.0554  2.1169  1.8215
 8521SOL    HW237026   0.252   0.365  13.689 -1.4134 -0.9131  1.3446
 8522SOL     OW37027   3.309   1.634   3.453 -0.4160 -0.0930  0.0576
 8522SOL    HW137028   3.289   1.726   3.439  3.5722  0.5297 -1.5297
 8522SOL    HW237029   3.388   1.631   3.398 -1.9783 -1.4079 -2.1481
 8523SOL     OW37030   3.727   0.496   7.267  0.2541  0.4142  0.7607
 8523SOL    HW137031   3.796   0.554   7.235 -0.8101  1.4186  0.2921
 8523SOL    HW237032   3.654   0.558   7.271 -0.9142 -0.9474  0.5359
 8524SOL     OW37033   3.367   0.429  16.945  0.2304  0.2430  0.5325
 8524SOL    HW137034   3.431   0.372  16.901  2.0311  2.4966  0.2212
 8524SOL    HW237035   3.384   0.508  16.893  2.3913 -0.5185  0.0957
 8525SOL     OW37036   1.919   1.265  14.566 -0.1615 -0.1483 -0.1869
 8525SOL    HW137037   1.922   1.295  14.657  1.0245 -0.4094 -0.1393
 8525SOL    HW237038   1.857   1.333  14.539  1.6413  1.9353  0.9380
 8526SOL     OW37039   0.496   1.894   5.911 -0.7518 -0.0591 -0.0369
 8526SOL    HW137040   0.495   1.965   5.975 -0.0245 -0.0181 -0.0726
 8526SOL    HW237041   0.530   1.822   5.965  0.2248  2.9827  3.4194
 8527SOL     OW37042   4.138   0.663  10.919  0.5613  0.0727  0.1562
 8527SOL    HW137043   4.165   0.654  10.828 -0.9408 -2.4409 -0.0274
 8527SOL    HW237044   4.056   0.713  10.919 -0.1182 -1.0479 -1.2668
 8528SOL     OW37045   0.400   1.732   8.354  0.3486  0.8107 -0.0306
 8528SOL    HW137046   0.317   1.720   8.308  1.3838  0.6592 -1.8805
 8528SOL    HW237047   0.419   1.822   8.328  3.6425 -0.4268 -1.9231
 8529SOL     OW37048   0.656   0.812   3.568  0.2739  0.3595 -0.3027
 8529SOL    HW137049   0.710   0.775   3.498 -0.2134 -0.8484 -0.0363
 8529SOL    HW237050   0.635   0.736   3.622 -1.4778  0.0801 -1.3628
 8530SOL     OW37051   0.506   1.009   4.576  0.3937 -0.1198  0.5485
 8530SOL    HW137052   0.460   1.087   4.546 -0.8083  0.1500  3.0128
 8530SOL    HW237053   0.532   1.029   4.666  0.8143 -1.4521  0.7286
 8531SOL     OW37054   2.295   0.208   1.100 -0.1264 -0.0258  0.0729
 8531SOL    HW137055   2.219   0.158   1.129  1.0889 -1.1198  1.3305
 8531SOL    HW237056   2.326   0.253   1.179  0.9185 -0.0821 -0.3039
 8532SOL     OW37057   0.045   2.428  11.489  0.0732 -0.1192 -0.0320
 8532SOL    HW137058   4.704   2.468  11.431  0.9660  1.8740  0.3626
 8532SOL    HW237059   0.100   2.393  11.419 -1.1910 -0.5411 -0.8293
 8533SOL     OW37060   4.416   4.016  14.227  0.3031 -0.3526  0.2573
 8533SOL    HW137061   4.481   3.995  14.160 -0.3193 -0.4861 -0.3034
 8533SOL    HW237062   4.458   3.999  14.311  0.9741 -2.6354 -0.5356
 8534SOL     OW37063   1.486   1.106   2.017 -0.3190 -0.6262 -0.5897
 8534SOL    HW137064   1.443   1.123   2.101  1.2048 -1.9764  0.4770
 8534SOL    HW237065   1.569   1.067   2.045 -0.6084 -1.4852 -0.9393
 8535SOL     OW37066   2.852   4.220   5.994 -0.2869  0.1919 -0.4230
 8535SOL    HW137067   2.908   4.239   6.070 -0.8980  1.2737 -0.2328
 8535SOL    HW237068   2.858   4.125   5.997  0.5794  0.2594 -0.0759
 8536SOL     OW37069   1.088   1.527   0.739 -0.3574  0.1393  0.0886
 8536SOL    HW137070   1.173   1.558   0.772 -0.2523  1.2144 -1.1974
 8536SOL    HW237071   1.041   1.605   0.711 -0.1667  0.0517 -0.4733
 8537SOL     OW37072   2.985   0.192   6.755  0.0763  0.2928 -0.0575
 8537SOL    HW137073   2.936   0.110   6.749 -0.8101  0.7745  0.5723
 8537SOL    HW237074   2.939   0.236   6.684 -0.8180  1.5007  1.2872
 8538SOL     OW37075   0.212   3.248  13.847  0.5076  0.1045 -0.2526
 8538SOL    HW137076   0.179   3.325  13.801  1.0455  0.1180 -0.6207
 8538SOL    HW237077   0.159   3.254  13.926  1.3841  1.5891  0.2210
 8539SOL     OW37078   2.203   1.306   5.973  0.3552  0.6017 -0.2718
 8539SOL    HW137079   2.205   1.229   5.916 -0.2763 -0.0338  0.5677
 8539SOL    HW237080   2.166   1.279   6.057  2.6499 -0.4370  0.4312
 8540SOL     OW37081   1.947   1.730   1.194 -0.6936 -0.0747  0.9947
 8540SOL    HW137082   2.031   1.773   1.182 -1.4724  1.2618  0.2081
 8540SOL    HW237083   1.898   1.808   1.223 -1.7013  0.5128 -2.2360
 8541SOL     OW37084   4.393   3.270  16.321  0.2601 -0.1006 -0.4251
 8541SOL    HW137085   4.381   3.185  16.278  0.6203 -0.6426  0.5365
 8541SOL    HW237086   4.357   3.339  16.266 -0.2488 -1.5770 -1.9367
 8542SOL     OW37087   0.030   3.733   6.566  0.1034 -0.0868  0.0355
 8542SOL    HW137088   0.112   3.754   6.522 -1.1428  0.9097 -1.7754
 8542SOL    HW237089   4.693   3.758   6.498 -1.0582  0.6417  1.3476
 8543SOL     OW37090   4.328   3.900   8.578  0.0661  0.1753  0.2940
 8543SOL    HW137091   4.238   3.929   8.562 -0.0674  0.1753  1.0400
 8543SOL    HW237092   4.319   3.813   8.538  1.7717 -0.5030  1.3559
 8544SOL     OW37093   2.189   0.687   5.477 -0.5395  0.5826  0.1617
 8544SOL    HW137094   2.146   0.659   5.397 -0.4518  1.4148 -0.1734
 8544SOL    HW237095   2.281   0.664   5.464 -0.6038  0.2013  0.3835
 8545SOL     OW37096   3.363   3.440   6.569 -0.1609  0.2952  0.3005
 8545SOL    HW137097   3.271   3.414   6.559 -0.2537  0.1695  1.4723
 8545SOL    HW237098   3.376   3.494   6.492 -1.4218 -1.0976 -0.8919
 8546SOL     OW37099   4.396   2.407   6.540 -0.2290  0.0370 -0.4191
 8546SOL    HW137100   4.339   2.462   6.486  0.7019  1.7822  0.3788
 8546SOL    HW237101   4.354   2.411   6.626 -2.3658  1.3984 -1.5263
 8547SOL     OW37102   2.209   3.982  15.446 -0.2127 -0.0659 -0.2808
 8547SOL    HW137103   2.230   3.909  15.388 -1.2420 -0.6214  0.0450
 8547SOL    HW237104   2.291   4.032  15.444 -0.8567  0.9456 -1.4326
 8548SOL     OW37105   0.585   1.167   3.946  0.0878 -0.1605 -0.2293
 8548SOL    HW137106   0.672   1.193   3.917  0.5523 -2.4664 -0.8463
 8548SOL    HW237107   0.559   1.121   3.867  0.2336 -0.2517 -0.2231
 8549SOL     OW37108   2.949   1.195   2.351  0.0133  0.4892 -0.0659
 8549SOL    HW137109   2.876   1.166   2.406  1.7514  0.9458  2.5102
 8549SOL    HW237110   2.919   1.144   2.277  2.0130 -3.0623  1.5743
 8550SOL     OW37111   1.683   3.639   2.926  0.1436 -0.1514  0.6677
 8550SOL    HW137112   1.732   3.695   2.865  0.4743 -1.1736 -0.0054
 8550SOL    HW237113   1.662   3.702   2.995 -1.2580  0.2102 -0.0804
 8551SOL     OW37114   0.201   1.129   8.251 -0.5797  0.2043 -0.0432
 8551SOL    HW137115   0.170   1.110   8.163  1.1291  1.9043 -0.9929
 8551SOL    HW237116   0.276   1.070   8.256  0.0923  1.0376 -0.4390
 8552SOL     OW37117   3.464   1.087  10.239  0.4361 -0.3133  0.4788
 8552SOL    HW137118   3.460   1.093  10.143  0.1301  1.7725  0.6196
 8552SOL    HW237119   3.541   1.032  10.253  0.1154 -0.6058  1.0788
 8553SOL     OW37120   0.694   2.201   5.645 -0.1791 -0.5038  0.1542
 8553SOL    HW137121   0.607   2.192   5.607 -0.0805 -0.0254 -0.1862
 8553SOL    HW237122   0.719   2.109   5.643  2.2288  0.1349  1.1674
 8554SOL     OW37123   2.851   1.404  15.114 -0.0569 -0.4146 -0.2325
 8554SOL    HW137124   2.910   1.330  15.105  0.0842 -0.2931 -0.3070
 8554SOL    HW237125   2.911   1.473  15.143 -0.7362 -1.1484  2.8729
 8555SOL     OW37126   0.193   1.639  10.775 -0.5779  0.0345 -0.3096
 8555SOL    HW137127   0.182   1.713  10.834 -0.8761  0.7026 -1.1917
 8555SOL    HW237128   0.134   1.674  10.707 -0.8059 -0.4830 -0.3764
 8556SOL     OW37129   0.582   2.375   4.072  0.1163 -0.4600  0.0702
 8556SOL    HW137130   0.505   2.403   4.121  1.7798 -0.2566  2.5753
 8556SOL    HW237131   0.614   2.294   4.113 -1.2472 -1.2802 -0.4903
 8557SOL     OW37132   2.361   3.981   4.086 -0.3456  0.4370 -0.3619
 8557SOL    HW137133   2.288   3.924   4.108 -0.2859 -0.1419 -1.7066
 8557SOL    HW237134   2.369   3.962   3.993  0.7632  0.8987 -0.3578
 8558SOL     OW37135   2.166   3.622   7.786 -0.0185 -0.3372 -0.0783
 8558SOL    HW137136   2.124   3.693   7.738  1.6333  0.6237 -0.1231
 8558SOL    HW237137   2.141   3.544   7.737  1.8646 -1.7268  1.1821
 8559SOL     OW37138   0.113   3.890   2.722  0.4058 -0.0758 -0.1391
 8559SOL    HW137139   0.045   3.829   2.694 -0.0401  0.3616 -0.0141
 8559SOL    HW237140   0.190   3.839   2.695 -0.2973 -0.0253 -2.2563
 8560SOL     OW37141   1.975   1.563   7.934 -0.4799  0.1030  0.2136
 8560SOL    HW137142   2.043   1.552   8.000  0.8308 -0.7189 -1.2903
 8560SOL    HW237143   2.023   1.599   7.860 -1.3613  1.5775  0.3495
 8561SOL     OW37144   1.866   1.119   5.620 -0.1566 -0.2572  0.3400
 8561SOL    HW137145   1.935   1.179   5.651  2.4438 -2.4569 -1.1765
 8561SOL    HW237146   1.898   1.115   5.530 -1.8879  2.0186 -0.3755
 8562SOL     OW37147   1.425   0.097   2.518 -0.0655  0.3185 -0.2230
 8562SOL    HW137148   1.399   0.176   2.566 -1.0994  1.1603 -2.1957
 8562SOL    HW237149   1.339   0.072   2.485  0.2592 -0.7005 -0.3152
 8563SOL     OW37150   3.673   3.604  13.866 -0.3161 -0.6344 -0.0447
 8563SOL    HW137151   3.618   3.542  13.818 -0.0725 -0.0097 -1.1250
 8563SOL    HW237152   3.659   3.568  13.953  1.5856 -1.8729 -0.2549
 8564SOL     OW37153   3.250   2.535   9.140 -0.6336 -0.4630  0.4897
 8564SOL    HW137154   3.210   2.533   9.227  0.1548  1.5447  0.9121
 8564SOL    HW237155   3.342   2.547   9.160 -0.8926 -0.1401  1.4626
 8565SOL     OW37156   0.376   3.554   3.886 -0.8936 -0.6633 -0.2303
 8565SOL    HW137157   0.357   3.642   3.919  2.4451  0.3025 -0.8447
 8565SOL    HW237158   0.319   3.544   3.810 -1.6670  0.7369  0.1689
 8566SOL     OW37159   3.775   2.678   8.587  0.6621  0.3032  0.0501
 8566SOL    HW137160   3.704   2.737   8.561 -1.3908 -1.5147  1.4759
 8566SOL    HW237161   3.758   2.595   8.543  3.3735  0.2055 -0.7994
 8567SOL     OW37162   3.382   4.182   2.145  0.1083  0.1058  0.0937
 8567SOL    HW137163   3.316   4.241   2.182 -0.9049 -0.0925 -1.3960
 8567SOL    HW237164   3.445   4.183   2.217  1.1349 -3.3492 -0.7631
 8568SOL     OW37165   0.404   1.532   2.912  0.2552  0.2882 -0.4573
 8568SOL    HW137166   0.483   1.569   2.950  1.1241 -2.5764  0.5332
 8568SOL    HW237167   0.348   1.532   2.989  0.7922 -1.8749 -0.0524
 8569SOL     OW37168   2.756   2.662   3.880  0.2070  0.4993  0.3339
 8569SOL    HW137169   2.675   2.706   3.904 -0.6152 -0.8081 -0.0699
 8569SOL    HW237170   2.805   2.744   3.867  0.1764  0.7134  1.5727
 8570SOL     OW37171   0.809   3.389  10.132  0.0303 -0.4792  0.3937
 8570SOL    HW137172   0.843   3.354  10.050 -0.1397 -0.3834  0.2817
 8570SOL    HW237173   0.763   3.468  10.103 -0.5198 -1.1572 -0.5782
 8571SOL     OW37174   1.746   2.913   8.094 -0.4786 -0.0012 -0.0203
 8571SOL    HW137175   1.799   2.848   8.141 -0.9981 -0.7995 -0.5219
 8571SOL    HW237176   1.781   2.926   8.006 -1.6627 -0.9930 -0.6445
 8572SOL     OW37177   1.091   2.064  11.554 -0.1005  0.0352 -0.1529
 8572SOL    HW137178   1.177   2.065  11.512 -0.2141 -1.5860 -0.4271
 8572SOL    HW237179   1.113   2.099  11.640  0.7705 -0.7673 -0.0445
 8573SOL     OW37180   2.350   1.210  12.350 -1.3821 -0.2314 -0.1955
 8573SOL    HW137181   2.298   1.135  12.321 -1.9826  0.3034 -0.4938
 8573SOL    HW237182   2.440   1.191  12.322 -1.2268 -1.9293  1.3997
 8574SOL     OW37183   2.148   2.733  17.266 -0.3960 -0.3117  0.2148
 8574SOL    HW137184   2.105   2.771  17.343 -1.1306  2.6390 -1.6449
 8574SOL    HW237185   2.103   2.648  17.260 -0.4841 -0.1591 -1.4023
 8575SOL     OW37186   4.250   0.852  16.376 -0.2337 -0.2483 -0.3563
 8575SOL    HW137187   4.297   0.857  16.459  0.4595  2.1562 -0.8897
 8575SOL    HW237188   4.238   0.943  16.351  1.5197 -0.4085 -1.8064
 8576SOL     OW37189   0.807   2.414   5.450 -0.3906 -0.5616  0.3563
 8576SOL    HW137190   0.880   2.455   5.497 -1.1358  0.8088  0.3115
 8576SOL    HW237191   0.815   2.331   5.497  0.8628  0.3543  1.7713
 8577SOL     OW37192   2.248   4.538   9.139  0.2042 -0.4106 -0.0242
 8577SOL    HW137193   2.221   4.479   9.209 -1.0067  0.6128  0.3894
 8577SOL    HW237194   2.163   4.576   9.114 -0.0529 -1.7339 -1.1718
 8578SOL     OW37195   3.879   2.816   5.094  0.2716 -0.3369  0.4285
 8578SOL    HW137196   3.936   2.813   5.171  1.9450  1.2502 -0.7534
 8578SOL    HW237197   3.912   2.748   5.035  1.3347  0.0460  0.5776
 8579SOL     OW37198   0.501   2.854   2.804  0.2093 -0.1968  0.7488
 8579SOL    HW137199   0.443   2.821   2.735  2.2899 -2.9190  0.3088
 8579SOL    HW237200   0.485   2.948   2.793 -2.2423 -0.6379  0.6690
 8580SOL     OW37201   0.195   0.650   7.575 -0.0196 -0.0134  0.2843
 8580SOL    HW137202   0.258   0.678   7.508  0.8720  0.8374  1.4844
 8580SOL    HW237203   0.112   0.654   7.527  0.4701 -0.5129 -0.6118
 8581SOL     OW37204   1.519   4.078   2.992  0.3270  0.5876 -0.3027
 8581SOL    HW137205   1.596   4.124   2.958  0.1799  1.2528  0.2534
 8581SOL    HW237206   1.473   4.057   2.911 -1.9178  1.6655  0.6864
 8582SOL     OW37207   0.067   2.013   2.717 -0.3021 -0.3022 -0.1315
 8582SOL    HW137208   0.122   1.979   2.646  1.3243 -1.4019  1.6586
 8582SOL    HW237209   4.723   1.947   2.721  0.3066 -0.8814  0.8991
 8583SOL     OW37210   0.410   1.495   9.287  0.8587 -0.4657  0.3947
 8583SOL    HW137211   0.463   1.527   9.214 -0.4173  0.9699  0.0948
 8583SOL    HW237212   0.444   1.408   9.306 -1.4546 -1.2189  1.1059
 8584SOL     OW37213   3.548   4.662   1.155 -0.6207 -0.3616 -0.2907
 8584SOL    HW137214   3.625   4.719   1.146 -1.9063  1.4918  0.4120
 8584SOL    HW237215   3.585   4.597   1.214  0.6769  2.2045  1.7057
 8585SOL     OW37216   0.437   2.252   8.423  0.4052 -0.3899 -0.0402
 8585SOL    HW137217   0.467   2.179   8.478 -0.8847 -0.7043  0.2496
 8585SOL    HW237218   0.363   2.206   8.384 -0.4527 -0.6843  1.9304
 8586SOL     OW37219   3.876   3.138  11.972 -0.8954  0.3092 -0.7030
 8586SOL    HW137220   3.891   3.198  12.045 -1.0829  2.0647 -2.0868
 8586SOL    HW237221   3.794   3.181  11.946  0.6587  1.8562 -3.0818
 8587SOL     OW37222   2.859   3.011   1.458  0.0637  0.9583 -0.4398
 8587SOL    HW137223   2.794   3.006   1.388  0.3054  1.1946 -0.6752
 8587SOL    HW237224   2.935   2.964   1.423  0.4313  0.4465  1.0549
 8588SOL     OW37225   2.615   4.385   4.822  0.2436  0.9891 -0.1116
 8588SOL    HW137226   2.673   4.397   4.748  0.2951 -2.4635 -0.6348
 8588SOL    HW237227   2.558   4.462   4.816  0.0606  0.7909 -0.8351
 8589SOL     OW37228   1.912   1.111   7.681  0.0964 -0.0086  0.1105
 8589SOL    HW137229   1.847   1.167   7.724 -0.0215  0.9661 -1.3455
 8589SOL    HW237230   1.979   1.178   7.696 -0.7120  0.4851  1.5627
 8590SOL     OW37231   3.192   3.784   6.861 -0.3444 -0.0534  0.4594
 8590SOL    HW137232   3.221   3.789   6.952  1.4692 -2.3999  0.0098
 8590SOL    HW237233   3.237   3.861   6.828 -2.1934 -0.2343 -2.4872
 8591SOL     OW37234   2.902   3.732  13.032 -0.1483  0.2425  0.0707
 8591SOL    HW137235   2.896   3.775  13.117  1.7764  0.8390 -0.0832
 8591SOL    HW237236   2.814   3.737  12.994  0.3325  0.8179 -0.9582
 8592SOL     OW37237   0.945   3.038   2.465 -0.8826  0.0601  0.1042
 8592SOL    HW137238   0.940   3.115   2.408  0.0496  2.0163  2.6929
 8592SOL    HW237239   0.880   3.073   2.526 -0.6072 -0.4416  0.6883
 8593SOL     OW37240   3.885   3.154   2.183 -0.2551 -0.1857  0.1728
 8593SOL    HW137241   3.961   3.106   2.217  0.9808  1.2433 -0.5979
 8593SOL    HW237242   3.811   3.110   2.226  0.1643 -0.8299  0.2219
 8594SOL     OW37243   0.519   3.915   6.349  0.1398 -0.4546  0.4893
 8594SOL    HW137244   0.512   3.853   6.421 -0.2928  1.2981  1.9688
 8594SOL    HW237245   0.540   3.855   6.278  1.4985 -0.1385  0.6341
 8595SOL     OW37246   2.905   0.167   2.566  0.1767 -0.0051  0.4913
 8595SOL    HW137247   2.892   0.086   2.615 -2.0637 -0.8886 -1.5206
 8595SOL    HW237248   2.888   0.126   2.481  0.2738  2.6844 -0.8561
 8596SOL     OW37249   4.557   0.428   2.188 -0.0541  0.0623 -0.2979
 8596SOL    HW137250   4.469   0.407   2.220 -0.0628 -0.4296 -0.6418
 8596SOL    HW237251   4.539   0.518   2.160  0.7158  0.2965 -0.0288
 8597SOL     OW37252   0.217   0.105  14.559  0.1275 -0.5286 -0.3188
 8597SOL    HW137253   0.299   0.056  14.565  0.1926 -0.3880 -0.0656
 8597SOL    HW237254   0.177   0.088  14.644  2.0121 -0.1898  0.6445
 8598SOL     OW37255   0.099   1.924   7.325 -0.1644  0.6132 -0.4487
 8598SOL    HW137256   0.166   1.975   7.280  0.2185  0.2882 -0.2462
 8598SOL    HW237257   0.124   1.930   7.417  0.4088  1.0027 -0.6297
 8599SOL     OW37258   2.691   2.209   7.900 -0.2701 -0.1385  0.0839
 8599SOL    HW137259   2.703   2.114   7.904 -0.6473 -0.2282 -1.0067
 8599SOL    HW237260   2.615   2.204   7.842  0.2630  0.1630 -0.6304
 8600SOL     OW37261   1.978   3.644   0.634  0.4827  0.3601  0.0308
 8600SOL    HW137262   1.986   3.569   0.693 -0.6536  0.5829  0.4818
 8600SOL    HW237263   1.958   3.602   0.550  1.1044  0.7203 -0.2910
 8601SOL     OW37264   1.455   4.548   0.852  0.1255 -0.1012 -0.2629
 8601SOL    HW137265   1.402   4.472   0.827  0.8895 -0.8521  0.4140
 8601SOL    HW237266   1.392   4.588   0.912  0.8718 -0.6785  0.8994
 8602SOL     OW37267   4.533   4.274   1.378 -0.1318 -0.4030 -0.0357
 8602SOL    HW137268   4.456   4.238   1.334 -1.4030  0.9837  1.0728
 8602SOL    HW237269   4.584   4.198   1.407 -0.1605 -0.4205 -0.0308
 8603SOL     OW37270   3.808   0.750   8.598 -0.3918  0.0512  0.3803
 8603SOL    HW137271   3.729   0.796   8.570 -1.0858 -0.2859  1.7657
 8603SOL    HW237272   3.786   0.736   8.690 -1.0697  1.4720  0.4260
 8604SOL     OW37273   0.438   3.489   6.857 -0.2640  0.3154 -0.4393
 8604SOL    HW137274   0.366   3.503   6.796 -1.8065  0.4700  1.4141
 8604SOL    HW237275   0.471   3.402   6.835 -1.1045  0.0010 -0.4467
 8605SOL     OW37276   0.698   1.449   5.831  0.1266 -0.0111  0.2806
 8605SOL    HW137277   0.763   1.419   5.894 -0.1627 -0.5071  0.3431
 8605SOL    HW237278   0.618   1.414   5.870  0.1228  0.2334  0.4893
 8606SOL     OW37279   1.008   3.378   1.237  0.1333 -0.3274 -0.4179
 8606SOL    HW137280   1.044   3.332   1.161  2.1690 -0.0943  0.4178
 8606SOL    HW237281   1.003   3.316   1.310 -0.2133 -0.8997 -0.9266
 8607SOL     OW37282   0.378   1.011   1.898  0.3522 -0.2414 -0.3912
 8607SOL    HW137283   0.387   0.923   1.859  2.1770 -0.4557  0.5049
 8607SOL    HW237284   0.290   1.016   1.934  0.5243  3.0693 -0.4321
 8608SOL     OW37285   0.083   4.439   8.972 -0.0667 -0.0806 -0.4642
 8608SOL    HW137286   0.019   4.510   8.974  0.0982  0.0252  0.8289
 8608SOL    HW237287   0.060   4.394   9.053 -1.4136  0.5933 -0.4705
 8609SOL     OW37288   0.332   4.033   4.986  0.5114  0.0766  0.8737
 8609SOL    HW137289   0.246   4.076   4.994 -0.0580 -1.1343  1.2665
 8609SOL    HW237290   0.294   3.945   4.985 -0.6293  0.5947 -1.1828
 8610SOL     OW37291   0.239   1.062   2.610  0.2756 -0.2093  0.0835
 8610SOL    HW137292   0.299   1.045   2.538 -0.9593  1.0271 -1.2341
 8610SOL    HW237293   0.231   1.157   2.617 -1.7882 -0.4875  1.8983
 8611SOL     OW37294   0.854   1.927  11.754  0.4715 -0.4020  0.0387
 8611SOL    HW137295   0.937   1.889  11.723 -0.0150  1.0951 -3.1231
 8611SOL    HW237296   0.798   1.882  11.690 -0.6291  0.2878  0.5369
 8612SOL     OW37297   2.734   1.193   5.516  0.2232  0.6471 -0.0217
 8612SOL    HW137298   2.822   1.191   5.552  0.1972  2.9101  0.1568
 8612SOL    HW237299   2.675   1.194   5.591  1.6231 -1.3423  1.1225
 8613SOL     OW37300   3.617   3.270   3.107 -0.2204 -0.0601  0.8830
 8613SOL    HW137301   3.604   3.363   3.128  1.1838 -0.0676  1.7990
 8613SOL    HW237302   3.633   3.269   3.013 -1.2571  0.3794  0.6922
 8614SOL     OW37303   1.682   0.913   4.307  0.7624 -0.1322  0.0666
 8614SOL    HW137304   1.590   0.911   4.280  0.9315 -0.6852 -0.4762
 8614SOL    HW237305   1.683   0.821   4.333 -1.9043  0.3059  1.7072
 8615SOL     OW37306   1.541   0.163   5.147 -0.1464  0.1922 -0.4461
 8615SOL    HW137307   1.562   0.180   5.238  0.4146  0.0721 -0.5541
 8615SOL    HW237308   1.582   0.237   5.102 -0.0310  0.3333 -0.1059
 8616SOL     OW37309   1.089   1.608   5.506  0.8158  0.6822 -0.5666
 8616SOL    HW137310   1.059   1.541   5.568 -1.0201  0.0563 -2.1344
 8616SOL    HW237311   1.124   1.662   5.577  2.3338 -1.5175  0.3845
 8617SOL     OW37312   3.371   0.956   2.680  0.4674  0.0735 -0.0453
 8617SOL    HW137313   3.324   0.956   2.597  0.4567  0.6279 -0.0395
 8617SOL    HW237314   3.397   0.866   2.700 -2.2672 -0.3920  1.3731
 8618SOL     OW37315   0.696   2.046  13.583  0.0883 -0.1385 -0.0736
 8618SOL    HW137316   0.787   2.075  13.581  0.2681 -0.7065 -0.0859
 8618SOL    HW237317   0.674   2.069  13.493 -0.0112 -2.7405 -0.7100
 8619SOL     OW37318   1.528   4.706   7.918 -0.3505 -0.5663  0.7455
 8619SOL    HW137319   1.441   4.683   7.951  0.3328  0.4915  3.2470
 8619SOL    HW237320   1.569   0.005   8.001  1.8411  0.3840 -0.6121
 8620SOL     OW37321   2.677   0.517   7.950 -0.5229  0.3392  0.2897
 8620SOL    HW137322   2.591   0.513   7.991 -0.9833  0.0735 -0.7047
 8620SOL    HW237323   2.691   0.605   7.915  0.9830 -0.0161 -0.0208
 8621SOL     OW37324   1.859   2.428   1.798  0.8043  0.2770  0.5326
 8621SOL    HW137325   1.878   2.374   1.875 -1.6876 -0.3619  0.7018
 8621SOL    HW237326   1.868   2.356   1.736  0.1771 -0.5530  1.4131
 8622SOL     OW37327   1.938   1.050   8.894  0.0906  0.0408 -0.1578
 8622SOL    HW137328   1.968   1.067   8.983 -0.9466  1.8314 -0.1408
 8622SOL    HW237329   1.959   0.957   8.886  1.1962  0.2617  0.1301
 8623SOL     OW37330   4.076   0.265   3.993 -0.2168  0.2489 -0.0071
 8623SOL    HW137331   4.040   0.225   4.072 -1.6746  0.2771 -0.6543
 8623SOL    HW237332   4.089   0.356   4.020  2.2986  0.0084 -0.4684
 8624SOL     OW37333   4.321   1.858  12.207 -0.3033 -0.3703  0.5308
 8624SOL    HW137334   4.400   1.809  12.186 -0.2642  0.2243 -0.7246
 8624SOL    HW237335   4.348   1.855  12.299  3.0665 -2.1056 -0.5165
 8625SOL     OW37336   4.185   4.708   8.879  0.0245 -0.2816  0.2315
 8625SOL    HW137337   4.101   0.021   8.904  1.5787  1.1558  3.1955
 8625SOL    HW237338   4.189   4.637   8.943  0.5523 -2.2658 -2.0035
 8626SOL     OW37339   2.232   1.914  13.489 -0.7291 -0.1862 -0.4215
 8626SOL    HW137340   2.246   1.862  13.568  1.4222 -1.4532 -1.6422
 8626SOL    HW237341   2.302   1.979  13.487 -1.3720  0.4895 -1.0142
 8627SOL     OW37342   2.039   2.398   7.636  0.6402  0.0572 -0.0326
 8627SOL    HW137343   2.023   2.448   7.556 -1.9505  2.0252  1.7277
 8627SOL    HW237344   2.012   2.314   7.599  1.6078  0.4165 -1.5681
 8628SOL     OW37345   1.066   3.989   0.504  0.8244 -0.5129 -0.1985
 8628SOL    HW137346   1.027   3.907   0.534 -1.9802  1.9471  2.8097
 8628SOL    HW237347   1.005   4.042   0.555  1.0371  0.2899 -0.7821
 8629SOL     OW37348   4.368   2.991   2.653  0.2331 -0.1537  0.3375
 8629SOL    HW137349   4.387   2.947   2.570  0.6713  1.2634 -0.3075
 8629SOL    HW237350   4.273   2.982   2.654  0.0537  1.7144 -0.1980
 8630SOL     OW37351   1.178   2.360   9.119 -0.1367 -0.0850 -0.7008
 8630SOL    HW137352   1.108   2.360   9.184  1.1159 -0.6573  0.6457
 8630SOL    HW237353   1.141   2.315   9.043 -0.7330 -0.2584 -0.3025
 8631SOL     OW37354   3.321   4.509   3.496  0.2688  0.0446  0.8691
 8631SOL    HW137355   3.296   4.509   3.588  3.3015 -1.2183  1.7109
 8631SOL    HW237356   3.416   4.524   3.501  0.4716 -1.3510  1.1656
 8632SOL     OW37357   1.024   2.334   8.896 -0.1183 -0.0464  0.3707
 8632SOL    HW137358   1.075   2.339   8.815  0.3709 -0.8834  0.6229
 8632SOL    HW237359   0.942   2.293   8.870 -1.5692  2.7812  0.4952
 8633SOL     OW37360   4.565   1.149   4.196  0.1248  0.7157 -0.3035
 8633SOL    HW137361   4.526   1.071   4.157  0.6735 -0.3170  1.2268
 8633SOL    HW237362   4.644   1.166   4.144  1.5252 -0.3823  1.4727
 8634SOL     OW37363   2.582   2.328   4.053 -0.1926 -0.2270  0.9800
 8634SOL    HW137364   2.664   2.374   4.074  0.7839 -1.8460  0.7350
 8634SOL    HW237365   2.612   2.280   3.976  2.4223 -2.3890  3.3388
 8635SOL     OW37366   2.950   0.002   8.322  0.1487 -0.3349  0.4131
 8635SOL    HW137367   3.024   0.029   8.267 -0.1850 -1.1229 -0.4285
 8635SOL    HW237368   2.973   0.041   8.406  0.0621 -0.7571  0.6271
 8636SOL     OW37369   2.438   1.569   0.188  0.2960  0.1462 -0.0685
 8636SOL    HW137370   2.520   1.528   0.161  0.1557 -0.4116  0.3703
 8636SOL    HW237371   2.461   1.599   0.276  0.3925 -0.5857  0.1569
 8637SOL     OW37372   4.002   2.244   7.414 -0.0245  0.0128 -0.9279
 8637SOL    HW137373   3.910   2.226   7.398 -0.6172  1.2226  1.1976
 8637SOL    HW237374   4.045   2.181   7.355 -1.9379 -0.4784 -1.8026
 8638SOL     OW37375   0.060   1.012   4.567 -0.1414  0.4512 -0.2379
 8638SOL    HW137376   0.017   0.979   4.488  1.0175  1.6609 -1.3791
 8638SOL    HW237377   4.708   1.029   4.620  0.7600 -1.2407  1.5875
 8639SOL     OW37378   0.668   2.094   6.470 -0.2840 -0.1659  0.7990
 8639SOL    HW137379   0.586   2.142   6.473 -0.9731 -1.3989  1.7255
 8639SOL    HW237380   0.702   2.119   6.384 -0.7597 -2.1300  0.0505
 8640SOL     OW37381   4.560   2.977   6.107  1.0834 -0.2464  0.2484
 8640SOL    HW137382   4.510   2.986   6.189  3.0217  0.3502  1.3612
 8640SOL    HW237383   4.536   3.050   6.050 -2.1594 -0.6998  1.0545
 8641SOL     OW37384   1.277   3.198   3.673 -0.2279  0.4146  0.4575
 8641SOL    HW137385   1.346   3.235   3.729 -0.3061  3.6547 -1.6052
 8641SOL    HW237386   1.260   3.111   3.710  0.6134 -0.4509 -1.2355
 8642SOL     OW37387   3.155   1.180   4.306 -0.0020  0.2758 -0.0288
 8642SOL    HW137388   3.173   1.090   4.278 -0.0685 -0.1978  1.4845
 8642SOL    HW237389   3.189   1.174   4.395  0.9660  0.1470 -0.4055
 8643SOL     OW37390   0.705   0.181   8.468  0.1446  0.2875 -0.1623
 8643SOL    HW137391   0.659   0.188   8.552  1.6470  0.9442  0.5880
 8643SOL    HW237392   0.722   0.087   8.461 -0.5750  0.1373  0.0442
 8644SOL     OW37393   1.770   2.674  11.456 -0.3983  0.2604  0.1792
 8644SOL    HW137394   1.683   2.636  11.468 -1.3634  1.1529 -3.7783
 8644SOL    HW237395   1.804   2.613  11.391 -0.6536  0.7798 -0.4482
 8645SOL     OW37396   1.101   4.182  15.422  0.1283  0.6288 -0.3842
 8645SOL    HW137397   1.120   4.268  15.461  1.4996  0.3405 -0.4190
 8645SOL    HW237398   1.082   4.121  15.493  0.5378  0.9543  0.0050
 8646SOL     OW37399   3.785   4.310   6.481  0.2890  0.5562  0.3804
 8646SOL    HW137400   3.789   4.221   6.517  2.9726  0.3087 -0.5333
 8646SOL    HW237401   3.689   4.314   6.475  0.2058 -3.5250 -1.2169
 8647SOL     OW37402   2.614   1.537   6.149 -0.2282  0.2783  0.1460
 8647SOL    HW137403   2.610   1.576   6.062 -1.1279  2.1801  1.0452
 8647SOL    HW237404   2.537   1.479   6.145  0.1818 -0.3153  0.7349
 8648SOL     OW37405   3.567   0.364  16.750 -0.4706 -0.4636 -0.5396
 8648SOL    HW137406   3.652   0.330  16.721  0.6286  0.4259  1.5886
 8648SOL    HW237407   3.509   0.345  16.677 -2.4949  0.4035  0.8469
 8649SOL     OW37408   4.394   1.692   4.857 -0.1899  0.0006 -0.0389
 8649SOL    HW137409   4.357   1.649   4.780 -1.2509 -0.0893  0.5293
 8649SOL    HW237410   4.455   1.756   4.818 -0.3472 -0.4975 -1.1154
 8650SOL     OW37411   1.607   1.807  17.539 -0.7095  0.2814  0.5080
 8650SOL    HW137412   1.602   1.713  17.556 -0.7158  0.1221 -0.3840
 8650SOL    HW237413   1.534   1.816  17.478  0.8739  1.8960 -1.1496
 8651SOL     OW37414   4.408   4.009   7.631 -0.0985  0.5588 -0.2977
 8651SOL    HW137415   4.440   4.058   7.707  1.0064 -2.0026  0.8699
 8651SOL    HW237416   4.486   4.025   7.579  0.7812  0.8087  1.1017
 8652SOL     OW37417   2.360   1.671   1.106 -0.2874 -0.6621 -0.9159
 8652SOL    HW137418   2.317   1.704   1.185  0.9756 -1.9220  0.2908
 8652SOL    HW237419   2.409   1.749   1.079 -0.7404  0.0792  0.3824
 8653SOL     OW37420   1.773   4.532  12.139  0.1302 -0.1454 -0.0579
 8653SOL    HW137421   1.694   4.510  12.189  2.1931 -2.3685  2.1944
 8653SOL    HW237422   1.777   4.627  12.151 -0.6597 -0.2183  0.7859
 8654SOL     OW37423   4.207   0.813   4.896  0.0983 -0.4175  0.0511
 8654SOL    HW137424   4.267   0.786   4.826  0.4950 -2.7033  1.2693
 8654SOL    HW237425   4.167   0.730   4.920  0.5941 -0.5269  0.5053
 8655SOL     OW37426   3.239   1.872   9.382 -0.4615 -0.2446  0.1631
 8655SOL    HW137427   3.151   1.884   9.419 -0.5054  0.6384 -0.2310
 8655SOL    HW237428   3.297   1.869   9.458 -0.0151 -0.7251 -0.1977
 8656SOL     OW37429   2.566   0.943  12.536 -0.2144 -0.2227  0.4296
 8656SOL    HW137430   2.493   0.934  12.598 -0.1235  2.9485  0.9836
 8656SOL    HW237431   2.530   0.959  12.449 -0.7884 -0.8852  0.5424
 8657SOL     OW37432   0.319   4.493   0.247 -0.6798 -0.6441  0.1103
 8657SOL    HW137433   0.327   4.455   0.159  0.8551 -0.6444  0.2465
 8657SOL    HW237434   0.332   4.421   0.308  0.3484  1.1875  2.0433
 8658SOL     OW37435   0.767   3.213  16.811  0.4480 -0.0095 -0.8122
 8658SOL    HW137436   0.700   3.246  16.872 -0.5451 -0.0167 -1.8948
 8658SOL    HW237437   0.785   3.294  16.765 -2.5254 -0.0080 -2.0204
 8659SOL     OW37438   0.833   2.063  15.110  0.2112 -0.0302 -0.1966
 8659SOL    HW137439   0.849   2.119  15.186  1.8400 -0.7525 -0.0150
 8659SOL    HW237440   0.828   1.981  15.158  1.6638  0.0049  0.0299
 8660SOL     OW37441   3.331   4.403  16.655 -0.3730 -0.4073  0.3042
 8660SOL    HW137442   3.245   4.364  16.665 -0.9227  0.0699 -2.7282
 8660SOL    HW237443   3.379   4.343  16.598  0.1697  3.0802 -2.8767
 8661SOL     OW37444   3.584   4.051   2.660 -0.8404 -0.2805  0.3187
 8661SOL    HW137445   3.560   4.059   2.567  1.1329  1.5305 -0.0213
 8661SOL    HW237446   3.536   4.126   2.695  0.0724  1.0976 -1.3971
 8662SOL     OW37447   0.537   3.941   9.859 -0.4586 -0.0327 -0.4946
 8662SOL    HW137448   0.450   3.905   9.875 -0.4249 -0.4310 -1.2138
 8662SOL    HW237449   0.551   3.975   9.947 -1.2237 -1.0743  0.0299
 8663SOL     OW37450   2.651   1.673  12.114 -0.3929  0.2005 -0.6293
 8663SOL    HW137451   2.682   1.759  12.142 -0.0195 -0.0765 -0.2035
 8663SOL    HW237452   2.585   1.652  12.181 -0.3709  1.9740 -0.0554
 8664SOL     OW37453   3.980   4.584   4.911  0.4040  0.4521  0.5549
 8664SOL    HW137454   4.033   4.552   4.984  0.8933 -0.1589 -0.0714
 8664SOL    HW237455   3.895   4.542   4.922 -0.4020  1.4543 -1.8022
 8665SOL     OW37456   2.797   4.343  12.461 -0.6915 -0.0387 -0.0813
 8665SOL    HW137457   2.770   4.369  12.373 -2.1163  0.9243  0.6364
 8665SOL    HW237458   2.865   4.281  12.434 -0.6544  0.1459 -0.4143
 8666SOL     OW37459   1.268   0.892   7.572  0.0565 -0.4986  0.4621
 8666SOL    HW137460   1.177   0.873   7.597 -0.1156 -2.4861 -1.7094
 8666SOL    HW237461   1.304   0.867   7.657  1.8835  0.7834  0.0640
 8667SOL     OW37462   2.229   0.214  11.620  0.0162 -0.3900  0.2910
 8667SOL    HW137463   2.324   0.204  11.627  0.2877  2.2693  0.1400
 8667SOL    HW237464   2.211   0.272  11.694 -0.8670 -0.0213 -0.2059
 8668SOL     OW37465   0.056   2.767   9.347 -0.1729  0.5263 -0.1643
 8668SOL    HW137466   0.043   2.858   9.318  2.9898  0.8079 -0.7277
 8668SOL    HW237467   0.072   2.785   9.440  2.3948 -1.8857 -0.1584
 8669SOL     OW37468   3.434   0.784  15.591 -0.1207  0.6300 -0.2009
 8669SOL    HW137469   3.512   0.829  15.558 -1.0409 -0.3350 -3.7369
 8669SOL    HW237470   3.371   0.852  15.612 -0.9639  0.0984 -0.9977
 8670SOL     OW37471   1.751   2.492  14.281  0.4648  0.1938  0.6535
 8670SOL    HW137472   1.709   2.511  14.197 -0.5898 -0.2537  1.0763
 8670SOL    HW237473   1.798   2.410  14.266  1.0169  0.5646  0.3580
 8671SOL     OW37474   3.261   3.342  17.124  0.3479 -0.4565  0.0883
 8671SOL    HW137475   3.215   3.317  17.044 -1.7804 -1.2290  1.5354
 8671SOL    HW237476   3.184   3.324  17.177 -1.0039  1.2508 -1.2856
 8672SOL     OW37477   3.780   1.474  11.814  0.4953  0.2209  0.0508
 8672SOL    HW137478   3.685   1.480  11.815  0.4047 -1.0145 -1.5197
 8672SOL    HW237479   3.809   1.544  11.872 -0.4575  0.7157 -0.0820
 8673SOL     OW37480   4.104   0.199   4.369 -0.2946  0.4057  0.4522
 8673SOL    HW137481   4.084   0.166   4.457 -0.6464  1.0477  0.6109
 8673SOL    HW237482   4.168   0.134   4.338 -0.9546 -0.3748  0.7232
 8674SOL     OW37483   2.617   3.404   6.607  0.5781 -0.4569  0.2424
 8674SOL    HW137484   2.706   3.398   6.642  2.5340  1.1881 -4.4517
 8674SOL    HW237485   2.616   3.319   6.564  0.7775 -0.5037  0.3301
 8675SOL     OW37486   3.591   3.007   4.614  0.6392 -0.0349  0.3829
 8675SOL    HW137487   3.619   3.077   4.672 -1.2713  2.0344 -1.1937
 8675SOL    HW237488   3.664   2.948   4.635  0.5672  0.5734  2.3063
 8676SOL     OW37489   0.947   2.811   8.771 -0.2633 -0.5001  0.3048
 8676SOL    HW137490   0.925   2.780   8.859 -0.2925 -0.1368  0.4218
 8676SOL    HW237491   0.974   2.732   8.724  0.1899  1.1880 -2.2495
 8677SOL     OW37492   3.214   0.715   7.395 -0.5139 -0.1267  0.4917
 8677SOL    HW137493   3.195   0.795   7.346  0.6286  0.7869  1.5653
 8677SOL    HW237494   3.251   0.655   7.329 -0.5693  0.8112 -0.3925
 8678SOL     OW37495   1.121   1.805   1.542  0.3017  0.4700 -0.2375
 8678SOL    HW137496   1.115   1.758   1.625  2.1973 -4.1064 -2.7130
 8678SOL    HW237497   1.062   1.880   1.550 -1.6530 -0.9101 -1.4279
 8679SOL     OW37498   1.574   2.206   0.907 -0.1501 -0.0683  0.3164
 8679SOL    HW137499   1.544   2.245   0.989  1.9046 -0.9975  1.5363
 8679SOL    HW237500   1.642   2.152   0.949  0.3290  0.9800  0.9030
 8680SOL     OW37501   1.098   1.160   8.354 -0.2024  0.0380  0.0308
 8680SOL    HW137502   1.040   1.100   8.402  1.5886 -1.5282  0.2348
 8680SOL    HW237503   1.060   1.247   8.362 -1.4603 -0.5321  0.3588
 8681SOL     OW37504   4.217   1.955   3.109  0.3598 -0.9189  0.2466
 8681SOL    HW137505   4.179   1.953   3.021  0.0487 -0.0068  0.3545
 8681SOL    HW237506   4.138   1.940   3.161  0.1870  1.0528  0.5725
 8682SOL     OW37507   4.429   0.605   3.576  0.5881  0.5037 -0.4318
 8682SOL    HW137508   4.525   0.606   3.573  0.5236  1.1258 -2.3098
 8682SOL    HW237509   4.413   0.516   3.544  0.7251  1.0866 -2.1130
 8683SOL     OW37510   1.317   4.228   8.146 -0.2811  0.0950  0.3467
 8683SOL    HW137511   1.315   4.307   8.200 -0.0244  1.9338 -2.3182
 8683SOL    HW237512   1.275   4.263   8.067 -0.3320  0.9212  0.7466
 8684SOL     OW37513   4.671   0.639   6.788  0.1907  0.7525 -0.2407
 8684SOL    HW137514   4.640   0.628   6.878  0.5875 -0.8403 -0.2902
 8684SOL    HW237515   4.603   0.601   6.733 -1.1329  1.1626  1.1168
 8685SOL     OW37516   1.275   0.697  17.363  0.5504  0.5079 -0.2345
 8685SOL    HW137517   1.251   0.786  17.390 -0.8839  0.2223 -0.5435
 8685SOL    HW237518   1.220   0.682  17.286  2.3027 -0.0550 -1.3533
 8686SOL     OW37519   2.069   3.722   6.187  0.4391 -0.0211 -0.3363
 8686SOL    HW137520   2.004   3.707   6.119 -1.8488 -0.3044  1.9236
 8686SOL    HW237521   2.075   3.818   6.189  1.7422 -0.0925 -0.4435
 8687SOL     OW37522   4.606   4.696  14.579  0.2092  0.0256  0.2352
 8687SOL    HW137523   4.557   4.648  14.646  1.4934  0.2130  1.3090
 8687SOL    HW237524   4.607   4.639  14.502 -0.6128 -0.6890  0.7414
 8688SOL     OW37525   3.795   3.908   4.502  0.1661  0.2419 -0.1193
 8688SOL    HW137526   3.768   3.911   4.594 -1.3559 -0.2785 -0.5497
 8688SOL    HW237527   3.727   3.961   4.460 -0.7326 -1.6332 -1.0556
 8689SOL     OW37528   3.125   2.762   3.998 -0.4128 -0.3281 -0.5350
 8689SOL    HW137529   3.190   2.824   3.965 -1.5690 -0.2659 -2.6711
 8689SOL    HW237530   3.050   2.807   3.960  0.6547  1.2526 -0.7551
 8690SOL     OW37531   0.187   2.941   6.921 -0.3141  0.6135 -0.2147
 8690SOL    HW137532   0.201   3.023   6.969 -1.1435  0.4355  0.3310
 8690SOL    HW237533   0.174   2.979   6.834  1.6124 -1.0182 -1.1997
 8691SOL     OW37534   3.175   1.481   6.182  0.1814 -0.3813 -0.4233
 8691SOL    HW137535   3.126   1.559   6.157  2.5038  1.1581 -0.1617
 8691SOL    HW237536   3.112   1.437   6.240 -1.8997  1.3416 -1.3833
 8692SOL     OW37537   2.492   3.158   3.626 -0.0973  0.3051  0.2447
 8692SOL    HW137538   2.420   3.134   3.685  1.2939 -1.0518  1.3789
 8692SOL    HW237539   2.546   3.079   3.632 -0.6797 -0.2382 -1.4726
 8693SOL     OW37540   2.748   4.611   4.409  0.7486  0.2669 -0.1761
 8693SOL    HW137541   2.707   4.692   4.376 -2.3600 -0.4796  1.8370
 8693SOL    HW237542   2.707   4.550   4.347  4.2773 -1.7908 -0.4450
 8694SOL     OW37543   2.697   0.997   0.852  0.2650 -0.1948 -0.1986
 8694SOL    HW137544   2.680   1.011   0.759 -0.4333 -0.3688 -0.0956
 8694SOL    HW237545   2.769   1.059   0.860  0.1298 -0.0622 -0.0249
 8695SOL     OW37546   3.969   2.285  12.975  0.8843  0.2840  0.0573
 8695SOL    HW137547   3.881   2.261  12.945  0.0388  0.1400  2.6571
 8695SOL    HW237548   4.024   2.213  12.946  0.1255 -0.5292  0.6437
 8696SOL     OW37549   2.674   0.940   8.040  0.1715  0.1540  0.0569
 8696SOL    HW137550   2.589   0.924   8.081 -0.8775 -0.1503 -2.2662
 8696SOL    HW237551   2.689   1.034   8.050  1.7723 -0.2904  2.0225
 8697SOL     OW37552   2.050   1.201  10.438 -0.5634 -0.0348  0.1269
 8697SOL    HW137553   2.021   1.118  10.478  1.0914 -0.9807 -0.6309
 8697SOL    HW237554   1.986   1.267  10.463 -0.1445  0.4302 -0.0481
 8698SOL     OW37555   3.373   3.051   6.660  0.0648 -0.0726 -0.1859
 8698SOL    HW137556   3.343   2.964   6.632 -0.0289 -0.1805  0.2481
 8698SOL    HW237557   3.437   3.022   6.726 -2.0274  0.6260  2.1553
 8699SOL     OW37558   2.301   0.528   4.513  0.0075 -0.2741 -0.3109
 8699SOL    HW137559   2.277   0.603   4.568  0.0157 -0.0817 -0.5711
 8699SOL    HW237560   2.223   0.473   4.519 -0.6623  0.2887 -3.7738
 8700SOL     OW37561   4.356   1.644  16.784 -0.4058  0.0576  0.0756
 8700SOL    HW137562   4.451   1.640  16.792 -0.3841  0.9914  0.2182
 8700SOL    HW237563   4.352   1.607  16.695  0.6044  1.8575 -0.7107
 8701SOL     OW37564   2.659   2.105   6.864  0.3737 -0.2206  0.6002
 8701SOL    HW137565   2.676   2.189   6.907 -0.1714  0.7500 -1.0796
 8701SOL    HW237566   2.627   2.135   6.779  2.0215  0.2276  0.1473
 8702SOL     OW37567   3.463   2.305   6.850 -0.0760  0.0616  0.2782
 8702SOL    HW137568   3.406   2.313   6.927  0.1777  2.8999  0.1491
 8702SOL    HW237569   3.413   2.350   6.782 -0.2301  0.5848  0.7381
 8703SOL     OW37570   4.634   2.181  12.263  0.2197  0.2733  0.3794
 8703SOL    HW137571   4.666   2.150  12.179  0.4617 -0.5006  0.7579
 8703SOL    HW237572   4.682   2.264  12.273  0.8952 -0.1781  0.9053
 8704SOL     OW37573   2.105   0.900   3.518  0.0088  0.5826 -0.2139
 8704SOL    HW137574   2.075   0.984   3.552 -0.2288  0.2837  0.3177
 8704SOL    HW237575   2.108   0.854   3.602  0.3804 -0.2868 -0.7058
 8705SOL     OW37576   4.693   2.139   8.086 -0.1629 -0.1310 -0.2971
 8705SOL    HW137577   0.038   2.204   8.096 -1.4708  1.5896 -2.2820
 8705SOL    HW237578   0.001   2.072   8.145 -0.9624  0.7961  1.2362
 8706SOL     OW37579   2.075   0.101   6.221 -0.0381 -0.6346 -0.1502
 8706SOL    HW137580   2.105   0.072   6.134 -1.7387 -0.0259 -0.9253
 8706SOL    HW237581   2.101   0.029   6.278  0.0607  0.1999  0.8610
 8707SOL     OW37582   2.831   4.550   6.368 -0.1325  0.0865  0.0863
 8707SOL    HW137583   2.822   4.556   6.273 -1.6953 -1.7481  0.1334
 8707SOL    HW237584   2.791   4.464   6.375 -1.3612  0.8942  2.6131
 8708SOL     OW37585   0.652   1.570  11.768  0.2377 -0.1417  0.1317
 8708SOL    HW137586   0.610   1.535  11.690  0.7173  1.2362 -0.7456
 8708SOL    HW237587   0.734   1.601  11.730 -1.2359  0.7293 -2.3644
 8709SOL     OW37588   2.628   1.784  14.891  0.0126  0.1172 -0.1757
 8709SOL    HW137589   2.600   1.839  14.818 -0.4059 -1.0783 -0.9174
 8709SOL    HW237590   2.719   1.769  14.866  0.0672 -2.3577  1.4706
 8710SOL     OW37591   0.868   1.899   4.456  0.8562  0.2453 -0.2284
 8710SOL    HW137592   0.800   1.959   4.487 -1.8596 -1.3940 -2.9339
 8710SOL    HW237593   0.879   1.835   4.526  0.1316 -0.8994 -1.1598
 8711SOL     OW37594   4.511   1.573  16.007  1.1655 -0.1452  0.0668
 8711SOL    HW137595   4.575   1.560  15.938  1.2523  1.1619 -0.0892
 8711SOL    HW237596   4.491   1.490  16.050  0.5062  0.6454  1.2844
 8712SOL     OW37597   2.710   1.091   1.780 -0.1736  0.5013 -0.1452
 8712SOL    HW137598   2.617   1.104   1.759 -0.3743  1.3695  1.2738
 8712SOL    HW237599   2.726   1.006   1.738 -0.5801 -0.0301  0.7740
 8713SOL     OW37600   2.495   0.058  13.129 -0.2061  0.3193  0.6725
 8713SOL    HW137601   2.500   0.112  13.208  0.3539  2.4088 -0.7965
 8713SOL    HW237602   2.507   4.696  13.167 -1.4868  0.5197  1.5463
 8714SOL     OW37603   1.125   0.637   3.809  0.1129  0.5761 -0.2514
 8714SOL    HW137604   1.157   0.548   3.824  1.4008  1.0035 -0.5401
 8714SOL    HW237605   1.177   0.663   3.734  1.6104 -1.7796 -0.0152
 8715SOL     OW37606   0.358   0.667  16.787  0.1324 -0.0330 -0.2884
 8715SOL    HW137607   0.305   0.626  16.719  0.2049 -2.0444  0.8582
 8715SOL    HW237608   0.387   0.588  16.834 -0.7783 -1.7046 -2.5718
 8716SOL     OW37609   0.343   0.342   1.446  0.3044  0.3511  0.1579
 8716SOL    HW137610   0.372   0.265   1.494  1.3232  1.3538  1.1531
 8716SOL    HW237611   0.423   0.393   1.434  0.9083 -0.2650  1.6450
 8717SOL     OW37612   0.239   0.927   8.682 -0.3335 -0.4174  0.2411
 8717SOL    HW137613   0.241   0.851   8.624 -1.4736  0.5431 -1.0594
 8717SOL    HW237614   0.310   0.912   8.744  1.1608 -1.2287 -1.6683
 8718SOL     OW37615   1.263   3.154   2.060  0.2838  0.0934 -0.1611
 8718SOL    HW137616   1.306   3.152   2.145 -0.1312 -1.4144  0.0109
 8718SOL    HW237617   1.192   3.217   2.072  0.3992  0.3777 -0.9207
 8719SOL     OW37618   4.204   4.352   9.478 -0.3628  0.2794  0.6279
 8719SOL    HW137619   4.133   4.308   9.525  0.1563  1.4541  2.5150
 8719SOL    HW237620   4.272   4.347   9.545  1.7230 -0.9101 -1.5955
 8720SOL     OW37621   3.463   2.975   2.633  0.1631  1.0548  0.7088
 8720SOL    HW137622   3.384   2.974   2.580 -0.1527  0.2347  1.1962
 8720SOL    HW237623   3.511   2.905   2.588 -0.9666  0.6227  0.1893
 8721SOL     OW37624   3.603   3.987   7.618 -0.7815  0.1608  0.0178
 8721SOL    HW137625   3.645   3.933   7.686  1.8928  1.4869 -0.5854
 8721SOL    HW237626   3.555   3.916   7.576 -0.7139 -0.8467  1.6132
 8722SOL     OW37627   2.841   4.049   4.722 -0.2053  0.6524  0.0064
 8722SOL    HW137628   2.821   4.054   4.815 -1.2374 -0.0544 -0.1692
 8722SOL    HW237629   2.874   4.136   4.701  0.0809 -0.0773 -2.5260
 8723SOL     OW37630   0.243   1.331   2.629  0.3040  0.2762 -0.0565
 8723SOL    HW137631   0.181   1.352   2.699 -2.0911 -0.9112 -1.8075
 8723SOL    HW237632   0.226   1.402   2.566  1.4063  0.9167  0.3750
 8724SOL     OW37633   2.536   1.467   5.834 -0.0277 -0.1886  0.0636
 8724SOL    HW137634   2.603   1.531   5.859  0.6445 -0.6390 -0.6101
 8724SOL    HW237635   2.462   1.510   5.878 -0.2451 -1.1040  0.5826
 8725SOL     OW37636   3.145   0.450   4.594 -0.0874 -0.1932  0.2528
 8725SOL    HW137637   3.085   0.504   4.646 -0.5917 -0.3905 -0.1212
 8725SOL    HW237638   3.193   0.518   4.547  2.6727  0.4093  3.9569
 8726SOL     OW37639   1.285   3.809   8.405 -0.3138 -0.0289 -0.1012
 8726SOL    HW137640   1.358   3.852   8.359  0.1719 -0.9130 -0.1589
 8726SOL    HW237641   1.262   3.738   8.345 -4.2721  1.8320 -0.8090
 8727SOL     OW37642   0.047   4.687  13.371 -0.4445 -0.1634 -0.1515
 8727SOL    HW137643   0.069   4.673  13.279 -2.2427 -1.8336 -0.3363
 8727SOL    HW237644   0.009   4.600  13.387  0.1290 -0.4111 -0.1528
 8728SOL     OW37645   2.620   0.642  12.304 -1.0162  0.5561 -0.1208
 8728SOL    HW137646   2.568   0.563  12.320 -1.3703  1.1083  1.3789
 8728SOL    HW237647   2.568   0.719  12.283 -0.4476  0.3954 -2.1258
 8729SOL     OW37648   3.555   1.029  14.227  0.0631  0.1883 -0.4598
 8729SOL    HW137649   3.521   1.118  14.218 -1.0847 -0.2990 -1.0375
 8729SOL    HW237650   3.580   1.025  14.319  0.2302  0.4670 -0.4956
 8730SOL     OW37651   1.577   0.339   9.298  0.4723  0.2437  0.0051
 8730SOL    HW137652   1.551   0.426   9.268 -1.0223 -0.2979 -0.2937
 8730SOL    HW237653   1.620   0.356   9.382  1.9522  1.8838 -1.0966
 8731SOL     OW37654   3.686   4.427   6.181 -0.6356 -0.4380 -0.7061
 8731SOL    HW137655   3.696   4.348   6.129  0.4414 -0.7448 -0.0317
 8731SOL    HW237656   3.716   4.409   6.270 -0.0653  2.0608 -0.3940
 8732SOL     OW37657   0.511   2.988  12.291 -0.0825  0.3157 -0.0717
 8732SOL    HW137658   0.457   3.043  12.348 -0.8304 -1.5824  1.0574
 8732SOL    HW237659   0.524   2.925  12.363  1.0789  0.1364 -0.4308
 8733SOL     OW37660   4.486   2.402  15.977 -0.4613 -0.3606 -0.1991
 8733SOL    HW137661   4.504   2.339  15.908 -0.8072 -0.0175 -0.5993
 8733SOL    HW237662   4.550   2.473  15.965  0.7050 -1.8796 -2.8162
 8734SOL     OW37663   2.920   0.638   3.054  0.1046 -1.0393  0.7097
 8734SOL    HW137664   2.958   0.687   2.982 -2.0944  0.5669  0.6256
 8734SOL    HW237665   2.861   0.576   3.011  0.7181 -1.6600  0.7663
 8735SOL     OW37666   3.428   2.487   7.581 -0.3149 -0.1139 -0.1572
 8735SOL    HW137667   3.511   2.440   7.576 -1.0692 -1.3092 -1.5714
 8735SOL    HW237668   3.454   2.554   7.645  3.4381  0.8114 -2.6352
 8736SOL     OW37669   1.393   4.650   8.943 -0.5449  0.1115 -0.6578
 8736SOL    HW137670   1.327   4.654   8.874 -0.4449 -0.9189 -0.8143
 8736SOL    HW237671   1.470   4.640   8.887  1.3202 -0.7785  2.0848
 8737SOL     OW37672   2.934   0.060   4.539 -0.0897 -0.1167 -0.2533
 8737SOL    HW137673   2.912   0.050   4.631  0.1647 -2.8704 -0.4966
 8737SOL    HW237674   2.878   4.722   4.495  1.2378 -0.5409 -1.3229
 8738SOL     OW37675   4.098   1.415   7.012 -0.0510  0.4566  0.2539
 8738SOL    HW137676   4.137   1.502   7.018  1.5731 -0.6164  4.5165
 8738SOL    HW237677   4.116   1.403   6.918 -0.5188 -0.7250  0.3066
 8739SOL     OW37678   4.630   2.394   8.264  0.5021 -1.2460 -0.1760
 8739SOL    HW137679   4.682   2.319   8.294  0.7152 -0.4630  1.4195
 8739SOL    HW237680   4.684   2.437   8.197 -0.1367  2.0678  1.4453
 8740SOL     OW37681   0.396   3.817   5.450  0.2843 -0.7286 -0.7050
 8740SOL    HW137682   0.384   3.912   5.454  0.5750 -0.8817  3.9474
 8740SOL    HW237683   0.487   3.816   5.420  0.5433 -2.0159  0.1317
 8741SOL     OW37684   1.249   4.066   5.983  0.4914 -0.1656 -0.0877
 8741SOL    HW137685   1.266   3.996   5.921 -1.2860  0.2640 -1.0643
 8741SOL    HW237686   1.206   4.018   6.054 -2.5285  3.6924  0.7451
 8742SOL     OW37687   4.202   4.544   2.123  0.3820  0.3288  0.6340
 8742SOL    HW137688   4.291   4.566   2.152  1.0224 -0.7063 -0.5738
 8742SOL    HW237689   4.168   4.481   2.186  2.3306  0.2662  1.6320
 8743SOL     OW37690   4.104   3.724   6.649 -0.1974  0.2926  0.4939
 8743SOL    HW137691   4.173   3.768   6.599 -0.4045  2.4614  2.1042
 8743SOL    HW237692   4.039   3.794   6.645 -1.5518 -0.9466  0.8796
 8744SOL     OW37693   2.337   2.741   3.607  0.6669 -0.0711 -0.4151
 8744SOL    HW137694   2.262   2.739   3.548  1.1792  1.7454 -1.1179
 8744SOL    HW237695   2.401   2.796   3.563 -0.4392  2.6271  1.3381
 8745SOL     OW37696   0.683   4.243   0.803  0.3111  0.1622 -0.8867
 8745SOL    HW137697   0.724   4.322   0.766 -0.1258  1.4328  1.3457
 8745SOL    HW237698   0.699   4.258   0.896  0.3975 -2.8920 -0.4052
 8746SOL     OW37699   4.615   4.608   9.082  0.0754  0.1826 -0.0040
 8746SOL    HW137700   4.534   4.636   9.124 -0.7014 -0.8430 -0.8228
 8746SOL    HW237701   4.680   4.666   9.120 -0.1164 -0.0265  0.6404
 8747SOL     OW37702   1.813   4.261   5.394  0.1065  0.0583 -0.0645
 8747SOL    HW137703   1.771   4.220   5.318  1.2954  2.2376 -1.8799
 8747SOL    HW237704   1.734   4.255   5.448  0.1211 -0.2155 -0.0711
 8748SOL     OW37705   0.548   4.090   8.067 -0.1771  0.5410  0.3447
 8748SOL    HW137706   0.523   4.120   8.154  0.2783  1.5134  0.1349
 8748SOL    HW237707   0.612   4.154   8.037  0.0511 -0.0852 -0.5419
 8749SOL     OW37708   4.431   2.127   8.456  0.1479  0.2233 -0.0376
 8749SOL    HW137709   4.420   2.219   8.429  2.5149  0.4966 -0.0573
 8749SOL    HW237710   4.378   2.123   8.535 -0.7655  0.3704 -0.6399
 8750SOL     OW37711   4.069   2.705  13.839  1.1683 -0.2593 -0.2440
 8750SOL    HW137712   4.037   2.728  13.752  2.4893 -0.4231 -0.7641
 8750SOL    HW237713   4.081   2.789  13.882  1.5088  0.5136 -1.8399
 8751SOL     OW37714   1.134   3.919   2.948  0.8527  0.2222  0.2490
 8751SOL    HW137715   1.143   3.943   3.040 -1.5076 -0.5329  0.6778
 8751SOL    HW237716   1.223   3.885   2.936  1.0174 -0.2239  2.6220
 8752SOL     OW37717   0.880   0.120  12.147  0.2943  0.0738 -0.0177
 8752SOL    HW137718   0.789   0.131  12.175 -0.3728 -1.8588 -1.3487
 8752SOL    HW237719   0.857   0.128  12.054 -1.4661  0.5961  0.4538
 8753SOL     OW37720   1.341   1.429   1.406  0.3914  0.0667 -0.9702
 8753SOL    HW137721   1.347   1.351   1.351 -1.4413 -0.4009 -0.5166
 8753SOL    HW237722   1.263   1.465   1.364 -0.9438  0.2357  1.6296
 8754SOL     OW37723   3.316   0.231   7.630  0.7552 -0.4654  0.2307
 8754SOL    HW137724   3.318   0.309   7.686  0.3141 -0.3284  0.0573
 8754SOL    HW237725   3.343   0.263   7.543  0.9646  0.2797  0.5623
 8755SOL     OW37726   3.283   0.818   4.764  0.4837  0.1784  0.0391
 8755SOL    HW137727   3.198   0.826   4.719  1.1963  0.5926 -1.2308
 8755SOL    HW237728   3.286   0.898   4.815 -1.5503  0.6290 -0.5365
 8756SOL     OW37729   0.977   4.567   7.364 -0.7091  0.2242 -0.5204
 8756SOL    HW137730   0.955   4.651   7.325 -0.3722  0.6041  0.1118
 8756SOL    HW237731   0.920   4.576   7.441 -2.5397 -1.2706 -1.6868
 8757SOL     OW37732   1.431   4.503   2.962  0.5719 -0.3064  0.3024
 8757SOL    HW137733   1.478   4.421   2.973  0.1813 -0.6708 -0.7234
 8757SOL    HW237734   1.504   4.564   2.968 -1.4251  2.0638  0.6675
 8758SOL     OW37735   0.920   3.243   4.137  0.4632  0.5806 -0.4594
 8758SOL    HW137736   0.862   3.185   4.186 -0.3005  3.2404  1.7696
 8758SOL    HW237737   0.989   3.179   4.122  0.9981  1.0852 -0.1651
 8759SOL     OW37738   4.702   3.030   9.297 -0.0404  0.3356  0.6354
 8759SOL    HW137739   0.002   3.120   9.277 -0.6737  0.3491 -0.0934
 8759SOL    HW237740   4.663   3.040   9.384 -0.2500  3.1329  0.2047
 8760SOL     OW37741   3.398   2.916   0.990 -0.4141 -0.1472 -0.5498
 8760SOL    HW137742   3.419   2.891   0.900  2.5955 -0.5703  0.2620
 8760SOL    HW237743   3.482   2.915   1.035 -0.7221  2.5954  0.1007
 8761SOL     OW37744   2.273   4.232   4.567  0.5608 -0.1240  0.1119
 8761SOL    HW137745   2.330   4.302   4.536  2.4962 -0.2917  3.2282
 8761SOL    HW237746   2.226   4.282   4.634 -1.2213 -1.6047 -0.0192
 8762SOL     OW37747   3.963   4.430  17.173  0.3543  0.5239 -0.2437
 8762SOL    HW137748   3.873   4.425  17.140  0.2483 -0.7785  0.2434
 8762SOL    HW237749   3.982   4.523  17.157  1.4290  0.6829  1.9687
 8763SOL     OW37750   2.104   0.815  12.781 -0.2220 -0.1284  0.0868
 8763SOL    HW137751   2.026   0.851  12.739  1.3016  0.7734 -1.9266
 8763SOL    HW237752   2.171   0.861  12.731 -0.7062  1.3740  0.8254
 8764SOL     OW37753   2.019   4.505   5.346 -0.2618  0.1119  0.2444
 8764SOL    HW137754   2.088   4.458   5.299  0.2721 -0.2933  1.4496
 8764SOL    HW237755   1.942   4.449   5.336 -1.4453  1.5027  1.5064
 8765SOL     OW37756   0.468   1.978  13.757 -0.2267  0.6321  0.3642
 8765SOL    HW137757   0.521   1.998  13.679 -1.2556  0.5190 -0.3720
 8765SOL    HW237758   0.423   2.062  13.765 -0.6540  0.3874  0.5195
 8766SOL     OW37759   0.527   0.713   6.505  0.2032 -0.1656  1.0122
 8766SOL    HW137760   0.533   0.619   6.523  2.0057 -0.7137 -2.5518
 8766SOL    HW237761   0.435   0.725   6.530  0.1561 -3.1970  2.3694
 8767SOL     OW37762   3.836   3.137  10.051  0.1743  0.0574  0.4219
 8767SOL    HW137763   3.863   3.149  10.142  1.6774  1.0372 -0.1530
 8767SOL    HW237764   3.821   3.227  10.023  2.6142 -0.6082 -3.0363
 8768SOL     OW37765   1.323   4.195   3.705 -1.0446 -0.5750 -0.2718
 8768SOL    HW137766   1.246   4.138   3.705 -0.3579 -1.5029  0.1196
 8768SOL    HW237767   1.403   4.143   3.711 -0.2031  0.7600  0.1127
 8769SOL     OW37768   1.630   0.521   6.037 -0.0255 -0.0682 -0.1964
 8769SOL    HW137769   1.662   0.610   6.026  1.2494 -0.3394  1.3581
 8769SOL    HW237770   1.540   0.535   6.007 -0.4791  0.5294  1.4590
 8770SOL     OW37771   2.816   3.866  17.539 -0.0275 -0.3242  0.2840
 8770SOL    HW137772   2.886   3.805  17.512  2.1550  0.6517  3.6646
 8770SOL    HW237773   2.753   3.805  17.578 -1.9554  0.4260 -1.6657
 8771SOL     OW37774   1.764   3.827   0.504 -0.7415  0.1648 -0.6772
 8771SOL    HW137775   1.784   3.842   0.596  0.1426  1.8183 -1.1443
 8771SOL    HW237776   1.791   3.735   0.493 -0.6657  0.1369 -0.2581
 8772SOL     OW37777   1.375   2.847   0.313  0.5183 -0.6586  0.4351
 8772SOL    HW137778   1.363   2.942   0.312  0.6675 -0.6633 -1.6376
 8772SOL    HW237779   1.298   2.810   0.357  0.8265 -0.2256  1.3286
 8773SOL     OW37780   2.548   3.391   6.126  0.0966 -0.1196  0.0004
 8773SOL    HW137781   2.640   3.376   6.103 -0.3949 -3.0147 -0.0910
 8773SOL    HW237782   2.531   3.470   6.075  1.4691  0.4426  0.4013
 8774SOL     OW37783   1.771   0.948   2.418  0.1805  0.1999  0.3722
 8774SOL    HW137784   1.819   1.030   2.432  0.3433 -0.5222  4.0454
 8774SOL    HW237785   1.793   0.888   2.490  2.1080  0.3169 -0.1303
 8775SOL     OW37786   3.163   4.198   5.239  0.1337  0.2080  0.0921
 8775SOL    HW137787   3.144   4.281   5.284  1.4693  1.3177 -1.3887
 8775SOL    HW237788   3.229   4.233   5.179  0.4059 -0.2825  0.1093
 8776SOL     OW37789   1.158   1.042   4.464 -0.1176 -0.4931  0.2384
 8776SOL    HW137790   1.091   1.001   4.409 -0.3675 -1.2380  1.0906
 8776SOL    HW237791   1.222   0.971   4.467  1.2250  0.7981  2.6140
 8777SOL     OW37792   4.638   2.079   9.192 -0.1447  0.2381  0.0626
 8777SOL    HW137793   4.698   2.078   9.267 -0.0222 -0.1040 -0.0412
 8777SOL    HW237794   4.577   2.013   9.225 -0.5412  0.0391 -1.0487
 8778SOL     OW37795   2.139   3.026   4.248  0.1042  0.0093  0.1730
 8778SOL    HW137796   2.220   3.040   4.297  0.5291  1.0037 -0.8214
 8778SOL    HW237797   2.180   2.996   4.167  2.2454  1.4892  0.7201
 8779SOL     OW37798   2.272   2.126   6.010  0.0912  0.3736 -0.1008
 8779SOL    HW137799   2.255   2.046   6.059 -0.8038  0.2257 -0.6660
 8779SOL    HW237800   2.265   2.098   5.919  2.4893  0.7964 -0.4216
 8780SOL     OW37801   4.192   2.570   0.092  0.0982 -0.4374  0.2449
 8780SOL    HW137802   4.154   2.653   0.119  0.4219  0.0746 -0.8739
 8780SOL    HW237803   4.118   2.510   0.103  1.8740 -2.5237  0.7375
 8781SOL     OW37804   2.800   0.855   4.070  0.3634  0.6196 -0.7618
 8781SOL    HW137805   2.774   0.764   4.054 -1.4743  0.7175  1.6481
 8781SOL    HW237806   2.891   0.864   4.042  0.4719  1.3582 -0.1571
 8782SOL     OW37807   3.595   1.295  17.356  0.0165 -0.1873  0.7261
 8782SOL    HW137808   3.647   1.318  17.433  2.0433 -0.4266 -0.5961
 8782SOL    HW237809   3.567   1.380  17.321  0.6750 -0.1974  0.1851
 8783SOL     OW37810   0.953   2.540   6.992 -0.4063 -0.0662  0.6060
 8783SOL    HW137811   0.917   2.629   6.985 -0.9750 -0.4653 -1.6716
 8783SOL    HW237812   0.908   2.520   7.074  0.4750  1.2801  1.4215
 8784SOL     OW37813   3.998   2.732   3.200 -0.3556  0.4531  0.0700
 8784SOL    HW137814   4.017   2.803   3.261  1.5206  1.1055 -1.2617
 8784SOL    HW237815   4.056   2.665   3.236 -0.9923 -0.6937 -1.0646
 8785SOL     OW37816   4.514   3.037   3.918  0.1897  0.4947  0.1551
 8785SOL    HW137817   4.591   3.094   3.922 -0.9325  2.1196 -1.2476
 8785SOL    HW237818   4.554   2.953   3.898  0.8686  0.6051  1.0557
 8786SOL     OW37819   2.784   2.448   7.220  0.1249  0.7701  0.0309
 8786SOL    HW137820   2.694   2.447   7.254 -0.0140 -3.1176 -0.5450
 8786SOL    HW237821   2.827   2.468   7.303  0.7347 -0.4671  0.0079
 8787SOL     OW37822   1.467   3.874  14.847  0.3151 -0.1781  0.1519
 8787SOL    HW137823   1.561   3.874  14.832  0.1514  1.5236 -0.7944
 8787SOL    HW237824   1.473   3.904  14.937 -1.2161  1.0081 -0.1381
 8788SOL     OW37825   0.453   1.391   4.472  0.4646  0.3933  0.2823
 8788SOL    HW137826   0.379   1.333   4.451  0.9820 -0.6417  1.3121
 8788SOL    HW237827   0.516   1.365   4.405 -0.2464 -2.0151  0.5237
 8789SOL     OW37828   2.220   3.929   1.214 -0.0166 -0.4922  0.1134
 8789SOL    HW137829   2.259   3.854   1.258 -0.8505 -0.6511  0.5987
 8789SOL    HW237830   2.292   3.961   1.161 -1.2427  1.1306 -0.5875
 8790SOL     OW37831   1.113   2.350   2.027 -0.3328 -0.5143  0.6902
 8790SOL    HW137832   1.107   2.264   2.068  1.5287 -1.3262 -0.7138
 8790SOL    HW237833   1.194   2.387   2.061 -0.3995 -0.0527  0.3448
 8791SOL     OW37834   0.081   1.203   4.102 -0.2632 -0.3525  0.0347
 8791SOL    HW137835   0.093   1.242   4.015  0.3450 -0.2524  0.1643
 8791SOL    HW237836   0.052   1.272   4.162  1.8794  1.0901 -0.6153
 8792SOL     OW37837   0.235   4.294   5.973  0.1344  0.0761 -0.1330
 8792SOL    HW137838   0.221   4.347   6.052 -0.9756 -0.4263  0.0086
 8792SOL    HW237839   0.152   4.306   5.927 -0.0672  0.3882  0.3159
 8793SOL     OW37840   0.530   0.249  11.412 -0.1541  0.4859  0.0930
 8793SOL    HW137841   0.612   0.213  11.378 -0.5457 -0.7937  0.5170
 8793SOL    HW237842   0.515   0.316  11.345  0.7345 -1.6397 -2.2377
 8794SOL     OW37843   2.271   3.980  13.557 -0.3764 -0.0936 -0.2260
 8794SOL    HW137844   2.309   3.903  13.600 -1.2342 -0.4683 -0.1545
 8794SOL    HW237845   2.234   3.932  13.483  0.9630  1.3054 -1.8189
 8795SOL     OW37846   1.412   1.603   9.443 -0.1338 -0.0620  0.5692
 8795SOL    HW137847   1.341   1.659   9.472 -0.0033  1.2527 -1.7051
 8795SOL    HW237848   1.467   1.659   9.388 -2.0680 -1.2159 -2.5208
 8796SOL     OW37849   0.711   3.090   4.258  0.2469 -0.6075 -0.3254
 8796SOL    HW137850   0.685   3.057   4.344  2.8845 -0.4648  0.5451
 8796SOL    HW237851   0.633   3.072   4.206 -0.3077 -1.4419  0.7852
 8797SOL     OW37852   4.036   2.849  12.720  0.6964  0.3003  0.1877
 8797SOL    HW137853   4.066   2.822  12.806 -1.6837  1.4770  1.3796
 8797SOL    HW237854   3.997   2.770  12.685 -1.4190  0.9193  1.1683
 8798SOL     OW37855   1.831   3.411   8.565 -0.3806 -0.1604 -0.2718
 8798SOL    HW137856   1.862   3.494   8.601  1.4486 -0.7773 -0.4127
 8798SOL    HW237857   1.821   3.359   8.644 -0.0063  1.1117  0.6140
 8799SOL     OW37858   0.858   1.207   5.639 -0.8836 -0.0519 -0.3272
 8799SOL    HW137859   0.814   1.139   5.690  0.5188 -0.9159 -0.2521
 8799SOL    HW237860   0.854   1.171   5.551  3.3601  2.3310 -1.5032
 8800SOL     OW37861   0.416   0.094   0.465  0.0798 -0.2161  0.1167
 8800SOL    HW137862   0.413   0.100   0.369 -1.6286 -0.3702  0.1664
 8800SOL    HW237863   0.332   0.052   0.485 -0.9563  1.3393 -0.9991
 8801SOL     OW37864   1.837   0.832   8.036  0.2912 -0.1420  0.7379
 8801SOL    HW137865   1.901   0.832   7.965 -2.0704 -0.5206 -1.4129
 8801SOL    HW237866   1.880   0.783   8.106 -1.0222 -1.4633  0.6160
 8802SOL     OW37867   1.650   0.406   6.792 -0.5805 -0.4418  0.1554
 8802SOL    HW137868   1.664   0.353   6.713 -2.3796 -2.4530  1.1901
 8802SOL    HW237869   1.696   0.359   6.861 -0.2691 -0.5204 -0.1011
 8803SOL     OW37870   4.559   2.007  12.473 -0.3919 -0.2449 -0.0417
 8803SOL    HW137871   4.470   2.041  12.469 -0.2064  0.1813 -0.5447
 8803SOL    HW237872   4.610   2.070  12.422 -0.9032  1.5669  1.6606
 8804SOL     OW37873   1.984   3.773   0.265 -0.1158  0.2374  0.1689
 8804SOL    HW137874   1.950   3.701   0.318 -1.7419  0.2294 -0.8751
 8804SOL    HW237875   2.065   3.787   0.313 -0.4053  0.1445  0.6797
 8805SOL     OW37876   1.321   3.860   2.598 -0.7140  0.0621 -0.3491
 8805SOL    HW137877   1.241   3.912   2.605 -0.4085  0.6225 -1.0351
 8805SOL    HW237878   1.324   3.820   2.511 -0.0390 -0.4989 -0.0661
 8806SOL     OW37879   2.480   0.536   7.697  0.0652 -0.7337 -0.4643
 8806SOL    HW137880   2.435   0.575   7.772  0.5222 -0.5010 -0.3132
 8806SOL    HW237881   2.437   0.451   7.710 -1.3353  0.0416  0.0441
 8807SOL     OW37882   3.945   2.934   3.686 -0.2544 -0.1697 -0.5026
 8807SOL    HW137883   4.023   2.964   3.734 -0.4941 -0.8773  0.3178
 8807SOL    HW237884   3.881   3.005   3.692 -0.5101 -0.7134  3.1636
 8808SOL     OW37885   2.305   0.586   2.544 -0.3745 -0.1214 -0.3184
 8808SOL    HW137886   2.342   0.583   2.632  2.0823 -1.8751 -1.3932
 8808SOL    HW237887   2.288   0.493   2.530 -0.3608  0.1086 -1.8416
 8809SOL     OW37888   3.931   0.074   2.087  0.4271  0.1958  0.3278
 8809SOL    HW137889   3.977   0.082   2.004 -0.1122 -0.5446 -0.0456
 8809SOL    HW237890   3.882   0.155   2.080  0.8638  0.2409 -2.2412
 8810SOL     OW37891   3.008   2.213   1.808  0.0555 -0.5037 -0.7778
 8810SOL    HW137892   2.964   2.275   1.865 -0.1279  0.2332 -1.7148
 8810SOL    HW237893   3.043   2.271   1.740 -1.6077  0.6463 -0.6319
 8811SOL     OW37894   4.062   3.558   9.086 -0.0319  0.7066  0.4416
 8811SOL    HW137895   4.056   3.651   9.107 -3.1204  0.3499  1.1373
 8811SOL    HW237896   4.142   3.528   9.129 -1.8490 -3.7811  0.6847
 8812SOL     OW37897   2.529   0.887   6.338 -0.0901  0.3716 -0.1221
 8812SOL    HW137898   2.470   0.962   6.348 -0.4497 -0.0559  0.9446
 8812SOL    HW237899   2.600   0.931   6.290  1.4617  0.1833  2.0207
 8813SOL     OW37900   1.400   3.302   1.122 -0.1754  0.4485  0.0604
 8813SOL    HW137901   1.435   3.272   1.038 -0.8195  2.7468 -1.0263
 8813SOL    HW237902   1.426   3.394   1.130  1.3123  0.1584 -1.3945
 8814SOL     OW37903   2.434   2.903  17.536 -0.4316 -0.0050 -0.7123
 8814SOL    HW137904   2.470   2.920  17.623 -1.3528 -0.5817 -0.2240
 8814SOL    HW237905   2.489   2.836  17.497  0.1956  1.5196 -2.4403
 8815SOL     OW37906   4.071   2.128  12.620 -0.2461 -0.2730  0.1808
 8815SOL    HW137907   4.038   2.197  12.677  0.6832  0.1853  0.1463
 8815SOL    HW237908   4.119   2.087  12.692  0.9755  0.6767 -0.1142
 8816SOL     OW37909   4.186   0.215   7.412  0.0150 -0.7745  0.2669
 8816SOL    HW137910   4.201   0.307   7.435 -0.5383 -0.8500  0.9104
 8816SOL    HW237911   4.146   0.180   7.491  1.1634  1.3006  1.7705
 8817SOL     OW37912   3.423   1.658   6.823 -0.4982 -0.2986 -0.4133
 8817SOL    HW137913   3.334   1.626   6.835  0.1509 -1.5017  1.1110
 8817SOL    HW237914   3.407   1.744   6.783 -1.6270 -0.3016  0.0319
 8818SOL     OW37915   4.417   4.204   2.702  0.3783  0.0095  0.1224
 8818SOL    HW137916   4.378   4.268   2.761 -0.3090  1.0594 -1.4804
 8818SOL    HW237917   4.416   4.250   2.618  0.0563  0.5006  0.3980
 8819SOL     OW37918   4.553   3.768   3.515  0.7493  0.0448 -0.6957
 8819SOL    HW137919   4.530   3.852   3.555  0.1810  0.1536 -1.2538
 8819SOL    HW237920   4.481   3.739   3.459  1.9073 -2.6437 -0.8247
 8820SOL     OW37921   0.793   0.991   2.485 -0.0337 -0.1233  0.4009
 8820SOL    HW137922   0.714   1.019   2.531 -0.2922 -1.6729  0.9027
 8820SOL    HW237923   0.778   0.902   2.453 -0.3312  0.6623 -1.6578
 8821SOL     OW37924   0.961   2.690   6.360  0.4605 -0.1874  0.2059
 8821SOL    HW137925   1.015   2.613   6.346  1.0454  0.7768 -2.9365
 8821SOL    HW237926   0.876   2.653   6.381  0.7128 -1.3549 -0.8043
 8822SOL     OW37927   3.055   0.116   7.226 -0.1284  0.2603  0.1094
 8822SOL    HW137928   3.063   0.033   7.274 -1.4390 -0.5231 -1.0175
 8822SOL    HW237929   3.073   0.090   7.136  1.3329  0.6234  0.3049
 8823SOL     OW37930   2.704   4.231   6.621  0.5174 -0.4893  0.1584
 8823SOL    HW137931   2.684   4.137   6.624 -1.5269 -0.0860 -0.5940
 8823SOL    HW237932   2.758   4.237   6.700 -0.8858 -0.2800  1.1092
 8824SOL     OW37933   1.078   1.076   2.392  0.3299 -0.5834  0.3688
 8824SOL    HW137934   0.989   1.070   2.356 -0.1109 -2.8192  1.7971
 8824SOL    HW237935   1.103   0.987   2.367  0.3008 -0.3975 -0.3014
 8825SOL     OW37936   1.047   0.398   3.967 -0.2388 -0.2821  0.5771
 8825SOL    HW137937   0.994   0.427   3.893  3.4229  3.5559 -0.4886
 8825SOL    HW237938   1.128   0.381   3.919 -0.4343 -0.0460  0.1634
 8826SOL     OW37939   1.251   3.239   4.864  0.3352 -0.1172  0.1622
 8826SOL    HW137940   1.166   3.265   4.899 -0.6908 -1.0577 -1.6620
 8826SOL    HW237941   1.228   3.171   4.801  2.9613 -0.2808 -0.6601
 8827SOL     OW37942   0.764   1.956  15.381  0.2289 -0.0150  0.7645
 8827SOL    HW137943   0.765   1.872  15.336  0.9244  1.2701 -1.6534
 8827SOL    HW237944   0.748   1.936  15.473  0.9672 -0.2354  0.8436
 8828SOL     OW37945   2.797   1.952   0.876 -0.3235 -0.0781  0.2695
 8828SOL    HW137946   2.862   1.977   0.811 -0.7403  0.8744  0.2303
 8828SOL    HW237947   2.864   1.926   0.939 -0.5412  0.4031  0.7002
 8829SOL     OW37948   3.647   3.238  11.900  0.3364 -0.2207 -0.1891
 8829SOL    HW137949   3.597   3.320  11.895 -1.0582 -1.0007  0.8017
 8829SOL    HW237950   3.574   3.177  11.912 -0.5860  1.2403  1.5712
 8830SOL     OW37951   0.073   2.820   0.209  0.5181  0.2904 -0.8883
 8830SOL    HW137952   0.020   2.753   0.166  0.2346  0.6166 -1.0464
 8830SOL    HW237953   0.105   2.766   0.282 -0.2922 -0.5239 -1.1438
 8831SOL     OW37954   1.360   4.155   1.171 -0.1753  0.0276  0.3992
 8831SOL    HW137955   1.373   4.146   1.265 -0.7681  1.1013  0.5873
 8831SOL    HW237956   1.264   4.157   1.167 -0.1339 -0.7965 -0.9169
 8832SOL     OW37957   3.045   1.975   2.470  0.2382  0.2640  0.1233
 8832SOL    HW137958   3.051   2.062   2.431 -2.7131 -0.8035 -2.6069
 8832SOL    HW237959   2.968   1.938   2.428  1.5256 -1.1921 -0.9529
 8833SOL     OW37960   0.940   0.639   4.382 -0.3950  0.3813  0.1610
 8833SOL    HW137961   0.904   0.597   4.304  0.0938 -0.4316  0.3708
 8833SOL    HW237962   1.035   0.629   4.374 -0.1175  2.2632  0.8864
 8834SOL     OW37963   3.899   3.246   8.565  0.4025  0.0257  0.2858
 8834SOL    HW137964   3.950   3.265   8.645  0.4182 -0.1122  0.3085
 8834SOL    HW237965   3.973   3.261   8.506 -0.5832  0.6947 -0.7547
 8835SOL     OW37966   2.522   1.377  15.713  0.0654 -0.3452  0.3967
 8835SOL    HW137967   2.592   1.331  15.666 -0.3501  2.3703 -2.8638
 8835SOL    HW237968   2.469   1.309  15.754  0.2954 -0.2512  0.8536
 8836SOL     OW37969   3.725   2.018  17.379 -0.0685  0.3149 -0.2220
 8836SOL    HW137970   3.795   2.048  17.437 -0.4219  1.7929 -0.5610
 8836SOL    HW237971   3.762   2.053  17.298  1.1110  0.5861  0.4282
 8837SOL     OW37972   2.777   3.218   2.592 -0.7009  0.2998  1.0507
 8837SOL    HW137973   2.830   3.221   2.512  1.0835 -1.0056  2.1699
 8837SOL    HW237974   2.697   3.268   2.577  0.0196  1.3375  0.6497
 8838SOL     OW37975   4.284   4.582   0.802  0.0880 -0.3873 -0.1313
 8838SOL    HW137976   4.288   4.631   0.884  0.2704  1.4809 -1.2426
 8838SOL    HW237977   4.193   4.555   0.803  0.2498 -0.8895  0.5543
 8839SOL     OW37978   4.256   2.564  17.388  0.1163  0.6608 -0.1033
 8839SOL    HW137979   4.195   2.517  17.445  0.1717 -0.1517 -0.7092
 8839SOL    HW237980   4.340   2.532  17.422 -0.1854  0.4567  0.4545
 8840SOL     OW37981   0.695   2.601   6.440  0.1571  0.3562 -0.0950
 8840SOL    HW137982   0.685   2.548   6.519 -1.5369  0.2895 -0.3561
 8840SOL    HW237983   0.717   2.533   6.375 -1.3402  0.4764 -0.7242
 8841SOL     OW37984   2.243   4.041   8.637 -0.2109 -0.2795  0.0438
 8841SOL    HW137985   2.290   4.123   8.657  0.3850 -0.4258 -0.7497
 8841SOL    HW237986   2.309   3.997   8.583  2.5170  1.6756  1.7535
 8842SOL     OW37987   2.654   1.050   3.863 -0.0175 -0.1677  0.2437
 8842SOL    HW137988   2.707   1.124   3.831 -0.7890  0.5541  0.6198
 8842SOL    HW237989   2.708   1.015   3.933 -1.3728 -1.3201  0.7209
 8843SOL     OW37990   2.680   2.500   4.356 -0.3428 -0.2362 -0.0207
 8843SOL    HW137991   2.774   2.497   4.374 -0.1970 -0.8493 -0.8931
 8843SOL    HW237992   2.663   2.418   4.310  0.3034 -0.2910 -0.1673
 8844SOL     OW37993   4.723   1.803   3.190  0.9048  0.1084 -0.5000
 8844SOL    HW137994   0.038   1.875   3.238  3.3427  0.0142 -2.4399
 8844SOL    HW237995   0.079   1.763   3.160 -0.3050 -1.2008 -2.0706
 8845SOL     OW37996   1.376   4.314   9.671  0.5184  0.0926 -0.0127
 8845SOL    HW137997   1.395   4.230   9.715  0.1386  0.0051 -0.0171
 8845SOL    HW237998   1.281   4.317   9.682  0.8568  0.5943  2.8099
 8846SOL     OW37999   0.803   0.300  14.779 -0.2738 -0.4651  0.1595
 8846SOL    HW138000   0.854   0.262  14.707 -1.4718 -0.0805 -0.8810
 8846SOL    HW238001   0.712   0.294  14.750 -0.2077  1.3413 -0.4424
 8847SOL     OW38002   2.232   0.847   2.524  0.3670 -0.2680  0.0984
 8847SOL    HW138003   2.175   0.854   2.600 -0.5950 -1.4581 -0.5121
 8847SOL    HW238004   2.263   0.757   2.524 -1.4928 -0.9072  2.4325
 8848SOL     OW38005   3.940   4.184  10.743  0.2518 -0.4476 -0.0627
 8848SOL    HW138006   4.024   4.141  10.728 -0.8641 -2.9580  0.7967
 8848SOL    HW238007   3.966   4.273  10.767 -0.9276  0.6521 -2.8188
 8849SOL     OW38008   2.786   4.431   1.359  0.1916 -0.4080  0.4194
 8849SOL    HW138009   2.743   4.348   1.337 -0.6207  0.8554 -2.8291
 8849SOL    HW238010   2.717   4.468   1.413 -0.1281 -2.4098  1.3868
 8850SOL     OW38011   4.193   0.685   0.517 -0.4048 -0.3046 -0.0902
 8850SOL    HW138012   4.142   0.763   0.495 -0.5835 -0.2256  0.5988
 8850SOL    HW238013   4.140   0.630   0.575  0.2059 -1.5098 -0.6787
 8851SOL     OW38014   1.239   3.546   8.329  0.0998  1.0674  0.0671
 8851SOL    HW138015   1.301   3.493   8.379  0.8569  1.6843 -0.2221
 8851SOL    HW238016   1.269   3.526   8.240  0.4077 -0.8514  0.6015
 8852SOL     OW38017   3.863   1.852   4.827 -0.0571  0.5243  0.1674
 8852SOL    HW138018   3.838   1.775   4.777  0.3842  1.3908 -1.4028
 8852SOL    HW238019   3.895   1.919   4.766  0.1138  1.1421  0.9327
 8853SOL     OW38020   3.045   3.391   3.767 -0.3402 -0.2274 -0.3719
 8853SOL    HW138021   2.979   3.439   3.817 -0.6867 -0.6011 -0.4730
 8853SOL    HW238022   2.998   3.402   3.685 -2.4167  3.4884  1.3033
 8854SOL     OW38023   1.504   3.686   5.750  0.2672 -0.2417 -0.1073
 8854SOL    HW138024   1.544   3.687   5.663  1.3823 -0.8202  0.3944
 8854SOL    HW238025   1.569   3.676   5.819 -0.9251 -0.8551  0.9188
 8855SOL     OW38026   0.927   1.083   4.695  0.1908 -0.3215  0.1219
 8855SOL    HW138027   0.928   1.178   4.706  0.9480 -0.1308 -1.6589
 8855SOL    HW238028   1.020   1.061   4.690  0.3355  0.3850 -0.3096
 8856SOL     OW38029   0.817   3.654   8.690 -0.2108 -0.2677  0.3745
 8856SOL    HW138030   0.767   3.573   8.698  1.5948 -1.7105 -3.0889
 8856SOL    HW238031   0.893   3.623   8.641  0.9940  2.2952  0.6236
 8857SOL     OW38032   0.337   4.703  17.041 -1.0539  0.3090  0.2090
 8857SOL    HW138033   0.364   0.060  17.082  2.1037 -0.1207 -0.9814
 8857SOL    HW238034   0.282   4.668  17.111 -0.2787 -1.3217 -0.0054
 8858SOL     OW38035   2.471   2.032  17.566 -0.7374  0.1705  0.9647
 8858SOL    HW138036   2.555   2.072  17.589 -1.0772  0.8274  1.0853
 8858SOL    HW238037   2.410   2.105  17.578  0.3011  1.3176 -0.6025
 8859SOL     OW38038   1.360   2.226   4.997  0.5309  0.5830 -0.4087
 8859SOL    HW138039   1.280   2.229   5.049 -0.5102  2.3781 -2.1455
 8859SOL    HW238040   1.330   2.276   4.921 -1.0561 -0.3904 -0.4284
 8860SOL     OW38041   0.593   0.396   7.957  0.4193  0.6905 -0.2396
 8860SOL    HW138042   0.636   0.444   8.028  0.0667  0.7340 -0.0597
 8860SOL    HW238043   0.507   0.436   7.965  0.9528  1.3462  2.1747
 8861SOL     OW38044   2.243   0.407  12.365  0.0063 -0.1365 -0.1571
 8861SOL    HW138045   2.203   0.462  12.298 -0.0451 -1.1690 -0.9707
 8861SOL    HW238046   2.197   0.446  12.439 -0.6130 -0.7054 -0.2412
 8862SOL     OW38047   3.112   1.196   4.625  0.0128 -0.2549 -0.0014
 8862SOL    HW138048   3.112   1.277   4.676 -2.6717  0.1388 -0.6221
 8862SOL    HW238049   3.199   1.198   4.584  0.0922 -3.3052  0.0223
 8863SOL     OW38050   0.636   0.792   6.761 -0.0649  0.3821  0.0077
 8863SOL    HW138051   0.653   0.795   6.667  0.1964 -0.5276  0.0232
 8863SOL    HW238052   0.573   0.863   6.772  1.2056  1.9114 -2.5031
 8864SOL     OW38053   1.128   2.906   1.476  0.0841 -0.0721  0.3710
 8864SOL    HW138054   1.044   2.928   1.515  0.4945  0.6700  0.8495
 8864SOL    HW238055   1.153   2.988   1.432  1.2173 -0.3066  0.5863
 8865SOL     OW38056   1.767   3.492   7.157 -0.2016 -0.4572  0.1195
 8865SOL    HW138057   1.748   3.567   7.102 -0.3581 -0.2859  0.4039
 8865SOL    HW238058   1.822   3.435   7.104 -0.6875 -0.8236  0.0104
 8866SOL     OW38059   0.095   4.417   2.905  0.0092 -0.1168  0.3630
 8866SOL    HW138060   0.148   4.386   2.979  0.2636 -1.4300 -0.3625
 8866SOL    HW238061   0.135   4.356   2.844  2.8742  0.6390  1.4660
 8867SOL     OW38062   2.624   3.896  13.444 -0.5123  0.1552 -0.5001
 8867SOL    HW138063   2.620   3.985  13.479 -2.8147 -0.8570  1.7757
 8867SOL    HW238064   2.701   3.874  13.497  1.9360 -0.3807 -4.3261
 8868SOL     OW38065   0.975   3.602   4.899  0.1026  0.0892  0.6793
 8868SOL    HW138066   0.924   3.667   4.850  0.5371 -1.2796 -1.5914
 8868SOL    HW238067   0.959   3.625   4.990  0.5092  1.8845  0.3198
 8869SOL     OW38068   3.781   0.286   8.335 -0.0830  0.2737 -0.3053
 8869SOL    HW138069   3.772   0.211   8.276  0.4880  0.4437 -0.6051
 8869SOL    HW238070   3.843   0.336   8.281 -1.1910  0.7215 -1.1795
 8870SOL     OW38071   2.584   0.986   5.307  0.0797 -0.1160 -0.3167
 8870SOL    HW138072   2.535   0.958   5.384  0.5542  0.5434  0.2290
 8870SOL    HW238073   2.643   1.050   5.346  0.3213 -0.8568  0.5414
 8871SOL     OW38074   2.837   1.320   4.617 -0.2794 -0.2124  0.0652
 8871SOL    HW138075   2.876   1.408   4.620 -1.8727  0.4859  0.3416
 8871SOL    HW238076   2.913   1.282   4.573  0.1165 -0.0297  0.5808
 8872SOL     OW38077   2.377   2.602   4.019  0.2219  0.0387 -0.2399
 8872SOL    HW138078   2.423   2.521   3.999 -1.0975 -0.6936 -0.2595
 8872SOL    HW238079   2.325   2.574   4.094  1.6449 -0.3608  0.6091
 8873SOL     OW38080   2.182   0.972   1.755  0.1801 -0.1417  0.0450
 8873SOL    HW138081   2.130   1.036   1.707 -0.2320 -1.7714 -1.7142
 8873SOL    HW238082   2.117   0.950   1.822 -0.4101  0.2795 -0.3928
 8874SOL     OW38083   3.305   0.066  14.607 -0.2280  0.9298 -0.0094
 8874SOL    HW138084   3.286   0.136  14.545 -0.8057  2.2724  1.6934
 8874SOL    HW238085   3.397   0.072  14.630 -0.2559 -2.4639  1.0421
 8875SOL     OW38086   1.238   4.294   4.286 -0.1835  0.5454 -0.3288
 8875SOL    HW138087   1.213   4.319   4.197  1.2292 -0.1090 -0.9169
 8875SOL    HW238088   1.185   4.215   4.290  1.4763 -0.5806 -0.2260
 8876SOL     OW38089   2.082   1.833   8.164 -0.4065 -0.1350  0.0866
 8876SOL    HW138090   2.065   1.739   8.159 -0.5203 -0.0536 -1.0624
 8876SOL    HW238091   2.177   1.829   8.154 -0.5495  1.0426 -1.6356
 8877SOL     OW38092   1.062   2.123   0.266 -0.5371  0.4215  0.6768
 8877SOL    HW138093   1.041   2.052   0.328 -1.2567 -1.2607 -1.4817
 8877SOL    HW238094   1.009   2.190   0.309  1.1148  2.2785 -0.1947
 8878SOL     OW38095   3.956   4.722   3.523 -0.7296  0.1358  0.4372
 8878SOL    HW138096   4.029   4.668   3.495 -1.8891 -1.0750 -0.2714
 8878SOL    HW238097   3.944   4.707   3.617  3.6997 -2.9567  0.4582
 8879SOL     OW38098   3.621   3.778   9.675  0.7028 -0.1409  0.2235
 8879SOL    HW138099   3.714   3.799   9.665  0.1358  3.7427  3.1849
 8879SOL    HW238100   3.605   3.691   9.638  0.7713 -0.8206  1.7990
 8880SOL     OW38101   4.264   4.442   0.171  0.0338  0.2141 -0.1146
 8880SOL    HW138102   4.359   4.450   0.167  0.1277 -0.0921  1.5311
 8880SOL    HW238103   4.246   4.459   0.264 -0.9290 -1.2728 -0.0161
 8881SOL     OW38104   2.110   1.503   6.549  0.2198  0.4959  0.1291
 8881SOL    HW138105   2.158   1.574   6.590  2.3334 -0.6536 -0.3297
 8881SOL    HW238106   2.066   1.455   6.619  1.1413 -2.0435 -1.0213
 8882SOL     OW38107   4.459   1.973  11.912 -0.2214  0.3092 -0.6679
 8882SOL    HW138108   4.452   1.893  11.964  0.4087 -0.4410 -1.7200
 8882SOL    HW238109   4.538   2.018  11.943 -1.3232  0.7677  1.4142
 8883SOL     OW38110   4.367   2.299  12.284  0.3448 -0.3573  0.2838
 8883SOL    HW138111   4.458   2.286  12.260 -0.8833 -3.1059 -2.9168
 8883SOL    HW238112   4.351   2.234  12.353  0.0848  1.2899  1.7661
 8884SOL     OW38113   2.575   0.940   1.089  0.1698  0.5604  0.2684
 8884SOL    HW138114   2.631   0.909   1.018 -0.2297  0.0372  0.1866
 8884SOL    HW238115   2.591   1.035   1.080  0.8016  0.3119 -1.2984
 8885SOL     OW38116   4.409   4.328   7.520 -0.1455 -0.1476  0.0987
 8885SOL    HW138117   4.493   4.362   7.489  0.1161 -0.6856  0.2149
 8885SOL    HW238118   4.369   4.411   7.492 -1.6572 -1.2841 -1.1308
 8886SOL     OW38119   2.222   2.921  16.916  0.4413 -0.0744 -0.2961
 8886SOL    HW138120   2.279   2.844  16.924  2.0303  0.9335 -1.8033
 8886SOL    HW238121   2.266   2.969  16.846  0.2164  0.7367  0.1145
 8887SOL     OW38122   4.332   4.387   3.731 -0.4847  0.2292 -0.2345
 8887SOL    HW138123   4.277   4.347   3.664 -0.9215 -0.2152  0.3976
 8887SOL    HW238124   4.413   4.341   3.709 -0.1001  0.2914  1.0095
 8888SOL     OW38125   2.530   3.043   0.042  0.1774  0.3716  0.0479
 8888SOL    HW138126   2.463   3.068   0.106  1.2883  0.7296  1.0619
 8888SOL    HW238127   2.580   3.123   0.026 -0.1766  0.6042  0.1076
 8889SOL     OW38128   0.378   2.402   7.287 -0.1542  0.8116 -0.3348
 8889SOL    HW138129   0.318   2.471   7.316 -1.6097 -0.0143 -1.4419
 8889SOL    HW238130   0.428   2.377   7.365 -0.0814 -2.8789 -1.6127
 8890SOL     OW38131   0.040   1.736  17.568  0.5999 -0.2312  0.0727
 8890SOL    HW138132   0.049   1.785  17.487  0.7252 -0.7036 -0.1978
 8890SOL    HW238133   0.004   1.803  17.626 -0.7386 -1.1920  0.3553
 8891SOL     OW38134   0.965   4.292  10.302 -0.5405  0.5403 -0.4854
 8891SOL    HW138135   0.997   4.349  10.232  0.5562 -1.1669 -1.3694
 8891SOL    HW238136   0.938   4.349  10.373 -1.2672 -0.8438  0.3611
 8892SOL     OW38137   2.898   0.097   8.001  0.2664  0.3428  0.4792
 8892SOL    HW138138   2.855   0.170   7.957  0.0274 -0.4270 -0.5514
 8892SOL    HW238139   2.980   0.140   8.026  1.3373 -0.7700 -1.1429
 8893SOL     OW38140   1.587   2.249  15.283 -0.1342 -0.2124  0.8030
 8893SOL    HW138141   1.533   2.313  15.330  0.1314  0.1745  0.5738
 8893SOL    HW238142   1.548   2.167  15.315  2.9205 -1.8058  0.4243
 8894SOL     OW38143   0.125   2.660   0.438  0.3677 -0.3873 -0.4682
 8894SOL    HW138144   0.076   2.589   0.479  0.4665 -0.7296 -0.9468
 8894SOL    HW238145   0.218   2.641   0.449  0.1230  0.4558  3.0640
 8895SOL     OW38146   0.776   2.390   7.148 -0.2204 -0.2382 -0.0569
 8895SOL    HW138147   0.806   2.305   7.180 -1.2137 -0.7366 -0.4405
 8895SOL    HW238148   0.816   2.449   7.212 -0.0887 -0.6616  0.2544
 8896SOL     OW38149   3.397   1.035   1.638 -0.6099 -0.0332 -0.6356
 8896SOL    HW138150   3.401   1.120   1.681  1.6265 -0.2631 -0.3840
 8896SOL    HW238151   3.482   1.005   1.669 -0.6990 -0.3469 -0.6931
 8897SOL     OW38152   0.869   2.631   9.015 -0.1416 -0.5231  0.6667
 8897SOL    HW138153   0.853   2.547   9.058 -1.2702 -0.9049 -0.5376
 8897SOL    HW238154   0.963   2.623   8.998 -0.1212 -0.5110  0.7711
 8898SOL     OW38155   4.102   4.269   5.697 -0.0845  0.0608 -0.7540
 8898SOL    HW138156   4.116   4.256   5.603 -1.0634 -0.8764 -0.7711
 8898SOL    HW238157   4.149   4.193   5.731  0.5555  0.7994  0.0135
 8899SOL     OW38158   1.893   0.979  16.792  0.2379  0.1176  0.1694
 8899SOL    HW138159   1.836   0.963  16.717 -0.4847 -0.7713  0.8949
 8899SOL    HW238160   1.928   1.067  16.783  3.1311 -1.0857 -0.5338
 8900SOL     OW38161   1.819   4.356  14.097 -0.3639  0.0380 -0.0751
 8900SOL    HW138162   1.820   4.383  14.005 -1.8558 -1.6761 -0.6157
 8900SOL    HW238163   1.799   4.439  14.140  0.9713 -0.3499  1.2758
 8901SOL     OW38164   4.134   3.706  10.298  0.0671  0.3488  0.4647
 8901SOL    HW138165   4.103   3.673  10.214  1.1239  1.9800 -0.5695
 8901SOL    HW238166   4.058   3.757  10.328 -0.8084 -0.0680 -1.0841
 8902SOL     OW38167   1.258   3.594   6.578 -0.2101  0.1430  0.2560
 8902SOL    HW138168   1.332   3.650   6.558 -1.3230  1.2584 -0.6843
 8902SOL    HW238169   1.270   3.564   6.668 -2.5952 -0.5405  0.3508
 8903SOL     OW38170   2.699   2.531   4.829 -0.0761 -0.1405  0.4623
 8903SOL    HW138171   2.652   2.503   4.908 -0.6532 -0.1061  0.1316
 8903SOL    HW238172   2.632   2.557   4.766  0.7654 -1.8740 -1.1506
 8904SOL     OW38173   4.301   3.250   3.080  0.4169 -0.1419  0.0707
 8904SOL    HW138174   4.271   3.204   3.002  1.5626  1.9606 -1.6202
 8904SOL    HW238175   4.256   3.191   3.140 -1.2900 -1.0206 -2.0566
 8905SOL     OW38176   3.461   2.198  14.335  0.5094 -0.1851  0.4381
 8905SOL    HW138177   3.432   2.135  14.270 -0.1868 -0.8434  1.3872
 8905SOL    HW238178   3.492   2.265  14.274  0.9009 -1.1387 -0.3940
 8906SOL     OW38179   3.472   0.541   9.488  0.1839  0.2216 -0.1520
 8906SOL    HW138180   3.526   0.543   9.410  0.2013 -1.7112 -0.1868
 8906SOL    HW238181   3.443   0.450   9.484 -0.4925  0.4509 -0.4850
 8907SOL     OW38182   1.506   1.943  16.523 -0.5568  0.5137 -0.4109
 8907SOL    HW138183   1.596   1.928  16.496 -0.5649 -1.7933  0.8598
 8907SOL    HW238184   1.462   1.981  16.446  0.4998 -1.6854 -2.0913
 8908SOL     OW38185   2.273   4.124   8.099  0.2547  0.1677  0.0082
 8908SOL    HW138186   2.341   4.134   8.033 -0.0135 -0.6021 -0.3923
 8908SOL    HW238187   2.222   4.205   8.106  1.8208  1.0781  0.7922
 8909SOL     OW38188   2.675   3.343   2.314 -0.6075  0.0400 -0.4064
 8909SOL    HW138189   2.612   3.371   2.248  0.3599  1.1988 -0.8400
 8909SOL    HW238190   2.641   3.255   2.331 -2.5773  1.3231  2.4139
 8910SOL     OW38191   2.321   3.808   5.518  0.1442  0.2901  0.1329
 8910SOL    HW138192   2.266   3.731   5.507 -0.5721  0.9903 -1.1236
 8910SOL    HW238193   2.316   3.809   5.614  0.2390 -0.8263  0.1563
 8911SOL     OW38194   0.480   4.466  16.731 -0.1219  0.2909  0.3831
 8911SOL    HW138195   0.388   4.447  16.747 -0.6619  0.3441 -2.6708
 8911SOL    HW238196   0.524   4.387  16.763  1.8394  0.8963 -0.8077
 8912SOL     OW38197   3.110   3.297   2.639  0.0375 -0.3054  0.4965
 8912SOL    HW138198   3.064   3.360   2.584  0.7013  0.6770  1.0786
 8912SOL    HW238199   3.146   3.235   2.575  1.1363  0.4177  0.4124
 8913SOL     OW38200   2.652   4.212  17.090  0.3840 -0.5669  0.5612
 8913SOL    HW138201   2.570   4.258  17.072  0.0891 -2.1018 -2.0513
 8913SOL    HW238202   2.632   4.125  17.056 -0.8475 -0.0492 -0.0627
 8914SOL     OW38203   3.762   1.682  14.880 -0.5631  0.5291  0.0386
 8914SOL    HW138204   3.707   1.651  14.952 -2.2655 -0.0778 -1.5310
 8914SOL    HW238205   3.750   1.777  14.872 -1.0976  0.5503  1.0747
 8915SOL     OW38206   1.479   2.626   5.305 -0.6905 -0.2148 -0.0862
 8915SOL    HW138207   1.484   2.536   5.339 -1.0881 -0.0033  0.5353
 8915SOL    HW238208   1.448   2.616   5.215 -0.9897  2.9036 -0.3399
 8916SOL     OW38209   4.157   1.905   8.502  0.3164  0.1383 -0.0780
 8916SOL    HW138210   4.137   1.850   8.578  0.8641 -2.4636 -1.8022
 8916SOL    HW238211   4.204   1.972   8.552  0.3878 -1.8841  2.5498
 8917SOL     OW38212   1.129   0.999   1.031  0.0523  0.5326  0.0512
 8917SOL    HW138213   1.102   1.016   0.940 -1.7310  2.0438  0.8762
 8917SOL    HW238214   1.224   1.010   1.024  0.1313 -0.0675  0.1753
 8918SOL     OW38215   4.422   1.276   6.753  0.0222 -0.0575  0.1855
 8918SOL    HW138216   4.508   1.279   6.710 -0.1809  0.2067 -0.2054
 8918SOL    HW238217   4.425   1.180   6.751  1.3468 -0.0165 -0.2468
 8919SOL     OW38218   1.130   0.022   7.013 -0.2299 -0.5061 -0.6909
 8919SOL    HW138219   1.217   0.060   6.998 -0.8353  1.1135 -0.0637
 8919SOL    HW238220   1.081   0.017   6.931  0.5145  0.8653 -1.2180
 8920SOL     OW38221   3.042   1.137   2.698  0.3589 -0.0243  0.6879
 8920SOL    HW138222   2.982   1.211   2.690  2.0931  1.0684 -2.2783
 8920SOL    HW238223   3.077   1.139   2.609 -2.1890 -2.0439 -0.3355
 8921SOL     OW38224   4.002   1.414   4.293 -0.4074  0.1035 -0.6367
 8921SOL    HW138225   4.008   1.503   4.256  1.4329 -0.1033 -0.8402
 8921SOL    HW238226   4.003   1.438   4.385 -0.3875 -0.1427 -0.5737
 8922SOL     OW38227   4.560   1.649   0.223 -0.5308 -0.4532 -0.0386
 8922SOL    HW138228   4.538   1.649   0.130 -0.9633 -3.0433  0.0861
 8922SOL    HW238229   4.638   1.594   0.223 -0.7614 -0.7731 -1.0762
 8923SOL     OW38230   3.369   2.558   3.955 -0.4535  0.3794 -0.1036
 8923SOL    HW138231   3.387   2.498   3.882 -1.2932 -1.3385  1.1088
 8923SOL    HW238232   3.351   2.639   3.908 -0.4999 -0.5119 -1.6546
 8924SOL     OW38233   2.954   1.313   6.874  0.2578  0.0487  0.0536
 8924SOL    HW138234   2.893   1.255   6.828 -1.4738  0.9334  1.2555
 8924SOL    HW238235   2.890   1.359   6.929  1.7894  0.2398  1.6845
 8925SOL     OW38236   1.990   4.043   5.426 -0.0134 -0.4236  0.1202
 8925SOL    HW138237   1.929   4.117   5.424  0.3592 -0.1047  0.4360
 8925SOL    HW238238   1.998   4.005   5.339 -0.3188  3.4268 -1.5777
 8926SOL     OW38239   4.392   2.735   8.856  0.6717  0.0717 -0.0236
 8926SOL    HW138240   4.351   2.679   8.789 -0.6100  0.7086  0.2376
 8926SOL    HW238241   4.368   2.824   8.830  0.2943  0.5101  1.8769
 8927SOL     OW38242   1.343   1.583   5.767 -0.0107  0.4628 -0.2550
 8927SOL    HW138243   1.351   1.552   5.857  3.1650 -0.3339 -0.8129
 8927SOL    HW238244   1.290   1.663   5.774 -1.2969 -0.3859 -0.2166
 8928SOL     OW38245   0.191   0.077   3.584  0.0548 -0.3092  0.2635
 8928SOL    HW138246   0.105   0.042   3.609 -0.2579  1.0256  1.0507
 8928SOL    HW238247   0.184   0.094   3.490 -1.4441  0.2543  0.4744
 8929SOL     OW38248   2.780   0.764   7.805 -0.1350 -0.5874  0.0049
 8929SOL    HW138249   2.708   0.778   7.744 -1.1547 -0.1181  1.3217
 8929SOL    HW238250   2.837   0.721   7.742 -1.4222  0.8738 -2.1295
 8930SOL     OW38251   1.661   0.990   9.298 -0.4235  0.3739 -0.0216
 8930SOL    HW138252   1.712   1.044   9.238  0.4968 -0.9558 -0.4289
 8930SOL    HW238253   1.597   1.051   9.334 -0.8285 -0.0477 -0.0280
 8931SOL     OW38254   4.454   0.516   6.648  0.6140 -0.0026  0.0192
 8931SOL    HW138255   4.454   0.452   6.577  0.2676  0.9658 -0.8648
 8931SOL    HW238256   4.400   0.582   6.604  3.7889  2.0476 -0.7487
 8932SOL     OW38257   1.660   2.156  16.756 -0.2193  0.5282 -0.1617
 8932SOL    HW138258   1.684   2.231  16.810  2.3030  0.8561 -1.7473
 8932SOL    HW238259   1.734   2.098  16.771 -0.6331 -0.1032 -0.5565
 8933SOL     OW38260   0.176   1.839   7.838  0.3002 -0.2262  0.2214
 8933SOL    HW138261   0.162   1.933   7.850  1.6635 -0.2128  1.5697
 8933SOL    HW238262   0.144   1.827   7.748 -0.6985  0.2417  0.5080
 8934SOL     OW38263   1.672   2.464   9.347  0.4412 -0.3209 -0.2472
 8934SOL    HW138264   1.654   2.537   9.406  0.8345 -0.3754 -0.0626
 8934SOL    HW238265   1.598   2.407   9.367  0.1531  0.2043  0.1744
 8935SOL     OW38266   3.650   3.909   7.152  0.4798 -0.0158 -0.8016
 8935SOL    HW138267   3.619   3.819   7.143 -0.6754  0.2873  0.1148
 8935SOL    HW238268   3.720   3.910   7.216 -1.5364  1.2019  1.3818
 8936SOL     OW38269   2.350   2.690   4.405 -0.5626 -0.5771 -0.3594
 8936SOL    HW138270   2.320   2.645   4.326  1.8237  0.1259 -1.6540
 8936SOL    HW238271   2.273   2.742   4.429 -0.4128 -1.2355  1.4817
 8937SOL     OW38272   3.430   1.333   1.127  0.0076 -0.4359  0.1794
 8937SOL    HW138273   3.354   1.279   1.151  0.3567 -1.3488 -0.7283
 8937SOL    HW238274   3.471   1.325   1.213  1.5742 -0.7901 -0.5986
 8938SOL     OW38275   1.177   1.955  17.516 -0.5299  0.1367  0.1500
 8938SOL    HW138276   1.107   1.957  17.450 -1.2778  1.2901  0.9760
 8938SOL    HW238277   1.139   2.023  17.572  0.3075  0.5453  0.2244
 8939SOL     OW38278   3.949   3.974   5.922 -0.2584 -0.1577  0.1268
 8939SOL    HW138279   3.892   3.990   5.847  1.3457 -1.7088 -1.4357
 8939SOL    HW238280   4.033   4.001   5.883 -1.0176  0.8660 -0.7768
 8940SOL     OW38281   0.800   0.707  13.048 -0.2453  0.2582 -0.4984
 8940SOL    HW138282   0.813   0.629  13.101  1.6171  1.0579  0.2060
 8940SOL    HW238283   0.812   0.675  12.959 -0.7019 -0.7977 -0.1782
 8941SOL     OW38284   0.419   0.411  16.827 -0.3320 -0.5755 -0.2911
 8941SOL    HW138285   0.483   0.349  16.792 -2.6385 -2.7092 -0.7186
 8941SOL    HW238286   0.397   0.371  16.911  1.2416  1.3332  1.0182
 8942SOL     OW38287   0.007   2.881   8.730  0.0691 -0.2547  0.6883
 8942SOL    HW138288   0.098   2.866   8.705  0.2671  1.4902  0.3661
 8942SOL    HW238289   4.699   2.896   8.642 -2.4400  1.4504  1.9296
 8943SOL     OW38290   0.298   4.000   6.693  0.8462  0.1352 -0.2025
 8943SOL    HW138291   0.379   3.951   6.677  0.7344 -0.4578  1.0123
 8943SOL    HW238292   0.331   4.076   6.742  0.5391 -0.5273  1.0546
 8944SOL     OW38293   0.141   0.805   5.784  0.2160  0.3639 -0.4321
 8944SOL    HW138294   0.224   0.795   5.830  0.1514  0.5579 -0.2695
 8944SOL    HW238295   0.147   0.726   5.732 -2.3348  0.2029 -0.4918
 8945SOL     OW38296   3.514   2.454  15.173  0.2183  0.2638  0.7535
 8945SOL    HW138297   3.493   2.445  15.267 -0.8541 -3.4498  0.1810
 8945SOL    HW238298   3.502   2.549  15.171  0.7068  0.3375  1.3310
 8946SOL     OW38299   2.550   0.148  11.585  0.1484  0.4470  0.0611
 8946SOL    HW138300   2.575   0.194  11.666 -0.7246 -1.7893  1.5928
 8946SOL    HW238301   2.527   0.230  11.541  0.8916  1.4685  1.5869
 8947SOL     OW38302   0.470   1.935   5.007  0.7983  0.5356  0.5187
 8947SOL    HW138303   0.470   1.865   4.941 -2.9924 -1.8540  3.0571
 8947SOL    HW238304   0.564   1.951   5.012  0.6830  0.6821  2.2293
 8948SOL     OW38305   2.376   1.331   4.359 -0.0400 -0.2079  0.0302
 8948SOL    HW138306   2.403   1.417   4.327 -0.3767 -0.6160 -1.3489
 8948SOL    HW238307   2.452   1.274   4.352 -0.8336 -0.8249 -3.4228
 8949SOL     OW38308   3.615   2.562   4.560  0.1721  0.0893 -0.3209
 8949SOL    HW138309   3.697   2.529   4.522  1.4597 -0.5148  2.9364
 8949SOL    HW238310   3.610   2.655   4.539  2.4603  0.7057  1.7697
 8950SOL     OW38311   4.422   2.899   3.530 -0.4756 -0.3191 -0.3515
 8950SOL    HW138312   4.405   2.810   3.498 -0.9745 -1.0617  2.0040
 8950SOL    HW238313   4.466   2.935   3.453  0.7390 -0.0844  0.4572
 8951SOL     OW38314   4.664   3.357  15.419  0.1091 -0.0614 -0.4610
 8951SOL    HW138315   4.717   3.280  15.437 -1.3698 -0.6116  1.6229
 8951SOL    HW238316   0.002   3.411  15.371 -0.7893  0.1070 -1.4531
 8952SOL     OW38317   4.308   1.323   6.509 -0.1352  0.1311  0.3776
 8952SOL    HW138318   4.326   1.303   6.601 -1.8376 -0.1186  0.6570
 8952SOL    HW238319   4.254   1.402   6.519 -0.0751  0.0419  1.4722
 8953SOL     OW38320   2.091   0.025  11.740 -0.7269 -0.2725 -0.1532
 8953SOL    HW138321   2.180   4.724  11.764 -0.5746  0.8344  0.4853
 8953SOL    HW238322   2.112   0.110  11.701  1.0775  0.5307  2.6181
 8954SOL     OW38323   4.082   4.338   0.984  0.0750  0.1439  0.1599
 8954SOL    HW138324   4.087   4.406   0.917  2.9050 -0.4119 -0.2010
 8954SOL    HW238325   4.108   4.261   0.933  0.4228 -0.0813  0.6839
 8955SOL     OW38326   2.831   3.605  13.554 -0.6962 -0.4388 -0.3439
 8955SOL    HW138327   2.838   3.700  13.551 -0.0443 -0.4943 -0.6326
 8955SOL    HW238328   2.907   3.571  13.506 -1.1766 -0.2893 -1.2217
 8956SOL     OW38329   4.222   4.588  16.824 -0.1974  0.4851  0.6380
 8956SOL    HW138330   4.312   4.583  16.795 -0.6290  0.0564 -0.6118
 8956SOL    HW238331   4.224   4.504  16.868  0.9634  1.1783  1.9079
 8957SOL     OW38332   1.480   0.135   3.298 -0.0933 -0.0424 -0.2159
 8957SOL    HW138333   1.506   0.202   3.234 -2.4228  1.9106  0.8413
 8957SOL    HW238334   1.406   0.096   3.250  0.3725 -1.8050  0.4990
 8958SOL     OW38335   2.889   3.617   9.110 -0.0212 -0.1306 -0.1150
 8958SOL    HW138336   2.964   3.636   9.167  0.5427  0.1504 -0.9366
 8958SOL    HW238337   2.926   3.622   9.021 -0.3050  2.1210 -0.0953
 8959SOL     OW38338   2.222   3.070  11.157  0.1308 -0.4525 -0.6449
 8959SOL    HW138339   2.132   3.073  11.187  0.1837 -2.3780 -0.2637
 8959SOL    HW238340   2.270   3.142  11.198  1.0429 -1.4883  0.1250
 8960SOL     OW38341   3.608   4.695   6.800  0.2184 -0.3627  0.0915
 8960SOL    HW138342   3.632   4.666   6.888  0.7673  0.2647  0.1475
 8960SOL    HW238343   3.683   4.663   6.750  0.5380  0.8308 -0.2043
 8961SOL     OW38344   2.423   4.099   5.084  0.2910 -0.4856 -0.4666
 8961SOL    HW138345   2.487   4.137   5.145 -2.1356  0.2312  1.6346
 8961SOL    HW238346   2.395   4.017   5.126  0.9638 -0.7789 -0.5836
 8962SOL     OW38347   0.274   1.621   6.357  0.1430 -0.4143 -0.0700
 8962SOL    HW138348   0.348   1.563   6.373  0.1908  0.5805  3.4828
 8962SOL    HW238349   0.206   1.556   6.339  0.0532 -0.1101 -0.8264
 8963SOL     OW38350   2.603   4.348  15.905 -0.0070 -0.1957  0.2516
 8963SOL    HW138351   2.541   4.276  15.902 -2.4778  1.8743  1.7889
 8963SOL    HW238352   2.684   4.308  15.939  0.0518  0.0196  0.3664
 8964SOL     OW38353   2.915   3.287  11.920  0.0085  0.4703  0.2086
 8964SOL    HW138354   2.953   3.213  11.873  2.8365  1.5938  0.7712
 8964SOL    HW238355   2.830   3.256  11.950 -0.3853  1.2124 -0.1202
 8965SOL     OW38356   1.828   0.978   3.673  0.1513  0.6816  0.8509
 8965SOL    HW138357   1.828   1.034   3.751 -0.6008 -0.4997  1.6970
 8965SOL    HW238358   1.904   1.020   3.633 -0.7170 -0.1215 -1.5796
 8966SOL     OW38359   0.975   1.444   5.707  0.2184  0.1649  0.3703
 8966SOL    HW138360   0.952   1.436   5.799  0.6551  0.2786  0.4907
 8966SOL    HW238361   0.920   1.376   5.668 -0.6910  0.8947  0.3910
 8967SOL     OW38362   0.203   0.777  12.696 -0.0575 -0.1350 -0.2812
 8967SOL    HW138363   0.295   0.756  12.678 -0.1396 -1.4004  0.7711
 8967SOL    HW238364   0.190   0.836  12.622 -0.4922 -2.0396 -1.7080
 8968SOL     OW38365   1.022   2.536   0.007 -0.1456  0.3105 -0.1668
 8968SOL    HW138366   1.068   2.460  17.674 -0.7408 -0.8997  1.6921
 8968SOL    HW238367   1.020   2.517   0.101 -0.9910  0.3896 -0.1676
 8969SOL     OW38368   3.572   1.063   7.339  0.4699  0.1960  0.0251
 8969SOL    HW138369   3.545   1.154   7.353  0.9208  0.5870 -1.6598
 8969SOL    HW238370   3.663   1.078   7.313  0.1255  0.1420 -1.2061
 8970SOL     OW38371   3.649   3.378   5.993  0.6408  0.1349  0.2925
 8970SOL    HW138372   3.737   3.394   5.959 -0.3574 -1.5989 -3.1621
 8970SOL    HW238373   3.659   3.295   6.040  0.0531  1.0044  1.9532
 8971SOL     OW38374   1.964   2.356   2.639 -0.4099  0.2321  0.2251
 8971SOL    HW138375   2.015   2.398   2.569 -0.4209 -4.1670 -2.4407
 8971SOL    HW238376   1.969   2.265   2.610  0.2829  0.4440 -0.3270
 8972SOL     OW38377   3.609   3.985  15.753  0.3978 -0.1093 -0.0473
 8972SOL    HW138378   3.625   4.078  15.737 -0.8004 -0.3297 -2.6631
 8972SOL    HW238379   3.578   3.974  15.843 -0.1635 -0.9481 -0.3392
 8973SOL     OW38380   4.609   1.891   0.054  0.1378 -0.2953 -0.0262
 8973SOL    HW138381   4.517   1.899   0.027  0.9998 -2.1126 -3.5790
 8973SOL    HW238382   4.611   1.815   0.111 -3.0689  0.0335  0.5267
 8974SOL     OW38383   1.336   4.098   4.512  0.1333  0.5329 -0.1229
 8974SOL    HW138384   1.295   4.133   4.591 -0.0437  1.9678 -0.8408
 8974SOL    HW238385   1.343   4.175   4.455 -3.7012 -0.4672 -1.9698
 8975SOL     OW38386   2.360   2.953  15.932 -0.8568 -0.0264  0.3417
 8975SOL    HW138387   2.430   2.898  15.967 -0.6417 -0.9348 -1.5053
 8975SOL    HW238388   2.295   2.884  15.919 -0.7614  0.0257 -0.3950
 8976SOL     OW38389   2.083   1.308   5.637 -0.6903 -0.2043 -0.0770
 8976SOL    HW138390   2.175   1.315   5.663 -0.0866 -1.1511 -1.9150
 8976SOL    HW238391   2.087   1.331   5.544  0.1265 -0.4970 -0.1157
 8977SOL     OW38392   3.619   3.839  11.665 -0.3137 -0.3246 -0.2515
 8977SOL    HW138393   3.703   3.798  11.686  1.1111  2.6513 -0.1589
 8977SOL    HW238394   3.596   3.806  11.578 -1.2430 -1.6361  0.4903
 8978SOL     OW38395   2.536   3.481   3.886  1.0392 -0.4120  0.3188
 8978SOL    HW138396   2.530   3.475   3.981  1.4965 -1.7949  0.2584
 8978SOL    HW238397   2.458   3.433   3.858  1.2728 -0.1456 -0.8041
 8979SOL     OW38398   4.044   4.302   2.848 -0.4036  0.1754  0.2593
 8979SOL    HW138399   4.042   4.346   2.763 -1.2579  1.5385  0.9883
 8979SOL    HW238400   4.134   4.321   2.874  0.0534  0.5923 -1.5960
 8980SOL     OW38401   3.177   0.412   8.920  0.2363 -0.1022  0.6333
 8980SOL    HW138402   3.104   0.435   8.863 -0.7903  2.3141  2.9391
 8980SOL    HW238403   3.245   0.460   8.872  0.0057 -0.6909 -0.2904
 8981SOL     OW38404   2.025   1.420   4.049 -0.0933  0.2075 -0.6561
 8981SOL    HW138405   1.994   1.503   4.011 -0.9591 -0.6531 -1.8257
 8981SOL    HW238406   1.983   1.441   4.133  0.0382 -0.5099 -0.4161
 8982SOL     OW38407   1.997   3.816  15.233 -0.2875 -0.3153  0.0262
 8982SOL    HW138408   1.961   3.866  15.306  1.2386  4.1594 -2.2999
 8982SOL    HW238409   1.911   3.777  15.215 -1.2533  2.1966 -0.8144
 8983SOL     OW38410   2.488   0.734   4.938  0.7114  0.1938  0.0598
 8983SOL    HW138411   2.542   0.792   4.884  0.9547  0.1470  0.2554
 8983SOL    HW238412   2.483   0.663   4.875 -0.4657 -0.6578  1.1088
 8984SOL     OW38413   0.983   3.989   5.802  0.0936  0.0274 -0.3800
 8984SOL    HW138414   1.003   4.053   5.734 -0.5610  0.9076  0.2620
 8984SOL    HW238415   1.027   4.026   5.878 -0.7106  1.1894 -0.4853
 8985SOL     OW38416   3.519   3.502   3.212 -0.4218  0.1775 -0.4444
 8985SOL    HW138417   3.455   3.530   3.277  1.0649  2.2240  0.1352
 8985SOL    HW238418   3.595   3.552   3.242 -0.1003 -1.5807  1.6287
 8986SOL     OW38419   2.958   2.232  16.606 -0.3994 -0.0165 -0.1331
 8986SOL    HW138420   3.002   2.201  16.685  1.4197 -1.3735 -1.6774
 8986SOL    HW238421   2.976   2.323  16.625  2.4078 -1.0161  1.8500
 8987SOL     OW38422   0.510   0.094   8.948  0.1263  0.1384 -0.1746
 8987SOL    HW138423   0.468   0.010   8.963  1.7606 -0.9576 -1.6086
 8987SOL    HW238424   0.498   0.137   9.032 -0.7141  2.3091 -1.3977
 8988SOL     OW38425   3.283   2.977  10.448 -0.9498  0.0944  0.5878
 8988SOL    HW138426   3.350   2.954  10.512  1.5586 -0.2085 -2.1174
 8988SOL    HW238427   3.275   3.071  10.465 -1.0344  0.2478 -0.3069
 8989SOL     OW38428   0.565   2.156   8.736 -0.7435  0.0207  0.1913
 8989SOL    HW138429   0.501   2.111   8.681 -0.0603 -4.2383  2.9413
 8989SOL    HW238430   0.645   2.104   8.728 -1.1337 -0.5725  0.1208
 8990SOL     OW38431   4.448   2.406   4.551  0.0448 -0.1546  0.1589
 8990SOL    HW138432   4.354   2.426   4.549 -0.7660 -3.8337  1.6334
 8990SOL    HW238433   4.433   2.311   4.548 -2.0022  0.0070  4.0755
 8991SOL     OW38434   1.864   1.990  16.959  0.0417 -0.6536  0.4185
 8991SOL    HW138435   1.794   2.050  16.987  0.0033  0.1356 -1.3964
 8991SOL    HW238436   1.841   1.911  17.009 -0.3181 -0.1233  1.0993
 8992SOL     OW38437   0.513   4.486   1.876  0.1574  0.1749 -0.5174
 8992SOL    HW138438   0.511   4.429   1.953  1.9467  1.1265  0.2461
 8992SOL    HW238439   0.494   4.573   1.910  1.3136  0.9439 -1.8489
 8993SOL     OW38440   1.446   3.306  14.601 -0.0402  0.3372  0.4259
 8993SOL    HW138441   1.434   3.333  14.692  0.4089  3.5028 -0.4635
 8993SOL    HW238442   1.359   3.319  14.563 -0.8110 -0.1144  2.0250
 8994SOL     OW38443   2.262   1.446  17.662 -0.2972  0.1919 -1.0615
 8994SOL    HW138444   2.344   1.496  17.663  1.2072 -2.3031  1.0705
 8994SOL    HW238445   2.259   1.436  17.567  0.9716 -1.4921 -0.9187
 8995SOL     OW38446   1.450   3.999  13.293 -0.2816 -0.2645 -0.0732
 8995SOL    HW138447   1.401   4.056  13.352  0.2250  0.2787 -0.1771
 8995SOL    HW238448   1.530   4.048  13.272 -0.2516 -0.6122 -0.7975
 8996SOL     OW38449   4.187   1.248   7.379  0.1353 -0.4718 -0.4311
 8996SOL    HW138450   4.141   1.185   7.434  0.6217  1.9423  2.7261
 8996SOL    HW238451   4.152   1.328   7.419  0.0984 -0.6236 -0.1633
 8997SOL     OW38452   4.527   0.279   3.152  0.1456  0.1091  0.5261
 8997SOL    HW138453   4.574   0.202   3.184  1.0321  0.2736 -0.4108
 8997SOL    HW238454   4.477   0.256   3.074  0.4873 -3.8424  1.4759
 8998SOL     OW38455   1.825   2.624   3.115  0.3579  0.3643  0.0949
 8998SOL    HW138456   1.851   2.575   3.037 -2.1580  1.3843 -1.3759
 8998SOL    HW238457   1.740   2.659   3.088  0.1740 -0.9983 -1.1566
 8999SOL     OW38458   3.169   2.409   5.493 -0.1338 -0.1288 -0.5408
 8999SOL    HW138459   3.129   2.455   5.419 -0.4349 -0.7866 -0.7839
 8999SOL    HW238460   3.252   2.379   5.456  0.5542 -0.2879  1.1351
 9000SOL     OW38461   1.785   3.373  15.226 -0.2095 -0.4952 -0.1121
 9000SOL    HW138462   1.857   3.347  15.168  0.1915 -0.9823  0.6018
 9000SOL    HW238463   1.788   3.305  15.293  0.6965 -0.9562 -0.6224
 9001SOL     OW38464   4.195   1.422  12.176  0.4017  0.3646  0.8448
 9001SOL    HW138465   4.160   1.467  12.253  1.5001 -2.1190  2.7652
 9001SOL    HW238466   4.134   1.350  12.165  1.8671 -1.0627  2.0636
 9002SOL     OW38467   2.108   4.198  10.913  0.4358 -0.0530  0.6226
 9002SOL    HW138468   2.113   4.289  10.940 -1.8617  0.5617 -1.0644
 9002SOL    HW238469   2.140   4.212  10.824 -0.0527 -1.2287  0.2601
 9003SOL     OW38470   3.747   0.650   2.709 -1.0388 -0.6913  0.2189
 9003SOL    HW138471   3.678   0.670   2.647  0.4932 -0.7778 -1.5055
 9003SOL    HW238472   3.808   0.609   2.648  0.5858 -0.2769  1.5567
 9004SOL     OW38473   4.423   3.453   4.458 -0.3511 -0.3881  0.1239
 9004SOL    HW138474   4.479   3.409   4.522 -0.9724 -2.6686 -0.8987
 9004SOL    HW238475   4.484   3.456   4.385  0.3096 -0.7273  0.6641
 9005SOL     OW38476   0.067   3.620   2.663 -0.5038  0.1157 -0.0678
 9005SOL    HW138477   0.019   3.590   2.740  0.6643  0.0135  0.6085
 9005SOL    HW238478   0.115   3.540   2.642 -0.2335 -0.0688  1.2562
 9006SOL     OW38479   1.995   2.610   0.386 -0.3852  0.4643  0.1883
 9006SOL    HW138480   1.912   2.634   0.344  0.8694  1.8594 -1.4700
 9006SOL    HW238481   2.011   2.699   0.418 -1.9323  1.3858 -1.5915
 9007SOL     OW38482   1.891   0.981  10.488 -0.6048  0.3512  0.4694
 9007SOL    HW138483   1.888   0.904  10.545  1.3318 -0.9101 -1.1372
 9007SOL    HW238484   1.807   0.973  10.442 -0.1391 -2.4340  0.0831
 9008SOL     OW38485   0.903   1.824  17.679 -0.2434  0.3286 -0.4257
 9008SOL    HW138486   0.832   1.760  17.685 -0.3856  0.4668 -0.6392
 9008SOL    HW238487   0.895   1.858  17.590  2.3363  0.1414 -0.7368
 9009SOL     OW38488   3.826   0.992   1.270  0.6263  0.6057  0.2687
 9009SOL    HW138489   3.907   0.960   1.309  0.6870 -0.3879 -0.6428
 9009SOL    HW238490   3.811   1.067   1.327 -0.4049  1.3453 -0.9701
 9010SOL     OW38491   1.692   1.165  16.423 -0.0220 -0.4366 -0.1929
 9010SOL    HW138492   1.675   1.107  16.497  1.3749 -0.1482  0.3570
 9010SOL    HW238493   1.787   1.159  16.419  0.0190  0.4215 -0.5480
 9011SOL     OW38494   3.167   4.149   3.643 -0.2469  0.0642  0.0575
 9011SOL    HW138495   3.260   4.129   3.640 -0.6099 -1.8997  2.6860
 9011SOL    HW238496   3.126   4.066   3.620  2.0681 -0.5814 -1.7815
 9012SOL     OW38497   3.633   0.405   6.537 -0.0219 -0.8794 -0.1011
 9012SOL    HW138498   3.688   0.373   6.465  0.7943  0.7397 -0.2030
 9012SOL    HW238499   3.656   0.347   6.610  1.5766  1.5604  1.3447
 9013SOL     OW38500   4.072   3.009   2.553 -0.0087  0.3275 -0.0860
 9013SOL    HW138501   4.064   2.923   2.594  0.6889  0.5163  0.4531
 9013SOL    HW238502   3.995   3.053   2.590  0.7917  0.5712  1.2822
 9014SOL     OW38503   0.638   1.373   9.508  0.2642  0.4635  0.0481
 9014SOL    HW138504   0.659   1.305   9.573 -1.8013  0.9376  1.1872
 9014SOL    HW238505   0.562   1.330   9.468  1.9275 -1.5439 -0.9848
 9015SOL     OW38506   0.101   1.569   7.966  0.5636 -0.1908 -0.8066
 9015SOL    HW138507   0.105   1.651   7.917  0.8671  0.3326  0.0959
 9015SOL    HW238508   0.180   1.568   8.020  1.3237  1.6717 -1.8873
 9016SOL     OW38509   0.096   2.275   1.423 -0.1971  0.1078 -0.4967
 9016SOL    HW138510   0.115   2.318   1.506 -0.0898 -0.7095 -0.0962
 9016SOL    HW238511   0.126   2.187   1.444 -1.0550 -0.5650 -2.1569
 9017SOL     OW38512   1.891   1.611   2.272  0.4069  0.0300 -0.4152
 9017SOL    HW138513   1.817   1.551   2.284  0.9040 -0.3386  0.8289
 9017SOL    HW238514   1.953   1.585   2.340 -1.0846 -2.9738 -0.2418
 9018SOL     OW38515   0.418   0.421   2.692 -0.5373  0.1527 -0.5728
 9018SOL    HW138516   0.390   0.497   2.641  1.3437  1.6386  0.6143
 9018SOL    HW238517   0.405   0.355   2.624  1.2325  0.7008 -1.4388
 9019SOL     OW38518   2.618   3.490   2.656 -0.0030 -0.1329  0.4768
 9019SOL    HW138519   2.574   3.469   2.574  0.9136  3.4904 -0.9491
 9019SOL    HW238520   2.649   3.579   2.638 -3.4221  1.5633  2.9130
 9020SOL     OW38521   4.160   3.694   2.675 -0.0919  0.0103 -0.1420
 9020SOL    HW138522   4.226   3.748   2.632  0.0486 -0.3280 -0.3519
 9020SOL    HW238523   4.158   3.745   2.756  3.0988  0.7644 -0.5408
 9021SOL     OW38524   1.446   0.240   2.220 -0.4570 -0.0456  0.8572
 9021SOL    HW138525   1.502   0.217   2.294 -1.8636 -1.5078  1.4553
 9021SOL    HW238526   1.507   0.242   2.146 -2.7597 -1.0386 -1.0633
 9022SOL     OW38527   4.285   2.503  15.833 -0.1521  0.0398 -0.4292
 9022SOL    HW138528   4.306   2.546  15.751 -2.1289  0.1228 -0.8943
 9022SOL    HW238529   4.362   2.498  15.889  0.2473 -2.2112 -1.1821
 9023SOL     OW38530   3.708   1.637   5.142  0.4044  0.2161 -0.0444
 9023SOL    HW138531   3.638   1.663   5.202 -0.5824 -2.4191 -0.0616
 9023SOL    HW238532   3.728   1.729   5.128  1.5509  0.2028  1.5595
 9024SOL     OW38533   2.597   2.758   6.238 -0.1676  0.6545  0.1753
 9024SOL    HW138534   2.657   2.796   6.303 -0.0144  0.9910 -0.1634
 9024SOL    HW238535   2.552   2.837   6.209 -1.0030  0.5197  1.0817
 9025SOL     OW38536   0.517   2.901  11.212  0.0815 -0.2919 -0.0876
 9025SOL    HW138537   0.439   2.956  11.208  0.6297  0.1703 -4.2021
 9025SOL    HW238538   0.592   2.961  11.220 -0.1287  0.0429 -0.6344
 9026SOL     OW38539   0.805   3.872   7.444  0.2377 -0.0468 -0.4017
 9026SOL    HW138540   0.778   3.958   7.475 -0.7050 -0.9431  1.2511
 9026SOL    HW238541   0.718   3.834   7.431  0.5714 -0.4952 -1.3717
 9027SOL     OW38542   1.488   0.780   5.526 -0.2839 -0.4222 -0.2543
 9027SOL    HW138543   1.398   0.789   5.494  0.3071  2.0173 -1.2502
 9027SOL    HW238544   1.516   0.871   5.515  1.9049 -1.2879 -1.7415
 9028SOL     OW38545   3.281   1.473  12.138 -0.3649  0.3962 -0.2568
 9028SOL    HW138546   3.289   1.385  12.100 -0.5016 -0.0077  0.6522
 9028SOL    HW238547   3.368   1.481  12.177 -0.1979 -0.6096 -0.4007
 9029SOL     OW38548   0.371   4.160   3.690  0.4138 -0.2562 -0.2039
 9029SOL    HW138549   0.445   4.204   3.648  1.9689 -1.6388  1.1091
 9029SOL    HW238550   0.403   4.151   3.780  0.6284 -1.3943 -0.3984
 9030SOL     OW38551   1.567   0.545   7.074 -0.1172  0.3208 -0.7209
 9030SOL    HW138552   1.583   0.509   6.987  1.3208 -0.1481 -0.2704
 9030SOL    HW238553   1.482   0.514   7.103  0.7176 -1.7114 -0.4377
 9031SOL     OW38554   0.365   0.771   1.672 -0.7919  0.2330  0.4636
 9031SOL    HW138555   0.449   0.728   1.653 -0.1144  1.2249  1.2027
 9031SOL    HW238556   0.316   0.689   1.679  0.6236 -0.7391 -0.8622
 9032SOL     OW38557   3.030   3.520   3.295  0.2860  0.0923  0.0223
 9032SOL    HW138558   2.971   3.445   3.296 -0.4858  0.6944 -0.6519
 9032SOL    HW238559   3.022   3.552   3.205  0.6232  1.9353  0.6372
 9033SOL     OW38560   3.163   0.576   6.265  0.0419  0.6250  0.5114
 9033SOL    HW138561   3.240   0.592   6.212 -0.7375  0.1831 -0.7459
 9033SOL    HW238562   3.168   0.482   6.285 -3.1808  0.3558  0.0907
 9034SOL     OW38563   4.552   1.752  15.755  0.2294 -0.5499 -0.4855
 9034SOL    HW138564   4.616   1.765  15.826 -1.2406  0.5474  0.6287
 9034SOL    HW238565   4.616   1.735  15.686  0.9658 -1.3679  0.3884
 9035SOL     OW38566   0.171   2.811   5.469 -0.2516  0.3399 -0.2280
 9035SOL    HW138567   0.111   2.744   5.500  0.8181 -1.4782 -2.0461
 9035SOL    HW238568   0.219   2.837   5.548 -0.7068 -0.5682  0.3426
 9036SOL     OW38569   2.482   1.304   9.824 -0.2296  0.2269  0.5575
 9036SOL    HW138570   2.569   1.292   9.785  1.1933 -0.4167  3.8455
 9036SOL    HW238571   2.441   1.218   9.814 -1.1805  0.8431 -0.7706
 9037SOL     OW38572   0.096   2.061  10.664 -0.2393 -0.0872 -0.2017
 9037SOL    HW138573   0.127   2.140  10.709 -1.5721  0.1108  0.3381
 9037SOL    HW238574   0.182   2.022  10.647  0.7966  1.5665  1.2535
 9038SOL     OW38575   3.762   0.249   5.366  0.3500  0.4148 -0.0470
 9038SOL    HW138576   3.831   0.303   5.404  0.7949 -0.1531 -0.0354
 9038SOL    HW238577   3.759   0.173   5.425  1.5617  1.4789  1.3882
 9039SOL     OW38578   0.210   1.584  16.295 -0.1555  0.2303  0.4084
 9039SOL    HW138579   0.234   1.571  16.203  0.5228  2.6024  0.2501
 9039SOL    HW238580   0.136   1.643  16.281  0.7232  1.4462  0.8787
 9040SOL     OW38581   0.262   4.083   9.066 -0.3001  0.4466  0.1493
 9040SOL    HW138582   0.228   4.154   9.011  1.4717  0.2577 -1.1990
 9040SOL    HW238583   0.232   4.005   9.020  1.8984  1.5629 -3.1600
 9041SOL     OW38584   0.171   1.435   4.712 -0.1481  0.2213  0.0709
 9041SOL    HW138585   0.124   1.387   4.780  1.3691 -2.3167 -0.6676
 9041SOL    HW238586   0.095   1.489   4.690 -0.3674  1.6358  4.2778
 9042SOL     OW38587   3.523   4.226   8.292 -0.4340  0.2862 -0.0367
 9042SOL    HW138588   3.617   4.223   8.278 -0.3247 -1.2919  1.0679
 9042SOL    HW238589   3.501   4.141   8.330  0.8210  0.5703  1.3052
 9043SOL     OW38590   0.597   2.686   5.757  0.4512 -0.1357 -0.5149
 9043SOL    HW138591   0.614   2.594   5.775  1.5495  0.1221 -0.2672
 9043SOL    HW238592   0.665   2.730   5.808  2.4576 -1.3828 -2.1105
 9044SOL     OW38593   0.824   1.359  13.190  0.3414 -0.4517 -0.4110
 9044SOL    HW138594   0.730   1.358  13.171  0.3919  1.0796 -0.7746
 9044SOL    HW238595   0.841   1.453  13.183  0.1905 -0.5743 -2.4702
 9045SOL     OW38596   1.276   0.273   8.287  0.5842 -0.4493 -0.6053
 9045SOL    HW138597   1.249   0.357   8.326  1.1618 -0.0117 -1.1486
 9045SOL    HW238598   1.194   0.237   8.255  0.6377 -1.3543  0.2853
 9046SOL     OW38599   4.674   0.620  12.655 -0.0322  0.6716 -0.4441
 9046SOL    HW138600   0.010   0.691  12.675  0.5084 -0.1455  0.8092
 9046SOL    HW238601   4.720   0.573  12.585  0.0523  2.3607 -1.5228
 9047SOL     OW38602   4.581   3.132   7.000 -0.3995  0.6269  0.7803
 9047SOL    HW138603   4.602   3.064   7.064 -0.1385  0.2779  0.3235
 9047SOL    HW238604   4.488   3.109   6.992  0.0866 -0.7576 -1.1287
 9048SOL     OW38605   3.575   2.200   3.607 -0.9262  0.6515 -0.1019
 9048SOL    HW138606   3.573   2.296   3.608 -3.2145  0.6265 -2.5717
 9048SOL    HW238607   3.501   2.181   3.550 -0.2416 -3.3528  0.3273
 9049SOL     OW38608   2.287   2.914   5.626  0.7722 -0.4702  0.1567
 9049SOL    HW138609   2.215   2.931   5.566  0.1390  0.5605  1.2190
 9049SOL    HW238610   2.249   2.939   5.710  0.5392  0.6315 -0.2821
 9050SOL     OW38611   2.389   2.056   9.131  0.0178  0.2774  0.3607
 9050SOL    HW138612   2.304   2.034   9.169  0.5641 -0.5044  1.1168
 9050SOL    HW238613   2.366   2.078   9.040  0.3774  1.3250  0.5204
 9051SOL     OW38614   3.347   1.949   6.762 -0.4246  0.0626 -0.0785
 9051SOL    HW138615   3.437   1.965   6.790 -0.8558 -0.5181  1.6789
 9051SOL    HW238616   3.357   1.982   6.673 -0.8495  1.7310  0.5055
 9052SOL     OW38617   1.727   1.685   5.718 -0.4694 -0.4334  0.3328
 9052SOL    HW138618   1.725   1.602   5.671  1.6472 -0.2530 -0.0848
 9052SOL    HW238619   1.772   1.745   5.659  0.0415 -0.1543  1.0060
 9053SOL     OW38620   2.834   3.599   5.682 -0.0659  0.2052 -0.4253
 9053SOL    HW138621   2.918   3.559   5.704 -0.1109 -0.1424 -0.8697
 9053SOL    HW238622   2.813   3.535   5.614  0.6344  2.6996 -2.9691
 9054SOL     OW38623   0.433   4.486   7.740  0.0317  0.3650 -0.4892
 9054SOL    HW138624   0.476   4.568   7.763  0.2648 -0.3545  1.5642
 9054SOL    HW238625   0.343   4.491   7.772  0.1441 -2.2613  0.2464
 9055SOL     OW38626   1.119   1.801   6.435  0.1236 -0.2417  0.3009
 9055SOL    HW138627   1.030   1.831   6.450 -0.8225 -2.2655 -1.3409
 9055SOL    HW238628   1.160   1.866   6.492 -1.5032  0.4573  0.6571
 9056SOL     OW38629   0.064   1.311   7.041 -0.5432 -0.0184  0.3713
 9056SOL    HW138630   0.042   1.387   6.986 -1.9346  0.3448  1.4360
 9056SOL    HW238631   4.725   1.331   7.108  0.5778 -2.0971  2.0628
 9057SOL     OW38632   3.114   4.655   4.324  0.2953  0.4674 -0.3474
 9057SOL    HW138633   3.051   4.722   4.354 -2.6926 -2.5548  0.1055
 9057SOL    HW238634   3.132   4.693   4.238  0.0727  0.1568 -0.5281
 9058SOL     OW38635   1.404   3.855   9.041 -0.2557  0.5224 -0.2118
 9058SOL    HW138636   1.314   3.837   9.014 -0.3324  1.8066 -0.7752
 9058SOL    HW238637   1.445   3.785   8.990 -1.5544 -0.1002 -0.3821
 9059SOL     OW38638   2.293   3.523   8.860  0.2724 -0.3478 -0.4113
 9059SOL    HW138639   2.368   3.582   8.864  1.9941 -2.5921  0.6378
 9059SOL    HW238640   2.328   3.433   8.860  0.9601 -0.0874  0.5037
 9060SOL     OW38641   0.617   4.279   3.647  0.9441  0.2155  0.4237
 9060SOL    HW138642   0.593   4.343   3.580  0.8434 -0.3019 -0.0347
 9060SOL    HW238643   0.612   4.340   3.720 -1.4937  1.3314 -0.6834
 9061SOL     OW38644   3.112   1.729   3.213  0.3150  0.4935 -0.4149
 9061SOL    HW138645   3.178   1.673   3.172 -0.2992 -0.9756  0.5928
 9061SOL    HW238646   3.165   1.778   3.276  1.5427 -1.2929 -0.0609
 9062SOL     OW38647   2.448   4.717   3.299  0.3186  0.5682  0.0883
 9062SOL    HW138648   2.490   4.660   3.234  1.0239  0.0266  1.0119
 9062SOL    HW238649   2.361   4.719   3.259 -0.1906  0.3338  1.1811
 9063SOL     OW38650   2.737   0.391   5.703  0.9265 -0.3808 -0.3508
 9063SOL    HW138651   2.684   0.469   5.720  0.4216 -1.3989  2.8538
 9063SOL    HW238652   2.787   0.415   5.625  0.4963 -0.3335 -0.6139
 9064SOL     OW38653   3.005   3.870  16.764  0.2202 -0.4572  0.2691
 9064SOL    HW138654   2.996   3.892  16.672  2.4837  0.3601  0.2422
 9064SOL    HW238655   3.100   3.860  16.775  0.0294 -0.6210  1.8164
 9065SOL     OW38656   1.504   2.736   8.133 -0.5586  0.1288  0.0533
 9065SOL    HW138657   1.567   2.744   8.061  1.5407  2.8091  2.2387
 9065SOL    HW238658   1.436   2.694   8.080 -0.3452  0.2714 -0.3359
 9066SOL     OW38659   2.590   1.998  16.521  0.1056 -0.1474 -0.4332
 9066SOL    HW138660   2.499   2.014  16.547  0.2177 -0.7650  0.3285
 9066SOL    HW238661   2.626   1.975  16.606 -1.1825  0.2401  0.2207
 9067SOL     OW38662   4.645   0.511   5.139  0.2460  0.2769 -0.0435
 9067SOL    HW138663   4.706   0.579   5.110  0.2105  0.8889  1.3097
 9067SOL    HW238664   4.608   0.472   5.060 -0.5952  0.9048  0.0338
 9068SOL     OW38665   2.694   2.623  14.928 -0.2737  0.5561 -0.1444
 9068SOL    HW138666   2.640   2.656  14.856 -1.3644  1.2952  1.0221
 9068SOL    HW238667   2.780   2.659  14.906  0.0399  1.0271  1.8249
 9069SOL     OW38668   0.046   0.087   9.209  0.2367 -0.0396 -0.8139
 9069SOL    HW138669   0.001   0.148   9.268 -1.3518 -0.5547 -1.5041
 9069SOL    HW238670   0.060   0.146   9.135 -1.2396 -1.1738 -1.9677
 9070SOL     OW38671   1.982   0.670   5.261 -0.8547 -0.2997 -0.2164
 9070SOL    HW138672   1.905   0.680   5.206 -1.2151  1.4114  0.5850
 9070SOL    HW238673   2.046   0.732   5.224  0.2484 -0.8861  0.7020
 9071SOL     OW38674   3.276   0.354   1.485  0.2958 -0.8763  0.2212
 9071SOL    HW138675   3.319   0.438   1.502 -0.6350 -0.8442  2.4764
 9071SOL    HW238676   3.336   0.302   1.537 -0.5695 -2.4193 -0.3210
 9072SOL     OW38677   3.410   1.079   3.995  0.5536  0.2882 -0.5506
 9072SOL    HW138678   3.327   1.084   3.946 -0.3102 -2.1174  0.6569
 9072SOL    HW238679   3.382   1.034   4.075 -3.3280 -0.3097 -2.2110
 9073SOL     OW38680   1.013   4.524  13.585 -0.6774  0.0597 -0.1127
 9073SOL    HW138681   1.088   4.475  13.551 -0.1857  1.0065 -0.4015
 9073SOL    HW238682   1.039   4.581  13.658  0.6649  0.5790 -0.9881
 9074SOL     OW38683   2.036   1.145   3.599 -0.0919  0.5474  0.5964
 9074SOL    HW138684   1.970   1.214   3.602 -0.0112  0.5229  2.5096
 9074SOL    HW238685   2.098   1.195   3.544 -1.2975 -0.7978 -2.0085
 9075SOL     OW38686   0.347   2.652   5.880  0.6570 -0.5247  0.1769
 9075SOL    HW138687   0.421   2.683   5.828 -0.5680 -2.5495 -2.8246
 9075SOL    HW238688   0.277   2.677   5.820  0.2293 -0.9038  0.5203
 9076SOL     OW38689   2.201   0.439   6.345 -0.1138 -0.3283 -0.0130
 9076SOL    HW138690   2.232   0.365   6.293 -0.6560 -0.8252  0.3871
 9076SOL    HW238691   2.270   0.502   6.324 -2.2962  1.6497 -1.2803
 9077SOL     OW38692   1.582   1.967   2.822 -0.3127 -0.3389 -0.4192
 9077SOL    HW138693   1.583   2.045   2.879 -0.2826 -0.2711 -0.5123
 9077SOL    HW238694   1.677   1.954   2.815  0.1136  1.5814  1.7229
 9078SOL     OW38695   2.131   0.293   8.683  0.0275  0.0029  0.2513
 9078SOL    HW138696   2.180   0.292   8.765  2.1845 -0.2369 -1.0413
 9078SOL    HW238697   2.197   0.330   8.624 -0.7702  1.9283  0.5664
 9079SOL     OW38698   2.487   0.512  11.923 -0.6184  0.1177 -0.3476
 9079SOL    HW138699   2.462   0.586  11.867  0.0247  0.2318 -0.4880
 9079SOL    HW238700   2.464   0.548  12.009 -2.3434 -0.3069 -0.6298
 9080SOL     OW38701   2.596   2.892  13.974 -0.5829  0.1977  0.1120
 9080SOL    HW138702   2.678   2.922  13.935  1.3639 -1.9180  2.5957
 9080SOL    HW238703   2.569   2.974  14.015 -0.5919  0.1633  0.1756
 9081SOL     OW38704   4.045   1.315   0.699  0.3785  0.0180  0.1688
 9081SOL    HW138705   4.007   1.371   0.767 -0.1996  0.8166 -0.8132
 9081SOL    HW238706   4.104   1.265   0.756 -0.6528  0.1504  1.3517
 9082SOL     OW38707   3.581   0.767   6.989 -0.0692 -0.5557  0.0668
 9082SOL    HW138708   3.644   0.718   6.935 -0.1161  1.7009 -2.0402
 9082SOL    HW238709   3.574   0.722   7.073  1.7529 -0.9486  0.0011
 9083SOL     OW38710   3.362   4.509   5.863 -0.0670 -0.1212 -0.1933
 9083SOL    HW138711   3.425   4.570   5.903 -1.9561  0.7617  1.4110
 9083SOL    HW238712   3.398   4.429   5.902  1.7877  0.9665  0.3596
 9084SOL     OW38713   2.245   3.863   3.492  0.6336  0.2897 -0.4207
 9084SOL    HW138714   2.189   3.818   3.429  0.9797  1.6898 -1.7152
 9084SOL    HW238715   2.319   3.804   3.499 -0.8337 -1.1763  3.2418
 9085SOL     OW38716   1.494   4.407  11.619 -0.0313  0.1534  0.3774
 9085SOL    HW138717   1.407   4.445  11.614  0.5930  1.1271 -3.3943
 9085SOL    HW238718   1.469   4.314  11.622  0.5011 -0.0559 -1.1761
 9086SOL     OW38719   0.452   3.410  11.364  0.1552 -0.0399 -0.4578
 9086SOL    HW138720   0.491   3.466  11.431  0.0267 -1.5396  0.8739
 9086SOL    HW238721   0.447   3.319  11.393 -1.6824  0.3826  0.5760
 9087SOL     OW38722   2.829   2.157   5.920  0.1273 -0.4449 -0.5136
 9087SOL    HW138723   2.783   2.077   5.896 -0.9978 -0.2432  0.9686
 9087SOL    HW238724   2.777   2.213   5.861  0.6282  0.4374 -0.1254
 9088SOL     OW38725   3.146   1.677  10.121  0.4570  0.3831  0.5092
 9088SOL    HW138726   3.082   1.617  10.161  0.0912 -0.4896 -1.3826
 9088SOL    HW238727   3.219   1.663  10.181 -1.9801 -2.1891  2.8756
 9089SOL     OW38728   0.572   1.066   3.686 -0.1505 -0.0736 -0.3929
 9089SOL    HW138729   0.621   1.117   3.622 -0.1787 -0.7296 -0.9299
 9089SOL    HW238730   0.558   0.986   3.637 -0.5329 -0.3611  0.1855
 9090SOL     OW38731   0.123   3.899   4.741 -0.0383  0.8490  0.1529
 9090SOL    HW138732   0.104   3.955   4.666 -0.4764 -0.8610 -1.0230
 9090SOL    HW238733   0.211   3.874   4.713 -0.9591 -0.8486 -1.2554
 9091SOL     OW38734   2.121   3.722  10.615 -0.5103 -0.2691 -0.3524
 9091SOL    HW138735   2.137   3.689  10.527  0.3083 -0.6744 -0.0554
 9091SOL    HW238736   2.208   3.762  10.626 -0.1881 -0.3050 -2.8394
 9092SOL     OW38737   4.114   2.643  15.236  1.0271 -0.3585 -0.1518
 9092SOL    HW138738   4.196   2.665  15.280  0.9701  0.4966 -0.4653
 9092SOL    HW238739   4.080   2.576  15.295  1.8725  0.5996  1.4222
 9093SOL     OW38740   2.355   3.729   4.439 -0.2650  0.1715  0.4147
 9093SOL    HW138741   2.382   3.816   4.466 -0.9381  0.5612 -0.1617
 9093SOL    HW238742   2.431   3.686   4.478 -0.9318 -0.6824  0.7881
 9094SOL     OW38743   4.150   1.501   7.874 -0.0934  0.3432  0.9641
 9094SOL    HW138744   4.184   1.415   7.900  2.9270  1.1313 -0.2765
 9094SOL    HW238745   4.108   1.524   7.956  0.8767 -1.5148  1.9847
 9095SOL     OW38746   2.207   0.031   5.717  0.2825  0.1458  0.2365
 9095SOL    HW138747   2.199   0.114   5.670 -1.0449 -0.2218 -0.1988
 9095SOL    HW238748   2.250   4.698   5.654  1.4990 -0.1475  1.3444
 9096SOL     OW38749   2.381   1.002  10.053 -0.4690 -0.1927 -0.1631
 9096SOL    HW138750   2.315   0.962  10.110 -1.2984  0.6782 -0.5079
 9096SOL    HW238751   2.382   1.084  10.102 -0.9745 -0.8256  0.9072
 9097SOL     OW38752   0.475   0.548  13.710 -0.1638  0.3946  0.2695
 9097SOL    HW138753   0.476   0.581  13.799 -1.4448  1.3046 -0.0426
 9097SOL    HW238754   0.525   0.468  13.726 -0.8655  0.0550  0.7754
 9098SOL     OW38755   2.578   2.272   8.537  0.0073  0.3305  0.1301
 9098SOL    HW138756   2.645   2.335   8.562  0.4343  0.3778 -1.1135
 9098SOL    HW238757   2.638   2.197   8.540  0.0601  0.3984  0.6419
 9099SOL     OW38758   0.610   1.065   4.827  0.3450 -0.8870  0.6323
 9099SOL    HW138759   0.593   1.094   4.917  0.6743  1.0973  0.0683
 9099SOL    HW238760   0.682   1.004   4.839  2.2331  1.1913 -0.0093
 9100SOL     OW38761   0.757   0.064   6.659 -0.2465 -0.3581  0.0418
 9100SOL    HW138762   0.679   0.113   6.632  1.3483  2.4402  0.4805
 9100SOL    HW238763   0.818   0.083   6.588  0.1144 -1.0937  0.1618
 9101SOL     OW38764   4.316   4.336   9.061 -0.0327  0.1930 -0.0085
 9101SOL    HW138765   4.336   4.374   9.147  2.4427  0.4370 -0.6975
 9101SOL    HW238766   4.297   4.249   9.095  0.9978 -1.1034 -2.8140
 9102SOL     OW38767   3.539   0.220   4.001 -0.6754  0.0234 -0.4340
 9102SOL    HW138768   3.487   0.169   4.062 -1.0805  2.0446  0.9119
 9102SOL    HW238769   3.535   0.306   4.042  2.3516  0.1005 -0.3006
 9103SOL     OW38770   2.816   4.341   0.089  0.5691 -0.6830 -0.6200
 9103SOL    HW138771   2.828   4.296   0.006  0.7097  1.9416 -1.9922
 9103SOL    HW238772   2.869   4.288   0.150  1.1029 -0.2075 -0.6704
 9104SOL     OW38773   1.408   0.856   9.195 -0.1221 -0.1500  0.3196
 9104SOL    HW138774   1.331   0.911   9.207 -0.4570 -0.9852  2.0341
 9104SOL    HW238775   1.489   0.894   9.229 -0.3901 -0.0687  0.8762
 9105SOL     OW38776   1.768   4.627   6.348 -0.2812  0.0625 -0.0609
 9105SOL    HW138777   1.761   4.687   6.422 -0.4055 -0.3046  0.2266
 9105SOL    HW238778   1.683   4.584   6.342  0.2450 -1.1616  1.2616
 9106SOL     OW38779   3.312   1.716   9.187 -0.1661 -0.1779  0.4268
 9106SOL    HW138780   3.277   1.758   9.109 -0.7947 -0.5771  0.4912
 9106SOL    HW238781   3.291   1.785   9.250 -1.8809  0.7530 -1.1596
 9107SOL     OW38782   1.069   2.061   3.062  0.0094 -0.2786  0.4627
 9107SOL    HW138783   1.143   2.032   3.009 -1.4556  0.2900 -1.8775
 9107SOL    HW238784   1.038   1.977   3.097  0.2581 -0.5530  0.0293
 9108SOL     OW38785   1.164   1.670   1.774 -0.1156  0.6438 -0.5764
 9108SOL    HW138786   1.123   1.610   1.836  1.1438 -0.7813 -1.1333
 9108SOL    HW238787   1.207   1.605   1.719 -0.6915 -0.7005  0.5617
 9109SOL     OW38788   1.067   0.877  17.222 -0.1927  0.5917  0.0798
 9109SOL    HW138789   1.094   0.933  17.295 -0.6820  0.2019  0.5561
 9109SOL    HW238790   0.973   0.895  17.217 -0.3441 -1.3860 -3.7812
 9110SOL     OW38791   1.362   1.823  17.372 -0.2962 -0.2915  0.5012
 9110SOL    HW138792   1.279   1.839  17.417  1.0375 -0.5822  3.0471
 9110SOL    HW238793   1.344   1.738  17.331 -1.4500  0.3882 -0.3954
 9111SOL     OW38794   0.910   2.204   6.916 -0.1713 -0.1974 -0.0319
 9111SOL    HW138795   0.981   2.268   6.916  1.2751 -1.8204  2.9469
 9111SOL    HW238796   0.864   2.217   6.999 -0.8490 -0.6759 -0.3296
 9112SOL     OW38797   1.697   2.434   3.383  0.2738  0.2664  0.0558
 9112SOL    HW138798   1.735   2.501   3.440 -0.1291  2.3246 -2.1030
 9112SOL    HW238799   1.778   2.425   3.334  0.1073 -2.6490  0.2834
 9113SOL     OW38800   0.217   2.585   5.117  0.3009  0.3440 -0.3959
 9113SOL    HW138801   0.248   2.616   5.032  1.6082 -1.6621 -0.6392
 9113SOL    HW238802   0.291   2.540   5.156 -1.0663 -0.6801  1.0421
 9114SOL     OW38803   3.696   2.689   3.924  0.2269 -0.0838 -0.0138
 9114SOL    HW138804   3.700   2.728   3.837  0.3075 -3.1620 -1.3728
 9114SOL    HW238805   3.633   2.746   3.968 -1.3797 -0.6290 -1.6290
 9115SOL     OW38806   2.814   2.599   7.929  0.0813  0.9380  0.5389
 9115SOL    HW138807   2.827   2.666   7.995  1.0040  1.5609 -0.2640
 9115SOL    HW238808   2.785   2.528   7.986 -0.6051  1.2855  0.6155
 9116SOL     OW38809   1.722   2.991  12.121  0.0738  0.5106  0.5697
 9116SOL    HW138810   1.750   3.036  12.201  1.1160 -1.3427  1.2585
 9116SOL    HW238811   1.797   3.007  12.064 -1.0931 -0.6856 -1.3098
 9117SOL     OW38812   1.001   2.715   3.234 -0.0353  0.8332  0.0393
 9117SOL    HW138813   1.081   2.749   3.275 -0.8592  2.1837  0.5396
 9117SOL    HW238814   0.937   2.712   3.305  1.7459  0.3715  1.6364
 9118SOL     OW38815   2.615   4.162   5.243 -0.7548  0.2612  0.8382
 9118SOL    HW138816   2.629   4.091   5.306  1.2859  0.5857  0.7509
 9118SOL    HW238817   2.684   4.222   5.269 -1.4551  0.5980  1.9343
 9119SOL     OW38818   1.574   4.157   6.715 -0.2068  0.2891  0.1183
 9119SOL    HW138819   1.634   4.230   6.701  0.6319 -0.4800 -0.2957
 9119SOL    HW238820   1.630   4.080   6.710 -0.4624  0.1441 -0.4603
 9120SOL     OW38821   2.333   1.576   8.383 -0.3503 -0.4077  0.6084
 9120SOL    HW138822   2.362   1.666   8.398  0.0171 -0.5980  1.0336
 9120SOL    HW238823   2.341   1.533   8.468 -0.2631 -0.6180  0.4947
 9121SOL     OW38824   4.534   2.431   4.812  0.4822 -0.5061  0.6780
 9121SOL    HW138825   4.512   2.441   4.719  2.0392 -0.1224  0.3409
 9121SOL    HW238826   4.621   2.471   4.816  0.4456 -0.2884 -0.6449
 9122SOL     OW38827   3.571   0.709   0.659 -0.0441 -0.2446 -0.1712
 9122SOL    HW138828   3.524   0.780   0.703  0.4895 -0.8719  1.3989
 9122SOL    HW238829   3.640   0.688   0.721 -1.0934 -0.8131  0.7941
 9123SOL     OW38830   3.343   0.985  14.542  0.2228 -0.1602  0.0515
 9123SOL    HW138831   3.280   1.044  14.501  0.6530  0.5582  0.4308
 9123SOL    HW238832   3.341   0.907  14.486  3.5068 -0.1738 -0.0364
 9124SOL     OW38833   2.929   0.584   0.154 -0.3021 -0.2891  0.0821
 9124SOL    HW138834   2.965   0.553   0.071  1.7967 -0.3939  1.0409
 9124SOL    HW238835   2.998   0.643   0.184 -1.7958  2.3071 -1.5796
 9125SOL     OW38836   2.727   2.855  17.684 -0.5206 -0.1902  0.3234
 9125SOL    HW138837   2.669   2.929   0.002 -2.1004 -1.6334  1.0357
 9125SOL    HW238838   2.681   2.788   0.032 -1.1023  2.4476  3.3022
 9126SOL     OW38839   2.274   2.434   6.522  0.4176 -0.4840 -0.2888
 9126SOL    HW138840   2.208   2.390   6.468 -0.9799 -0.2540  1.2071
 9126SOL    HW238841   2.219   2.503   6.560 -1.2402 -1.2489 -1.2559
 9127SOL     OW38842   3.377   2.272   1.377  0.4262  0.0474  0.3330
 9127SOL    HW138843   3.286   2.271   1.347  0.3435 -0.2883  0.6044
 9127SOL    HW238844   3.407   2.349   1.328  1.8985 -0.6969  0.0634
 9128SOL     OW38845   0.882   0.925  10.725 -0.7030 -0.1001  0.1218
 9128SOL    HW138846   0.877   0.878  10.808 -1.6473  0.8721  0.6265
 9128SOL    HW238847   0.791   0.956  10.727 -0.1505  1.4210  2.5749
 9129SOL     OW38848   0.710   3.017   6.058 -0.3924 -0.1963  0.2239
 9129SOL    HW138849   0.746   3.101   6.029 -0.5385  0.1147  0.9407
 9129SOL    HW238850   0.762   2.998   6.136  0.4441  1.1226 -0.0157
 9130SOL     OW38851   4.080   3.637   0.710 -0.3156  0.5468 -0.3835
 9130SOL    HW138852   4.103   3.713   0.656 -1.4403  1.3126  0.2300
 9130SOL    HW238853   4.069   3.684   0.792  3.6658  1.8638 -0.5961
 9131SOL     OW38854   0.929   1.118   8.831 -0.4923 -0.0935 -0.2428
 9131SOL    HW138855   0.969   1.037   8.799 -1.6532 -0.4030 -0.9495
 9131SOL    HW238856   1.000   1.149   8.887  1.0992 -0.9874 -1.7652
 9132SOL     OW38857   4.111   3.068  13.596  0.1655  0.0710  0.5356
 9132SOL    HW138858   4.123   3.008  13.522  2.4875 -0.3624  1.2599
 9132SOL    HW238859   4.083   3.001  13.658 -0.0658 -0.9828 -0.7009
 9133SOL     OW38860   4.194   2.997  13.164 -0.1597 -0.5947  0.1374
 9133SOL    HW138861   4.268   2.997  13.224  0.7429  2.0591 -0.9689
 9133SOL    HW238862   4.210   2.929  13.098  1.1767 -0.6977  0.5842
 9134SOL     OW38863   4.125   2.947   7.756  0.5326 -0.3184 -0.0119
 9134SOL    HW138864   4.201   2.996   7.723 -0.8763 -0.3984 -3.4197
 9134SOL    HW238865   4.079   3.007   7.815  1.1152 -0.5510  0.6712
 9135SOL     OW38866   0.649   1.974  10.695 -0.0347 -0.4874 -0.4226
 9135SOL    HW138867   0.728   2.007  10.651  0.7978 -3.2790 -1.0372
 9135SOL    HW238868   0.672   1.988  10.786 -1.0298  0.6901 -0.3568
 9136SOL     OW38869   1.959   0.242  13.654  0.4476 -0.1012  0.3012
 9136SOL    HW138870   1.998   0.200  13.577  1.9724  0.5543  0.7055
 9136SOL    HW238871   1.931   0.161  13.697  0.9868 -0.3871  0.1145
 9137SOL     OW38872   2.721   2.790   3.402  0.1731  0.6217  0.1884
 9137SOL    HW138873   2.685   2.711   3.362 -0.0771  0.1165  1.4216
 9137SOL    HW238874   2.738   2.840   3.322  1.7087 -1.3361 -0.6905
 9138SOL     OW38875   4.265   0.326   1.889  0.3720 -0.3497 -0.1062
 9138SOL    HW138876   4.328   0.364   1.828 -1.5649 -0.0207 -1.9236
 9138SOL    HW238877   4.209   0.402   1.902  0.5675 -0.0524 -0.9727
 9139SOL     OW38878   4.302   0.578   9.123  0.5840  0.2349  0.4948
 9139SOL    HW138879   4.320   0.645   9.189 -2.4084  0.4754  1.0892
 9139SOL    HW238880   4.233   0.618   9.070 -0.9373 -0.5944  1.8438
 9140SOL     OW38881   2.852   1.935   9.187 -0.5448  0.0501 -0.0885
 9140SOL    HW138882   2.919   1.969   9.129 -2.1345  0.6982 -1.5531
 9140SOL    HW238883   2.793   2.011   9.177  0.1809  0.5855 -0.3037
 9141SOL     OW38884   0.121   2.580  17.251 -1.0852  0.3442  0.5521
 9141SOL    HW138885   0.084   2.519  17.314  1.4125 -1.0497  0.6887
 9141SOL    HW238886   0.125   2.665  17.295  1.8126  0.0867  0.8013
 9142SOL     OW38887   2.859   0.536   5.408  0.0394 -0.2345  0.3600
 9142SOL    HW138888   2.939   0.545   5.357 -1.6775  1.9435 -1.9404
 9142SOL    HW238889   2.847   0.628   5.432 -0.7280 -0.5947  1.3978
 9143SOL     OW38890   0.304   3.310   8.187  0.0150  0.1941 -0.3017
 9143SOL    HW138891   0.396   3.282   8.188  0.2021  0.8450  1.1694
 9143SOL    HW238892   0.316   3.399   8.153  1.2793  0.1001 -0.1165
 9144SOL     OW38893   2.399   1.734   6.905  0.2624 -0.0691 -0.0691
 9144SOL    HW138894   2.424   1.643   6.920  5.0496  1.3373  0.5092
 9144SOL    HW238895   2.332   1.756   6.970 -1.2492 -1.8538 -0.9965
 9145SOL     OW38896   3.455   0.928   5.296  0.4852 -0.2474  0.2605
 9145SOL    HW138897   3.519   0.895   5.359 -0.0006 -0.6687  0.5368
 9145SOL    HW238898   3.470   0.869   5.223  1.4257  0.5834 -0.2141
 9146SOL     OW38899   3.155   2.284   8.515 -0.2073 -0.1758 -0.2884
 9146SOL    HW138900   3.200   2.368   8.500  1.3897 -1.2688 -1.5989
 9146SOL    HW238901   3.119   2.298   8.603 -1.5565 -0.7651 -0.7537
 9147SOL     OW38902   4.176   1.397   5.426  0.5790 -0.5860 -0.7642
 9147SOL    HW138903   4.120   1.469   5.396 -0.0373 -0.1111  1.5749
 9147SOL    HW238904   4.256   1.415   5.376  0.1770  1.0522 -0.8031
 9148SOL     OW38905   1.682   0.937  16.592 -0.5102 -0.3751  0.4892
 9148SOL    HW138906   1.736   0.862  16.566 -0.5773 -0.1866 -0.1999
 9148SOL    HW238907   1.592   0.904  16.583 -1.0237  1.0132  0.6409
 9149SOL     OW38908   1.980   0.278   7.478  0.3784  0.2808 -0.5490
 9149SOL    HW138909   2.047   0.343   7.496 -0.7796  1.8398 -1.7919
 9149SOL    HW238910   2.017   0.190   7.489 -1.0881 -0.1711  0.8433
 9150SOL     OW38911   3.141   0.289   0.588  0.0379  0.0700  0.0267
 9150SOL    HW138912   3.206   0.352   0.621 -0.4854 -0.3921  1.9378
 9150SOL    HW238913   3.161   0.216   0.646  2.5679 -0.0601 -1.0351
 9151SOL     OW38914   4.650   4.277   2.271  0.3450  0.2258  0.1584
 9151SOL    HW138915   4.619   4.188   2.287 -0.1015  0.4204  0.3812
 9151SOL    HW238916   0.020   4.270   2.271  0.5230  2.5344 -1.9841
 9152SOL     OW38917   0.855   3.091   6.905  0.3009  0.3331 -0.0774
 9152SOL    HW138918   0.926   3.083   6.969 -0.0535 -1.4016  0.0953
 9152SOL    HW238919   0.830   3.177   6.940 -1.1607 -0.6601  1.2925
 9153SOL     OW38920   1.398   0.808   8.572  0.4712  0.2748 -0.3720
 9153SOL    HW138921   1.313   0.767   8.588  0.2391  0.8049 -0.2714
 9153SOL    HW238922   1.379   0.862   8.495 -1.0618 -0.1465 -0.2914
 9154SOL     OW38923   0.121   0.730  13.787 -0.2889  0.2665 -0.2337
 9154SOL    HW138924   0.192   0.770  13.736  0.0947  1.1628  1.0148
 9154SOL    HW238925   0.123   0.777  13.870 -0.5067 -0.2853  0.0837
 9155SOL     OW38926   3.535   2.188   5.167  0.1147  0.0394  0.2059
 9155SOL    HW138927   3.617   2.204   5.215  0.9632 -1.1456 -0.8528
 9155SOL    HW238928   3.558   2.154   5.081 -0.6154 -2.0507  0.8361
 9156SOL     OW38929   1.138   2.223   1.217  0.1542 -1.0524  0.2183
 9156SOL    HW138930   1.106   2.133   1.230 -0.5092 -1.2366 -2.7390
 9156SOL    HW238931   1.233   2.215   1.227  0.1793 -1.1739 -0.1364
 9157SOL     OW38932   2.720   3.148  11.626 -0.0376  0.2812 -0.0763
 9157SOL    HW138933   2.807   3.109  11.625 -1.0270 -1.9307  0.7634
 9157SOL    HW238934   2.688   3.139  11.536 -0.5893  2.7502 -0.1301
 9158SOL     OW38935   4.524   4.285   8.888  0.1311  0.6519  0.4670
 9158SOL    HW138936   4.464   4.309   8.958 -0.3926 -1.4608  0.7549
 9158SOL    HW238937   4.469   4.240   8.824 -0.1871 -0.9983  1.9170
 9159SOL     OW38938   1.604   4.537   7.183 -0.1543 -0.2802 -0.2194
 9159SOL    HW138939   1.574   4.543   7.273  2.7584 -1.4296  0.8356
 9159SOL    HW238940   1.544   4.480   7.135  1.3686 -0.5620 -1.8092
 9160SOL     OW38941   0.075   4.050   8.087  0.2672  0.3832 -0.3526
 9160SOL    HW138942   4.707   4.034   8.097 -0.2488  2.8740 -1.2758
 9160SOL    HW238943   0.099   4.124   8.142  0.9125  1.5842 -2.2543
 9161SOL     OW38944   3.010   4.184   8.673  0.4357 -0.6040 -0.3116
 9161SOL    HW138945   3.058   4.139   8.603 -0.2769  1.5939 -2.1886
 9161SOL    HW238946   3.052   4.144   8.749  1.1124  1.6894  0.5231
 9162SOL     OW38947   2.814   0.527  11.677  0.1978  0.2648  0.7757
 9162SOL    HW138948   2.835   0.556  11.765  1.8593  1.7810 -0.1114
 9162SOL    HW238949   2.902   0.506  11.645  0.6276  0.3531  1.9202
 9163SOL     OW38950   3.529   2.479   9.428 -0.1326 -0.2190  0.0906
 9163SOL    HW138951   3.592   2.411   9.405  0.4314  0.9160 -1.6598
 9163SOL    HW238952   3.538   2.543   9.358 -1.0281  1.0585  1.1168
 9164SOL     OW38953   3.992   0.147   2.398 -0.3213  0.7506 -0.4925
 9164SOL    HW138954   3.993   0.154   2.493 -1.4173  1.6611 -0.5536
 9164SOL    HW238955   3.937   0.222   2.377 -0.2502  0.8273 -0.4011
 9165SOL     OW38956   1.185   1.715   4.715 -0.1336 -0.6422 -0.1220
 9165SOL    HW138957   1.200   1.708   4.809 -2.8565 -1.8385  0.2163
 9165SOL    HW238958   1.202   1.628   4.681  2.4142  0.1947 -0.9995
 9166SOL     OW38959   3.225   1.841   5.478 -0.4300  0.3334 -0.0387
 9166SOL    HW138960   3.157   1.813   5.417 -0.3194 -0.1503  0.0569
 9166SOL    HW238961   3.244   1.929   5.447  1.9299  0.4480  1.7011
 9167SOL     OW38962   0.280   0.429   9.343  0.1096  0.4911 -0.7838
 9167SOL    HW138963   0.248   0.384   9.422  1.0530 -0.0433 -0.7050
 9167SOL    HW238964   0.227   0.508   9.348 -0.7950  0.1211 -4.3699
 9168SOL     OW38965   1.869   0.429   5.835  0.2396  0.1775  0.5952
 9168SOL    HW138966   1.939   0.381   5.880  1.5245  0.2256 -1.3621
 9168SOL    HW238967   1.873   0.521   5.860 -0.7648 -0.0366  1.5170
 9169SOL     OW38968   4.712   3.714  17.494  0.0848 -0.0949 -0.0355
 9169SOL    HW138969   4.634   3.768  17.488  0.2517  0.0975 -0.4204
 9169SOL    HW238970   4.723   3.701  17.589  0.0336  0.0407 -0.0112
 9170SOL     OW38971   0.413   3.455   4.425 -0.5322 -0.5589  0.3569
 9170SOL    HW138972   0.459   3.400   4.361 -0.1476  0.2198 -0.0417
 9170SOL    HW238973   0.418   3.547   4.396  1.0319 -0.5030  0.8147
 9171SOL     OW38974   1.653   3.810   3.133  0.1980  0.5734 -0.5411
 9171SOL    HW138975   1.629   3.901   3.150  0.7774  0.9468 -1.7050
 9171SOL    HW238976   1.693   3.788   3.217 -1.0813  0.7970  0.1304
 9172SOL     OW38977   4.051   3.389   0.767 -0.5881 -0.4069 -0.3909
 9172SOL    HW138978   3.987   3.425   0.828  0.5576 -1.5227  1.4812
 9172SOL    HW238979   4.079   3.476   0.740 -1.2037  0.2359  1.0651
 9173SOL     OW38980   4.669   0.551   4.328  0.5101 -0.3672 -0.1509
 9173SOL    HW138981   4.634   0.493   4.260  0.5728 -0.4832 -0.0831
 9173SOL    HW238982   4.674   0.626   4.269  1.0577  0.1650  0.5808
 9174SOL     OW38983   2.514   2.976   4.878 -0.2313  0.0457 -0.2892
 9174SOL    HW138984   2.608   2.992   4.877 -0.2082 -0.0095  1.4087
 9174SOL    HW238985   2.497   2.986   4.972  1.6536  0.4227  0.0052
 9175SOL     OW38986   3.002   1.096   1.743  0.1044 -0.3704 -0.0153
 9175SOL    HW138987   2.908   1.099   1.760 -0.2320  2.1735 -2.1336
 9175SOL    HW238988   3.018   1.190   1.734 -1.5710 -0.1830 -1.0886
 9176SOL     OW38989   4.202   4.657   1.403 -0.2677 -0.9511  0.0835
 9176SOL    HW138990   4.281   4.647   1.458 -0.7261 -1.2956  0.6803
 9176SOL    HW238991   4.246   4.696   1.328 -1.7538 -0.4252 -0.4886
 9177SOL     OW38992   3.042   2.930   3.606  0.6222  0.0656 -0.7757
 9177SOL    HW138993   3.090   3.013   3.604  0.4841  0.1484 -0.6483
 9177SOL    HW238994   2.999   2.929   3.521 -1.5757 -0.2755  0.3343
 9178SOL     OW38995   2.554   1.596   8.780  0.3355 -0.5091 -0.0088
 9178SOL    HW138996   2.642   1.588   8.816  0.6377  0.9813 -0.3777
 9178SOL    HW238997   2.496   1.595   8.856 -0.6958  0.7470 -0.7630
 9179SOL     OW38998   0.359   0.926   2.345  0.2384 -0.6000 -0.1826
 9179SOL    HW138999   0.272   0.905   2.310 -0.5750 -1.0272  2.0760
 9179SOL    HW239000   0.411   0.848   2.325  0.5912 -0.5461  0.5420
 9180SOL     OW39001   1.747   3.841  17.330  0.1579 -0.1163 -0.4393
 9180SOL    HW139002   1.775   3.751  17.347  1.3115  0.5995  1.5845
 9180SOL    HW239003   1.721   3.826  17.239  1.5330  2.1576 -1.2142
 9181SOL     OW39004   2.481   0.865  12.206  0.0869 -0.7889 -0.2347
 9181SOL    HW139005   2.468   0.833  12.117 -1.4520 -0.9830  0.0613
 9181SOL    HW239006   2.393   0.899  12.220 -0.4217 -2.2878  0.2589
 9182SOL     OW39007   3.422   2.504   5.122  0.7025  0.2076  0.3068
 9182SOL    HW139008   3.404   2.427   5.175 -0.6053  0.0467 -0.3700
 9182SOL    HW239009   3.503   2.476   5.078 -0.0992  1.2699 -1.8823
 9183SOL     OW39010   1.087   4.523   5.242  0.4597  0.6320  0.0707
 9183SOL    HW139011   1.035   4.594   5.203 -0.5775 -0.6062 -0.7966
 9183SOL    HW239012   1.109   4.562   5.326 -1.3188 -1.7488  1.6512
 9184SOL     OW39013   2.505   1.830   4.745 -0.0823  0.7612 -0.3459
 9184SOL    HW139014   2.422   1.783   4.749 -0.4602  1.4794  0.4135
 9184SOL    HW239015   2.467   1.919   4.743  1.6048  1.4995  0.4585
 9185SOL     OW39016   0.446   2.893   4.530  0.0092  0.3139  0.0487
 9185SOL    HW139017   0.395   2.928   4.603  0.4757  0.9973  0.0504
 9185SOL    HW239018   0.502   2.836   4.582 -0.9404 -0.3940  0.2810
 9186SOL     OW39019   1.827   1.830   4.145 -0.2177  0.7272 -0.4992
 9186SOL    HW139020   1.903   1.880   4.114 -0.0300  0.5720 -0.2906
 9186SOL    HW239021   1.813   1.781   4.065  2.2969 -0.2493 -0.3552
 9187SOL     OW39022   3.188   3.596   4.224  0.2465 -0.0211  0.2237
 9187SOL    HW139023   3.161   3.658   4.157 -0.6579 -0.9077 -0.2309
 9187SOL    HW239024   3.122   3.527   4.221  1.3079 -1.0152 -0.2498
 9188SOL     OW39025   1.381   3.227  15.600 -0.2872 -0.4359  0.2503
 9188SOL    HW139026   1.437   3.295  15.564  0.1549 -0.8328  0.1934
 9188SOL    HW239027   1.317   3.219  15.530 -0.0295 -0.0079 -0.0323
 9189SOL     OW39028   0.135   1.872  10.917  0.4209  1.1621 -0.2953
 9189SOL    HW139029   0.046   1.877  10.950  0.9962  2.0790  1.1514
 9189SOL    HW239030   0.185   1.937  10.967  2.4785  0.2054 -1.0959
 9190SOL     OW39031   1.933   4.186   6.600 -0.2642  0.1537 -0.3022
 9190SOL    HW139032   2.008   4.203   6.657  1.0803  1.9729 -2.6579
 9190SOL    HW239033   1.872   4.246   6.643 -1.4411  0.0478 -1.8438
 9191SOL     OW39034   4.147   3.272  10.268  0.1978 -0.2340  0.3190
 9191SOL    HW139035   4.075   3.216  10.296 -0.9356  0.7403 -0.6294
 9191SOL    HW239036   4.165   3.321  10.348 -2.7044  1.9038 -0.3337
 9192SOL     OW39037   0.226   0.440  12.365 -0.1960  0.3724  0.3117
 9192SOL    HW139038   0.210   0.402  12.279  1.2117 -0.7852  0.5702
 9192SOL    HW239039   0.179   0.523  12.355  0.2785  0.6002  0.0270
 9193SOL     OW39040   2.744   3.869   5.123 -0.3570 -0.0959  0.0242
 9193SOL    HW139041   2.839   3.883   5.116 -0.7972  1.5933 -2.5154
 9193SOL    HW239042   2.716   3.855   5.033  0.8895  0.3823 -0.4374
 9194SOL     OW39043   1.257   0.207  16.024  0.0490  0.5685 -0.8678
 9194SOL    HW139044   1.168   0.230  16.052 -0.0762  1.8924 -2.3072
 9194SOL    HW239045   1.260   0.216  15.928 -1.9559  0.7246 -0.9202
 9195SOL     OW39046   3.606   2.141   8.656  0.7334  0.4139 -0.5302
 9195SOL    HW139047   3.592   2.113   8.747  1.9592  2.1659  0.2101
 9195SOL    HW239048   3.689   2.093   8.646  0.4331  0.0588 -1.2687
 9196SOL     OW39049   1.514   1.711  10.234  0.0456  0.0539 -0.0828
 9196SOL    HW139050   1.578   1.755  10.177  1.5132 -2.9489 -0.7341
 9196SOL    HW239051   1.470   1.784  10.277  1.9057  0.4460  1.1561
 9197SOL     OW39052   0.202   1.556  16.649 -0.1907  0.0293  0.5832
 9197SOL    HW139053   0.165   1.641  16.671 -0.5163 -0.3979  1.6921
 9197SOL    HW239054   0.251   1.526  16.726 -1.4566  2.1495  2.2064
 9198SOL     OW39055   0.100   2.534   7.899 -0.5033 -0.1244  0.3410
 9198SOL    HW139056   0.099   2.508   7.807  1.7900  0.2043  0.2233
 9198SOL    HW239057   0.179   2.495   7.934 -0.1129 -1.7548 -2.3033
 9199SOL     OW39058   2.074   3.929   5.155  0.5200 -0.2175 -0.5790
 9199SOL    HW139059   2.164   3.925   5.187  0.4979 -3.5517 -0.9081
 9199SOL    HW239060   2.079   3.929   5.059  0.1970 -0.4267 -0.5962
 9200SOL     OW39061   1.374   4.071   7.379 -0.0351 -0.3853  0.5806
 9200SOL    HW139062   1.405   4.098   7.292  0.2738  0.3219  0.9191
 9200SOL    HW239063   1.281   4.053   7.364  0.6685 -2.1319 -1.8564
 9201SOL     OW39064   1.622   1.176   7.487 -0.1333 -0.5012 -0.2180
 9201SOL    HW139065   1.702   1.145   7.444 -0.7788 -0.2286 -1.6380
 9201SOL    HW239066   1.651   1.231   7.560 -0.6187  3.8583 -3.2845
 9202SOL     OW39067   1.396   1.408   0.343 -0.1702  0.5338 -0.0974
 9202SOL    HW139068   1.334   1.465   0.297  0.7342  0.5121 -1.3522
 9202SOL    HW239069   1.468   1.429   0.283 -0.7530  0.1186 -0.9482
 9203SOL     OW39070   1.283   2.996  11.772 -0.0133  0.7663  0.2469
 9203SOL    HW139071   1.249   2.908  11.790  1.2016  0.1548 -0.3787
 9203SOL    HW239072   1.206   3.039  11.808 -0.5906  0.7287 -0.9689
 9204SOL     OW39073   1.165   4.094   3.954 -0.3353 -0.2811 -0.8623
 9204SOL    HW139074   1.248   4.047   3.966 -0.0943  0.1253 -0.9501
 9204SOL    HW239075   1.111   4.052   3.887 -1.0182  1.5511 -1.4403
 9205SOL     OW39076   2.851   2.030  17.015  0.1071 -0.4595 -0.1450
 9205SOL    HW139077   2.869   1.937  17.027  2.6079 -0.1021 -1.2303
 9205SOL    HW239078   2.889   2.053  16.930  0.7093 -0.9848 -0.0120
 9206SOL     OW39079   2.463   2.303   4.505  0.5303 -0.2861 -0.3288
 9206SOL    HW139080   2.477   2.385   4.552 -1.0711  0.0084 -0.3770
 9206SOL    HW239081   2.437   2.240   4.572  0.8246 -1.2546 -1.1199
 9207SOL     OW39082   3.877   1.074  14.477 -0.0438 -0.5958 -0.2960
 9207SOL    HW139083   3.894   1.160  14.516 -0.4375  0.2246 -1.9458
 9207SOL    HW239084   3.781   1.071  14.475 -0.0191 -1.1371 -0.6918
 9208SOL     OW39085   1.496   2.667  11.879  0.6545 -0.2006 -0.2608
 9208SOL    HW139086   1.426   2.601  11.877  0.8691 -0.4599  0.7812
 9208SOL    HW239087   1.544   2.633  11.955  1.9029 -0.2559 -1.0751
 9209SOL     OW39088   2.983   3.657   8.854 -0.0234 -0.0917  0.3887
 9209SOL    HW139089   3.060   3.658   8.797 -0.6586 -0.5284 -0.4770
 9209SOL    HW239090   2.953   3.567   8.841 -0.5967 -0.0285  1.2735
 9210SOL     OW39091   2.569   2.649  17.481 -0.3216 -0.2548  0.1280
 9210SOL    HW139092   2.633   2.588  17.518 -0.5745 -0.1366  0.7629
 9210SOL    HW239093   2.577   2.642  17.386  0.9385 -1.3039  0.3209
 9211SOL     OW39094   1.058   0.027  12.353  0.1265 -0.0339  0.7193
 9211SOL    HW139095   1.027   0.084  12.423 -0.2741  0.9319 -0.2446
 9211SOL    HW239096   1.018   0.062  12.274  0.1983 -1.4844  0.0390
 9212SOL     OW39097   0.973   2.104   9.093 -0.4083 -0.3395 -0.6362
 9212SOL    HW139098   0.939   2.191   9.076  3.5894  1.2610 -0.4473
 9212SOL    HW239099   0.967   2.099   9.188 -0.4046 -0.3745 -0.6376
 9213SOL     OW39100   2.376   3.142  17.398 -0.3712 -0.4187  0.1751
 9213SOL    HW139101   2.329   3.089  17.334  1.3880 -0.0790 -1.4077
 9213SOL    HW239102   2.420   3.072  17.446 -0.3213  1.3850  2.7493
 9214SOL     OW39103   3.564   4.614   6.447  0.0214  0.3807 -0.0748
 9214SOL    HW139104   3.493   4.657   6.494  1.3694  0.8744  1.5201
 9214SOL    HW239105   3.547   4.524   6.477 -1.5881  1.2397  1.6149
 9215SOL     OW39106   3.848   3.877  11.242 -0.2377 -0.4650  0.5458
 9215SOL    HW139107   3.901   3.884  11.163  0.2269  0.2549  0.9132
 9215SOL    HW239108   3.891   3.951  11.285  1.6767 -1.3783  0.2129
 9216SOL     OW39109   1.442   0.069  14.708  0.3378  0.5643  0.1321
 9216SOL    HW139110   1.477   0.041  14.793  1.5519 -0.5124 -0.7389
 9216SOL    HW239111   1.375   0.008  14.680  0.3730  0.2014  0.8472
 9217SOL     OW39112   4.208   1.210   2.497  0.0565  0.4439 -0.5308
 9217SOL    HW139113   4.297   1.189   2.469 -0.5788 -1.1870 -1.3011
 9217SOL    HW239114   4.161   1.208   2.414 -0.2159 -0.0390 -0.3645
 9218SOL     OW39115   2.342   2.419   8.487 -0.8929  0.0111 -0.3863
 9218SOL    HW139116   2.423   2.371   8.506 -2.3136 -2.1543  0.1741
 9218SOL    HW239117   2.276   2.350   8.494 -2.2649  1.3190 -0.4562
 9219SOL     OW39118   0.239   0.341   4.098 -0.6017  0.2908 -1.1749
 9219SOL    HW139119   0.331   0.331   4.074 -0.5308  1.5899 -1.4328
 9219SOL    HW239120   0.255   0.384   4.182  0.0765 -0.1509 -1.0753
 9220SOL     OW39121   1.551   0.000   1.995 -0.3651  0.1198  0.3936
 9220SOL    HW139122   1.623   0.054   2.029 -0.0222  0.3862 -0.7637
 9220SOL    HW239123   1.516   4.690   2.077 -1.6116  3.4862  1.3164
 9221SOL     OW39124   2.749   0.366   7.320 -0.4042  0.3979 -0.3287
 9221SOL    HW139125   2.708   0.294   7.271 -1.0358  1.8731 -1.9611
 9221SOL    HW239126   2.672   0.395   7.369 -1.0268 -2.0465  0.1530
 9222SOL     OW39127   4.348   3.507   1.032 -0.8536 -0.3983  0.0392
 9222SOL    HW139128   4.437   3.489   1.002 -1.3614  0.7839 -2.2199
 9222SOL    HW239129   4.306   3.421   1.030 -0.4795 -0.5656 -0.5210
 9223SOL     OW39130   4.026   2.753   6.049 -0.1579  0.0736 -0.2193
 9223SOL    HW139131   4.109   2.753   6.001 -0.8631 -0.0820 -1.4332
 9223SOL    HW239132   4.005   2.662   6.072  0.5363  0.2208  1.0420
 9224SOL     OW39133   0.553   2.295   4.852 -0.3663 -0.1620 -0.1607
 9224SOL    HW139134   0.487   2.284   4.920  0.4041  1.7023  0.8813
 9224SOL    HW239135   0.569   2.388   4.867  0.9920 -0.2520 -1.0054
 9225SOL     OW39136   1.836   3.037   5.674 -0.1398  0.1720  0.3680
 9225SOL    HW139137   1.885   2.976   5.728  0.3509  0.3998  0.1792
 9225SOL    HW239138   1.901   3.108   5.666  0.0184  0.0477  0.5654
 9226SOL     OW39139   4.266   1.552   8.222 -0.4523 -0.2980 -0.5447
 9226SOL    HW139140   4.236   1.464   8.197  0.4282 -1.3051  1.9872
 9226SOL    HW239141   4.189   1.588   8.266  0.0169  0.2579 -0.1815
 9227SOL     OW39142   2.222   4.353   2.809 -0.2190  0.0743  0.3617
 9227SOL    HW139143   2.282   4.404   2.863 -0.1832  0.6637 -0.2399
 9227SOL    HW239144   2.285   4.315   2.747 -0.2811 -1.0074  0.9485
 9228SOL     OW39145   0.798   1.648   9.721 -0.9419 -0.3559  0.2695
 9228SOL    HW139146   0.807   1.660   9.626  1.1082 -0.6527  0.4250
 9228SOL    HW239147   0.862   1.713   9.747 -1.0809  0.2421 -0.8772
 9229SOL     OW39148   1.091   3.583   4.638  0.3473 -0.6115 -0.1615
 9229SOL    HW139149   1.086   3.588   4.734  0.1428  0.8219 -0.2498
 9229SOL    HW239150   1.071   3.675   4.619 -1.7416 -0.8448  0.8359
 9230SOL     OW39151   2.948   0.178   4.262 -0.5513 -0.2765  0.8045
 9230SOL    HW139152   2.891   0.254   4.268 -0.8738 -0.3980 -0.7312
 9230SOL    HW239153   3.031   0.224   4.273  0.0340 -1.5243  1.6688
 9231SOL     OW39154   1.405   4.124   1.449  0.0050 -0.2510 -0.7244
 9231SOL    HW139155   1.492   4.090   1.469 -0.2246 -0.7647 -0.6016
 9231SOL    HW239156   1.355   4.102   1.528 -2.3108 -0.5026 -2.2565
 9232SOL     OW39157   1.556   2.816   3.594 -0.3851 -0.1955  0.2207
 9232SOL    HW139158   1.562   2.890   3.533 -1.6541  1.0433  1.5760
 9232SOL    HW239159   1.646   2.783   3.595 -0.3180 -0.0140  0.1964
 9233SOL     OW39160   3.546   4.070   6.250  0.1456  0.3070 -0.3642
 9233SOL    HW139161   3.471   4.070   6.191 -0.3269 -1.4937  0.2445
 9233SOL    HW239162   3.606   4.136   6.213  1.3622 -0.8680 -0.4787
 9234SOL     OW39163   0.971   1.200   7.627 -0.6238  0.4777  0.3475
 9234SOL    HW139164   0.896   1.163   7.673 -1.7515  1.1829 -0.9153
 9234SOL    HW239165   0.930   1.281   7.599 -2.1285 -1.1020 -2.1187
 9235SOL     OW39166   3.940   1.252   8.937  0.4636  0.5648  0.1041
 9235SOL    HW139167   3.862   1.261   8.992 -0.1418  2.4284 -1.0753
 9235SOL    HW239168   3.932   1.158   8.923  3.2170  0.3191  0.0554
 9236SOL     OW39169   3.027   3.086  15.786  0.1161 -0.7973  0.8884
 9236SOL    HW139170   3.099   3.044  15.833  0.1139 -0.4704  1.1896
 9236SOL    HW239171   3.078   3.147  15.734  0.1840  0.0150  1.8856
 9237SOL     OW39172   1.603   1.035   8.345  0.2043  0.3303 -0.0102
 9237SOL    HW139173   1.653   1.090   8.406  2.9372 -0.7294 -1.2764
 9237SOL    HW239174   1.539   1.004   8.409  0.0854  1.0258  0.2171
 9238SOL     OW39175   3.239   3.082   9.559  0.0816 -0.1485  0.2517
 9238SOL    HW139176   3.235   2.987   9.569 -0.8389  0.2821  3.9242
 9238SOL    HW239177   3.156   3.101   9.604  0.5311 -0.4368  1.1975
 9239SOL     OW39178   0.637   1.481   8.307 -1.0552 -0.1498  0.0122
 9239SOL    HW139179   0.644   1.575   8.291  1.9222 -0.5836 -1.1656
 9239SOL    HW239180   0.614   1.482   8.400 -1.8676 -1.1643 -0.1804
 9240SOL     OW39181   3.755   1.904   5.113  0.1510  0.3663  0.2251
 9240SOL    HW139182   3.712   1.983   5.080 -0.3355  0.2680  0.6358
 9240SOL    HW239183   3.816   1.885   5.042 -0.0399 -0.7971  0.3870
 9241SOL     OW39184   3.460   2.907  10.649  0.4137  0.2759  0.5585
 9241SOL    HW139185   3.531   2.898  10.713 -1.7653 -0.4969  2.8852
 9241SOL    HW239186   3.444   2.813  10.639 -2.5356  0.5811  2.4546
 9242SOL     OW39187   0.958   4.563  16.338  0.1998 -0.4462 -0.4048
 9242SOL    HW139188   1.045   4.565  16.378 -0.2438  1.2275  0.4712
 9242SOL    HW239189   0.904   4.567  16.417 -0.0068 -0.3579 -0.5498
 9243SOL     OW39190   2.711   3.170   4.834  0.3799 -0.0363  0.7411
 9243SOL    HW139191   2.615   3.176   4.830  0.4928  0.8338 -0.3371
 9243SOL    HW239192   2.726   3.104   4.767 -0.5278 -0.1055  0.6018
 9244SOL     OW39193   3.643   4.068   4.970 -0.0398  0.4780  0.0096
 9244SOL    HW139194   3.723   4.115   4.945  0.8521 -1.9597 -1.7226
 9244SOL    HW239195   3.626   4.026   4.886  1.8550 -1.0274  0.3726
 9245SOL     OW39196   0.750   0.930   9.750 -0.0409  0.6843  0.0648
 9245SOL    HW139197   0.795   0.927   9.666  1.8799 -0.7612  1.1350
 9245SOL    HW239198   0.761   1.024   9.769  1.0904  1.1026 -2.6592
 9246SOL     OW39199   4.530   1.182   7.436 -0.2811 -0.4135  0.3345
 9246SOL    HW139200   4.434   1.181   7.442 -0.3555  0.7544 -0.7825
 9246SOL    HW239201   4.554   1.095   7.467  1.1789  0.4180  1.5538
 9247SOL     OW39202   3.254   3.842   6.360 -0.6551  0.0962 -0.6579
 9247SOL    HW139203   3.276   3.899   6.434 -0.1236 -1.3211  0.2551
 9247SOL    HW239204   3.164   3.873   6.352 -0.7318 -0.1808 -0.8560
 9248SOL     OW39205   3.595   2.727   6.775  0.0900 -0.6094  0.4182
 9248SOL    HW139206   3.544   2.686   6.845 -0.2373 -1.5996 -0.3997
 9248SOL    HW239207   3.631   2.795   6.833 -2.0317 -0.3664  1.4258
 9249SOL     OW39208   2.490   1.193  17.449 -0.6158 -0.3778  0.4212
 9249SOL    HW139209   2.496   1.284  17.478  1.1352  0.3456 -2.2340
 9249SOL    HW239210   2.498   1.142  17.530  1.0147 -0.7741  0.0090
 9250SOL     OW39211   3.656   1.543  10.317 -0.0097  0.8123  0.4986
 9250SOL    HW139212   3.677   1.520  10.226 -2.7428 -2.3886  0.6676
 9250SOL    HW239213   3.608   1.463  10.339 -1.4997  1.3845 -0.7268
 9251SOL     OW39214   2.519   0.643   3.380 -0.2152 -0.0996  0.4728
 9251SOL    HW139215   2.424   0.652   3.373  0.0199 -1.2771 -4.0631
 9251SOL    HW239216   2.539   0.596   3.299  2.6297  3.8059 -1.0442
 9252SOL     OW39217   3.520   0.688   7.244 -0.1212 -0.2729  0.4252
 9252SOL    HW139218   3.478   0.773   7.230 -0.8082 -0.4458  1.4294
 9252SOL    HW239219   3.452   0.628   7.212  0.6234  0.4050 -2.4778
 9253SOL     OW39220   0.234   3.798   4.346  0.8142 -0.2900  0.0974
 9253SOL    HW139221   0.302   3.734   4.369  0.9103 -0.4550 -0.6542
 9253SOL    HW239222   0.203   3.763   4.263  0.2759  0.4317 -0.0064
 9254SOL     OW39223   2.204   2.793   7.279  0.5824  0.5812 -0.6832
 9254SOL    HW139224   2.202   2.881   7.241 -0.3957  0.2540 -1.4021
 9254SOL    HW239225   2.286   2.799   7.329  0.4661 -1.8112 -0.1936
 9255SOL     OW39226   2.734   0.712   3.663  0.5275 -0.2722 -0.0618
 9255SOL    HW139227   2.700   0.629   3.630 -0.1398 -0.1036  0.1943
 9255SOL    HW239228   2.781   0.689   3.744 -1.4901 -0.0352  1.1878
 9256SOL     OW39229   4.136   3.953   6.968  0.2733  0.1082  0.2726
 9256SOL    HW139230   4.080   4.025   6.995  2.0453  0.6257  2.6203
 9256SOL    HW239231   4.114   3.934   6.877  0.7220  0.1103  0.1612
 9257SOL     OW39232   4.508   0.833   1.534  0.1369  0.0797 -0.2910
 9257SOL    HW139233   4.518   0.830   1.439 -1.8466  0.8655 -0.5207
 9257SOL    HW239234   4.582   0.775   1.548 -0.5982 -1.0044 -0.8983
 9258SOL     OW39235   4.262   0.572   6.955 -0.1984 -0.2923 -0.0953
 9258SOL    HW139236   4.331   0.521   6.913  0.6209 -0.7735  1.8265
 9258SOL    HW239237   4.299   0.633   7.019 -0.0182  0.5413 -0.9983
 9259SOL     OW39238   3.469   2.237  12.053  0.3780 -0.4013 -0.2560
 9259SOL    HW139239   3.501   2.305  12.112  1.4847 -1.8366  0.7905
 9259SOL    HW239240   3.532   2.166  12.057 -1.1381 -1.7974 -1.0696
 9260SOL     OW39241   1.394   0.501   5.456 -0.3115  0.1187  0.6075
 9260SOL    HW139242   1.318   0.517   5.400  0.1868  0.7259  0.1091
 9260SOL    HW239243   1.389   0.405   5.449  2.5238  0.1124 -1.4427
 9261SOL     OW39244   0.271   0.032   9.865  0.1965  0.3021  0.0006
 9261SOL    HW139245   0.257   0.127   9.858  0.6761  0.1218 -3.3698
 9261SOL    HW239246   0.321   0.013   9.786 -1.1207 -2.1853 -0.2412
 9262SOL     OW39247   1.603   3.500   0.330  0.3561 -0.0787  0.7822
 9262SOL    HW139248   1.604   3.595   0.316 -0.8066  0.0896  1.8490
 9262SOL    HW239249   1.512   3.473   0.316  0.6145  0.2765 -1.5591
 9263SOL     OW39250   1.122   3.118   0.797  0.2463  0.3248  0.1008
 9263SOL    HW139251   1.147   3.183   0.731 -1.5309  1.5200  0.5948
 9263SOL    HW239252   1.130   3.177   0.872  0.0178  2.1823 -1.3557
 9264SOL     OW39253   2.919   0.546   7.665 -0.5480 -0.3823 -0.2945
 9264SOL    HW139254   2.884   0.477   7.721  0.8577 -0.9972 -0.1820
 9264SOL    HW239255   3.012   0.530   7.655 -0.5474  0.8289 -2.2870
 9265SOL     OW39256   2.842   2.406  15.198 -0.0445 -0.1865  0.3346
 9265SOL    HW139257   2.818   2.482  15.252  1.9209 -0.2690  1.3389
 9265SOL    HW239258   2.917   2.436  15.147  1.8867 -1.4394  2.4145
 9266SOL     OW39259   3.558   1.281   1.357  0.7366  0.6104 -0.3862
 9266SOL    HW139260   3.516   1.326   1.431 -0.2626 -2.2858  0.8163
 9266SOL    HW239261   3.639   1.254   1.400  0.4109 -0.0586 -0.1938
 9267SOL     OW39262   1.088   2.321  17.565  0.2844 -0.6288 -0.7034
 9267SOL    HW139263   1.017   2.328  17.501  0.1159 -0.9819 -0.5530
 9267SOL    HW239264   1.077   2.233  17.600  0.7845 -1.5968 -2.9613
 9268SOL     OW39265   0.278   2.499   6.990  0.5083 -0.8220  0.3498
 9268SOL    HW139266   0.314   2.564   7.051 -1.4483  1.0700 -0.4959
 9268SOL    HW239267   0.318   2.545   6.917 -0.8555  0.3449  0.3306
 9269SOL     OW39268   3.141   3.913   3.496  0.2829  0.1077 -0.4448
 9269SOL    HW139269   3.075   3.956   3.441 -0.3033 -0.7564 -0.4053
 9269SOL    HW239270   3.218   3.901   3.439 -0.3566  1.1203 -1.5235
 9270SOL     OW39271   4.617   4.123   1.628 -0.6025 -0.2617 -0.2628
 9270SOL    HW139272   4.574   4.121   1.714  0.1506  0.2780  0.1326
 9270SOL    HW239273   4.711   4.114   1.643 -0.6673  0.1610  0.3815
 9271SOL     OW39274   1.069   1.680   8.265  0.1011 -0.0389 -0.2298
 9271SOL    HW139275   1.010   1.632   8.208  0.5641 -1.4564  0.4835
 9271SOL    HW239276   1.110   1.735   8.198  2.1335  0.7341  1.6374
 9272SOL     OW39277   1.296   1.412   8.910 -0.2263  0.3901 -0.2642
 9272SOL    HW139278   1.345   1.344   8.863  1.8898  0.8559  1.2883
 9272SOL    HW239279   1.368   1.444   8.965 -0.1633 -0.6659  0.2785
 9273SOL     OW39280   0.718   2.454   5.181 -0.1050  0.0297 -0.4162
 9273SOL    HW139281   0.755   2.373   5.147 -2.2719 -0.5258 -1.4537
 9273SOL    HW239282   0.752   2.449   5.270  1.3132  4.6637 -0.7024
 9274SOL     OW39283   0.230   1.570   6.082 -0.0049 -0.2587 -0.4881
 9274SOL    HW139284   0.260   1.494   6.031 -0.6600  0.7200 -2.3630
 9274SOL    HW239285   0.186   1.539   6.160  0.0323  2.1153  0.4661
 9275SOL     OW39286   1.585   0.363   7.351 -0.2272  0.2796  0.2904
 9275SOL    HW139287   1.563   0.420   7.277  1.7370 -0.3022 -0.7459
 9275SOL    HW239288   1.518   0.386   7.414 -2.4511  0.4363 -2.1402
 9276SOL     OW39289   1.969   3.115   0.971  0.5213  0.0670  0.1574
 9276SOL    HW139290   1.924   3.096   1.053 -1.4640  1.2662 -0.6506
 9276SOL    HW239291   1.994   3.203   0.998  3.0803 -0.4884 -0.4283
 9277SOL     OW39292   3.674   4.532  12.344 -0.1598  0.1855 -0.3267
 9277SOL    HW139293   3.747   4.473  12.330 -0.2525  0.3769 -1.6399
 9277SOL    HW239294   3.629   4.524  12.260  1.5409  1.0335 -1.3168
 9278SOL     OW39295   2.656   0.381   9.036  0.6475 -0.3723 -0.8213
 9278SOL    HW139296   2.716   0.368   9.109 -0.4640  1.5337  0.4188
 9278SOL    HW239297   2.654   0.476   9.036 -0.8977 -0.4048 -2.4029
 9279SOL     OW39298   2.934   1.760  17.425  0.4155 -0.1736 -0.5646
 9279SOL    HW139299   2.861   1.812  17.390  0.3379 -1.5933 -2.4990
 9279SOL    HW239300   3.006   1.820  17.402  0.1859  0.6265  0.8549
 9280SOL     OW39301   1.052   2.184   1.810  0.1718  0.6536 -0.3427
 9280SOL    HW139302   1.105   2.223   1.879 -0.1825  3.5635 -1.7076
 9280SOL    HW239303   1.008   2.261   1.775  0.8098  0.4983 -1.4592
 9281SOL     OW39304   1.760   2.465   1.007  0.1286  0.4427  0.2765
 9281SOL    HW139305   1.763   2.523   0.930  1.8600  2.3727  1.7921
 9281SOL    HW239306   1.677   2.418   1.001  0.1218  0.3834  0.8663
 9282SOL     OW39307   1.787   3.411   3.994  0.5320  0.4838  0.0891
 9282SOL    HW139308   1.749   3.484   4.042 -0.5025 -0.2850  0.4518
 9282SOL    HW239309   1.805   3.348   4.064  0.8650  1.1379  0.5873
 9283SOL     OW39310   1.359   0.362   6.329 -0.3207 -0.1855 -0.0878
 9283SOL    HW139311   1.327   0.277   6.355 -0.4559  0.0893  0.6263
 9283SOL    HW239312   1.421   0.341   6.259  1.2158  0.7882  0.9715
 9284SOL     OW39313   2.182   3.626   4.818  0.4250  0.2248  0.1074
 9284SOL    HW139314   2.270   3.658   4.837  1.6259 -2.6678 -0.4265
 9284SOL    HW239315   2.169   3.587   4.905  0.5838  0.2722  0.1529
 9285SOL     OW39316   1.943   2.326   5.516  0.4578  0.4127 -0.7619
 9285SOL    HW139317   2.011   2.341   5.582  0.1199  0.4808 -0.4279
 9285SOL    HW239318   1.876   2.379   5.560  0.7264  0.7790 -0.7947
 9286SOL     OW39319   1.947   0.730   6.594  0.2615 -0.4808 -0.2009
 9286SOL    HW139320   1.877   0.717   6.658 -2.8225  2.1123 -3.0146
 9286SOL    HW239321   2.023   0.681   6.626  0.5364  0.2052  0.1912
 9287SOL     OW39322   2.972   1.667   3.688  0.2626 -0.7344 -0.2737
 9287SOL    HW139323   3.067   1.658   3.681  0.0301 -1.1599 -2.8982
 9287SOL    HW239324   2.963   1.762   3.675  0.7870 -0.6686 -0.1457
 9288SOL     OW39325   2.685   4.554   8.916 -0.1077  0.5526 -0.0271
 9288SOL    HW139326   2.612   4.569   8.976 -1.2451  2.6070 -1.9203
 9288SOL    HW239327   2.705   4.645   8.893 -0.8582  0.1534 -2.2587
 9289SOL     OW39328   1.292   1.591   7.494  0.3850 -0.5403 -0.0823
 9289SOL    HW139329   1.332   1.510   7.525 -1.4926 -1.0465  1.0074
 9289SOL    HW239330   1.303   1.578   7.400 -1.1294 -2.5794  0.0315
 9290SOL     OW39331   1.482   2.942   7.742 -0.2181  0.1894 -0.0927
 9290SOL    HW139332   1.574   2.920   7.723  0.0368  0.5089  0.7606
 9290SOL    HW239333   1.493   3.011   7.808  0.2804 -0.1337  0.1696
 9291SOL     OW39334   1.143   4.072  16.332  0.2105 -0.0145 -0.0163
 9291SOL    HW139335   1.124   4.151  16.280 -2.8241 -0.5683  0.2341
 9291SOL    HW239336   1.238   4.058  16.331 -0.0594 -1.6217 -2.3655
 9292SOL     OW39337   0.634   0.455   6.576 -0.2996 -0.3918  0.1183
 9292SOL    HW139338   0.641   0.431   6.668  1.0549  0.1908  0.1551
 9292SOL    HW239339   0.605   0.368   6.547 -1.1781  0.4254 -1.4242
 9293SOL     OW39340   0.724   3.694  12.017  0.3052  0.5549  0.4609
 9293SOL    HW139341   0.808   3.702  12.062  0.0308 -1.6157  1.3632
 9293SOL    HW239342   0.696   3.616  12.065 -0.0019  1.4191  1.6886
 9294SOL     OW39343   3.610   0.777   2.200 -0.4891 -0.1694  0.2929
 9294SOL    HW139344   3.572   0.777   2.288 -0.6357  0.3719  0.2258
 9294SOL    HW239345   3.564   0.720   2.138 -0.4513  1.1196 -0.9087
 9295SOL     OW39346   2.137   3.918   4.629 -0.1645 -0.2101 -0.2370
 9295SOL    HW139347   2.215   3.942   4.580  1.5065  0.0735  2.5782
 9295SOL    HW239348   2.060   3.963   4.594  0.6611  1.7361  0.4349
 9296SOL     OW39349   1.299   3.468   2.136 -0.2556  0.3619  0.1057
 9296SOL    HW139350   1.340   3.458   2.050  1.2569 -2.9830  1.2283
 9296SOL    HW239351   1.229   3.529   2.113  0.3849  1.8770  2.2508
 9297SOL     OW39352   0.136   1.445   9.200 -0.0336  0.5888 -0.0349
 9297SOL    HW139353   0.225   1.480   9.207  0.7651 -1.9078  2.0130
 9297SOL    HW239354   0.082   1.483   9.270 -0.7217 -0.0372 -0.2258
 9298SOL     OW39355   3.615   1.564   3.009 -0.2314  0.0292 -0.0434
 9298SOL    HW139356   3.608   1.592   2.918  0.2825 -1.2539 -0.4792
 9298SOL    HW239357   3.579   1.476   3.003 -0.9237  0.2627  0.7621
 9299SOL     OW39358   0.776   4.137   5.131 -0.7172 -0.3130 -0.1864
 9299SOL    HW139359   0.711   4.163   5.066  0.3647 -2.0124 -1.9388
 9299SOL    HW239360   0.855   4.179   5.098  1.6265 -2.6366  2.4690
 9300SOL     OW39361   1.637   3.253   7.607 -0.1271  0.6939 -0.0727
 9300SOL    HW139362   1.571   3.294   7.664 -0.0730  2.5361 -1.3135
 9300SOL    HW239363   1.698   3.325   7.623  0.9827  0.2116 -2.0822
 9301SOL     OW39364   0.492   3.556  15.151 -1.0393  0.0927  0.2806
 9301SOL    HW139365   0.425   3.511  15.100 -0.6252  0.5569 -0.6831
 9301SOL    HW239366   0.559   3.530  15.088 -2.0432  1.9954 -1.5766
 9302SOL     OW39367   1.831   1.201   2.379  0.0267  0.1594 -0.0199
 9302SOL    HW139368   1.876   1.269   2.429  0.9520  0.2979 -1.0380
 9302SOL    HW239369   1.753   1.241   2.343  0.0566 -0.1267 -0.4051
 9303SOL     OW39370   0.874   3.283   5.470 -0.5173  0.5439  0.5174
 9303SOL    HW139371   0.885   3.251   5.559  2.2397  0.8381  0.3012
 9303SOL    HW239372   0.788   3.324   5.477 -0.7920  0.0103  0.2935
 9304SOL     OW39373   0.797   3.394  12.616  0.3623 -0.1767 -0.4376
 9304SOL    HW139374   0.892   3.397  12.602  0.5931 -0.9839  0.9887
 9304SOL    HW239375   0.760   3.418  12.531  0.8668  0.4787 -0.4756
 9305SOL     OW39376   3.884   2.268  17.584 -0.2137 -0.5774 -0.3364
 9305SOL    HW139377   3.811   2.309  17.630  0.2977 -0.0282 -0.0119
 9305SOL    HW239378   3.854   2.269  17.494 -1.1394  3.0026  0.0030
 9306SOL     OW39379   0.627   2.056  13.282 -0.2231  0.0180  0.1647
 9306SOL    HW139380   0.587   2.057  13.195  0.8285 -1.4861 -0.3230
 9306SOL    HW239381   0.717   2.077  13.258  0.0606 -2.0401 -0.6335
 9307SOL     OW39382   0.896   2.611   2.307 -0.6835 -0.1105  0.1224
 9307SOL    HW139383   0.899   2.654   2.392 -1.3203 -2.1870  1.2087
 9307SOL    HW239384   0.985   2.583   2.286 -0.7032 -0.3581  0.3691
 9308SOL     OW39385   4.516   1.456   2.735  0.6573 -0.4019  0.3244
 9308SOL    HW139386   4.427   1.484   2.713  1.3155 -0.9923 -3.2203
 9308SOL    HW239387   4.570   1.490   2.663 -1.1154  0.6346 -0.5283
 9309SOL     OW39388   0.879   1.510  10.583  0.1547  0.0988  0.6295
 9309SOL    HW139389   0.872   1.521  10.488 -0.2617 -1.9661  0.4076
 9309SOL    HW239390   0.868   1.416  10.597  0.0667 -0.3440 -2.3010
 9310SOL     OW39391   0.322   4.643   5.729 -0.4750  0.2565  0.4421
 9310SOL    HW139392   0.311   4.642   5.824  2.3165  4.4578  0.8210
 9310SOL    HW239393   0.247   4.697   5.705  0.6380  1.3823 -0.5155
 9311SOL     OW39394   0.580   4.437   5.053  0.0199 -0.3905  0.0642
 9311SOL    HW139395   0.577   4.532   5.064  0.4638 -0.2375 -1.1242
 9311SOL    HW239396   0.497   4.415   5.094  0.5356  0.5165  1.5655
 9312SOL     OW39397   0.727   3.882   0.526 -0.0749  0.0602  0.0329
 9312SOL    HW139398   0.707   3.884   0.433  0.7423  0.1807 -0.1449
 9312SOL    HW239399   0.640   3.866   0.561  0.1773  0.0650  0.6767
 9313SOL     OW39400   3.413   1.470   1.975 -0.1282 -0.5209 -0.9897
 9313SOL    HW139401   3.464   1.475   2.056  1.6885 -2.4698 -1.9910
 9313SOL    HW239402   3.474   1.507   1.911 -1.1589  1.0885 -1.0109
 9314SOL     OW39403   2.785   0.118  17.021  0.1995  0.4567  0.4071
 9314SOL    HW139404   2.813   0.053  16.956 -2.2050  1.1169 -1.3107
 9314SOL    HW239405   2.792   0.205  16.981  2.8424 -0.5365 -1.3331
 9315SOL     OW39406   2.547   2.873   4.083  0.2462  0.4428 -0.2948
 9315SOL    HW139407   2.574   2.805   4.144  0.4339  0.7965  0.0141
 9315SOL    HW239408   2.470   2.833   4.042  1.5008 -3.0877  0.8088
 9316SOL     OW39409   2.679   4.180   4.004  0.3040  0.3200  0.1047
 9316SOL    HW139410   2.647   4.238   3.936 -1.9960 -0.4985  0.4896
 9316SOL    HW239411   2.755   4.144   3.958  1.5961 -0.4684  2.8478
 9317SOL     OW39412   1.141   1.416   9.251  0.1294 -0.0992  0.0479
 9317SOL    HW139413   1.123   1.337   9.302 -1.7562  0.9921  1.0198
 9317SOL    HW239414   1.216   1.434   9.307  1.1524  0.0264 -1.3481
 9318SOL     OW39415   3.368   2.772   9.461 -0.7160  0.5252  0.2438
 9318SOL    HW139416   3.447   2.781   9.408 -0.9312  0.6018 -0.0606
 9318SOL    HW239417   3.368   2.684   9.497  0.6123 -0.1001 -1.2872
 9319SOL     OW39418   4.127   2.357   0.343  0.5375 -0.2450  0.0181
 9319SOL    HW139419   4.041   2.370   0.303  0.5758  0.4577  0.1497
 9319SOL    HW239420   4.106   2.354   0.436  0.4779 -2.3392 -0.0794
 9320SOL     OW39421   2.723   4.259   8.322 -0.2797 -0.2240  0.4421
 9320SOL    HW139422   2.658   4.326   8.340 -0.7200 -0.6456  0.4101
 9320SOL    HW239423   2.741   4.240   8.414  0.1952  1.1624  0.6355
 9321SOL     OW39424   2.225   3.443   5.277 -0.3455 -0.2905 -0.0904
 9321SOL    HW139425   2.191   3.354   5.281 -1.5683  0.2300  1.0316
 9321SOL    HW239426   2.309   3.435   5.322  0.3230  1.2916 -1.0266
 9322SOL     OW39427   2.020   3.030   8.473  0.3355  0.3806  0.3911
 9322SOL    HW139428   1.993   3.051   8.563  0.1752  1.0465  0.1870
 9322SOL    HW239429   1.998   3.110   8.425  0.1441  0.4262  0.5535
 9323SOL     OW39430   3.175   2.002   4.092 -0.0289 -0.3026  0.0435
 9323SOL    HW139431   3.184   1.952   4.173  2.6463 -0.4448 -0.3670
 9323SOL    HW239432   3.141   1.928   4.042  0.0530  0.4538 -1.1130
 9324SOL     OW39433   4.447   3.937   1.498  0.2426 -0.0820  0.1680
 9324SOL    HW139434   4.478   4.005   1.557 -2.3269  0.0006  1.4082
 9324SOL    HW239435   4.530   3.925   1.451  0.3707 -1.0474  0.6492
 9325SOL     OW39436   2.938   1.015  10.026  0.5672 -0.1055 -0.3473
 9325SOL    HW139437   2.848   0.990  10.007  0.3841  0.7567 -0.6411
 9325SOL    HW239438   2.974   1.011   9.937 -1.2976  0.1877 -1.1192
 9326SOL     OW39439   4.121   2.595   8.151 -0.4826 -0.4305 -0.3229
 9326SOL    HW139440   4.035   2.613   8.112 -0.0363  2.9082  0.2764
 9326SOL    HW239441   4.170   2.552   8.080  1.5121  0.0772  0.7470
 9327SOL     OW39442   0.761   0.684   3.354  0.9541  0.4619  0.3262
 9327SOL    HW139443   0.856   0.672   3.349  0.4254 -2.5397 -2.3733
 9327SOL    HW239444   0.735   0.649   3.269  2.6807 -0.2112  0.0654
 9328SOL     OW39445   1.349   1.844   3.962 -0.4108 -0.0523  0.2376
 9328SOL    HW139446   1.406   1.909   4.004 -1.1195  1.0095 -0.4311
 9328SOL    HW239447   1.264   1.885   3.980 -0.6528 -0.7678  0.6921
 9329SOL     OW39448   0.681   0.532   3.138 -0.6834  0.3901  0.1268
 9329SOL    HW139449   0.733   0.464   3.094 -0.5642  0.2189  0.5328
 9329SOL    HW239450   0.610   0.541   3.074 -0.0623 -0.1876 -0.6599
 9330SOL     OW39451   0.219   4.352  11.267  0.0713 -0.1397 -0.1252
 9330SOL    HW139452   0.147   4.391  11.317 -0.3317  2.2427 -2.5803
 9330SOL    HW239453   0.171   4.322  11.189  1.3356 -1.4174 -0.4106
 9331SOL     OW39454   2.963   4.022  11.227  0.1330 -0.4688 -0.5790
 9331SOL    HW139455   2.884   3.980  11.264 -0.4615  1.1868  0.0252
 9331SOL    HW239456   3.009   3.944  11.197  0.4226 -0.6177  0.2359
 9332SOL     OW39457   3.970   2.696  13.515  0.4239 -0.0304  0.0958
 9332SOL    HW139458   3.898   2.677  13.575 -0.4075  1.5483 -0.4002
 9332SOL    HW239459   4.010   2.610  13.502 -0.0252 -0.5707  2.2217
 9333SOL     OW39460   3.656   3.976   8.414 -0.6061  0.6284  0.3256
 9333SOL    HW139461   3.684   3.906   8.473  0.6371  0.0164 -0.9704
 9333SOL    HW239462   3.739   4.006   8.377 -0.6547  0.9192  0.4552
 9334SOL     OW39463   1.576   2.355   4.382  0.3966 -0.3984 -0.2133
 9334SOL    HW139464   1.660   2.397   4.398  0.2163  0.8115 -2.4159
 9334SOL    HW239465   1.522   2.434   4.384  1.9023  0.6338 -0.8077
 9335SOL     OW39466   2.382   4.259   8.699  0.1996 -0.2546 -0.2253
 9335SOL    HW139467   2.330   4.327   8.740 -0.0873  0.6465 -2.0791
 9335SOL    HW239468   2.451   4.316   8.666  1.0744 -1.5622 -0.6939
 9336SOL     OW39469   3.354   1.325   5.746 -0.3962  0.0722  0.5721
 9336SOL    HW139470   3.442   1.345   5.713  0.6407 -2.4515  1.7989
 9336SOL    HW239471   3.308   1.338   5.663 -1.4713 -3.7521  0.5861
 9337SOL     OW39472   0.056   2.433  10.204  0.2281  0.0333  0.0766
 9337SOL    HW139473   0.042   2.390  10.289  1.7208  2.5146  1.5743
 9337SOL    HW239474   0.148   2.460  10.205  1.4820 -4.2765  0.5879
 9338SOL     OW39475   0.266   3.210   2.263  0.5259 -0.4015 -0.0771
 9338SOL    HW139476   0.340   3.239   2.317  0.4137  0.5273 -0.4262
 9338SOL    HW239477   0.196   3.189   2.324 -0.7374 -0.8531 -1.6887
 9339SOL     OW39478   2.650   2.717   5.807 -0.6438 -0.0760 -0.0454
 9339SOL    HW139479   2.731   2.669   5.790  0.5579  1.5033  1.1882
 9339SOL    HW239480   2.594   2.668   5.867 -0.4344 -1.6666 -1.1733
 9340SOL     OW39481   2.100   2.203   1.393  0.1367  0.3340 -0.4978
 9340SOL    HW139482   2.093   2.262   1.467  0.9279 -0.8386  0.5268
 9340SOL    HW239483   2.171   2.248   1.347  1.6211  0.2639  1.7252
 9341SOL     OW39484   4.706   2.404  17.411  0.0239 -0.2804  0.7650
 9341SOL    HW139485   0.019   2.349  17.480 -0.8608 -2.2464 -0.3170
 9341SOL    HW239486   4.613   2.386  17.424  0.3628 -0.0163  3.7121
 9342SOL     OW39487   0.952   4.459  16.027  0.1013  0.7308  0.1896
 9342SOL    HW139488   0.970   4.537  16.080 -1.3958  1.6881 -0.6973
 9342SOL    HW239489   0.858   4.455  16.046  0.9096  0.9231  4.2012
 9343SOL     OW39490   0.171   1.628  14.516  0.3627 -0.9265  0.2374
 9343SOL    HW139491   0.171   1.536  14.544  0.2880  0.0483  3.4183
 9343SOL    HW239492   0.169   1.670  14.602 -2.2620  0.5245 -0.5684
 9344SOL     OW39493   3.250   0.535  15.227  0.0052  0.2457 -0.1923
 9344SOL    HW139494   3.271   0.518  15.318 -0.3534 -1.0934 -0.3600
 9344SOL    HW239495   3.230   0.449  15.190  1.6958 -0.9357  1.6574
 9345SOL     OW39496   4.417   3.829   3.099 -0.2786  0.4392  0.1208
 9345SOL    HW139497   4.469   3.910   3.100  1.7462 -0.8398 -0.2878
 9345SOL    HW239498   4.483   3.773   3.139 -0.7747 -0.2939 -0.1001
 9346SOL     OW39499   3.646   3.123   2.809  0.3738  0.4923 -0.2180
 9346SOL    HW139500   3.643   3.061   2.882 -0.5094  1.1860  0.3236
 9346SOL    HW239501   3.583   3.078   2.752  1.1550 -0.7619 -0.0961
 9347SOL     OW39502   3.592   0.281  13.161 -0.6627  0.2521  0.4634
 9347SOL    HW139503   3.533   0.354  13.143  0.1105  0.0542 -2.7869
 9347SOL    HW239504   3.540   0.216  13.116  0.3047  1.0975 -1.8555
 9348SOL     OW39505   3.446   4.376   9.578 -0.6501 -0.8144  0.5925
 9348SOL    HW139506   3.497   4.452   9.549 -2.4997  0.0960 -0.3100
 9348SOL    HW239507   3.437   4.333   9.493 -1.5779  0.1581  0.1891
 9349SOL     OW39508   2.184   4.099  17.236 -0.6620 -0.5593  0.2533
 9349SOL    HW139509   2.166   4.092  17.330  2.8868  0.6923  1.0343
 9349SOL    HW239510   2.130   4.175  17.215 -1.7765 -2.1301 -2.4593
 9350SOL     OW39511   2.287   0.453   5.789  0.0816 -0.3457 -0.3507
 9350SOL    HW139512   2.372   0.457   5.831 -0.2009  0.8127  0.0978
 9350SOL    HW239513   2.229   0.437   5.864 -0.2625 -1.1909 -0.7862
 9351SOL     OW39514   0.064   1.311  13.143 -0.2395  0.1576  0.1863
 9351SOL    HW139515   0.128   1.245  13.171 -1.2314 -1.6435 -1.8168
 9351SOL    HW239516   4.709   1.259  13.153 -0.6926  1.2326  2.0994
 9352SOL     OW39517   0.691   2.425  10.149  0.4797 -0.8944 -0.0030
 9352SOL    HW139518   0.632   2.473  10.090  1.6225  2.1925  1.3464
 9352SOL    HW239519   0.655   2.456  10.232  0.9092 -2.2997  0.6930
 9353SOL     OW39520   2.317   1.481   2.568  0.2932 -0.6963 -0.0365
 9353SOL    HW139521   2.384   1.416   2.589  1.2792 -0.0467 -1.2187
 9353SOL    HW239522   2.330   1.493   2.474  0.0425 -0.5067 -0.0453
 9354SOL     OW39523   3.299   1.633   9.759  0.4072  0.0910 -0.1572
 9354SOL    HW139524   3.277   1.555   9.809 -0.5769 -0.0232 -0.7749
 9354SOL    HW239525   3.244   1.700   9.800 -1.1062 -2.0681  1.3302
 9355SOL     OW39526   3.823   3.525   7.631 -0.3044 -0.0225  0.7047
 9355SOL    HW139527   3.878   3.487   7.699  0.2765  1.2934  0.9827
 9355SOL    HW239528   3.736   3.505   7.666 -1.0788  1.6595 -0.2432
 9356SOL     OW39529   0.292   2.040   6.653 -0.2436 -0.1249 -0.4272
 9356SOL    HW139530   0.376   2.019   6.695 -0.4878 -1.7560 -0.7363
 9356SOL    HW239531   0.315   2.120   6.606  1.2529 -0.7533 -0.7614
 9357SOL     OW39532   1.143   1.447   1.119  0.3026 -0.4691 -0.0722
 9357SOL    HW139533   1.119   1.501   1.194 -1.1890  0.6929 -1.3786
 9357SOL    HW239534   1.209   1.386   1.152  1.1384 -0.1284 -1.1390
 9358SOL     OW39535   2.499   2.037   7.325  0.2087  0.7871  0.2238
 9358SOL    HW139536   2.550   2.114   7.350  2.1125  0.1653 -1.6955
 9358SOL    HW239537   2.512   2.028   7.230 -0.0407 -3.0226  0.5249
 9359SOL     OW39538   0.112   0.503  13.385  0.8435  0.5141  0.1684
 9359SOL    HW139539   0.030   0.538  13.419  1.0552 -1.9518  3.2839
 9359SOL    HW239540   0.082   0.453  13.309 -2.9665 -0.0772  2.0752
 9360SOL     OW39541   2.626   4.555   3.478  0.2234 -0.1732 -0.1809
 9360SOL    HW139542   2.554   4.604   3.437  2.1945  2.0865 -0.9218
 9360SOL    HW239543   2.646   4.495   3.406 -2.5317 -0.9304 -0.3301
 9361SOL     OW39544   0.068   1.409  11.394 -0.5818 -0.1643 -0.0115
 9361SOL    HW139545   0.093   1.317  11.396 -1.1478 -0.4098 -3.7259
 9361SOL    HW239546   0.150   1.455  11.376  1.0397 -3.7460 -1.7882
 9362SOL     OW39547   2.398   4.528   6.256 -0.3486  0.3119  0.4798
 9362SOL    HW139548   2.427   4.456   6.312 -1.0458 -0.3264  0.0192
 9362SOL    HW239549   2.475   4.585   6.256  0.0157 -0.2002 -1.3296
 9363SOL     OW39550   1.393   3.326   5.853 -0.3202  0.3492  0.0528
 9363SOL    HW139551   1.407   3.254   5.915  2.0361  1.3860  0.7306
 9363SOL    HW239552   1.371   3.394   5.917  0.6052 -0.4586  1.2499
 9364SOL     OW39553   4.131   4.620   5.337 -0.1404 -0.2955  0.2342
 9364SOL    HW139554   4.139   4.600   5.244  1.9176 -1.9367  0.7516
 9364SOL    HW239555   4.046   4.662   5.348 -1.8276 -3.3669 -1.0079
 9365SOL     OW39556   1.600   4.242   0.830 -0.3903 -0.2175  0.0373
 9365SOL    HW139557   1.510   4.269   0.812  0.3163  1.6157 -0.7508
 9365SOL    HW239558   1.656   4.273   0.759 -0.7990  1.9865  0.6810
 9366SOL     OW39559   1.560   2.403  15.056 -0.4627  0.1419  0.1208
 9366SOL    HW139560   1.578   2.339  15.125 -2.8001 -1.9127 -1.2004
 9366SOL    HW239561   1.547   2.347  14.980  3.3500  0.1771 -0.5580
 9367SOL     OW39562   4.213   0.140   6.596 -0.2245  0.0513  0.1529
 9367SOL    HW139563   4.207   0.045   6.607 -1.6750  0.0267 -0.9671
 9367SOL    HW239564   4.121   0.156   6.615 -1.0345 -3.2899 -0.8942
 9368SOL     OW39565   0.737   1.745   1.417 -0.3293  0.4412 -0.3478
 9368SOL    HW139566   0.747   1.695   1.499  2.5704 -1.0026 -1.5501
 9368SOL    HW239567   0.672   1.694   1.368 -0.2627  1.3713 -1.4058
 9369SOL     OW39568   1.983   0.500   2.647  0.2603  0.1882 -0.1236
 9369SOL    HW139569   1.961   0.475   2.737  0.3759 -0.4611 -0.2754
 9369SOL    HW239570   2.077   0.484   2.647  0.1122 -0.6560  3.1654
 9370SOL     OW39571   2.312   0.959   0.637 -0.0280  0.2069 -0.1683
 9370SOL    HW139572   2.331   0.947   0.730  0.1439  0.3182 -0.1877
 9370SOL    HW239573   2.398   0.940   0.599  1.1915  2.1978  1.5615
 9371SOL     OW39574   0.129   1.773   4.304 -0.0285 -0.4807  0.3973
 9371SOL    HW139575   0.211   1.822   4.296  0.0216 -0.5713  0.3555
 9371SOL    HW239576   0.164   1.702   4.358  0.8680 -0.1926  0.1872
 9372SOL     OW39577   1.427   0.087   2.856 -0.5832  0.0075 -0.1924
 9372SOL    HW139578   1.389   0.017   2.803 -0.3167  0.1139 -0.5261
 9372SOL    HW239579   1.404   0.156   2.794  0.6889  1.0541  0.4999
 9373SOL     OW39580   4.501   4.543   8.751 -0.2311 -0.4751 -0.3328
 9373SOL    HW139581   4.418   4.535   8.705 -0.9113  3.2781  0.3015
 9373SOL    HW239582   4.493   4.474   8.817  1.7104  0.3977  0.7921
 9374SOL     OW39583   4.203   2.648   3.695 -0.5195  0.2414  0.3985
 9374SOL    HW139584   4.256   2.589   3.748  2.3349  1.7350 -0.8364
 9374SOL    HW239585   4.256   2.647   3.616  2.1072 -0.6737  2.1904
 9375SOL     OW39586   2.101   0.139   7.789 -0.7085 -0.2761  0.1469
 9375SOL    HW139587   2.113   0.102   7.702  5.0596  4.1110 -0.9139
 9375SOL    HW239588   2.010   0.169   7.784  0.1525  1.6232 -3.8520
 9376SOL     OW39589   4.276   2.909   2.110 -0.5465  0.3424 -0.5497
 9376SOL    HW139590   4.273   2.828   2.161 -0.9712  0.4509 -0.4003
 9376SOL    HW239591   4.222   2.963   2.168  0.5427  2.2925 -1.3568
 9377SOL     OW39592   3.756   4.464   3.948 -0.1165 -0.2719 -0.3754
 9377SOL    HW139593   3.742   4.544   3.897  0.8156  0.8344  1.1220
 9377SOL    HW239594   3.852   4.458   3.943 -0.1689  0.9000 -2.7709
 9378SOL     OW39595   4.358   1.393   6.250  0.4250 -0.0694 -0.1842
 9378SOL    HW139596   4.350   1.342   6.331 -0.5511 -1.4720 -1.1655
 9378SOL    HW239597   4.277   1.442   6.263  1.0090  0.8956 -0.2102
 9379SOL     OW39598   0.887   4.063  15.721 -0.5234 -0.2863  0.1190
 9379SOL    HW139599   0.856   3.997  15.783 -0.5969 -2.2608 -2.0022
 9379SOL    HW239600   0.959   4.017  15.677 -0.6263  0.4702 -0.8546
 9380SOL     OW39601   2.108   1.061   4.216 -0.4645 -0.0620 -0.3108
 9380SOL    HW139602   2.030   1.109   4.241  0.5250  1.9960 -1.2171
 9380SOL    HW239603   2.130   1.105   4.134 -1.3036 -0.0123 -0.5128
 9381SOL     OW39604   1.127   2.051   0.684 -0.8164 -0.2630  0.5787
 9381SOL    HW139605   1.214   2.029   0.651 -1.0211  0.0044 -0.1225
 9381SOL    HW239606   1.129   2.147   0.680 -1.9531 -0.3558 -1.8775
 9382SOL     OW39607   3.026   2.616  14.578 -0.2713 -0.0925  0.3574
 9382SOL    HW139608   2.993   2.527  14.564  0.5977 -0.2956 -0.3764
 9382SOL    HW239609   2.989   2.637  14.664 -2.8888  3.1567 -1.5327
 9383SOL     OW39610   3.305   3.895   3.223 -0.0501 -0.2704  0.0539
 9383SOL    HW139611   3.390   3.938   3.230  0.5217 -1.7938  2.3968
 9383SOL    HW239612   3.309   3.835   3.149  0.7049 -0.7889  0.5221
 9384SOL     OW39613   2.631   0.379   8.483  0.3655  0.1041  1.3512
 9384SOL    HW139614   2.661   0.467   8.461  1.2642 -1.0787 -2.1299
 9384SOL    HW239615   2.706   0.324   8.459 -1.0979 -1.3454  0.1285
 9385SOL     OW39616   3.807   4.137   5.458  0.1904  0.5894 -0.0821
 9385SOL    HW139617   3.865   4.107   5.527 -2.6452 -1.5692  1.3667
 9385SOL    HW239618   3.764   4.206   5.509  1.7735  0.9542  0.7505
 9386SOL     OW39619   3.816   2.121   6.066  0.3550  0.2909  0.0570
 9386SOL    HW139620   3.827   2.091   6.156  2.2258  0.3170 -0.1713
 9386SOL    HW239621   3.905   2.141   6.036  0.3150  0.2609 -0.0837
 9387SOL     OW39622   0.211   1.504   2.424  0.5787  0.1734  0.1984
 9387SOL    HW139623   0.278   1.538   2.366  0.3252 -0.6509 -0.5720
 9387SOL    HW239624   0.189   1.587   2.466 -1.2803 -0.2129 -0.0154
 9388SOL     OW39625   1.818   0.250  15.995 -0.1049 -0.0988  0.8787
 9388SOL    HW139626   1.913   0.250  15.979 -0.6179  1.0105 -2.0621
 9388SOL    HW239627   1.807   0.345  15.991 -2.2679 -0.3007  2.2831
 9389SOL     OW39628   4.081   0.957   1.416  0.3378  0.1639 -0.0888
 9389SOL    HW139629   4.113   0.871   1.443  2.2561  1.4427  1.7304
 9389SOL    HW239630   4.152   0.982   1.357  0.5699  0.1995  0.2072
 9390SOL     OW39631   4.430   2.849   1.054  0.0621  0.1726 -0.1504
 9390SOL    HW139632   4.413   2.933   1.011 -0.0357 -1.5708 -3.4666
 9390SOL    HW239633   4.522   2.849   1.082 -0.7031  2.2737  2.3448
 9391SOL     OW39634   0.294   3.787   6.521 -0.2210  0.4470 -0.4072
 9391SOL    HW139635   0.285   3.874   6.561  2.2525 -0.4586  2.1000
 9391SOL    HW239636   0.346   3.751   6.592  0.0393  1.5280 -0.0442
 9392SOL     OW39637   2.505   2.302   8.955 -0.0404  0.0760  0.4858
 9392SOL    HW139638   2.424   2.315   8.907  1.0714  1.9599 -0.8891
 9392SOL    HW239639   2.515   2.209   8.933 -1.2818  0.1530 -0.3506
 9393SOL     OW39640   3.153   2.200   6.494 -0.7204 -0.4749  0.2276
 9393SOL    HW139641   3.229   2.141   6.500 -0.6983 -0.0969  3.6735
 9393SOL    HW239642   3.190   2.271   6.546  0.5347 -0.2648 -0.9461
 9394SOL     OW39643   1.133   4.193  13.873  0.2197  0.2050 -0.2845
 9394SOL    HW139644   1.183   4.153  13.944 -1.2124  1.5679  1.4958
 9394SOL    HW239645   1.065   4.236  13.924 -0.0637  0.0360 -0.5215
 9395SOL     OW39646   4.514   0.975   8.143 -0.4042 -0.1081 -0.3932
 9395SOL    HW139647   4.602   0.967   8.106  0.1485  2.4622  0.3975
 9395SOL    HW239648   4.525   0.929   8.226  1.6801 -1.2474 -1.2978
 9396SOL     OW39649   2.463   2.140   5.557  0.0198 -0.8853  0.2664
 9396SOL    HW139650   2.430   2.227   5.536 -1.0192 -1.0569  1.1945
 9396SOL    HW239651   2.554   2.154   5.580 -0.9937  3.2771  1.8071
 9397SOL     OW39652   3.209   1.497   0.205 -0.0078  0.3037  0.4522
 9397SOL    HW139653   3.222   1.504   0.300 -1.7478  3.1251  0.5041
 9397SOL    HW239654   3.293   1.521   0.166 -0.1996 -1.3734 -0.9762
 9398SOL     OW39655   3.974   2.249  13.283 -0.2839  0.2071  0.4025
 9398SOL    HW139656   4.031   2.227  13.210  1.0042 -0.2877  1.5788
 9398SOL    HW239657   4.015   2.184  13.339 -0.1713 -0.0591  0.0021
 9399SOL     OW39658   3.251   2.913   2.468 -0.1620 -0.3211 -0.1447
 9399SOL    HW139659   3.229   3.003   2.448  0.8887  0.5985  2.7883
 9399SOL    HW239660   3.268   2.882   2.379  1.5822  1.2270 -0.3553
 9400SOL     OW39661   4.632   2.183   3.472  0.1880 -0.3978 -0.0053
 9400SOL    HW139662   4.584   2.100   3.470  1.0803 -0.8287 -3.2276
 9400SOL    HW239663   4.568   2.245   3.436  0.0113 -1.0140 -0.7417
 9401SOL     OW39664   2.220   3.296   4.093  0.0027  0.8412 -0.3621
 9401SOL    HW139665   2.129   3.307   4.066 -0.0828  0.1191 -0.3770
 9401SOL    HW239666   2.227   3.370   4.152  1.1813  0.4517 -0.0100
 9402SOL     OW39667   2.745   1.227   9.752  0.3324  0.0978  0.3659
 9402SOL    HW139668   2.787   1.254   9.670  1.4290  0.3386  1.0030
 9402SOL    HW239669   2.763   1.133   9.744  0.7578  0.2449 -0.4687
 9403SOL     OW39670   3.669   0.810   3.332  0.0926 -0.3894 -0.1565
 9403SOL    HW139671   3.577   0.797   3.308 -0.1394  0.1788  0.4151
 9403SOL    HW239672   3.653   0.823   3.425  0.0567  1.7562 -0.4679
 9404SOL     OW39673   2.209   0.902   6.956 -0.1118  0.0777  0.2524
 9404SOL    HW139674   2.240   0.814   6.937 -0.3719  0.5317 -2.1676
 9404SOL    HW239675   2.188   0.943   6.873  1.4408 -1.2303 -0.7723
 9405SOL     OW39676   1.123   3.267  13.823  0.2578 -0.7932 -0.5288
 9405SOL    HW139677   1.164   3.281  13.738 -0.1669 -0.9924 -0.7707
 9405SOL    HW239678   1.164   3.334  13.877 -1.7508  0.3469 -0.3965
 9406SOL     OW39679   4.197   0.704   1.487 -0.0883  0.0976 -0.1847
 9406SOL    HW139680   4.176   0.619   1.527 -0.5083  0.0132 -0.5734
 9406SOL    HW239681   4.288   0.724   1.509 -0.3747  1.0939  0.1151
 9407SOL     OW39682   2.793   4.605   8.120  0.1080  0.3873 -0.4780
 9407SOL    HW139683   2.822   4.666   8.052  0.8373 -1.2152 -1.5962
 9407SOL    HW239684   2.823   4.655   8.196 -1.3349  2.4751 -1.2825
 9408SOL     OW39685   1.287   4.327   0.091 -0.5698  0.0359  0.0640
 9408SOL    HW139686   1.332   4.274   0.157  0.6369  0.4756 -0.4126
 9408SOL    HW239687   1.352   4.395   0.076  0.1148 -0.5973  0.1341
 9409SOL     OW39688   2.327   3.812   1.982 -0.3446  0.5101  0.3580
 9409SOL    HW139689   2.311   3.780   2.071  3.2117 -1.7654  0.1811
 9409SOL    HW239690   2.419   3.786   1.981  0.0075  1.6604  2.1838
 9410SOL     OW39691   2.522   0.986  17.680 -0.4329 -0.2936 -0.0581
 9410SOL    HW139692   2.508   0.916  17.616 -1.2383 -0.4646  0.3052
 9410SOL    HW239693   2.601   0.957   0.025  0.8319  1.5435 -1.0594
 9411SOL     OW39694   0.549   3.319   4.252 -0.1065 -0.0302 -0.1212
 9411SOL    HW139695   0.608   3.246   4.269 -1.8161 -1.2755  0.3734
 9411SOL    HW239696   0.600   3.369   4.188  1.6702 -0.8502  0.6654
 9412SOL     OW39697   0.063   1.856  15.244 -0.3294 -0.3419  0.3873
 9412SOL    HW139698   0.058   1.763  15.266  2.5224 -0.1862  1.6273
 9412SOL    HW239699   0.113   1.885  15.320  2.8440  1.4832 -2.4164
 9413SOL     OW39700   4.036   2.428  15.940 -0.1146 -0.4060  0.0052
 9413SOL    HW139701   4.060   2.466  16.025 -1.8693 -1.7397  1.1158
 9413SOL    HW239702   4.113   2.447  15.887 -2.3105  0.4836 -2.9018
 9414SOL     OW39703   3.551   3.226   9.840  0.1612  0.3960 -0.5140
 9414SOL    HW139704   3.457   3.239   9.846  0.2744  0.8058  0.3700
 9414SOL    HW239705   3.562   3.189   9.928  0.1347  0.7868 -0.3479
 9415SOL     OW39706   3.461   2.861   6.087 -0.0032  0.5575  0.5199
 9415SOL    HW139707   3.553   2.836   6.087  0.5472  2.5777 -0.3362
 9415SOL    HW239708   3.419   2.781   6.117  1.3537 -0.5294 -0.5150
 9416SOL     OW39709   1.083   1.062  13.461 -0.2762  0.8034 -0.7219
 9416SOL    HW139710   1.131   1.032  13.384  0.2339 -0.4747  0.0819
 9416SOL    HW239711   1.041   0.978  13.482 -0.4532  0.7765 -1.1851
 9417SOL     OW39712   4.409   3.551   2.627 -0.1954 -0.0816  0.0544
 9417SOL    HW139713   4.465   3.617   2.668 -1.4458  0.3364  1.1186
 9417SOL    HW239714   4.451   3.535   2.543  0.8650 -1.8103  0.9250
 9418SOL     OW39715   0.211   2.838   7.412  0.5308 -0.0161  0.2580
 9418SOL    HW139716   0.284   2.840   7.350 -0.4675  0.5728 -0.8989
 9418SOL    HW239717   0.215   2.929   7.441 -1.4163  0.2194 -0.1796
 9419SOL     OW39718   2.295   3.059   0.222  0.3399  0.4283  0.0824
 9419SOL    HW139719   2.218   3.074   0.277  0.7820 -0.4422  0.9348
 9419SOL    HW239720   2.257   3.062   0.134  1.3103 -1.2319 -0.3751
 9420SOL     OW39721   0.291   3.907  16.502 -0.4185  0.2603 -0.2355
 9420SOL    HW139722   0.346   3.835  16.532  0.5683  0.4716 -1.5399
 9420SOL    HW239723   0.323   3.924  16.414 -2.0522 -2.0789 -1.2521
 9421SOL     OW39724   0.921   3.414  16.135 -0.3896  0.5426  0.0882
 9421SOL    HW139725   0.826   3.420  16.146 -0.7191 -0.0566 -2.4046
 9421SOL    HW239726   0.928   3.361  16.055  1.5341 -1.1186  1.3488
 9422SOL     OW39727   3.300   1.586   1.752  0.3631  0.1551 -0.3184
 9422SOL    HW139728   3.301   1.681   1.741  2.9090  0.4306  2.1293
 9422SOL    HW239729   3.331   1.573   1.842 -0.2723 -0.0387 -0.1229
 9423SOL     OW39730   3.184   2.131  15.424 -0.1440  0.9854  0.1162
 9423SOL    HW139731   3.223   2.126  15.337  0.1823 -1.0670  0.3840
 9423SOL    HW239732   3.092   2.153  15.409 -0.5006 -0.1505  0.5895
 9424SOL     OW39733   3.384   4.456  13.029  0.2242 -0.5851 -0.4994
 9424SOL    HW139734   3.470   4.467  13.068 -0.3627  1.1610  0.2908
 9424SOL    HW239735   3.327   4.452  13.106 -0.9676 -0.4587 -1.3729
 9425SOL     OW39736   2.926   3.451   2.276  0.3590  0.0463  0.1593
 9425SOL    HW139737   2.832   3.446   2.293  0.6550  0.5294  1.9497
 9425SOL    HW239738   2.938   3.373   2.222  2.4854 -1.0542  2.2768
 9426SOL     OW39739   4.156   2.107   0.129  0.3188 -0.2438 -0.3001
 9426SOL    HW139740   4.111   2.189   0.150  0.0118 -0.5367  0.1920
 9426SOL    HW239741   4.130   2.066   0.211  0.6218  1.6143  0.7274
 9427SOL     OW39742   1.552   4.688   4.081  0.6779  0.0647 -0.3236
 9427SOL    HW139743   1.601   4.666   4.002  1.7813 -0.4550  0.5085
 9427SOL    HW239744   1.496   0.037   4.058  2.2303  1.1007 -0.7361
 9428SOL     OW39745   0.578   0.022   5.119 -0.0257  0.0587 -0.3911
 9428SOL    HW139746   0.536   0.064   5.195  1.3562 -0.2244  0.5251
 9428SOL    HW239747   0.506   0.002   5.060  0.5436 -1.8165 -0.4373
 9429SOL     OW39748   1.766   3.893   7.753 -0.0210 -0.1159  0.1327
 9429SOL    HW139749   1.854   3.898   7.716  0.9493 -0.8481  2.3570
 9429SOL    HW239750   1.711   3.952   7.700  1.1286 -0.4980 -1.5062
 9430SOL     OW39751   0.768   1.919   9.075  0.2802  0.3436  0.1412
 9430SOL    HW139752   0.840   1.964   9.119 -0.6993 -0.7611  2.9291
 9430SOL    HW239753   0.817   1.852   9.028 -0.6561 -0.6356  0.5662
 9431SOL     OW39754   3.551   0.371  10.890 -0.0389  0.0333 -0.0085
 9431SOL    HW139755   3.463   0.377  10.928 -0.9135 -1.8720 -1.7502
 9431SOL    HW239756   3.592   0.423  10.959 -1.3671 -2.0936  2.3668
 9432SOL     OW39757   4.129   2.979   3.888  0.0028  0.1196 -0.1966
 9432SOL    HW139758   4.182   3.026   3.824  1.3459 -0.1256  0.7354
 9432SOL    HW239759   4.183   2.994   3.965  1.6194 -2.2349 -0.8590
 9433SOL     OW39760   3.225   3.244  10.475 -0.1812 -0.0544  0.2806
 9433SOL    HW139761   3.278   3.317  10.440  2.7907 -1.8010  1.1082
 9433SOL    HW239762   3.164   3.237  10.402  0.8635 -1.6616 -0.4520
 9434SOL     OW39763   1.227   1.258   5.595 -0.7080 -0.5254  0.3408
 9434SOL    HW139764   1.179   1.311   5.658 -1.3259  0.2494 -0.7675
 9434SOL    HW239765   1.212   1.171   5.632 -1.4266 -1.6858 -2.6749
 9435SOL     OW39766   3.165   3.170   0.302  0.2822  0.4371 -0.2023
 9435SOL    HW139767   3.133   3.198   0.388 -4.3642  0.3141 -1.9149
 9435SOL    HW239768   3.231   3.239   0.296 -1.1336  1.5347 -2.9681
 9436SOL     OW39769   0.889   1.343   4.651  0.1009  0.1495  0.4144
 9436SOL    HW139770   0.899   1.420   4.596 -0.7339 -1.0838 -1.4723
 9436SOL    HW239771   0.800   1.341   4.686  0.3834 -1.0293  1.0564
 9437SOL     OW39772   4.043   0.297  14.196 -0.0509  0.3442 -0.2700
 9437SOL    HW139773   4.074   0.358  14.129 -1.9586  1.8138  0.1441
 9437SOL    HW239774   4.121   0.299  14.251  0.4820  0.0019 -1.0260
 9438SOL     OW39775   3.827   3.115   6.564 -0.4272  0.7273  0.0680
 9438SOL    HW139776   3.741   3.156   6.565 -1.3463 -1.2706  2.0538
 9438SOL    HW239777   3.873   3.170   6.500 -1.2634  1.1523 -0.1673
 9439SOL     OW39778   2.376   4.074   6.536  0.1363 -0.2568 -0.1719
 9439SOL    HW139779   2.458   4.034   6.509 -1.0422 -0.7998 -3.0108
 9439SOL    HW239780   2.347   4.013   6.605  3.9281 -2.1742 -0.2582
 9440SOL     OW39781   3.137   1.915   5.758 -0.1415  0.1565  0.7006
 9440SOL    HW139782   3.169   1.970   5.686  0.9059 -2.0912 -0.5568
 9440SOL    HW239783   3.147   1.825   5.725  0.3539 -0.3638  2.2759
 9441SOL     OW39784   0.306   2.807   0.025  0.2737 -0.4292  0.3851
 9441SOL    HW139785   0.315   2.756   0.106 -4.0303 -0.7991  0.6171
 9441SOL    HW239786   0.222   2.853   0.034  0.3956 -0.3875  1.2767
 9442SOL     OW39787   2.481   4.091   7.895  0.2408  0.3951  0.3068
 9442SOL    HW139788   2.538   4.021   7.864 -1.2772 -0.7399  0.1061
 9442SOL    HW239789   2.512   4.166   7.845 -0.2182  0.6020  0.3331
 9443SOL     OW39790   2.302   3.859  10.373 -0.4597  0.1248 -0.0599
 9443SOL    HW139791   2.282   3.768  10.352  2.5495 -1.4381  3.7306
 9443SOL    HW239792   2.346   3.847  10.457 -2.4286  0.4287  1.0413
 9444SOL     OW39793   3.256   1.589   4.297 -0.9142 -0.1766 -0.2011
 9444SOL    HW139794   3.339   1.580   4.344 -0.6740 -1.3233 -0.8462
 9444SOL    HW239795   3.286   1.622   4.213 -1.8910  0.1406 -0.4269
 9445SOL     OW39796   2.205   4.087  10.278 -0.2790 -0.1405 -0.0753
 9445SOL    HW139797   2.242   4.003  10.306  1.4931  0.3954 -0.7865
 9445SOL    HW239798   2.117   4.055  10.300 -0.3751 -1.7304 -2.7627
 9446SOL     OW39799   4.016   4.379   4.286 -0.1889  0.1281 -0.4432
 9446SOL    HW139800   4.066   4.442   4.233 -1.5725  2.3240  0.8282
 9446SOL    HW239801   4.086   4.317   4.306  1.6554  3.0528  2.4246
 9447SOL     OW39802   2.227   3.095   7.208  0.2498 -0.4294  0.6809
 9447SOL    HW139803   2.149   3.056   7.170 -0.1960  0.0030  1.1532
 9447SOL    HW239804   2.265   3.147   7.137 -0.4675  0.0453  0.6421
 9448SOL     OW39805   2.600   0.990   0.592 -0.0288 -0.0521 -0.0406
 9448SOL    HW139806   2.598   0.914   0.533  1.3038  1.2297 -1.7409
 9448SOL    HW239807   2.626   1.058   0.529  1.4943 -0.1398  0.4743
 9449SOL     OW39808   1.466   3.256  10.389 -0.3459 -0.1595 -0.3527
 9449SOL    HW139809   1.480   3.344  10.355 -1.1653  0.2237  0.2794
 9449SOL    HW239810   1.544   3.231  10.438 -1.4719 -2.6509  0.1840
 9450SOL     OW39811   4.255   4.428   2.541  0.0268  0.2874  0.0899
 9450SOL    HW139812   4.186   4.494   2.543 -1.9342 -1.7458 -0.4656
 9450SOL    HW239813   4.250   4.395   2.451 -0.9561 -0.3682  0.3841
 9451SOL     OW39814   1.498   2.407   7.404 -0.0567  0.2167  0.7265
 9451SOL    HW139815   1.501   2.312   7.419  0.6049  0.0971 -0.2217
 9451SOL    HW239816   1.438   2.449   7.467 -1.7099 -1.2426  0.1338
 9452SOL     OW39817   2.353   1.139   3.911 -0.0796 -0.0330 -0.1865
 9452SOL    HW139818   2.442   1.124   3.878  1.0273 -0.1917  2.8754
 9452SOL    HW239819   2.375   1.224   3.950  1.1756 -0.6837  0.5316
 9453SOL     OW39820   1.893   4.150   1.111 -0.1850 -0.1291 -0.2507
 9453SOL    HW139821   1.897   4.055   1.107 -0.8554 -0.2879  2.4922
 9453SOL    HW239822   1.800   4.170   1.124  0.2607  2.1457 -0.4879
 9454SOL     OW39823   0.211   0.702   8.150  0.3382 -0.7996  0.6204
 9454SOL    HW139824   0.270   0.763   8.195  0.9441 -1.2156  0.3939
 9454SOL    HW239825   0.215   0.629   8.211  0.7280 -1.1110  0.2264
 9455SOL     OW39826   2.281   1.608   4.258  0.6751 -0.5477 -0.4157
 9455SOL    HW139827   2.291   1.636   4.349  0.2912 -2.3849  0.1943
 9455SOL    HW239828   2.187   1.597   4.246  0.5430  0.3970 -0.2910
 9456SOL     OW39829   1.989   0.265   2.145  0.3124  0.3902  0.1763
 9456SOL    HW139830   2.047   0.235   2.074  0.1912  0.3801  0.0825
 9456SOL    HW239831   2.039   0.241   2.223  0.5624  2.2442  0.5758
 9457SOL     OW39832   4.591   0.220   4.592 -0.6043 -0.5964 -0.6876
 9457SOL    HW139833   4.503   0.214   4.630 -0.0515 -1.5682  0.4355
 9457SOL    HW239834   4.568   0.213   4.500 -0.6330 -0.8430 -0.6629
 9458SOL     OW39835   3.417   0.799   3.257 -0.4437  0.6001  0.4138
 9458SOL    HW139836   3.333   0.843   3.272 -1.9446 -2.6429  1.6565
 9458SOL    HW239837   3.387   0.709   3.245  1.3557  0.1655 -0.7287
 9459SOL     OW39838   4.053   3.002   7.091  0.3408  0.5313  0.5002
 9459SOL    HW139839   4.011   3.034   7.011  0.7251  2.8212  1.2156
 9459SOL    HW239840   4.087   2.916   7.066 -1.4944  0.5360 -1.9490
 9460SOL     OW39841   2.293   3.903  11.946  0.5800  0.6958 -0.2831
 9460SOL    HW139842   2.366   3.892  11.885  0.0259  0.7490 -0.9485
 9460SOL    HW239843   2.336   3.931  12.027 -0.4729  0.3680  0.3943
 9461SOL     OW39844   3.623   3.965   3.212  0.0917  0.5403  0.4367
 9461SOL    HW139845   3.715   3.951   3.191 -0.2212  0.0910 -0.5968
 9461SOL    HW239846   3.578   3.985   3.130 -0.3509 -0.2815  0.4800
 9462SOL     OW39847   1.178   3.806   4.123 -0.0233  0.1778 -0.7404
 9462SOL    HW139848   1.158   3.759   4.204 -0.4849  1.6807  0.0239
 9462SOL    HW239849   1.130   3.750   4.061 -3.8207  0.0625  2.2364
 9463SOL     OW39850   1.239   1.921  12.628  0.3857 -0.0212  0.0654
 9463SOL    HW139851   1.200   1.948  12.545  0.3000 -0.2473  0.0340
 9463SOL    HW239852   1.250   1.831  12.599  0.5071  0.4677 -1.4373
 9464SOL     OW39853   3.614   0.466   1.977  0.0456 -0.8723  0.1924
 9464SOL    HW139854   3.541   0.510   2.020 -0.7142 -0.2665 -1.6758
 9464SOL    HW239855   3.565   0.414   1.913 -0.2961 -1.7671  1.1881
 9465SOL     OW39856   0.529   1.824   4.757  0.0513  0.0160 -0.0524
 9465SOL    HW139857   0.562   1.737   4.734 -0.0835  0.2182 -1.0176
 9465SOL    HW239858   0.601   1.886   4.746 -0.1381  0.3482  0.5469
 9466SOL     OW39859   2.112   1.874   5.615  0.2972  0.2891 -0.2113
 9466SOL    HW139860   2.096   1.951   5.561  0.0839 -0.1163 -0.7207
 9466SOL    HW239861   2.048   1.814   5.576  1.3276  0.6708 -2.4196
 9467SOL     OW39862   2.030   4.715   4.403  0.2927  0.1741  0.1768
 9467SOL    HW139863   2.091   0.023   4.337 -0.7582 -0.3297 -1.0558
 9467SOL    HW239864   1.947   0.027   4.372  0.0564  1.8440  2.8422
 9468SOL     OW39865   4.590   1.645   2.524  0.1527  0.2015 -0.3655
 9468SOL    HW139866   4.610   1.612   2.437  0.3848  1.5108 -0.8117
 9468SOL    HW239867   4.535   1.716   2.491  1.3194  2.5482  2.6779
 9469SOL     OW39868   0.360   0.061   3.800  0.3313  0.2695  0.0456
 9469SOL    HW139869   0.319   0.049   3.714 -0.0216  3.6569 -0.2636
 9469SOL    HW239870   0.424   0.129   3.781  1.2181 -0.0160  1.9592
 9470SOL     OW39871   1.786   1.482   7.523  0.0986 -0.7102 -0.2347
 9470SOL    HW139872   1.788   1.475   7.619 -0.1148  0.5674 -0.1341
 9470SOL    HW239873   1.869   1.523   7.500 -0.1754  1.1522  2.0175
 9471SOL     OW39874   1.413   0.251   4.067  0.5221 -0.1115 -0.3910
 9471SOL    HW139875   1.373   0.176   4.024 -1.2024  0.2051  0.6872
 9471SOL    HW239876   1.409   0.322   4.003 -2.1592 -1.2206 -1.4238
 9472SOL     OW39877   0.686   3.649   2.927 -0.5045  0.5267  0.2742
 9472SOL    HW139878   0.633   3.696   2.862 -0.2715 -0.6082 -0.7359
 9472SOL    HW239879   0.768   3.688   2.893 -1.8959  3.2994  0.0596
 9473SOL     OW39880   0.030   2.402   6.016 -0.2613 -0.4164  0.1251
 9473SOL    HW139881   0.085   2.479   6.032 -1.4502  0.3580  0.4956
 9473SOL    HW239882   4.672   2.424   6.059  0.3743  3.1368 -0.4180
 9474SOL     OW39883   3.857   2.355   7.071 -0.0493  0.5675 -0.3349
 9474SOL    HW139884   3.948   2.380   7.057 -0.1209  2.7347  3.0758
 9474SOL    HW239885   3.808   2.384   6.994 -0.9800  2.2266  0.8798
 9475SOL     OW39886   0.285   3.764   6.043 -0.2048 -0.4297 -0.0748
 9475SOL    HW139887   0.380   3.763   6.057 -0.3480 -0.3416  0.9127
 9475SOL    HW239888   0.266   3.846   5.997 -1.9283 -0.7809  0.0264
 9476SOL     OW39889   2.366   0.875   4.448  0.2071 -0.4924  0.0733
 9476SOL    HW139890   2.433   0.811   4.471  1.3382  0.5040 -0.4928
 9476SOL    HW239891   2.420   0.950   4.423 -2.8652  1.1029 -1.7339
 9477SOL     OW39892   1.463   2.467   7.909 -0.3790  0.6009  0.4041
 9477SOL    HW139893   1.542   2.476   7.963  0.0565  0.3591 -0.2035
 9477SOL    HW239894   1.510   2.497   7.831  0.3584  0.3082  0.7316
 9478SOL     OW39895   3.359   0.332   7.384 -0.8711 -0.3150 -0.4141
 9478SOL    HW139896   3.275   0.326   7.338 -0.0086 -0.2881 -1.9837
 9478SOL    HW239897   3.418   0.311   7.311 -1.3660  0.9742 -1.1911
 9479SOL     OW39898   2.292   0.262   6.793 -0.0381  0.3257 -0.0310
 9479SOL    HW139899   2.346   0.319   6.738 -0.7739 -0.3709 -1.4792
 9479SOL    HW239900   2.244   0.331   6.839  1.3305  1.3979 -0.2323
 9480SOL     OW39901   4.246   2.592   9.047 -0.0854  0.1854 -0.1184
 9480SOL    HW139902   4.283   2.622   9.130  0.3730  0.0528 -0.2752
 9480SOL    HW239903   4.303   2.624   8.977 -1.2549 -0.9126 -1.5705
 9481SOL     OW39904   2.538   2.587   0.938 -0.1338  0.0165 -0.3227
 9481SOL    HW139905   2.465   2.646   0.921  0.5011  1.2107  1.0495
 9481SOL    HW239906   2.603   2.622   0.877 -0.7604 -0.3716 -1.2086
 9482SOL     OW39907   2.522   0.823  10.303 -0.4038  0.2340 -0.1076
 9482SOL    HW139908   2.512   0.805  10.397  3.2455  0.0194  0.2557
 9482SOL    HW239909   2.432   0.832  10.274 -0.6520  1.0331  0.9119
 9483SOL     OW39910   4.682   1.786   8.774 -0.5295  0.4835 -0.7292
 9483SOL    HW139911   4.657   1.702   8.813  1.8430  0.1680  0.1239
 9483SOL    HW239912   0.040   1.796   8.820 -0.7896  1.8287 -0.5586
 9484SOL     OW39913   4.072   0.537   3.075 -0.1235  0.4477  0.0480
 9484SOL    HW139914   4.071   0.446   3.104  0.7892  0.1455 -0.8532
 9484SOL    HW239915   3.995   0.539   3.018 -0.3912 -3.9000  0.2437
 9485SOL     OW39916   0.687   0.018   2.959 -0.3692 -0.0977  0.5767
 9485SOL    HW139917   0.651   4.661   2.925 -0.4604  0.6779 -1.1668
 9485SOL    HW239918   0.769   4.720   3.002 -0.4158 -0.5370  0.4299
 9486SOL     OW39919   2.976   3.552   6.405  0.5884 -0.2018  0.4381
 9486SOL    HW139920   3.027   3.547   6.324  0.1710  0.1951  0.1528
 9486SOL    HW239921   3.024   3.493   6.464  4.3888  1.8731 -0.5944
 9487SOL     OW39922   0.841   3.379  13.778  0.5104  0.1466 -0.4423
 9487SOL    HW139923   0.884   3.431  13.710 -1.9033  0.4946 -1.7197
 9487SOL    HW239924   0.756   3.423  13.767  0.2631  0.0344  0.9573
 9488SOL     OW39925   1.390   2.228   1.896 -0.0095 -0.1524  0.2247
 9488SOL    HW139926   1.341   2.147   1.881 -0.9189  0.2684  0.9184
 9488SOL    HW239927   1.480   2.199   1.901 -0.9073 -2.8989  0.2840
 9489SOL     OW39928   2.306   2.730   0.951  1.3111 -0.3403  0.5151
 9489SOL    HW139929   2.274   2.684   1.029  1.4229  0.0933  0.8163
 9489SOL    HW239930   2.256   2.812   0.951  0.0362 -1.1143  0.0197
 9490SOL     OW39931   2.305   0.692   6.574 -0.2764 -0.4577  0.5786
 9490SOL    HW139932   2.357   0.733   6.505 -2.0724 -1.5212 -1.3855
 9490SOL    HW239933   2.269   0.615   6.530 -1.9958  0.8394 -0.2669
 9491SOL     OW39934   1.749   1.284   3.028  0.2793  0.2192 -0.3326
 9491SOL    HW139935   1.842   1.290   3.049 -0.0015  2.1052  0.3903
 9491SOL    HW239936   1.747   1.359   2.969 -1.0377  0.6727  0.2793
 9492SOL     OW39937   0.068   3.406   0.691  0.9642  0.2609 -0.1220
 9492SOL    HW139938   0.093   3.497   0.707  0.5548  0.7971 -2.6752
 9492SOL    HW239939   0.109   3.358   0.764 -3.4635 -0.4740  1.8731
 9493SOL     OW39940   3.579   0.306   7.772 -0.6307 -0.2154  0.1243
 9493SOL    HW139941   3.604   0.317   7.680 -0.9535  0.1426  0.0815
 9493SOL    HW239942   3.505   0.244   7.773  1.0967 -2.3796 -3.1870
 9494SOL     OW39943   3.558   4.657   0.577  1.0002  0.2473  0.2277
 9494SOL    HW139944   3.553   4.715   0.501  0.7898 -1.4383 -1.0522
 9494SOL    HW239945   3.476   4.610   0.595  1.4576 -0.0825  1.4618
 9495SOL     OW39946   1.860   4.414   7.607 -0.8441  0.4755 -0.2532
 9495SOL    HW139947   1.861   4.408   7.703 -0.4181 -0.9221 -0.3367
 9495SOL    HW239948   1.774   4.456   7.600  0.0487  2.0077 -1.7394
 9496SOL     OW39949   4.684   0.346   4.866  0.2407  0.1884  0.1957
 9496SOL    HW139950   4.651   0.264   4.901  2.1935  0.5024  2.7234
 9496SOL    HW239951   4.672   0.331   4.772  1.1327  1.0365 -0.0511
 9497SOL     OW39952   2.599   1.656   3.152 -0.3188 -0.7253  0.6751
 9497SOL    HW139953   2.577   1.574   3.109 -3.2196  0.5077 -0.1877
 9497SOL    HW239954   2.694   1.653   3.141 -0.4289 -1.1113 -0.1560
 9498SOL     OW39955   4.618   0.931   4.376  0.3267  0.7234 -0.0881
 9498SOL    HW139956   4.653   0.847   4.347 -1.9129 -0.8222  1.6924
 9498SOL    HW239957   4.635   0.979   4.295  0.2477  3.4747  1.5076
 9499SOL     OW39958   1.789   4.316   8.714  0.1615  0.1664 -0.0118
 9499SOL    HW139959   1.804   4.319   8.809 -1.4833 -0.0637  0.2573
 9499SOL    HW239960   1.695   4.321   8.732  0.4330  1.1683  1.1648
 9500SOL     OW39961   1.663   3.826   2.628 -0.4089  0.9522  0.6644
 9500SOL    HW139962   1.746   3.817   2.674 -0.3546 -1.2976  0.1131
 9500SOL    HW239963   1.644   3.920   2.635  0.0476  1.1227 -0.4517
 9501SOL     OW39964   0.159   4.209  14.131 -0.0306 -0.9472  0.5114
 9501SOL    HW139965   0.221   4.275  14.162 -2.1784  0.8619  1.0604
 9501SOL    HW239966   0.210   4.185  14.054 -0.9314 -1.4486  0.0697
 9502SOL     OW39967   1.059   4.017  10.916  0.5464  0.2020  0.2158
 9502SOL    HW139968   1.047   4.026  10.822  2.2769  2.2414  0.1932
 9502SOL    HW239969   0.970   4.031  10.948  1.4474  3.0159  1.5054
 9503SOL     OW39970   3.375   1.680   7.270  0.1641 -0.2613 -0.5047
 9503SOL    HW139971   3.326   1.601   7.250  1.0234 -1.3812  1.8966
 9503SOL    HW239972   3.415   1.655   7.353  1.1350  0.3707 -0.7807
 9504SOL     OW39973   4.366   0.928   6.980 -0.1397 -0.0807  0.5040
 9504SOL    HW139974   4.376   0.995   7.048 -1.8694  0.3007  0.3933
 9504SOL    HW239975   4.431   0.863   7.006  0.1643  0.0737  0.1211
 9505SOL     OW39976   1.942   4.097  11.998 -1.1714  0.2390  0.0288
 9505SOL    HW139977   1.911   4.152  11.927 -1.2014  1.0618  0.6758
 9505SOL    HW239978   2.021   4.143  12.026  1.2128 -2.9363 -1.4813
 9506SOL     OW39979   0.508   1.411   3.619 -0.5781 -0.8127  1.0610
 9506SOL    HW139980   0.442   1.370   3.562 -0.5134  0.0043  0.3951
 9506SOL    HW239981   0.588   1.367   3.590 -0.3211  1.4388 -1.6986
 9507SOL     OW39982   1.550   0.061   6.993  0.0323  0.2183 -0.0079
 9507SOL    HW139983   1.546   0.032   7.084 -1.9826 -1.2911 -0.5894
 9507SOL    HW239984   1.475   0.120   6.988  0.5229  0.7638 -0.7952
 9508SOL     OW39985   0.452   4.129  11.924 -0.4894  0.4281 -0.6905
 9508SOL    HW139986   0.399   4.174  11.859 -2.6404 -0.8300  0.1948
 9508SOL    HW239987   0.475   4.199  11.985 -1.3426 -0.0876  0.2252
 9509SOL     OW39988   1.201   2.063   5.705  0.1501  0.9040  0.0804
 9509SOL    HW139989   1.146   2.083   5.781 -1.2940 -2.4768 -0.0855
 9509SOL    HW239990   1.274   2.123   5.721  0.2306  0.6253  0.7453
 9510SOL     OW39991   3.039   2.376   5.855  0.9425 -0.0854 -0.0156
 9510SOL    HW139992   3.100   2.424   5.911  0.6490 -0.8952  0.9904
 9510SOL    HW239993   3.038   2.290   5.896  0.0023 -0.5853 -1.0808
 9511SOL     OW39994   3.382   4.569   3.105 -0.1736  0.3874 -0.1412
 9511SOL    HW139995   3.327   4.510   3.157 -1.6693 -0.3498 -2.5545
 9511SOL    HW239996   3.340   4.564   3.019  0.6991 -1.3659 -0.4769
 9512SOL     OW39997   4.065   0.270  15.856  0.6567  0.1956  0.6292
 9512SOL    HW139998   4.120   0.333  15.901  1.3233 -0.0852  0.2003
 9512SOL    HW239999   4.112   0.251  15.774 -3.1236 -0.1128 -1.4868
 9513SOL     OW40000   2.239   3.745   0.146 -0.0288  0.1862  0.2959
 9513SOL    HW140001   2.334   3.742   0.139 -0.1093 -0.7959 -0.3579
 9513SOL    HW240002   2.240   3.771   0.239  0.7658 -2.1381  0.9262
 9514SOL     OW40003   0.927   2.397   1.664  0.4424 -0.2938  0.4068
 9514SOL    HW140004   0.970   2.405   1.579 -0.0058  0.8850  0.2958
 9514SOL    HW240005   0.848   2.353   1.633  1.0862 -1.2917  0.1795
 9515SOL     OW40006   3.453   2.033   7.938 -0.0474 -0.2681  0.3918
 9515SOL    HW140007   3.518   2.040   7.868 -2.2556  2.4343 -1.4028
 9515SOL    HW240008   3.504   2.030   8.019  1.7630  1.4629 -0.6741
 9516SOL     OW40009   4.579   0.580  13.451  0.0540  0.2265 -0.0717
 9516SOL    HW140010   4.521   0.652  13.476 -0.5212 -0.8141  1.6259
 9516SOL    HW240011   4.542   0.549  13.368 -5.5871  2.2964  1.6371
 9517SOL     OW40012   1.651   0.262   3.526  0.1416 -0.1338 -0.2049
 9517SOL    HW140013   1.728   0.291   3.476 -0.0739 -3.2498 -2.3401
 9517SOL    HW240014   1.614   0.196   3.467 -0.4303  1.1750 -1.3071
 9518SOL     OW40015   0.419   2.789   5.231  0.5325  0.3446 -0.2318
 9518SOL    HW140016   0.352   2.819   5.292 -0.0062  0.7846 -1.0441
 9518SOL    HW240017   0.476   2.734   5.285  0.5207  0.7547  0.1929
 9519SOL     OW40018   1.236   0.214   6.621  0.5161 -0.1313 -0.0985
 9519SOL    HW140019   1.303   0.281   6.628  0.1900  0.2016 -0.1535
 9519SOL    HW240020   1.229   0.185   6.530  0.0884 -1.6492  0.4225
 9520SOL     OW40021   1.732   3.140   9.596 -0.3345  0.6756 -0.0541
 9520SOL    HW140022   1.717   3.234   9.582  1.5042  0.9885  0.0646
 9520SOL    HW240023   1.713   3.105   9.509 -0.9777 -0.9987  0.7547
 9521SOL     OW40024   4.023   0.356  12.116  0.1076 -0.0068 -0.3952
 9521SOL    HW140025   3.996   0.266  12.132  0.5001 -0.0367  0.0913
 9521SOL    HW240026   4.106   0.360  12.164  0.3227 -2.4350 -0.5753
 9522SOL     OW40027   1.125   0.454  16.596 -0.4186 -0.2539  0.0348
 9522SOL    HW140028   1.100   0.546  16.587 -1.0090 -0.5576 -1.5093
 9522SOL    HW240029   1.175   0.443  16.515 -2.5525 -2.5008 -0.9842
 9523SOL     OW40030   0.491   4.326   6.477 -0.0528  0.0871 -0.5155
 9523SOL    HW140031   0.552   4.396   6.501 -2.6596  2.2605 -0.1294
 9523SOL    HW240032   0.553   4.263   6.440 -0.4272 -1.8902  2.2604
 9524SOL     OW40033   1.387   3.771   6.835  0.2011  0.3479 -0.5286
 9524SOL    HW140034   1.362   3.797   6.924  1.3318 -1.0270  0.2017
 9524SOL    HW240035   1.370   3.855   6.793 -0.6072  0.1561 -0.5793
 9525SOL     OW40036   0.528   1.119  11.821 -0.1956  0.2414  0.3378
 9525SOL    HW140037   0.569   1.069  11.750 -1.8799 -1.4518  0.5673
 9525SOL    HW240038   0.437   1.088  11.817  0.6465 -1.9962 -1.6940
 9526SOL     OW40039   1.693   3.010   6.790 -0.0800 -0.1560 -0.1198
 9526SOL    HW140040   1.635   3.004   6.866  0.1351 -1.0409 -0.0274
 9526SOL    HW240041   1.777   2.990   6.832  0.0001  0.9935  0.2712
 9527SOL     OW40042   2.354   4.095   6.914 -0.1556  0.0511  0.2514
 9527SOL    HW140043   2.373   4.006   6.941  0.4165  1.1902  3.5346
 9527SOL    HW240044   2.411   4.137   6.978  0.4943 -1.1322  0.4307
 9528SOL     OW40045   0.173   2.628  13.707  0.0984  0.4925 -0.0388
 9528SOL    HW140046   0.169   2.718  13.677 -3.0721  0.7739  1.1485
 9528SOL    HW240047   0.268   2.622  13.714  0.0663 -0.2250 -0.2135
 9529SOL     OW40048   3.053   1.823  11.755 -0.4602  0.8771  0.0237
 9529SOL    HW140049   3.134   1.807  11.708 -1.7115  0.3266 -1.9236
 9529SOL    HW240050   2.995   1.776  11.695  0.7295  0.9480 -1.1761
 9530SOL     OW40051   4.540   2.071   5.459 -0.2405 -0.1264 -0.1902
 9530SOL    HW140052   4.485   2.030   5.527 -0.7615 -0.4674 -0.8127
 9530SOL    HW240053   4.597   2.123   5.516 -2.2362  0.6200  1.1319
 9531SOL     OW40054   1.094   4.261  16.148  0.5195  0.1914 -0.1121
 9531SOL    HW140055   1.182   4.299  16.138  0.1096  0.8793 -1.0400
 9531SOL    HW240056   1.037   4.329  16.114 -0.9714 -1.1664 -0.2962
 9532SOL     OW40057   0.258   2.340   4.477  0.1335  0.2621 -0.7135
 9532SOL    HW140058   0.276   2.365   4.387  0.8444 -1.2000 -0.9762
 9532SOL    HW240059   0.274   2.246   4.470  0.8160  0.2921  0.3212
 9533SOL     OW40060   2.452   0.750  15.537 -0.4281 -0.3605 -0.4248
 9533SOL    HW140061   2.423   0.841  15.536 -0.0716 -0.2399  0.9231
 9533SOL    HW240062   2.504   0.739  15.616 -0.6526 -0.2682 -0.2645
 9534SOL     OW40063   4.001   0.204   2.674 -0.5013 -0.1951  0.1957
 9534SOL    HW140064   4.044   0.141   2.731  3.5385  2.7490  0.3515
 9534SOL    HW240065   3.941   0.251   2.732 -0.6092  0.9144 -0.8162
 9535SOL     OW40066   4.655   0.589   9.680 -0.3539 -0.3486 -0.3015
 9535SOL    HW140067   4.647   0.498   9.708  0.1633 -0.5590 -0.8351
 9535SOL    HW240068   4.619   0.633   9.757 -1.3350  0.3999 -1.1861
 9536SOL     OW40069   4.394   0.029   8.312  0.0185 -0.0034  0.5315
 9536SOL    HW140070   4.416   0.042   8.219 -1.8681  0.4951  0.1655
 9536SOL    HW240071   4.307   4.715   8.306  0.2305 -0.5879  1.3410
 9537SOL     OW40072   3.092   2.324   8.775  0.4468 -0.1965  0.5134
 9537SOL    HW140073   3.149   2.269   8.828 -1.3827 -0.0473  2.6571
 9537SOL    HW240074   3.011   2.306   8.823  0.2385 -1.1172 -0.1925
 9538SOL     OW40075   1.049   0.563   7.499 -0.5167  0.5047 -0.6328
 9538SOL    HW140076   1.096   0.582   7.418 -0.1819  0.1519 -0.5205
 9538SOL    HW240077   0.974   0.507   7.479 -2.7107  2.5199  1.8647
 9539SOL     OW40078   0.773   4.361  10.949 -0.1731 -0.0925 -0.0805
 9539SOL    HW140079   0.747   4.452  10.958  1.7667  0.4451  0.1507
 9539SOL    HW240080   0.853   4.367  10.896 -0.4021 -0.7842 -0.5033
 9540SOL     OW40081   1.579   0.194   1.621 -0.4106  0.1862  0.1255
 9540SOL    HW140082   1.496   0.212   1.577 -0.1583 -1.8406 -1.1980
 9540SOL    HW240083   1.561   0.109   1.661 -2.6421 -0.1029 -1.5019
 9541SOL     OW40084   1.948   1.855  13.554  0.1496 -0.7919  0.7551
 9541SOL    HW140085   2.026   1.841  13.499 -0.9070  0.8211 -1.1223
 9541SOL    HW240086   1.992   1.913  13.617  2.2807 -1.6461  0.0507
 9542SOL     OW40087   0.999   0.883   2.663 -0.1809  0.0718 -0.3964
 9542SOL    HW140088   0.965   0.893   2.752  0.9578  3.0390 -0.3140
 9542SOL    HW240089   0.928   0.927   2.616  0.6640 -0.3354 -2.0307
 9543SOL     OW40090   2.611   0.883   4.736  0.3283 -0.1030 -0.3730
 9543SOL    HW140091   2.639   0.872   4.645 -0.8754  2.2589 -1.0340
 9543SOL    HW240092   2.672   0.949   4.770  0.3310 -0.0329 -0.5133
 9544SOL     OW40093   2.966   0.208  13.995 -0.2702 -0.7172  0.8122
 9544SOL    HW140094   2.881   0.236  13.962  0.3563  1.2774  0.8795
 9544SOL    HW240095   2.985   0.116  13.975  3.1250  0.2953 -0.5661
 9545SOL     OW40096   4.548   1.249  13.098 -0.0337  0.3795 -0.0354
 9545SOL    HW140097   4.524   1.341  13.102  0.2604  0.3860  1.5182
 9545SOL    HW240098   4.473   1.206  13.056 -0.2755  0.6375  0.1339
 9546SOL     OW40099   2.658   0.166  15.514  0.0664  0.1788  0.6586
 9546SOL    HW140100   2.656   0.221  15.593  1.9466  0.7744  0.2950
 9546SOL    HW240101   2.742   0.121  15.523 -0.6589 -1.1768  0.6720
 9547SOL     OW40102   3.511   1.687   4.359  0.4625 -0.4273  0.5672
 9547SOL    HW140103   3.534   1.608   4.406  1.1067  0.2498  1.3956
 9547SOL    HW240104   3.525   1.673   4.265 -1.7600  1.9019 -0.1238
 9548SOL     OW40105   0.211   0.375   7.978  0.3013  0.2684 -0.0291
 9548SOL    HW140106   0.206   0.367   7.883 -1.6130 -0.8723  0.1739
 9548SOL    HW240107   0.276   0.445   7.975  0.7402 -0.1441 -0.1199
 9549SOL     OW40108   4.310   0.318   9.063 -0.1810 -0.1373  0.3362
 9549SOL    HW140109   4.320   0.289   9.153 -1.3525  1.3202  0.9514
 9549SOL    HW240110   4.296   0.412   9.073  0.4685  0.1863 -1.6476
 9550SOL     OW40111   1.476   3.153   7.881  0.0657 -0.1788 -0.0543
 9550SOL    HW140112   1.539   3.207   7.930 -0.6598 -0.2673  0.9864
 9550SOL    HW240113   1.443   3.217   7.818  0.4888  0.1699  0.0743
 9551SOL     OW40114   0.209   0.170   4.407  0.0326 -0.0991  0.5811
 9551SOL    HW140115   0.158   0.105   4.456 -1.5265  1.3922  0.9536
 9551SOL    HW240116   0.298   0.139   4.424  1.0931  1.3800 -2.2821
 9552SOL     OW40117   0.858   3.702   5.994 -0.1755 -0.3615 -0.8260
 9552SOL    HW140118   0.896   3.619   5.966 -0.3559 -0.8606  0.4399
 9552SOL    HW240119   0.834   3.748   5.913 -1.1233 -0.5618 -0.6627
 9553SOL     OW40120   1.377   2.663   3.425  0.4380  0.0891  0.5755
 9553SOL    HW140121   1.423   2.711   3.493 -1.8644  3.9429 -0.5570
 9553SOL    HW240122   1.301   2.722   3.425 -0.7648 -1.4473 -1.1042
 9554SOL     OW40123   1.802   0.472   4.099  0.0307  0.2038  0.5243
 9554SOL    HW140124   1.846   0.419   4.033  1.6097  0.1811  1.5918
 9554SOL    HW240125   1.741   0.521   4.044 -1.1866 -1.5304  0.3149
 9555SOL     OW40126   1.648   2.141   1.939 -0.0169  0.2912  0.1518
 9555SOL    HW140127   1.672   2.076   2.005 -1.8938  0.5001  1.0399
 9555SOL    HW240128   1.683   2.104   1.858 -1.5599 -1.4963  0.3237
 9556SOL     OW40129   4.100   4.513   3.455  0.0493 -0.1452 -0.2015
 9556SOL    HW140130   4.129   4.484   3.368  1.9796 -1.3094  0.8186
 9556SOL    HW240131   4.086   4.427   3.494  1.6661  0.0297  0.7846
 9557SOL     OW40132   3.700   3.329   7.171  0.3249 -0.1370  0.4479
 9557SOL    HW140133   3.660   3.344   7.257  0.6807 -0.9130  0.7538
 9557SOL    HW240134   3.746   3.248   7.196 -0.4662 -0.1928  1.7156
 9558SOL     OW40135   3.006   1.390   9.776  0.5464 -0.7685  0.1942
 9558SOL    HW140136   2.976   1.439   9.700  1.8425  0.9578  0.8042
 9558SOL    HW240137   2.933   1.388   9.837 -0.7268  0.7187 -1.2808
 9559SOL     OW40138   3.942   4.224   9.719 -0.0458  0.0151  0.8640
 9559SOL    HW140139   3.964   4.312   9.750  3.4722 -1.1410  1.5949
 9559SOL    HW240140   3.883   4.240   9.646 -0.7954  0.8618  1.6443
 9560SOL     OW40141   2.969   1.072   0.880  0.1542  0.0421  0.0934
 9560SOL    HW140142   3.037   1.094   0.816 -0.4444 -0.5537 -0.7336
 9560SOL    HW240143   2.980   1.139   0.948  0.8320 -0.3544  0.3779
 9561SOL     OW40144   1.957   3.023  17.370 -0.2523 -0.5907  0.0679
 9561SOL    HW140145   1.965   2.947  17.429 -0.5775 -0.4506  0.2919
 9561SOL    HW240146   2.043   3.034  17.329  0.2079 -0.8441  0.9454
 9562SOL     OW40147   3.283   3.883   5.981 -0.2256  0.4261 -0.0854
 9562SOL    HW140148   3.292   3.926   5.896 -0.1756 -3.3394 -1.9980
 9562SOL    HW240149   3.234   3.804   5.959 -0.0393  0.5866 -1.0605
 9563SOL     OW40150   1.482   1.244   9.174 -0.0013  0.0014 -0.2920
 9563SOL    HW140151   1.575   1.252   9.152  0.7274 -4.1319  1.3105
 9563SOL    HW240152   1.449   1.332   9.191 -1.3174  0.1584 -3.5389
 9564SOL     OW40153   2.303   2.331  14.138  0.1755 -0.6983  0.1713
 9564SOL    HW140154   2.240   2.259  14.148  1.6988 -1.9358  0.8520
 9564SOL    HW240155   2.382   2.283  14.115  0.0385  0.6272 -2.9364
 9565SOL     OW40156   4.386   0.011   2.959  0.5583  0.1563  0.3040
 9565SOL    HW140157   4.378   4.693   2.874  2.6852  0.3766 -0.0236
 9565SOL    HW240158   4.443   0.085   2.939 -0.2427  0.3027 -1.3786
 9566SOL     OW40159   1.215   2.378   8.402  0.3572  0.3902 -0.5382
 9566SOL    HW140160   1.283   2.445   8.396  1.6463 -0.7033  1.6870
 9566SOL    HW240161   1.206   2.366   8.307  0.7431  3.0778 -0.9136
 9567SOL     OW40162   4.624   3.984   0.346  0.2501  0.4514 -0.1744
 9567SOL    HW140163   4.605   4.058   0.404 -1.4820 -2.8752  3.5130
 9567SOL    HW240164   4.718   3.998   0.341  0.2217  0.9685  0.8186
 9568SOL     OW40165   2.254   2.664   0.096 -0.2191  0.5054 -0.0583
 9568SOL    HW140166   2.188   2.728   0.123  0.8008  1.2385  0.6913
 9568SOL    HW240167   2.200   2.603   0.045 -3.3355  1.2526  2.3414
   4.72513   4.72513  17.70190
