Membrane in water
40167
    1TCq1    O1    1   1.138   0.887  11.033  0.0940  0.9531 -0.2516
    1TCq1    C1    2   1.142   0.848  11.166  0.8240  0.2453  0.1351
    1TCq1    O2    3   1.201   0.909  11.254 -0.1090 -0.2343  0.3878
    1TCq1    C2    4   1.119   0.704  11.166  0.2237  0.0515 -0.3038
    1TCq1    C3    5   1.088   0.629  11.052 -0.0538  0.4491  0.6926
    1TCq1    C4    6   1.047   0.501  11.079 -0.2017  0.3196 -0.1892
    1TCq1    C5    7   1.030   0.448  11.206  0.2772 -0.6480  0.3747
    1TCq1    C6    8   1.065   0.523  11.313 -0.0925 -0.3180  0.3766
    1TCq1    C7    9   1.105   0.651  11.291  0.1896 -0.1705  0.5594
    1TCq1    C8   10   1.043   0.464  11.445  0.4851  0.3332  0.6296
    1TCq1    O4   11   1.058   0.539  11.545 -0.0288  0.2694  0.1540
    1TCq1    C9   12   1.020   0.413  10.963  0.5487 -0.3272 -0.0967
    1TCq1    O5   13   1.017   0.474  10.850  0.3596 -0.2018 -0.1509
    1TCq1    O6   14   1.022   0.289  10.979  0.0167 -0.3385  0.1012
    1TCq1    H1   15   1.058   0.854  10.986 -1.5733  1.9701  1.8502
    1TCq1    H2   16   1.104   0.656  10.949  0.7442 -1.0139  0.4331
    1TCq1    H3   17   0.972   0.357  11.218  2.1944 -2.1227 -1.6097
    1TCq1    H4   18   1.125   0.717  11.374  0.1572  0.3068  0.1936
    2MPD2     C   19   0.928   0.093  11.776 -0.3660 -0.3866  0.3043
    2MPD2    C1   20   0.976   0.223  11.802  0.0641  0.0456 -0.6468
    2MPD2    C2   21   1.010   0.304  11.695 -0.2722  0.4002  0.0922
    2MPD2    C3   22   0.996   0.252  11.563  0.0374 -0.1207 -0.6462
    2MPD2    C4   23   0.946   0.123  11.543  0.6170  0.5104  0.3137
    2MPD2    C5   24   0.913   0.044  11.648  0.1509  0.1831 -0.6835
    2MPD2     H   25   1.052   0.402  11.714 -1.2303  0.5911  1.2050
    2MPD2    H1   26   0.931   0.084  11.444 -3.0410 -1.8552  1.7955
    2MPD2    H2   27   0.907   0.029  11.862 -0.5723 -1.6024 -0.6409
    2MPD2    H3   28   0.872   4.675  11.627 -0.3596  0.1938  0.2647
    2MPD2     N   29   1.015   0.330  11.448 -0.4838 -0.0165 -0.2365
    2MPD2    H5   30   1.005   0.284  11.358  0.5600  0.1267 -0.4335
    2MPD2    N1   31   0.988   0.287  11.925 -0.1436  0.4848 -0.5291
    2MPD2    H7   32   1.045   0.371  11.916  2.4755 -0.8844  3.3144
    3TCq1    O1   33   4.711   1.736  10.821  0.0889  0.4442 -0.5202
    3TCq1    C1   34   0.083   1.820  10.812  0.2056  0.5654  0.6953
    3TCq1    O2   35   0.183   1.808  10.742  0.1762 -0.1147  0.0594
    3TCq1    C2   36   0.034   1.949  10.855  0.7532 -0.0671  0.1857
    3TCq1    C3   37   4.631   1.978  10.868  0.0929  0.3542  0.1092
    3TCq1    C4   38   4.591   2.110  10.883 -0.5111 -0.1814  0.2194
    3TCq1    C5   39   4.683   2.211  10.887  0.3863 -0.7466 -0.0624
    3TCq1    C6   40   0.089   2.172  10.880  0.3614  0.2423  0.4293
    3TCq1    C7   41   0.125   2.043  10.868 -0.3391 -0.0844 -0.4097
    3TCq1    C8   42   0.197   2.265  10.939 -0.3114  0.1580 -0.4055
    3TCq1    O4   43   0.313   2.226  10.952  0.0819 -0.2054  0.4081
    3TCq1    C9   44   4.455   2.145  10.898  0.3810 -0.1811  0.2619
    3TCq1    O5   45   4.381   2.039  10.901  0.0504 -0.1690  0.5862
    3TCq1    O6   46   4.422   2.268  10.897 -0.5230  0.1560  0.0940
    3TCq1    H1   47   4.668   1.736  10.909  0.1153  2.6853 -0.5188
    3TCq1    H2   48   4.556   1.899  10.868 -0.1058  0.5352 -2.1721
    3TCq1    H3   49   4.645   2.312  10.896  2.7817  0.2580 -1.2638
    3TCq1    H4   50   0.228   2.008  10.863 -0.4022  0.0849 -2.6470
    4MPD2     C   51   0.335   2.717  11.163 -0.1358  0.1192  0.6081
    4MPD2    C1   52   0.198   2.717  11.147 -0.5374  0.7112  0.2389
    4MPD2    C2   53   0.141   2.598  11.096 -0.6042 -0.2618 -0.0784
    4MPD2    C3   54   0.216   2.488  11.045  0.9539  0.3046 -0.3789
    4MPD2    C4   55   0.353   2.502  11.051  0.3003  0.4510  0.4184
    4MPD2    C5   56   0.411   2.616  11.099  0.1592  0.6007  0.7493
    4MPD2     H   57   0.033   2.602  11.104 -0.4416  1.2022  1.3895
    4MPD2    H1   58   0.420   2.429  11.007  1.9599  1.8129  0.6977
    4MPD2    H2   59   0.389   2.799  11.208  0.1304  0.4372 -0.2902
    4MPD2    H3   60   0.519   2.623  11.094  0.0511  0.5377 -1.5169
    4MPD2     N   61   0.141   2.380  10.985 -0.0460 -0.1056  0.1486
    4MPD2    H5   62   0.042   2.399  10.979  0.1431  0.2395 -1.8531
    4MPD2    N1   63   0.117   2.822  11.182 -0.1681 -0.3667 -0.1620
    4MPD2    H7   64   0.017   2.805  11.171  0.1197 -0.5545 -2.4821
    5TCq1    O1   65   2.131   3.347  11.641  0.1843 -0.2920 -0.8451
    5TCq1    C1   66   2.039   3.313  11.547 -0.0010  0.3790  0.1604
    5TCq1    O2   67   2.048   3.328  11.423  0.3795 -0.2593 -0.6843
    5TCq1    C2   68   1.941   3.232  11.604  0.6278  0.0904  0.0626
    5TCq1    C3   69   1.897   3.269  11.731  0.0453  0.3677 -0.1329
    5TCq1    C4   70   1.785   3.206  11.778 -0.1978  0.6074  0.5883
    5TCq1    C5   71   1.722   3.105  11.705 -0.3687  0.1092  0.9705
    5TCq1    C6   72   1.758   3.078  11.573  0.4003 -0.3578  0.2929
    5TCq1    C7   73   1.869   3.144  11.524 -0.4949  0.0062  0.9930
    5TCq1    C8   74   1.683   2.985  11.496 -0.3800  0.1682  0.3673
    5TCq1    O4   75   1.581   2.942  11.550  0.0950 -0.1679  0.1160
    5TCq1    C9   76   1.725   3.254  11.900  0.2356 -0.9175 -0.4832
    5TCq1    O5   77   1.768   3.359  11.952 -0.0166 -0.1147  0.6445
    5TCq1    O6   78   1.639   3.175  11.948  0.0235  0.2255  0.3711
    5TCq1    H1   79   2.130   3.300  11.728 -0.5818  0.8424 -0.2397
    5TCq1    H2   80   1.936   3.346  11.795 -1.0324 -0.1953  1.1938
    5TCq1    H3   81   1.647   3.045  11.756 -1.2448 -0.7823 -1.3593
    5TCq1    H4   82   1.905   3.136  11.422 -0.7100 -2.4525  1.1181
    6MPD2     C   83   1.724   2.917  11.143 -0.2290  0.2678  0.4132
    6MPD2    C1   84   1.656   2.925  11.258  0.0878  0.2361  0.3254
    6MPD2    C2   85   1.517   2.888  11.257  0.5744 -0.0923  0.8348
    6MPD2    C3   86   1.457   2.845  11.136 -0.6631 -0.8409 -0.1263
    6MPD2    C4   87   1.534   2.842  11.026  0.6118 -0.2330 -0.4302
    6MPD2    C5   88   1.662   2.879  11.032  0.1455 -0.1338  0.3793
    6MPD2     H   89   1.461   2.887  11.350 -0.3569  0.8094  0.2903
    6MPD2    H1   90   1.498   2.822  10.926 -1.0866  0.4184  0.0432
    6MPD2    H2   91   1.826   2.953  11.137 -0.6988  1.7555  1.2156
    6MPD2    H3   92   1.712   2.862  10.937  1.2396  1.7291  0.6189
    6MPD2     N   93   1.316   2.822  11.131  0.2025  0.3453  0.0138
    6MPD2    H5   94   1.274   2.822  11.223  0.6841  0.0549  0.2352
    6MPD2    N1   95   1.725   2.990  11.366 -0.4234 -0.3876 -0.3067
    6MPD2    H7   96   1.803   3.048  11.338 -1.2875  1.1455  0.4817
    7TCq1    O1   97   2.810   3.379  13.089  0.3266  0.0426 -0.5419
    7TCq1    C1   98   2.699   3.320  13.049  0.4628 -0.2614  0.2897
    7TCq1    O2   99   2.699   3.274  12.934  0.5355  0.4774 -0.4816
    7TCq1    C2  100   2.675   3.224  13.155 -0.3120 -0.3436  0.2693
    7TCq1    C3  101   2.603   3.257  13.264 -0.2275 -0.2155  0.1806
    7TCq1    C4  102   2.582   3.150  13.352 -0.1497  0.1659 -0.0881
    7TCq1    C5  103   2.660   3.041  13.349  0.6991 -0.8545 -0.4586
    7TCq1    C6  104   2.757   3.036  13.253 -0.5949 -0.1665 -0.3693
    7TCq1    C7  105   2.766   3.122  13.154  0.0002 -0.1913  0.2594
    7TCq1    C8  106   2.835   2.918  13.245  0.8677 -0.2706  0.2114
    7TCq1    O4  107   2.784   2.807  13.267  0.2082  0.3985 -0.3321
    7TCq1    C9  108   2.488   3.159  13.461 -0.3325 -0.2093 -0.0595
    7TCq1    O5  109   2.414   3.265  13.467  0.7782 -0.4004  0.5187
    7TCq1    O6  110   2.486   3.066  13.540 -0.1223 -0.5623  0.3399
    7TCq1    H1  111   2.805   3.403  13.184 -1.5432 -0.1031 -0.6051
    7TCq1    H2  112   2.532   3.339  13.271  0.7671  0.4548  2.4608
    7TCq1    H3  113   2.647   2.964  13.424 -1.0656 -1.5253 -1.4730
    7TCq1    H4  114   2.837   3.104  13.075 -0.2819  0.4502 -0.1384
    8MPD2     C  115   3.295   2.702  13.283  1.0753  0.2120 -0.9318
    8MPD2    C1  116   3.168   2.644  13.265  0.2383 -0.5840  0.5981
    8MPD2    C2  117   3.058   2.731  13.245 -0.1220 -0.0419  0.4016
    8MPD2    C3  118   3.075   2.866  13.252 -0.0307 -0.8482  0.5303
    8MPD2    C4  119   3.201   2.927  13.275 -0.0219  0.4035 -0.2011
    8MPD2    C5  120   3.308   2.842  13.288 -0.5387 -0.2378  0.4501
    8MPD2     H  121   2.964   2.683  13.219 -0.5515  0.4378  1.1038
    8MPD2    H1  122   3.227   3.032  13.279 -3.7091  1.3037  0.5217
    8MPD2    H2  123   3.382   2.640  13.304  1.6112  1.1959 -0.2510
    8MPD2    H3  124   3.406   2.880  13.314 -0.1730  0.3827 -1.8044
    8MPD2     N  125   2.968   2.957  13.243  0.1659  0.3052  0.2646
    8MPD2    H5  126   2.994   3.054  13.234  2.0953 -0.0892  1.6914
    8MPD2    N1  127   3.167   2.503  13.264 -0.3517  0.7426  0.2778
    8MPD2    H7  128   3.259   2.462  13.271 -0.9324 -0.2871  2.0810
    9TCq1    O1  129   0.231   1.473  10.708  0.1101 -0.9171  0.4084
    9TCq1    C1  130   0.342   1.537  10.755 -0.2331  0.6332  0.1586
    9TCq1    O2  131   0.381   1.511  10.867  0.0550  0.1771  0.1386
    9TCq1    C2  132   0.436   1.506  10.652 -0.5582 -0.4580 -0.6259
    9TCq1    C3  133   0.419   1.571  10.532 -0.6972 -0.0007 -0.4265
    9TCq1    C4  134   0.506   1.556  10.434  0.0650 -0.7609  0.7805
    9TCq1    C5  135   0.616   1.476  10.455 -0.2093  1.3113  0.9429
    9TCq1    C6  136   0.638   1.425  10.584 -0.5691 -1.2956 -0.6915
    9TCq1    C7  137   0.540   1.422  10.680  0.1814 -0.4837  0.6800
    9TCq1    C8  138   0.761   1.353  10.611 -0.8138 -0.4684  0.2522
    9TCq1    O4  139   0.847   1.351  10.526 -0.2256 -0.6253 -0.1973
    9TCq1    C9  140   0.474   1.594  10.296 -0.4565 -0.1849 -0.5456
    9TCq1    O5  141   0.355   1.578  10.256 -0.0301  0.0996 -0.0239
    9TCq1    O6  142   0.565   1.606  10.209  0.0160 -0.2065 -0.0277
    9TCq1    H1  143   0.220   1.486  10.611 -1.6906  0.3549  0.7781
    9TCq1    H2  144   0.321   1.616  10.525 -0.4966  0.5485  0.2959
    9TCq1    H3  145   0.688   1.445  10.380 -2.4890 -1.1557 -0.2043
    9TCq1    H4  146   0.542   1.388  10.782  0.7956 -0.9078  0.5252
   10MPD2     C  147   1.010   1.238  10.764 -0.0131 -0.2166 -0.4484
   10MPD2    C1  148   0.881   1.265  10.818 -0.0782 -0.0712  0.1282
   10MPD2    C2  149   0.854   1.255  10.951  0.2369 -0.3771 -0.2995
   10MPD2    C3  150   0.953   1.220  11.036 -0.0366 -0.1679  0.3821
   10MPD2    C4  151   1.083   1.198  10.985 -0.2523  0.2135  0.4647
   10MPD2    C5  152   1.111   1.208  10.850  0.1065 -0.3734 -0.3094
   10MPD2     H  153   0.750   1.265  10.983  0.2240  0.1095 -0.4879
   10MPD2    H1  154   1.162   1.163  11.050 -0.8719 -0.1218  1.0377
   10MPD2    H2  155   1.037   1.244  10.659 -1.3841 -2.2646 -0.9250
   10MPD2    H3  156   1.211   1.212  10.809  0.4850 -0.1951  0.6273
   10MPD2     N  157   0.934   1.202  11.172 -0.3471 -0.1682  0.3678
   10MPD2    H5  158   1.014   1.191  11.233 -2.2101 -0.2968  2.7937
   10MPD2    N1  159   0.771   1.320  10.740 -0.9034 -0.4003 -0.5548
   10MPD2    H7  160   0.695   1.345  10.802 -0.3065  0.5218 -0.2033
   11TCq1    O1  161   2.316   1.070  13.745  0.1183 -0.2520  0.0991
   11TCq1    C1  162   2.219   1.071  13.842 -0.2949  0.1160 -0.7500
   11TCq1    O2  163   2.159   0.977  13.894 -0.6017  0.0637 -0.0421
   11TCq1    C2  164   2.177   1.204  13.866 -0.2695 -1.1170  0.3445
   11TCq1    C3  165   2.270   1.296  13.885  0.3684  0.1263 -0.0901
   11TCq1    C4  166   2.236   1.428  13.882 -0.2845  0.8084 -0.2841
   11TCq1    C5  167   2.108   1.463  13.867 -0.5120  0.1030  0.0895
   11TCq1    C6  168   2.014   1.374  13.857  0.1422  0.3388 -0.3874
   11TCq1    C7  169   2.043   1.234  13.860  0.2200 -0.1527  0.3292
   11TCq1    C8  170   1.881   1.422  13.826 -0.1893  0.2362  0.7134
   11TCq1    O4  171   1.855   1.539  13.849 -0.0882  0.0665 -0.1288
   11TCq1    C9  172   2.331   1.530  13.924  0.2811 -0.5162  0.2476
   11TCq1    O5  173   2.303   1.651  13.901 -0.4501  0.1243 -0.0000
   11TCq1    O6  174   2.447   1.489  13.950 -0.1240 -0.1955 -0.1038
   11TCq1    H1  175   2.342   1.165  13.740  0.1334 -0.2561  0.0978
   11TCq1    H2  176   2.372   1.275  13.917 -0.2095 -0.5608  1.3057
   11TCq1    H3  177   2.088   1.567  13.846  0.7320 -0.2756 -3.0766
   11TCq1    H4  178   1.965   1.159  13.870 -1.3618  1.6150  1.3119
   12MPD2     C  179   1.591   1.458  13.788  0.4242  0.5398 -0.1742
   12MPD2    C1  180   1.665   1.356  13.731 -0.1593 -0.1586 -0.4267
   12MPD2    C2  181   1.609   1.272  13.635  0.7003 -0.1940  0.3116
   12MPD2    C3  182   1.482   1.299  13.589 -0.8055 -0.3006 -0.8669
   12MPD2    C4  183   1.414   1.409  13.642  0.5889  0.1171  0.3136
   12MPD2    C5  184   1.465   1.488  13.744  0.7202  0.7250  0.0387
   12MPD2     H  185   1.666   1.188  13.596  1.8518  0.5862  0.3018
   12MPD2    H1  186   1.311   1.431  13.618  1.1484  0.6709 -1.5966
   12MPD2    H2  187   1.633   1.532  13.856  1.2698 -0.4584  0.3839
   12MPD2    H3  188   1.405   1.566  13.791 -2.1324  0.2944 -2.9126
   12MPD2     N  189   1.415   1.212  13.492 -0.3065  0.3762  0.1887
   12MPD2    H5  190   1.462   1.129  13.457  0.9954  0.4021  1.8406
   12MPD2    N1  191   1.800   1.328  13.765 -0.0567 -0.3011  0.9796
   12MPD2    H7  192   1.839   1.238  13.738 -0.1917 -0.2365  0.5731
   13TCq1    O1  193   0.904   0.891  10.493 -0.2120 -0.2070  0.0639
   13TCq1    C1  194   0.878   0.997  10.419  0.4042 -0.5209 -0.3002
   13TCq1    O2  195   0.935   1.027  10.316 -0.0923 -0.0368  0.1052
   13TCq1    C2  196   0.749   1.044  10.449 -0.7101  0.5072 -0.5699
   13TCq1    C3  197   0.680   1.091  10.342 -0.7325  0.3684  0.2777
   13TCq1    C4  198   0.547   1.122  10.368  0.4914  0.0199 -0.3912
   13TCq1    C5  199   0.486   1.112  10.494 -0.4532 -0.1613  0.0236
   13TCq1    C6  200   0.562   1.069  10.595  0.1006 -0.0956  0.1018
   13TCq1    C7  201   0.694   1.031  10.574 -0.5538 -0.1087  0.1478
   13TCq1    C8  202   0.511   1.082  10.731 -0.5358  0.8079 -0.3850
   13TCq1    O4  203   0.592   1.063  10.817  0.3801 -0.5410  0.5643
   13TCq1    C9  204   0.466   1.169  10.256 -0.7294  0.4451 -0.2894
   13TCq1    O5  205   0.513   1.168  10.141  0.0958  0.2745  0.3582
   13TCq1    O6  206   0.358   1.223  10.283  0.0743  0.4115 -0.5819
   13TCq1    H1  207   0.830   0.843  10.537 -0.1867  0.7597  1.1672
   13TCq1    H2  208   0.718   1.109  10.242 -1.5504  0.7243  0.0327
   13TCq1    H3  209   0.379   1.125  10.495 -0.8303 -3.3485  0.2687
   13TCq1    H4  210   0.754   0.994  10.656 -0.4993  0.7336  0.4897
   14MPD2     C  211   0.173   1.099  10.876 -0.3026 -0.3475  0.6868
   14MPD2    C1  212   0.311   1.121  10.868  0.1800  0.2770 -0.1793
   14MPD2    C2  213   0.377   1.156  10.987  0.4034  0.2398 -0.3843
   14MPD2    C3  214   0.308   1.180  11.101  0.7335 -0.6438 -1.0087
   14MPD2    C4  215   0.172   1.170  11.105 -0.5028 -0.0182  0.3400
   14MPD2    C5  216   0.112   1.120  10.993  0.6405 -0.4025 -0.5467
   14MPD2     H  217   0.484   1.168  10.972 -0.1486  3.5284 -1.7182
   14MPD2    H1  218   0.109   1.203  11.186  0.2361  1.0241  0.4927
   14MPD2    H2  219   0.125   1.051  10.791  1.6517  0.3901 -0.8339
   14MPD2    H3  220   0.005   1.101  10.993  0.6924 -0.6654 -1.6914
   14MPD2     N  221   0.380   1.236  11.212  0.1875  0.1145  0.0045
   14MPD2    H5  222   0.478   1.257  11.200  0.4627  0.0685  2.2569
   14MPD2    N1  223   0.376   1.107  10.744  0.0922 -0.0570 -0.3393
   14MPD2    H7  224   0.314   1.090  10.665  0.3282 -2.7585  0.0493
   15TCq1    O1  225   2.668   0.837   2.018 -0.5573 -0.0861 -0.0502
   15TCq1    C1  226   2.745   0.948   2.026  0.1028 -0.3674 -0.2535
   15TCq1    O2  227   2.694   1.061   2.004 -0.3427 -0.3949 -0.3816
   15TCq1    C2  228   2.886   0.913   1.983  0.5513  0.0413 -0.2008
   15TCq1    C3  229   2.998   0.931   2.066  0.5641 -0.0362  0.2944
   15TCq1    C4  230   3.119   0.876   2.020  0.0484  0.1725  0.2532
   15TCq1    C5  231   3.124   0.804   1.903  0.6341 -0.6015 -0.5547
   15TCq1    C6  232   3.011   0.784   1.829  0.5939  0.0830  0.1914
   15TCq1    C7  233   2.894   0.838   1.869 -0.2035  0.4513  0.2412
   15TCq1    C8  234   3.027   0.688   1.717 -0.1818  0.3708 -0.4447
   15TCq1    O4  235   3.134   0.630   1.710 -0.0052  0.4990 -0.1970
   15TCq1    C9  236   3.234   0.891   2.098 -0.1127  1.0095  0.0795
   15TCq1    O5  237   3.219   0.919   2.219  0.0519  0.4001 -0.2939
   15TCq1    O6  238   3.344   0.838   2.063 -0.3186  0.1994  0.0589
   15TCq1    H1  239   2.717   0.761   2.056  1.1800  0.6628 -0.7993
   15TCq1    H2  240   2.995   0.978   2.164  1.8905  1.0050 -0.1590
   15TCq1    H3  241   3.214   0.748   1.879  1.5105  0.6924 -0.3069
   15TCq1    H4  242   2.797   0.817   1.825  0.4013 -1.0982 -0.3659
   16MPD2     C  243   2.790   0.619   1.448 -0.0118  0.3713 -0.0849
   16MPD2    C1  244   2.901   0.603   1.522  1.1644  0.2021  0.2262
   16MPD2    C2  245   2.991   0.514   1.472  0.0108 -0.3198 -0.1976
   16MPD2    C3  246   2.975   0.441   1.359  0.5746 -0.4842  0.9099
   16MPD2    C4  247   2.857   0.459   1.290 -0.7435 -0.9897 -0.1767
   16MPD2    C5  248   2.770   0.559   1.327 -0.4812  0.3599  0.3437
   16MPD2     H  249   3.086   0.507   1.524 -1.0372 -0.5889  1.6768
   16MPD2    H1  250   2.822   0.399   1.206 -0.3631  0.1884 -1.1839
   16MPD2    H2  251   2.718   0.691   1.486 -0.4840 -0.3782  0.4251
   16MPD2    H3  252   2.677   0.570   1.273  0.7326 -0.0251 -1.8291
   16MPD2     N  253   3.074   0.344   1.329  0.1090  0.6998  0.6969
   16MPD2    H5  254   3.161   0.345   1.382  0.7703  1.3722 -0.3994
   16MPD2    N1  255   2.916   0.687   1.638  0.0195  0.4243  0.5389
   16MPD2    H7  256   2.834   0.740   1.665 -0.6089 -0.9048  1.2763
   17TCq1    O1  257   4.480   4.236  10.295  0.6857 -0.1710  0.7757
   17TCq1    C1  258   4.557   4.298  10.384 -0.0699 -0.2935 -0.0573
   17TCq1    O2  259   4.515   4.335  10.497 -0.2620  0.2569  0.0028
   17TCq1    C2  260   4.669   4.354  10.319  0.2752 -0.4033 -0.4461
   17TCq1    C3  261   0.014   4.282  10.233  0.0983 -0.2096 -0.5625
   17TCq1    C4  262   0.125   4.344  10.180 -0.4501 -0.3072  0.3603
   17TCq1    C5  263   0.139   4.477  10.196 -0.4361 -0.2918 -0.2947
   17TCq1    C6  264   0.058   4.552  10.281 -0.9363 -0.0493  0.2622
   17TCq1    C7  265   4.680   4.487  10.339  0.9390 -0.4502  0.3608
   17TCq1    C8  266   0.087   4.685  10.328  0.1266  0.3324  0.2482
   17TCq1    O4  267   4.724   0.026  10.372  0.5695 -0.2754 -0.0719
   17TCq1    C9  268   0.214   4.272  10.090  0.2543 -0.0706 -0.8541
   17TCq1    O5  269   0.227   4.150  10.106  0.3941  0.2309  0.3066
   17TCq1    O6  270   0.264   4.340   9.998 -0.3749 -0.2856  0.3951
   17TCq1    H1  271   4.507   4.251  10.202  1.1159 -2.4849  0.5355
   17TCq1    H2  272   4.717   4.180  10.204  0.6232 -0.4179 -0.2947
   17TCq1    H3  273   0.213   4.529  10.137  1.0286 -0.5297  1.3256
   17TCq1    H4  274   4.607   4.537  10.402 -0.6718 -0.0124 -1.8678
   18MPD2     C  275   0.213   0.224  10.399  0.1568  0.4056 -0.0652
   18MPD2    C1  276   0.282   0.120  10.344 -1.4354  0.8458  0.3655
   18MPD2    C2  277   0.420   0.133  10.326  0.0611 -0.6701 -0.3762
   18MPD2    C3  278   0.485   0.261  10.343  0.4784 -0.3929  0.3205
   18MPD2    C4  279   0.411   0.364  10.392  0.4538 -0.1326 -0.1584
   18MPD2    C5  280   0.272   0.346  10.424 -1.2008 -0.4522  0.2085
   18MPD2     H  281   0.474   0.043  10.301  1.2232 -0.3677  1.0491
   18MPD2    H1  282   0.448   0.464  10.409 -0.2448  0.1009 -0.0404
   18MPD2    H2  283   0.106   0.215  10.414  0.1347 -1.8169 -1.6490
   18MPD2    H3  284   0.215   0.432  10.458 -2.4635 -3.0680  4.6890
   18MPD2     N  285   0.625   0.291  10.314  0.5416  0.8877 -0.1163
   18MPD2    H5  286   0.661   0.383  10.338  0.5198  0.2456  2.3604
   18MPD2    N1  287   0.217   4.724  10.315  0.2014 -0.4445 -0.4565
   18MPD2    H7  288   0.280   4.650  10.287  0.7894  0.0523 -0.4328
   19TMC2    C1  289   2.806   0.812  13.203 -0.5644 -0.0969 -0.4878
   19TMC2    C2  290   2.770   0.793  13.074  0.9741  0.3225 -0.2947
   19TMC2    C3  291   2.644   0.749  13.046 -0.4526  0.0623 -0.5382
   19TMC2    C4  292   2.716   0.780  13.305  0.0168 -0.0051  0.7401
   19TMC2    C5  293   2.589   0.757  13.270 -0.7641 -0.2683  0.2034
   19TMC2    C6  294   2.554   0.728  13.139  0.3710 -0.5371 -0.6871
   19TMC2     C  295   2.945   0.851  13.226 -0.3403 -0.6912  0.0092
   19TMC2     O  296   3.030   0.851  13.138 -0.0483  0.6487  0.1005
   19TMC2     H  297   2.848   0.793  12.998 -0.3785  1.3702 -1.6981
   19TMC2    H1  298   2.727   0.823  13.404 -0.1191  1.0781  0.2823
   19TMC2    H2  299   2.453   0.700  13.112 -0.1293  0.0222  0.5599
   19TMC2    C7  300   2.485   0.797  13.357 -0.5502 -0.5034 -0.0498
   19TMC2    C8  301   2.618   0.675  12.922 -0.0950  0.2532 -0.4622
   19TMC2    O1  302   2.514   0.887  13.436 -0.1862  0.0048  0.0551
   19TMC2    O2  303   2.573   0.562  12.927 -0.2715 -0.0614  0.0883
   19TMC2    O5  304   2.709   0.715  12.836 -0.0028  0.6434  0.1823
   19TMC2    H5  305   2.726   0.809  12.855  1.9857 -0.0358  1.6331
   20MPD2     C  306   3.202   0.976  13.366 -1.0910  0.3040 -0.1295
   20MPD2    C1  307   3.075   0.946  13.419 -0.6492  0.5887 -0.0277
   20MPD2    C2  308   3.050   0.965  13.549 -0.1237  0.1346  0.3518
   20MPD2    C3  309   3.154   1.012  13.627 -0.0920  0.0005  1.2123
   20MPD2    C4  310   3.280   1.034  13.576 -0.5085 -0.6056 -0.2663
   20MPD2    C5  311   3.302   1.027  13.439 -0.1020  0.5627 -0.0510
   20MPD2     H  312   2.956   0.927  13.586 -0.4213  1.1410  0.6447
   20MPD2    H1  313   3.363   1.054  13.644 -1.6292  1.2025  0.5687
   20MPD2    H2  314   3.214   0.969  13.259  0.7162  1.3134  0.0103
   20MPD2    H3  315   3.402   1.036  13.397 -1.0778  0.3199 -2.3986
   20MPD2     N  316   3.150   1.002  13.771  0.4037  0.1771  0.3113
   20MPD2    H5  317   3.242   1.013  13.812  0.0358  1.8197  0.7000
   20MPD2    N1  318   2.958   0.901  13.352 -0.6337  0.3915  0.1035
   20MPD2    H7  319   2.877   0.893  13.413 -0.9562 -0.3164 -0.4273
   21MPD2     C  320   0.151   1.180  13.745 -0.3440 -0.6858 -0.0132
   21MPD2    C1  321   0.260   1.189  13.827 -0.0197 -0.8936  0.5788
   21MPD2    C2  322   0.248   1.167  13.961  0.1606 -0.2496  0.2185
   21MPD2    C3  323   0.127   1.132  14.022  0.1894 -0.0318 -0.1643
   21MPD2    C4  324   0.015   1.116  13.940 -0.4368 -0.3368 -0.3704
   21MPD2    C5  325   0.032   1.137  13.805  0.1534  0.4665  0.1543
   21MPD2     H  326   0.334   1.188  14.023  1.9797 -1.9641 -1.7272
   21MPD2    H1  327   4.651   1.084  13.986 -0.5613  0.6570  0.0879
   21MPD2    H2  328   0.153   1.212  13.642  0.0014  2.1704  0.8870
   21MPD2    H3  329   4.675   1.154  13.741  0.3203  0.4416 -0.0781
   21MPD2     N  330   0.104   1.133  14.162 -0.6439 -0.4885 -0.5537
   21MPD2    H5  331   0.012   1.109  14.198 -1.3068 -0.6511 -2.3176
   21MPD2    N1  332   0.391   1.226  13.780 -0.2614  0.1182  0.6751
   21MPD2    H7  333   0.458   1.246  13.854  0.7139  3.2099 -1.0221
   22TCq2    C1  334   0.207   1.151  14.255  0.2953 -0.4203  0.3364
   22TCq2    O2  335   0.328   1.160  14.240 -0.2397 -0.3105  0.9986
   22TCq2    C2  336   0.158   1.142  14.395 -0.0886  0.0225  0.5119
   22TCq2    C3  337   0.254   1.113  14.493 -0.5116  0.4113 -0.4397
   22TCq2    C4  338   0.206   1.089  14.619  0.4154 -0.7288 -0.2189
   22TCq2    C5  339   0.075   1.133  14.654 -0.1118 -0.0087  0.1204
   22TCq2    C6  340   4.723   1.187  14.558  0.3674  0.8186  0.1096
   22TCq2    C7  341   0.035   1.186  14.426 -0.2089 -0.6728  0.2806
   22TCq2    C8  342   4.588   1.220  14.592  0.4110  0.0177 -0.0256
   22TCq2    O4  343   4.521   1.151  14.668 -0.1503 -0.1296 -0.0461
   22TCq2    C9  344   0.294   1.041  14.723  0.1775  0.4596  0.0856
   22TCq2    O5  345   0.390   0.970  14.696 -1.2592 -0.1529  0.4041
   22TCq2    O6  346   0.254   1.054  14.844  0.0460 -0.2272  0.1560
   22TCq2    H2  347   0.349   1.068  14.469  0.2296  1.9623 -0.3702
   22TCq2    H3  348   0.051   1.117  14.759  3.1695  2.3779  1.2440
   22TCq2    H4  349   4.697   1.225  14.351 -1.0520 -2.3647  0.1507
   23MPD2     C  350   2.061   2.435  14.427  0.2026 -0.3488 -0.0045
   23MPD2    C1  351   2.045   2.460  14.563  0.2185 -0.3735 -0.5116
   23MPD2    C2  352   1.967   2.570  14.598  1.0228 -0.2210 -0.1930
   23MPD2    C3  353   1.915   2.662  14.500  0.7216  0.4202 -0.5393
   23MPD2    C4  354   1.942   2.635  14.369  0.0898  0.1011  0.4470
   23MPD2    C5  355   2.009   2.523  14.335 -0.1290  0.1739 -0.0385
   23MPD2     H  356   1.954   2.596  14.702  1.7428  0.4303 -0.2736
   23MPD2    H1  357   1.923   2.709  14.292 -0.1403  0.2544  0.6494
   23MPD2    H2  358   2.107   2.344  14.392 -1.8340 -1.9722  1.5372
   23MPD2    H3  359   2.035   2.511  14.230  0.5627 -0.6510  0.2213
   23MPD2     N  360   1.842   2.786  14.531  0.5523 -0.0977  0.5019
   23MPD2    H5  361   1.812   2.837  14.448 -0.4749 -1.5473 -0.0202
   23MPD2    N1  362   2.109   2.380  14.666 -0.0580  0.7470  0.0919
   23MPD2    H7  363   2.096   2.419  14.759  0.0836 -0.4375  0.6159
   24TCq2    C1  364   1.814   2.838  14.653 -0.4508  0.1110  0.6361
   24TCq2    O2  365   1.828   2.793  14.765  0.8290  0.1341 -0.5142
   24TCq2    C2  366   1.699   2.936  14.644  0.2689 -0.6965  0.0465
   24TCq2    C3  367   1.689   3.010  14.524 -0.3160 -0.4758 -0.0040
   24TCq2    C4  368   1.562   3.026  14.480  0.4997  0.2295 -0.5509
   24TCq2    C5  369   1.456   2.972  14.538  0.0855  0.7664  0.0610
   24TCq2    C6  370   1.469   2.912  14.658 -0.2866  1.5267  0.3005
   24TCq2    C7  371   1.590   2.893  14.714  0.1651 -0.1113 -0.0809
   24TCq2    C8  372   1.362   2.823  14.703 -0.0273  0.1285  0.1633
   24TCq2    O4  373   1.389   2.728  14.775  0.0126 -0.4960  0.8454
   24TCq2    C9  374   1.543   3.094  14.352  0.1832 -0.7295  0.0024
   24TCq2    O5  375   1.646   3.099  14.277  0.1637  0.4257 -0.3558
   24TCq2    O6  376   1.423   3.108  14.311 -0.3604  0.0865  0.4001
   24TCq2    H2  377   1.770   3.066  14.480 -0.8073 -1.1223 -1.7303
   24TCq2    H3  378   1.357   2.979  14.492 -0.5362 -1.7188  1.0515
   24TCq2    H4  379   1.596   2.842  14.809 -0.8512 -1.9487 -1.0120
   25TMC2    C1  380   0.099   0.242  10.964 -0.5007 -0.0147  0.8285
   25TMC2    C2  381   0.091   0.323  10.859 -0.3035  0.4677  0.2687
   25TMC2    C3  382   0.010   0.430  10.873 -0.9326  0.3028  0.4634
   25TMC2    C4  383   0.026   0.254  11.079 -0.1944 -0.5952 -0.1805
   25TMC2    C5  384   4.668   0.359  11.082 -0.4384 -0.7582 -0.3631
   25TMC2    C6  385   4.654   0.447  10.982  0.3511  0.7745  0.7003
   25TMC2     C  386   0.188   0.127  10.957  0.6272  0.4788 -0.3336
   25TMC2     O  387   0.290   0.126  10.886  0.5397 -0.0082 -0.0488
   25TMC2     H  388   0.148   0.293  10.772 -2.4241 -0.4252 -0.8260
   25TMC2    H1  389   0.037   0.190  11.166  2.4612  1.1324  0.7709
   25TMC2    H2  390   4.592   0.536  10.990 -0.3238  0.2189  1.7784
   25TMC2    C7  391   4.584   0.366  11.197 -0.4951 -0.3430 -0.4113
   25TMC2    C8  392   4.714   0.519  10.758  0.4017 -0.1381 -1.1598
   25TMC2    O1  393   4.647   0.335  11.295 -0.0965  0.0584  0.2962
   25TMC2    O2  394   0.069   0.525  10.667 -0.0586 -0.2433  0.7399
   25TMC2    O5  395   4.582   0.538  10.745  0.3973  0.2215  0.1969
   25TMC2    H5  396   4.519   0.534  10.820 -0.9204  1.8116 -0.8181
   26MPD2     C  397   0.301   4.359  11.008  0.5500  0.1856 -0.4288
   26MPD2    C1  398   0.161   4.376  11.020 -0.2184  0.0425 -1.0483
   26MPD2    C2  399   0.101   4.502  11.025 -0.4189  0.0287  0.3097
   26MPD2    C3  400   0.180   4.619  11.015  0.3837 -0.5151 -0.3925
   26MPD2    C4  401   0.321   4.601  11.013  0.6578 -0.1404  0.7337
   26MPD2    C5  402   0.376   4.473  11.010  0.5123  0.0057  0.0713
   26MPD2     H  403   4.722   4.508  11.013 -0.1314  2.7348 -0.9450
   26MPD2    H1  404   0.391   4.684  11.008  0.0740  0.1854 -2.0320
   26MPD2    H2  405   0.358   4.267  10.994 -0.1036  0.0144 -1.9642
   26MPD2    H3  406   0.484   4.471  10.996  0.4503  1.1664 -0.6382
   26MPD2     N  407   0.122   0.019  11.013 -0.8602 -0.4138  0.4137
   26MPD2    H5  408   0.026   0.036  11.039 -1.8044 -2.4721 -1.7564
   26MPD2    N1  409   0.093   4.256  11.008 -0.0940  0.1169  0.4093
   26MPD2    H7  410   0.144   4.172  10.983  1.1010  1.1058 -0.4272
   27TMC2    C1  411   3.655   1.627  11.951  0.7684 -0.6066  0.2906
   27TMC2    C2  412   3.566   1.537  11.906 -0.2280  0.0200 -1.0260
   27TMC2    C3  413   3.446   1.583  11.845  0.3176  0.0262 -0.0982
   27TMC2    C4  414   3.620   1.758  11.952 -0.0726  0.6441  0.5413
   27TMC2    C5  415   3.501   1.802  11.909  0.5483 -0.6242  0.3160
   27TMC2    C6  416   3.406   1.710  11.870  0.2014  0.0362 -0.1169
   27TMC2     C  417   3.719   1.597  12.078 -0.2370  0.0039 -0.2894
   27TMC2     O  418   3.768   1.484  12.087  0.7889 -0.3752 -0.0117
   27TMC2     H  419   3.595   1.432  11.902 -0.2199 -0.0031 -0.2768
   27TMC2    H1  420   3.692   1.834  11.976  0.2274  0.8827 -1.1425
   27TMC2    H2  421   3.302   1.735  11.850  0.9847  2.2595 -1.3529
   27TMC2    C7  422   3.450   1.909  11.990 -0.1125  0.1264  0.3725
   27TMC2    C8  423   3.333   1.490  11.839 -0.0770 -0.1553 -0.0616
   27TMC2    O1  424   3.401   1.870  12.095 -0.4082  0.1605 -0.4870
   27TMC2    O2  425   3.235   1.504  11.909  0.8184 -0.6175 -0.4219
   27TMC2    O5  426   3.397   1.373  11.806  0.4423 -0.1989  0.3905
   27TMC2    H5  427   3.462   1.388  11.734  0.6027 -0.7112  0.4322
   28MPD2     C  428   3.676   1.608  12.592  0.6027  0.0691 -0.0077
   28MPD2    C1  429   3.585   1.709  12.535 -0.2172 -0.0693  0.0334
   28MPD2    C2  430   3.598   1.726  12.396 -0.1883  0.0231 -0.0385
   28MPD2    C3  431   3.691   1.660  12.321  1.0780  0.0975 -0.1274
   28MPD2    C4  432   3.764   1.559  12.374 -0.2582 -0.4384  0.2546
   28MPD2    C5  433   3.754   1.532  12.507 -0.2456 -0.3256  0.4568
   28MPD2     H  434   3.519   1.779  12.345 -0.1156 -0.7097 -0.9092
   28MPD2    H1  435   3.836   1.501  12.318  0.7253 -0.0561  1.1180
   28MPD2    H2  436   3.669   1.589  12.698  1.4704  0.1898  0.0691
   28MPD2    H3  437   3.820   1.455  12.546  1.8100  1.4210  0.4145
   28MPD2     N  438   3.675   1.679  12.180 -0.7096 -0.4950  1.1148
   28MPD2    H5  439   3.621   1.758  12.146 -0.2310 -1.3716 -1.6915
   28MPD2    N1  440   3.469   1.757  12.600 -0.3110  0.2155 -0.0401
   28MPD2    H7  441   3.462   1.740  12.700  0.6702 -0.7521 -0.1430
   29MPD2     C  442   3.262   4.263  13.693  0.2173 -0.1074  0.4082
   29MPD2    C1  443   3.333   4.236  13.805  0.1152  0.2053  1.3397
   29MPD2    C2  444   3.346   4.330  13.898 -0.0354  0.1597 -0.1838
   29MPD2    C3  445   3.294   4.457  13.881  0.0903 -0.0779  0.4185
   29MPD2    C4  446   3.213   4.478  13.773 -0.6293 -0.1131 -0.0133
   29MPD2    C5  447   3.191   4.378  13.686 -0.0302  0.0617 -0.2285
   29MPD2     H  448   3.416   4.310  13.978  2.0307 -1.3564 -2.3620
   29MPD2    H1  449   3.160   4.570  13.758 -0.9334 -0.0388  1.4820
   29MPD2    H2  450   3.237   4.184  13.623 -3.2392  1.2022  0.1677
   29MPD2    H3  451   3.126   4.401  13.603 -1.4295 -1.4534  0.4674
   29MPD2     N  452   3.318   4.566  13.967 -0.1146  0.4452 -0.1196
   29MPD2    H5  453   3.280   4.652  13.929  2.8110  2.5306  1.7412
   29MPD2    N1  454   3.400   4.113  13.825 -0.1733  0.1553  0.2310
   29MPD2    H7  455   3.460   4.107  13.906 -1.4775  0.3316  1.2071
   30TCq2    C1  456   3.402   4.578  14.078 -0.7690 -0.2871  0.1679
   30TCq2    O2  457   3.475   4.491  14.122  0.3054 -0.5986 -0.0269
   30TCq2    C2  458   3.404   4.714  14.137 -0.0697  0.3234  0.5176
   30TCq2    C3  459   3.306   0.075  14.111 -0.2984  0.3882  0.5348
   30TCq2    C4  460   3.325   0.200  14.155  0.1745 -0.6002  0.1665
   30TCq2    C5  461   3.437   0.245  14.222 -0.5878  0.2955  0.4898
   30TCq2    C6  462   3.540   0.160  14.230  0.6097 -0.0580 -0.3946
   30TCq2    C7  463   3.519   0.031  14.188 -0.0001 -0.0662 -0.4598
   30TCq2    C8  464   3.676   0.207  14.209  0.5193  0.0515  0.7660
   30TCq2    O4  465   3.745   0.143  14.135  0.1339 -0.2977  0.1585
   30TCq2    C9  466   3.230   0.303  14.120  0.3352  0.1175 -1.3317
   30TCq2    O5  467   3.174   0.291  14.010  0.1050 -0.4651 -0.9167
   30TCq2    O6  468   3.257   0.417  14.165  0.4149  0.0019 -0.1891
   30TCq2    H2  469   3.217   0.055  14.052 -1.6917  2.4727  1.9548
   30TCq2    H3  470   3.458   0.352  14.229 -2.0752  0.6811 -1.0341
   30TCq2    H4  471   3.604   4.692  14.180 -1.2749 -1.8517  1.0481
   31MPD2     C  472   1.649   3.479  14.528  0.2253  0.4424  0.4214
   31MPD2    C1  473   1.520   3.473  14.553 -0.2575  0.1368  0.0602
   31MPD2    C2  474   1.459   3.393  14.647  0.6960  0.7606 -0.0252
   31MPD2    C3  475   1.542   3.321  14.733 -0.0415  0.5213 -0.2579
   31MPD2    C4  476   1.682   3.308  14.702 -0.1049  0.1503  0.5779
   31MPD2    C5  477   1.729   3.387  14.600 -0.0613 -0.0167 -0.8841
   31MPD2     H  478   1.351   3.400  14.659  0.4072  0.6454 -2.5131
   31MPD2    H1  479   1.745   3.239  14.756 -0.6038 -0.2048  0.7042
   31MPD2    H2  480   1.699   3.538  14.452 -0.4715  3.4899  2.3065
   31MPD2    H3  481   1.831   3.373  14.566  0.6759  0.4276  1.1489
   31MPD2     N  482   1.490   3.241  14.837 -0.1147  0.1182 -0.8190
   31MPD2    H5  483   1.559   3.186  14.887 -1.9739  1.2049  2.9387
   31MPD2    N1  484   1.443   3.550  14.466 -0.6254  0.2088 -0.4404
   31MPD2    H7  485   1.498   3.591  14.392 -2.5837 -1.1046 -2.6224
   32TCq2    C1  486   1.360   3.238  14.883 -0.2627 -1.0682 -0.7568
   32TCq2    O2  487   1.263   3.304  14.855  0.5304  0.3023 -0.3151
   32TCq2    C2  488   1.331   3.135  14.980  0.6870 -0.1414  0.0351
   32TCq2    C3  489   1.211   3.068  14.966 -0.7000 -0.7526  0.2476
   32TCq2    C4  490   1.196   2.948  15.034 -0.0190  0.0180 -0.2466
   32TCq2    C5  491   1.302   2.888  15.102 -0.0381  0.7443  1.0326
   32TCq2    C6  492   1.415   2.973  15.120 -0.4221  0.3979  0.5186
   32TCq2    C7  493   1.433   3.091  15.058 -0.6181 -0.0525  0.8131
   32TCq2    C8  494   1.518   2.941  15.223 -0.0217 -0.2266 -0.3344
   32TCq2    O4  495   1.569   2.830  15.225  0.0296 -0.0246  0.3526
   32TCq2    C9  496   1.068   2.872  15.025 -0.6340 -0.3273 -0.0674
   32TCq2    O5  497   1.059   2.762  15.088  0.0425 -0.1785  0.1662
   32TCq2    O6  498   0.974   2.945  14.994  0.0544 -0.3201  0.5376
   32TCq2    H2  499   1.128   3.113  14.912 -1.5419 -0.4465  1.7709
   32TCq2    H3  500   1.297   2.791  15.150 -2.8326  0.4845  0.1937
   32TCq2    H4  501   1.528   3.144  15.070 -0.0863 -1.4160  2.6512
   33MPD2     C  502   1.080   4.721   9.736  0.0575 -1.4193 -0.6503
   33MPD2    C1  503   1.122   0.108   9.794  0.2251  0.4870  0.2632
   33MPD2    C2  504   1.188   0.193   9.714 -0.3420 -0.1804  0.6834
   33MPD2    C3  505   1.218   0.167   9.582 -0.0172  0.4133  0.1402
   33MPD2    C4  506   1.178   0.050   9.524 -0.5212  0.2880  0.4196
   33MPD2    C5  507   1.117   4.687   9.608 -0.3577 -1.0466  0.3344
   33MPD2     H  508   1.231   0.281   9.762  2.5842 -0.9840 -0.4790
   33MPD2    H1  509   1.183   0.033   9.418  3.1120 -2.6137  1.0608
   33MPD2    H2  510   1.016   4.649   9.786 -0.1662 -0.4909  0.4104
   33MPD2    H3  511   1.064   4.604   9.564 -0.2997 -0.3131 -1.1237
   33MPD2     N  512   1.290   0.264   9.498 -0.3590  0.5793  0.0642
   33MPD2    H5  513   1.308   0.232   9.403 -0.2046  0.3066  0.1850
   33MPD2    N1  514   1.086   0.139   9.926  0.3235 -0.2243 -0.0516
   33MPD2    H7  515   1.015   0.080   9.968 -1.4541  0.4186 -2.1776
   34TCq2    C1  516   1.353   0.380   9.545 -0.0084 -0.0299 -0.3921
   34TCq2    O2  517   1.337   0.446   9.646  0.0465 -0.3180  0.0748
   34TCq2    C2  518   1.413   0.461   9.438 -0.0679  0.1012  0.0360
   34TCq2    C3  519   1.430   0.422   9.311  0.7421 -0.3772  0.4889
   34TCq2    C4  520   1.505   0.494   9.224  0.4962  1.0442  0.0493
   34TCq2    C5  521   1.557   0.620   9.254 -0.5431  0.1311  0.0192
   34TCq2    C6  522   1.539   0.661   9.383 -0.2892  0.2770 -0.1342
   34TCq2    C7  523   1.466   0.586   9.478 -0.1434  0.6753 -0.6319
   34TCq2    C8  524   1.541   0.800   9.410  0.3458 -0.6441 -0.0453
   34TCq2    O4  525   1.573   0.838   9.520 -0.2777  0.2630 -0.1560
   34TCq2    C9  526   1.526   0.432   9.094  0.2126  0.7205 -0.0017
   34TCq2    O5  527   1.458   0.330   9.063  0.7902 -0.3122 -0.2937
   34TCq2    O6  528   1.619   0.486   9.029  0.1818 -0.1255  0.0563
   34TCq2    H2  529   1.386   0.329   9.276  0.9133 -0.8021  1.4063
   34TCq2    H3  530   1.624   0.675   9.188 -0.2504 -0.3942 -0.1259
   34TCq2    H4  531   1.455   0.624   9.579  0.2963  3.1068 -1.5073
   35MPD2     C  532   3.235   2.526  11.894 -0.1307  0.5708 -0.5775
   35MPD2    C1  533   3.184   2.399  11.911 -0.1538 -0.1176  0.4190
   35MPD2    C2  534   3.123   2.341  11.799 -0.2914  0.3562 -0.6534
   35MPD2    C3  535   3.095   2.417  11.688 -0.0920 -0.1434  0.0147
   35MPD2    C4  536   3.118   2.550  11.687  0.0925  0.3120  0.6987
   35MPD2    C5  537   3.204   2.598  11.784  0.0189  0.0480  0.2529
   35MPD2     H  538   3.096   2.236  11.796 -0.9468  0.5893 -3.2681
   35MPD2    H1  539   3.109   2.624  11.608 -1.4354 -1.1619 -0.5066
   35MPD2    H2  540   3.297   2.575  11.968  0.9539  0.5032 -1.4513
   35MPD2    H3  541   3.241   2.699  11.769 -1.5806  0.4432 -1.0023
   35MPD2     N  542   3.001   2.365  11.594 -0.3388 -0.5908 -0.0792
   35MPD2    H5  543   2.978   2.266  11.599 -0.7172 -0.5232 -0.4376
   35MPD2    N1  544   3.186   2.335  12.038 -0.5754  0.0385  0.2457
   35MPD2    H7  545   3.211   2.394  12.116  0.9192 -1.2130  0.6981
   36TCq2    C1  546   2.935   2.435  11.496  0.1111  0.3066 -0.6147
   36TCq2    O2  547   2.941   2.557  11.470  0.0994  0.3159 -0.0725
   36TCq2    C2  548   2.819   2.367  11.442 -0.0418 -0.2992  0.1065
   36TCq2    C3  549   2.755   2.423  11.334  0.2807 -0.1563  0.0152
   36TCq2    C4  550   2.636   2.373  11.298 -0.5050 -0.5879 -0.2190
   36TCq2    C5  551   2.579   2.268  11.365 -0.5053 -0.0396 -0.9320
   36TCq2    C6  552   2.648   2.215  11.472 -0.3133  0.5677 -0.0386
   36TCq2    C7  553   2.769   2.258  11.512 -0.0314  0.2293 -0.1354
   36TCq2    C8  554   2.584   2.112  11.555 -0.2531 -0.6446 -0.5091
   36TCq2    O4  555   2.463   2.086  11.545  0.1309 -0.1358 -0.2128
   36TCq2    C9  556   2.571   2.430  11.186  0.3638 -0.1843 -0.4502
   36TCq2    O5  557   2.618   2.528  11.123 -0.0457  0.1981  0.2900
   36TCq2    O6  558   2.465   2.379  11.150 -0.3800 -0.1417  0.1276
   36TCq2    H2  559   2.804   2.499  11.276  0.2031 -0.5260 -0.5321
   36TCq2    H3  560   2.483   2.231  11.330 -0.8487 -0.5318  0.5425
   36TCq2    H4  561   2.794   2.244  11.617  1.2335  0.2806 -0.4245
   37TMC2    C1  562   4.722   2.159  11.300 -0.5416  1.0776 -0.5316
   37TMC2    C2  563   0.017   2.032  11.261 -0.1286  0.0887  0.1971
   37TMC2    C3  564   0.143   1.990  11.234 -0.2383 -0.1432  0.0088
   37TMC2    C4  565   0.091   2.233  11.355 -0.2653 -0.5464  0.1725
   37TMC2    C5  566   0.214   2.182  11.358 -0.5840  0.7444  0.0419
   37TMC2    C6  567   0.247   2.061  11.300 -0.0354  0.6532 -0.6173
   37TMC2     C  568   4.579   2.184  11.337 -0.4954 -0.2926  0.3715
   37TMC2     O  569   4.483   2.132  11.285  0.1613 -0.8160  0.0352
   37TMC2     H  570   4.666   1.964  11.235 -0.1849 -0.5176  1.9680
   37TMC2    H1  571   0.080   2.339  11.375 -1.0233 -0.9320  1.8177
   37TMC2    H2  572   0.348   2.023  11.300 -0.4071 -0.3525 -3.6942
   37TMC2    C7  573   0.322   2.274  11.364  0.1332 -0.4737  0.2369
   37TMC2    C8  574   0.162   1.847  11.248  0.0354 -0.1469 -0.7091
   37TMC2    O1  575   0.315   2.368  11.444 -0.3628 -0.3301 -0.2464
   37TMC2    O2  576   0.075   1.774  11.289 -0.2915  0.0371  0.0767
   37TMC2    O5  577   0.294   1.810  11.221  0.0656  0.2217  0.1065
   37TMC2    H5  578   0.328   1.892  11.178 -1.5706 -0.1058 -1.8402
   38MPD2     C  579   4.258   2.482  11.619 -0.8073 -0.8450  0.3876
   38MPD2    C1  580   4.388   2.501  11.665 -0.4207 -0.7857 -0.0281
   38MPD2    C2  581   4.490   2.424  11.602  0.0180  0.1695 -0.4540
   38MPD2    C3  582   4.471   2.336  11.497  0.4750 -0.1064 -0.6061
   38MPD2    C4  583   4.344   2.318  11.454  0.2410 -0.5433 -0.1786
   38MPD2    C5  584   4.234   2.389  11.514  0.1794  0.1555 -0.1932
   38MPD2     H  585   4.592   2.432  11.637  0.1726  0.0849 -0.8775
   38MPD2    H1  586   4.315   2.246  11.379  0.3199 -0.5296 -0.2230
   38MPD2    H2  587   4.176   2.546  11.648 -0.3743 -0.7493  1.4299
   38MPD2    H3  588   4.139   2.371  11.464  0.4327 -1.7897  0.0548
   38MPD2     N  589   4.583   2.275  11.439  0.1653  0.2847  0.2531
   38MPD2    H5  590   4.669   2.304  11.485  1.6607 -2.0590 -1.0302
   38MPD2    N1  591   4.425   2.579  11.777 -0.2486  0.1876 -0.3839
   38MPD2    H7  592   4.524   2.565  11.792 -0.1987  1.3148  0.2845
   39MPD2     C  593   3.264   0.088   1.753  0.1273 -0.2720 -0.1096
   39MPD2    C1  594   3.160   0.179   1.752  0.3430 -0.1673  0.2827
   39MPD2    C2  595   3.054   0.162   1.659 -0.5209  0.1812  0.9869
   39MPD2    C3  596   3.054   0.062   1.566 -0.0804  0.2533 -0.6683
   39MPD2    C4  597   3.176   4.718   1.553  0.4213  0.6483 -0.5353
   39MPD2    C5  598   3.268   4.716   1.655  0.3004  0.7271 -1.1271
   39MPD2     H  599   2.977   0.238   1.652  2.2009  2.8958  0.1699
   39MPD2    H1  600   3.178   4.639   1.479  0.4155 -2.0443  2.3202
   39MPD2    H2  601   3.351   0.100   1.817  0.3959  2.6193 -1.0348
   39MPD2    H3  602   3.345   4.641   1.644 -1.0254 -0.8083  0.0017
   39MPD2     N  603   2.953   0.036   1.479 -0.7268 -0.3962 -0.1724
   39MPD2    H5  604   2.963   4.687   1.414 -0.1001 -1.3762  1.0966
   39MPD2    N1  605   3.154   0.278   1.856  0.1916 -0.1821 -0.0953
   39MPD2    H7  606   3.227   0.274   1.926 -0.8242 -3.1689  0.8101
   40TCq2    C1  607   3.059   0.373   1.872 -0.5310  0.3403  0.4247
   40TCq2    O2  608   2.957   0.403   1.809  0.0393  0.6642  0.1902
   40TCq2    C2  609   3.086   0.453   1.990 -0.9120 -0.7299  0.3197
   40TCq2    C3  610   2.968   0.504   2.045 -0.0404 -1.1515  0.7156
   40TCq2    C4  611   2.975   0.540   2.183 -0.3397 -0.1605  0.1743
   40TCq2    C5  612   3.078   0.512   2.262 -0.2834  0.3206  0.1729
   40TCq2    C6  613   3.193   0.460   2.205  0.2253  0.3201 -0.4598
   40TCq2    C7  614   3.197   0.428   2.072  0.2500  0.3232  1.5452
   40TCq2    C8  615   3.313   0.474   2.289 -0.2708  0.2340  0.2477
   40TCq2    O4  616   3.291   0.505   2.403 -0.3308 -0.0770 -0.2697
   40TCq2    C9  617   2.867   0.618   2.243  0.0008 -0.5693  0.9895
   40TCq2    O5  618   2.783   0.661   2.156 -0.4831  0.3807 -0.7739
   40TCq2    O6  619   2.884   0.656   2.361 -0.8535 -0.1526  0.3421
   40TCq2    H2  620   2.890   0.542   1.980 -1.3681 -0.0494  2.9495
   40TCq2    H3  621   3.077   0.526   2.370 -1.0234 -0.1673  0.2309
   40TCq2    H4  622   3.293   0.405   2.027  0.3505  2.4480  0.6867
   41TMC2    C1  623   2.408   2.770  13.616 -0.2219 -0.4204  0.6624
   41TMC2    C2  624   2.355   2.860  13.703 -0.4318  0.5153  0.0055
   41TMC2    C3  625   2.257   2.944  13.659  0.3389  0.3795 -0.3950
   41TMC2    C4  626   2.374   2.772  13.482  0.4017 -0.6788  0.1657
   41TMC2    C5  627   2.274   2.865  13.440  0.2198  0.0673  0.3353
   41TMC2    C6  628   2.210   2.944  13.530  0.1606 -0.4020  0.5421
   41TMC2     C  629   2.500   2.672  13.662  0.5102 -1.0950 -0.3854
   41TMC2     O  630   2.559   2.603  13.579 -0.3951  0.3379 -0.3576
   41TMC2     H  631   2.398   2.876  13.802  2.2386  0.8662 -1.2151
   41TMC2    H1  632   2.411   2.689  13.423 -0.2326  0.1025 -1.3241
   41TMC2    H2  633   2.154   3.028  13.489 -0.6620 -2.2641 -2.2144
   41TMC2    C7  634   2.302   2.935  13.312 -0.3065  0.8147 -0.4774
   41TMC2    C8  635   2.227   3.056  13.749 -0.3860  0.2176  0.0118
   41TMC2    O1  636   2.278   3.053  13.304 -0.4881  0.2238  0.1292
   41TMC2    O2  637   2.147   3.038  13.840 -0.8673  0.5159 -0.9691
   41TMC2    O5  638   2.345   3.121  13.761  0.3359  0.4567 -0.3369
   41TMC2    H5  639   2.403   3.116  13.682  0.4470 -2.7755 -0.0406
   42MPD2     C  640   2.709   2.528  13.844 -0.4060 -0.1897  0.5382
   42MPD2    C1  641   2.592   2.584  13.882  1.0729  0.8508  0.3178
   42MPD2    C2  642   2.558   2.566  14.012  0.2747 -0.7813  0.4521
   42MPD2    C3  643   2.625   2.490  14.103  0.5873  0.3990  0.0052
   42MPD2    C4  644   2.739   2.427  14.060 -0.0793 -0.2474 -0.5610
   42MPD2    C5  645   2.782   2.454  13.936 -0.5189  0.1071 -0.3671
   42MPD2     H  646   2.477   2.625  14.052 -0.3720  0.3276 -2.4889
   42MPD2    H1  647   2.800   2.357  14.116  1.7515  1.9261  0.1999
   42MPD2    H2  648   2.741   2.524  13.740  0.2066  2.2568  0.6321
   42MPD2    H3  649   2.869   2.396  13.906 -0.6154 -0.3029  0.1447
   42MPD2     N  650   2.580   2.467  14.240  0.3243 -0.7137  0.1451
   42MPD2    H5  651   2.642   2.414  14.301  0.0567 -1.1717  0.0236
   42MPD2    N1  652   2.509   2.666  13.799 -0.1660  0.5249  0.9422
   42MPD2    H7  653   2.430   2.701  13.852 -1.2209  0.9503 -0.9213
   43MPD2     C  654   3.605   0.715   0.440 -0.2395 -0.5682 -0.4711
   43MPD2    C1  655   3.702   0.680   0.538  0.4139 -0.0057 -0.0243
   43MPD2    C2  656   3.701   0.754   0.656  0.1694 -0.2958 -0.0937
   43MPD2    C3  657   3.624   0.860   0.679  0.0785 -0.1588  0.2110
   43MPD2    C4  658   3.533   0.896   0.583  0.1844 -0.6215 -0.2011
   43MPD2    C5  659   3.531   0.825   0.469 -0.2888 -0.2966  0.4920
   43MPD2     H  660   3.785   0.730   0.720  2.5559  0.7292 -2.7927
   43MPD2    H1  661   3.474   0.986   0.595 -1.4032 -2.0506  2.7586
   43MPD2    H2  662   3.599   0.669   0.343 -0.4535 -0.3704 -0.5498
   43MPD2    H3  663   3.464   0.861   0.392 -0.6063 -1.9061  0.0106
   43MPD2     N  664   3.637   0.945   0.793 -0.4145  0.6821 -0.0534
   43MPD2    H5  665   3.571   1.022   0.803 -1.6698 -0.5917  1.2683
   43MPD2    N1  666   3.805   0.584   0.525 -0.1887  0.2994 -0.2895
   43MPD2    H7  667   3.873   0.561   0.597 -1.3652  1.6276  1.2454
   44TCq2    C1  668   3.896   1.119   1.312  0.3936 -0.0940 -0.5077
   44TCq2    O2  669   3.996   1.052   1.296  0.2853  0.0297  0.1738
   44TCq2    C2  670   3.807   1.138   1.196  0.0512  0.2301 -0.2282
   44TCq2    C3  671   3.733   1.254   1.177 -0.2794 -0.7089  0.3273
   44TCq2    C4  672   3.663   1.263   1.059  0.7045 -0.2911 -0.5631
   44TCq2    C5  673   3.671   1.163   0.961  0.4586  0.5587 -0.5577
   44TCq2    C6  674   3.746   1.047   0.986  0.5753 -0.1821  0.4939
   44TCq2    C7  675   3.813   1.037   1.103 -0.6190 -0.1304 -0.9142
   44TCq2    C8  676   3.735   0.931   0.894  0.3533 -0.2280  0.2926
   44TCq2    O4  677   3.822   0.844   0.911 -0.4871 -0.6590  0.5241
   44TCq2    C9  678   3.587   1.382   1.029 -0.3822  0.3578  0.4018
   44TCq2    O5  679   3.608   1.472   1.114  0.0617  0.1940  0.1412
   44TCq2    O6  680   3.526   1.390   0.923  0.4400  0.3839 -0.1992
   44TCq2    H2  681   3.725   1.330   1.254 -1.6982 -0.5058 -0.0268
   44TCq2    H3  682   3.593   1.172   0.886 -0.6275 -1.7283  0.2826
   44TCq2    H4  683   3.859   0.943   1.133  0.3753  0.3701 -0.8553
   45TMC2    C1  684   3.878   2.574   9.400 -0.1124 -0.1731 -0.9686
   45TMC2    C2  685   3.919   2.592   9.266  0.0397 -0.3357  0.0962
   45TMC2    C3  686   4.049   2.621   9.249  0.1850 -0.3630 -0.2114
   45TMC2    C4  687   3.965   2.577   9.512  0.0976 -0.3935  0.4909
   45TMC2    C5  688   4.093   2.600   9.486  0.0628 -0.4048 -0.4487
   45TMC2    C6  689   4.139   2.627   9.357 -0.2996 -0.0790 -0.0736
   45TMC2     C  690   3.764   2.487   9.411  0.1235  0.2473  0.5532
   45TMC2     O  691   3.765   2.397   9.491 -0.0534 -0.2633 -0.0489
   45TMC2     H  692   3.849   2.586   9.183 -0.0140  1.1566  0.0302
   45TMC2    H1  693   3.931   2.559   9.614 -0.9243  0.6810  0.3412
   45TMC2    H2  694   4.234   2.675   9.339 -0.8706  1.3098  0.6336
   45TMC2    C7  695   4.174   2.664   9.588 -0.1480  0.3333 -0.3155
   45TMC2    C8  696   4.095   2.661   9.117  0.2959  0.2742  0.8118
   45TMC2    O1  697   4.120   2.733   9.670  0.0671  0.5545 -0.0009
   45TMC2    O2  698   4.163   2.762   9.102 -0.0781 -0.0805  1.1736
   45TMC2    O5  699   4.049   2.576   9.029 -0.2234  0.1803  0.2677
   45TMC2    H5  700   3.994   2.507   9.072  0.6633 -0.1827  0.8145
   46MPD2     C  701   3.496   2.367   9.373  0.0604  0.2271 -0.4133
   46MPD2    C1  702   3.531   2.489   9.330 -0.7724  0.0114  0.5826
   46MPD2    C2  703   3.448   2.562   9.252  0.2964 -0.0389  0.4249
   46MPD2    C3  704   3.312   2.532   9.238  0.3717  0.1229  0.5394
   46MPD2    C4  705   3.271   2.410   9.295  0.0614  0.5941  0.0444
   46MPD2    C5  706   3.362   2.333   9.361  0.3367 -0.6646 -0.2231
   46MPD2     H  707   3.490   2.649   9.202 -1.5037 -0.0034 -1.0091
   46MPD2    H1  708   3.169   2.374   9.300  0.7719 -1.5401 -0.8716
   46MPD2    H2  709   3.555   2.300   9.434 -2.2043 -2.4654 -1.1970
   46MPD2    H3  710   3.317   2.252   9.418 -3.2144  2.0710  0.9119
   46MPD2     N  711   3.230   2.625   9.169 -0.2594  0.0162 -0.3465
   46MPD2    H5  712   3.269   2.718   9.157 -1.2315  0.4673  0.0024
   46MPD2    N1  713   3.660   2.544   9.344  0.2046 -0.5966  0.3525
   46MPD2    H7  714   3.672   2.640   9.311 -1.5244 -0.6135 -0.3653
   47TMC2    C1  715   1.504   3.057   9.228 -0.1052 -0.3399 -0.0985
   47TMC2    C2  716   1.479   2.947   9.156  0.0811 -0.0062 -0.2606
   47TMC2    C3  717   1.362   2.875   9.174 -0.3770  0.1941 -0.0078
   47TMC2    C4  718   1.419   3.101   9.331  0.3090  0.4063  0.6002
   47TMC2    C5  719   1.320   3.012   9.361 -0.2963  0.8956  1.4269
   47TMC2    C6  720   1.279   2.907   9.279 -0.0340 -0.5662 -0.2063
   47TMC2     C  721   1.644   3.102   9.231  0.8693 -0.3638 -0.4577
   47TMC2     O  722   1.668   3.221   9.251  0.0525 -0.5515 -0.5249
   47TMC2     H  723   1.526   2.942   9.058 -3.1989 -0.1837 -1.8433
   47TMC2    H1  724   1.452   3.183   9.393  0.1864  1.5616 -0.8783
   47TMC2    H2  725   1.190   2.850   9.304  0.0984 -1.9324 -2.8606
   47TMC2    C7  726   1.228   3.070   9.445 -0.3669  0.1798 -0.3502
   47TMC2    C8  727   1.310   2.777   9.076 -0.7200 -0.6295 -0.2327
   47TMC2    O1  728   1.220   3.188   9.431  0.2556 -0.1645 -0.8729
   47TMC2    O2  729   1.188   2.761   9.067  0.3232 -0.4803 -0.1348
   47TMC2    O5  730   1.411   2.686   9.060 -0.6098  0.1269  0.1175
   47TMC2    H5  731   1.503   2.712   9.082 -0.0345 -1.6806 -0.0868
   48MPD2     C  732   1.944   3.119   9.266  0.1129  0.2370  0.1925
   48MPD2    C1  733   1.876   3.001   9.231  0.8344  0.1602 -0.2694
   48MPD2    C2  734   1.944   2.887   9.243  0.3355  0.2075  0.7313
   48MPD2    C3  735   2.080   2.879   9.274 -0.2133  0.0947 -0.5098
   48MPD2    C4  736   2.146   2.997   9.314  0.5185  0.1165 -0.0474
   48MPD2    C5  737   2.074   3.116   9.306  0.2877  0.6295  0.1986
   48MPD2     H  738   1.892   2.793   9.225  0.4543  0.4502 -0.8768
   48MPD2    H1  739   2.251   3.002   9.338  0.4041  1.7925  0.1323
   48MPD2    H2  740   1.910   3.221   9.248  1.0980  0.9915  2.4944
   48MPD2    H3  741   2.118   3.214   9.320 -1.3508  1.2325  1.0917
   48MPD2     N  742   2.137   2.754   9.287 -0.2992  0.4278  0.0073
   48MPD2    H5  743   2.083   2.683   9.238  1.6715 -0.9697 -0.1407
   48MPD2    N1  744   1.733   2.997   9.207 -0.2588 -0.7738  0.1080
   48MPD2    H7  745   1.707   2.900   9.197  0.3290 -0.8029 -1.2006
   49MPD2     C  746   4.603   0.680  10.126 -0.4646  0.1322  0.7161
   49MPD2    C1  747   4.698   0.781  10.135 -0.3322  0.0867 -0.2635
   49MPD2    C2  748   0.053   0.786  10.240  0.0434  0.0103  0.4546
   49MPD2    C3  749   0.055   0.685  10.333 -0.1547  0.2038 -0.3345
   49MPD2    C4  750   4.701   0.580  10.319  0.4413 -0.2226  0.7434
   49MPD2    C5  751   4.608   0.580  10.218 -0.6306 -0.3696  0.2996
   49MPD2     H  752   0.119   0.869  10.258  2.0420 -1.7019  1.0717
   49MPD2    H1  753   4.690   0.496  10.388 -0.7372  1.5911  2.7658
   49MPD2    H2  754   4.534   0.674  10.043  0.8807 -3.5921 -0.1779
   49MPD2    H3  755   4.541   0.496  10.206  0.0908 -1.0822  1.2596
   49MPD2     N  756   0.143   0.697  10.445  0.0245 -0.2589 -0.0106
   49MPD2    H5  757   0.135   0.628  10.518  1.5992 -1.5890 -1.1053
   49MPD2    N1  758   4.696   0.889  10.044 -0.5978 -0.2864  0.3553
   49MPD2    H7  759   0.040   0.958  10.062 -0.7629  0.2786 -1.1664
   50TCq2    C1  760   4.605   0.903   9.940  0.4285 -0.8623  0.4100
   50TCq2    O2  761   4.518   0.831   9.897  0.1954 -0.1651  0.7823
   50TCq2    C2  762   4.625   1.031   9.874 -0.3614 -0.1589 -0.2826
   50TCq2    C3  763   0.020   1.094   9.885  0.4788  0.9821  0.3139
   50TCq2    C4  764   0.046   1.200   9.803  0.4540 -0.2866 -0.4643
   50TCq2    C5  765   4.689   1.236   9.707 -0.7154  0.0282  0.2261
   50TCq2    C6  766   4.566   1.172   9.700  0.0077  0.4265  0.0153
   50TCq2    C7  767   4.537   1.065   9.776  0.2219 -0.1885  0.6242
   50TCq2    C8  768   4.459   1.227   9.611  0.6490 -0.0016  0.1327
   50TCq2    O4  769   4.346   1.187   9.632 -0.7169 -0.5203 -0.5051
   50TCq2    C9  770   0.179   1.239   9.797 -0.0278  0.0649  1.0670
   50TCq2    O5  771   0.209   1.329   9.718 -0.6963  0.3252 -0.1203
   50TCq2    O6  772   0.268   1.175   9.861 -0.1670 -0.2486 -0.4499
   50TCq2    H2  773   0.100   1.069   9.954 -0.4659 -2.1851  0.2481
   50TCq2    H3  774   4.712   1.326   9.651 -0.7985 -0.4611 -0.5765
   50TCq2    H4  775   4.436   1.026   9.778  0.8389 -1.9236 -2.5953
   51MPD2     C  776   0.901   3.743   1.510  0.0560  0.2533  0.3146
   51MPD2    C1  777   1.000   3.647   1.494 -0.6711  0.0038 -0.5289
   51MPD2    C2  778   1.127   3.670   1.547  1.0305 -0.5617  0.1888
   51MPD2    C3  779   1.159   3.788   1.609  0.5338 -0.0016 -0.6929
   51MPD2    C4  780   1.060   3.881   1.623 -0.5654 -0.0005  0.4000
   51MPD2    C5  781   0.934   3.859   1.572 -0.0315 -0.0666  0.3017
   51MPD2     H  782   1.210   3.604   1.525  1.5555 -0.6663  2.4453
   51MPD2    H1  783   1.085   3.979   1.661 -0.9886  0.5401 -0.7401
   51MPD2    H2  784   0.796   3.721   1.497 -0.3920  2.2775  0.6221
   51MPD2    H3  785   0.850   3.928   1.577 -1.1781 -1.5183  1.2293
   51MPD2     N  786   1.289   3.828   1.654  0.3269 -0.4262 -0.6688
   51MPD2    H5  787   1.290   3.912   1.711 -2.6154 -0.5938 -0.3941
   51MPD2    N1  788   0.971   3.525   1.429  0.3530  0.3053 -0.3170
   51MPD2    H7  789   1.046   3.458   1.414 -2.3777 -2.5576 -1.2666
   52TCq2    C1  790   1.409   3.760   1.638  0.1502  0.1085 -0.4682
   52TCq2    O2  791   1.426   3.646   1.598 -0.1130 -0.0063 -0.3876
   52TCq2    C2  792   1.530   3.839   1.665 -0.0298  0.4613 -0.5823
   52TCq2    C3  793   1.657   3.774   1.655 -0.2730 -0.5834 -0.2061
   52TCq2    C4  794   1.770   3.845   1.644  0.4669 -0.1894  0.1900
   52TCq2    C5  795   1.755   3.981   1.628  0.0063 -0.6128 -0.5684
   52TCq2    C6  796   1.635   4.051   1.638  0.3719  0.7325 -0.2815
   52TCq2    C7  797   1.520   3.980   1.657  0.7568 -0.2924  0.2507
   52TCq2    C8  798   1.612   4.193   1.609 -0.0236  0.2870  0.6214
   52TCq2    O4  799   1.507   4.219   1.552  0.0374  0.1244  0.6366
   52TCq2    C9  800   1.892   3.777   1.659 -0.6088 -0.1482 -0.2380
   52TCq2    O5  801   2.003   3.825   1.622 -0.8317  0.1400 -0.3142
   52TCq2    O6  802   1.881   3.668   1.721  0.4818 -0.8602 -0.3274
   52TCq2    H2  803   1.663   3.666   1.652 -1.5198 -0.6721  0.4300
   52TCq2    H3  804   1.848   4.037   1.624 -0.9086  0.9128 -0.2795
   52TCq2    H4  805   1.423   4.028   1.659 -0.6590 -3.1758  0.4571
   53TMC2    C1  806   0.923   2.608  11.576  0.5298 -0.1753 -0.3040
   53TMC2    C2  807   1.042   2.579  11.629  1.0540 -0.4379  1.1377
   53TMC2    C3  808   1.054   2.596  11.762 -0.4430  0.6534  0.4701
   53TMC2    C4  809   0.812   2.643  11.652 -0.2643  0.4020 -0.3158
   53TMC2    C5  810   0.825   2.653  11.786 -0.7431 -0.2694  0.1481
   53TMC2    C6  811   0.949   2.632  11.843  0.5927 -0.0412  0.4387
   53TMC2     C  812   0.899   2.557  11.442 -0.1662 -0.3775  0.3213
   53TMC2     O  813   0.992   2.529  11.372  0.0866  0.4754 -0.4973
   53TMC2     H  814   1.125   2.551  11.565  0.8150 -0.0861  0.6729
   53TMC2    H1  815   0.723   2.685  11.607  0.6451  1.1624 -1.3822
   53TMC2    H2  816   0.965   2.632  11.950  1.4874  1.3490  0.3089
   53TMC2    C7  817   0.719   2.704  11.871 -0.4034 -0.1096  0.4348
   53TMC2    C8  818   1.174   2.549  11.836 -0.5675  0.5351  0.1635
   53TMC2    O1  819   0.638   2.772  11.809  0.1399 -0.2256  0.3453
   53TMC2    O2  820   1.234   2.629  11.910  0.6169 -0.5385 -0.2874
   53TMC2    O5  821   1.236   2.456  11.755  0.3941 -0.3390  0.8268
   53TMC2    H5  822   1.170   2.411  11.698  2.0509  0.1390 -1.4731
   54MPD2     C  823   0.786   2.428  11.197 -0.4584  0.4377 -0.5993
   54MPD2    C1  824   0.718   2.447  11.314 -0.7177 -0.1394 -0.0689
   54MPD2    C2  825   0.595   2.395  11.335 -0.1551  0.2548 -1.0754
   54MPD2    C3  826   0.543   2.305  11.243  0.2555 -0.1991 -0.9088
   54MPD2    C4  827   0.614   2.287  11.123 -0.3212  0.6133 -0.1047
   54MPD2    C5  828   0.738   2.343  11.103  0.1394 -0.4879  0.5235
   54MPD2     H  829   0.538   2.405  11.427  0.3788  0.5176 -0.7765
   54MPD2    H1  830   0.582   2.219  11.045  0.6622  0.8287 -0.6882
   54MPD2    H2  831   0.884   2.474  11.187  0.2119 -0.3815  2.2082
   54MPD2    H3  832   0.800   2.320  11.017  0.8155  0.3200  0.7901
   54MPD2     N  833   0.417   2.240  11.267  0.3566  0.5014  0.4472
   54MPD2    H5  834   0.390   2.174  11.195  1.3638  2.0791 -1.3776
   54MPD2    N1  835   0.763   2.531  11.418 -0.1316 -0.0812 -0.0773
   54MPD2    H7  836   0.692   2.558  11.485  0.7723  0.5621  0.6253
   55MPD2     C  837   1.681   0.007   1.194  0.0452  0.0742 -0.4524
   55MPD2    C1  838   1.588   4.638   1.178 -0.1401 -0.3416 -0.7709
   55MPD2    C2  839   1.459   4.663   1.148 -0.8447  0.0291 -0.4550
   55MPD2    C3  840   1.418   0.065   1.109  0.4079  0.9266 -0.6001
   55MPD2    C4  841   1.509   0.169   1.127  0.1081  0.5979 -0.3136
   55MPD2    C5  842   1.638   0.137   1.173  0.3095 -0.3175  0.4785
   55MPD2     H  843   1.384   4.584   1.153 -1.3396  0.6400  1.9044
   55MPD2    H1  844   1.482   0.274   1.122 -1.0800  0.3565  1.0444
   55MPD2    H2  845   1.787   4.716   1.209  0.2060  0.1065 -1.5088
   55MPD2    H3  846   1.714   0.212   1.192 -0.2903  0.1953  0.8673
   55MPD2     N  847   1.280   0.081   1.075  0.2425 -0.0436 -0.5605
   55MPD2    H5  848   1.219   0.000   1.074  1.0960 -0.6950 -0.3005
   55MPD2    N1  849   1.640   4.512   1.191 -0.4349 -0.9772  0.6152
   55MPD2    H7  850   1.737   4.497   1.214 -0.5840 -1.2566  1.0509
   56TCq2    C1  851   1.572   4.397   1.166  0.6976 -0.0180  0.6640
   56TCq2    O2  852   1.453   4.372   1.146  0.4417 -0.0934 -0.0261
   56TCq2    C2  853   1.658   4.275   1.178  1.1717  0.6051 -0.1287
   56TCq2    C3  854   1.789   4.280   1.212 -0.0527 -0.3641 -0.0362
   56TCq2    C4  855   1.845   4.176   1.286 -0.1191 -0.3284  0.5472
   56TCq2    C5  856   1.776   4.063   1.317  0.4143  0.7864 -0.1409
   56TCq2    C6  857   1.648   4.055   1.270  0.3369  0.0849 -0.5485
   56TCq2    C7  858   1.587   4.163   1.211 -0.3478 -0.4009 -0.2325
   56TCq2    C8  859   1.584   3.929   1.259 -0.7320 -0.6791  0.1691
   56TCq2    O4  860   1.659   3.835   1.243  0.0573 -0.2024  0.0722
   56TCq2    C9  861   1.979   4.178   1.328  0.6933  0.4907 -0.0044
   56TCq2    O5  862   2.037   4.289   1.306  0.1240 -0.3164  0.6232
   56TCq2    O6  863   2.034   4.079   1.371 -0.2284  0.8196 -0.7240
   56TCq2    H2  864   1.853   4.368   1.206 -0.8111  0.0437 -2.0019
   56TCq2    H3  865   1.828   3.972   1.344 -0.0781  0.3327 -0.7117
   56TCq2    H4  866   1.483   4.153   1.182  0.3034 -2.1770 -1.9858
   57TMC2    C1  867   0.771   1.672  13.644  0.4704  0.1933 -0.1139
   57TMC2    C2  868   0.871   1.610  13.715  0.5302 -0.4616 -0.0871
   57TMC2    C3  869   0.978   1.572  13.642  0.7358 -0.2982 -0.3208
   57TMC2    C4  870   0.769   1.696  13.510  0.2219  0.2728  0.5889
   57TMC2    C5  871   0.891   1.655  13.446  0.0141  0.3524  0.8327
   57TMC2    C6  872   0.994   1.594  13.513  0.1308  0.0383  0.1479
   57TMC2     C  873   0.646   1.672  13.708 -0.2821 -1.1421 -0.2431
   57TMC2     O  874   0.637   1.656  13.828  0.2824  0.6892  0.2384
   57TMC2     H  875   0.860   1.588  13.821 -1.1758 -0.4035 -0.2498
   57TMC2    H1  876   0.686   1.738  13.455 -0.5003  0.0015  1.4735
   57TMC2    H2  877   1.081   1.544  13.471  0.2932 -0.0383  0.5730
   57TMC2    C7  878   0.873   1.623  13.301 -0.2987  0.0246  0.0974
   57TMC2    C8  879   1.077   1.504  13.711  0.9369 -0.1753  0.2684
   57TMC2    O1  880   0.767   1.658  13.251  0.0481  0.1573 -0.2599
   57TMC2    O2  881   1.104   1.545  13.824 -0.0100 -0.8159 -0.2085
   57TMC2    O5  882   1.047   1.376  13.699  0.0688 -0.0203  0.2077
   57TMC2    H5  883   1.002   1.357  13.614 -2.3516 -0.8533  1.6566
   58MPD2     C  884   0.137   1.537  13.656 -0.6340 -0.6163  0.0496
   58MPD2    C1  885   0.223   1.536  13.767 -0.1911  0.2967  0.1499
   58MPD2    C2  886   0.356   1.582  13.760 -0.7326  0.2962 -0.4713
   58MPD2    C3  887   0.404   1.623  13.641 -0.1527  0.0750 -0.4494
   58MPD2    C4  888   0.319   1.621  13.533 -0.1887  1.2489  0.5633
   58MPD2    C5  889   0.191   1.581  13.539 -0.5479  0.4185 -0.2645
   58MPD2     H  890   0.423   1.576  13.845 -0.6651 -2.4728 -0.7385
   58MPD2    H1  891   0.360   1.630  13.432  0.3196 -1.1713  0.5425
   58MPD2    H2  892   0.033   1.510  13.654 -1.2642  1.7954 -0.1265
   58MPD2    H3  893   0.134   1.575  13.447  1.5906 -0.4098 -1.5683
   58MPD2     N  894   0.543   1.658  13.612  0.1098  0.4935  0.2731
   58MPD2    H5  895   0.567   1.672  13.514 -1.1652 -0.7842 -0.2179
   58MPD2    N1  896   0.179   1.501  13.892 -0.2257  0.2107  0.4399
   58MPD2    H7  897   0.245   1.500  13.969 -0.5180  0.7098  0.6954
   59MPD2     C  898   3.136   1.341  13.361 -0.1534  0.3085 -0.1169
   59MPD2    C1  899   3.164   1.406  13.246 -0.4115 -0.1046 -0.3313
   59MPD2    C2  900   3.243   1.521  13.247 -0.5405  0.2250 -0.0937
   59MPD2    C3  901   3.295   1.566  13.368  0.2938 -0.7112 -0.6904
   59MPD2    C4  902   3.259   1.512  13.491  0.4684 -0.0332 -1.0102
   59MPD2    C5  903   3.173   1.399  13.477  0.1679 -0.7756 -0.6602
   59MPD2     H  904   3.264   1.569  13.152 -0.7229  0.9249  0.2215
   59MPD2    H1  905   3.291   1.545  13.589 -1.5771 -4.3070  1.0883
   59MPD2    H2  906   3.085   1.246  13.358 -0.2986  0.3329  1.5221
   59MPD2    H3  907   3.142   1.355  13.571 -0.8444 -0.3546 -0.7970
   59MPD2     N  908   3.383   1.677  13.377  0.6544 -0.3124  0.1354
   59MPD2    H5  909   3.412   1.706  13.470  0.1534  1.8224 -0.3614
   59MPD2    N1  910   3.113   1.365  13.118 -0.4599 -0.1643  0.6199
   59MPD2    H7  911   3.157   1.406  13.036  0.0133 -0.1006  0.9079
   60TCq2    C1  912   3.018   1.268  13.101  0.1950 -0.1145  0.6763
   60TCq2    O2  913   2.958   1.203  13.189 -0.2868  0.1954  0.0876
   60TCq2    C2  914   2.999   1.235  12.959  0.2104 -0.9611 -0.3889
   60TCq2    C3  915   2.905   1.144  12.928  0.0723 -0.5502 -0.1151
   60TCq2    C4  916   2.894   1.102  12.799  0.5366  0.4877  0.6111
   60TCq2    C5  917   2.981   1.144  12.703  0.0777 -0.1019  0.3052
   60TCq2    C6  918   3.079   1.231  12.736  0.2558  0.3010  0.3053
   60TCq2    C7  919   3.089   1.282  12.865  0.4858  0.2572  0.2368
   60TCq2    C8  920   3.177   1.268  12.637  0.5772  0.5551 -0.1313
   60TCq2    O4  921   3.206   1.180  12.559  0.1000  0.1290  1.0234
   60TCq2    C9  922   2.813   0.993  12.766 -0.2965 -0.3467 -0.5585
   60TCq2    O5  923   2.720   0.974  12.850  0.4556 -0.3982  0.0169
   60TCq2    O6  924   2.850   0.919  12.673  0.0438 -0.4536  0.1581
   60TCq2    H2  925   2.845   1.096  13.004  0.9412  0.1664  1.0107
   60TCq2    H3  926   2.971   1.099  12.605  0.7998 -1.3609  0.7970
   60TCq2    H4  927   3.158   1.364  12.883  1.6205 -1.2089  2.5267
   61MPD2     C  928   2.683   2.855  14.204 -0.1457 -0.1830  0.1427
   61MPD2    C1  929   2.611   2.920  14.297 -0.5515 -0.0517 -0.2863
   61MPD2    C2  930   2.508   3.008  14.258  0.1409  0.1157 -0.0848
   61MPD2    C3  931   2.485   3.035  14.121  0.2727  0.1873 -0.1722
   61MPD2    C4  932   2.582   2.991  14.035 -0.3601 -0.3980  0.2172
   61MPD2    C5  933   2.671   2.895  14.071 -0.1846 -1.1386  0.1885
   61MPD2     H  934   2.452   3.058  14.335  2.9823  0.6226  1.6528
   61MPD2    H1  935   2.566   3.015  13.930 -0.5538 -1.4958 -0.0010
   61MPD2    H2  936   2.756   2.778  14.227  2.3011  2.1480  0.0961
   61MPD2    H3  937   2.739   2.840  14.008 -0.3615 -2.8953  1.5294
   61MPD2     N  938   2.383   3.117  14.075  0.5739  0.5786  0.1047
   61MPD2    H5  939   2.391   3.146  13.979  3.0526 -0.1285  0.0888
   61MPD2    N1  940   2.640   2.917  14.438  0.2707 -0.2166  0.1462
   61MPD2    H7  941   2.583   2.985  14.487  2.4877  3.5431 -2.4471
   62TCq2    C1  942   2.733   2.835  14.501  0.5945  0.1332  0.6531
   62TCq2    O2  943   2.803   2.745  14.452  0.0731  0.1806 -0.4513
   62TCq2    C2  944   2.715   2.842  14.644  0.5693 -0.4907  0.4407
   62TCq2    C3  945   2.780   2.754  14.727  0.0867  0.2281 -0.3042
   62TCq2    C4  946   2.759   2.752  14.858 -0.9622  0.3865  0.0430
   62TCq2    C5  947   2.667   2.835  14.914 -0.2250 -0.5934 -0.3088
   62TCq2    C6  948   2.612   2.929  14.838  0.4727  0.1065  0.3523
   62TCq2    C7  949   2.637   2.940  14.701  0.2623 -0.1509 -0.7317
   62TCq2    C8  950   2.524   3.023  14.905 -0.4210  0.4063 -0.8138
   62TCq2    O4  951   2.474   2.994  15.013  0.4137 -0.6605  0.2578
   62TCq2    C9  952   2.810   2.641  14.938 -0.1047 -0.2533  0.1975
   62TCq2    O5  953   2.917   2.587  14.904 -1.2522  0.0407  0.0939
   62TCq2    O6  954   2.757   2.630  15.049  0.2283  0.0292 -0.0613
   62TCq2    H2  955   2.845   2.675  14.690  0.3764  0.3837 -0.1230
   62TCq2    H3  956   2.633   2.819  15.016  1.6435  1.4820  0.6255
   62TCq2    H4  957   2.584   3.014  14.642  0.8596  3.0035  2.6698
   63TMC2    C1  958   1.937   3.306  10.009 -0.5289 -0.2790  0.1587
   63TMC2    C2  959   2.044   3.269  10.088 -0.2520 -0.5395  0.4438
   63TMC2    C3  960   2.165   3.307  10.051  0.3684 -0.4129 -0.0958
   63TMC2    C4  961   1.945   3.395   9.912 -0.5637 -0.1773 -0.4082
   63TMC2    C5  962   2.071   3.441   9.879  0.2877  0.3427 -0.0239
   63TMC2    C6  963   2.181   3.390   9.937  0.5539 -0.1440 -0.1717
   63TMC2     C  964   1.813   3.249  10.048  0.0445  0.0401  0.5159
   63TMC2     O  965   1.713   3.319  10.026 -0.1192 -0.5695  0.1995
   63TMC2     H  966   2.040   3.202  10.173  0.9176 -2.0942 -0.7540
   63TMC2    H1  967   1.859   3.436   9.861 -0.9055 -0.0785  0.2544
   63TMC2    H2  968   2.281   3.422   9.911  0.9717  0.5424  2.1947
   63TMC2    C7  969   2.087   3.502   9.750 -0.3733 -0.2109  0.8987
   63TMC2    C8  970   2.263   3.205  10.069  0.4389  0.5424 -0.2207
   63TMC2    O1  971   2.037   3.605   9.717 -0.5421 -0.3973 -0.6571
   63TMC2    O2  972   2.230   3.091  10.111 -0.1594  0.0053 -0.7330
   63TMC2    O5  973   2.375   3.275  10.104 -0.1439  0.1246 -0.3205
   63TMC2    H5  974   2.355   3.371  10.106  1.8068  0.5372 -0.6542
   64MPD2     C  975   1.584   2.899  10.345  0.6622 -0.0730  0.0390
   64MPD2    C1  976   1.691   2.840  10.286 -0.6102  0.5721  0.6018
   64MPD2    C2  977   1.769   2.913  10.199 -0.1261 -0.5307 -0.8975
   64MPD2    C3  978   1.746   3.045  10.171 -0.8324  0.0282  0.7675
   64MPD2    C4  979   1.629   3.098  10.213  0.1684 -0.3691 -0.2009
   64MPD2    C5  980   1.546   3.026  10.296 -0.6145  0.0183  0.4359
   64MPD2     H  981   1.858   2.866  10.160  2.6391  1.1736  3.3202
   64MPD2    H1  982   1.595   3.198  10.190 -0.0854 -0.0079  1.7113
   64MPD2    H2  983   1.526   2.854  10.424 -0.1036  2.1641  0.7526
   64MPD2    H3  984   1.449   3.068  10.320  0.2044  0.7818  2.4525
   64MPD2     N  985   1.836   3.122  10.098 -0.1083 -0.1066 -0.1529
   64MPD2    H5  986   1.928   3.087  10.077  0.2227  1.1238 -0.7777
   64MPD2    N1  987   1.743   2.715  10.323 -0.3132 -0.4350  0.1109
   64MPD2    H7  988   1.834   2.696  10.284 -0.8598 -2.8108  0.0033
   65MPD2     C  989   3.507   2.324  15.466 -0.1230 -0.9767 -0.1581
   65MPD2    C1  990   3.449   2.344  15.340 -0.3073  0.0534 -0.2097
   65MPD2    C2  991   3.371   2.244  15.291 -0.2443  0.4205 -0.2099
   65MPD2    C3  992   3.365   2.119  15.345  0.0165 -0.0275 -0.4477
   65MPD2    C4  993   3.440   2.100  15.460 -0.0301 -0.4057  0.4413
   65MPD2    C5  994   3.511   2.199  15.515 -0.7959 -0.2237 -0.7083
   65MPD2     H  995   3.321   2.262  15.197 -1.9933  1.2028  0.8831
   65MPD2    H1  996   3.462   1.998  15.488 -3.1007 -1.2877 -0.4440
   65MPD2    H2  997   3.565   2.399  15.519 -1.2374  0.1298 -0.4926
   65MPD2    H3  998   3.566   2.175  15.605 -2.2407 -2.4030 -0.3909
   65MPD2     N  999   3.275   2.019  15.295  0.0012 -0.0571  0.2726
   65MPD2    H5 1000   3.259   1.943  15.361  1.3966 -1.7485 -1.3330
   65MPD2    N1 1001   3.457   2.465  15.270  0.1697  0.3831 -0.3963
   65MPD2    H7 1002   3.419   2.464  15.177 -2.9590  0.0178  0.9097
   66TCq2    C1 1003   3.492   2.585  15.323  0.5409  0.2312 -0.0530
   66TCq2    O2 1004   3.508   2.611  15.438 -0.7999  0.0648 -0.0498
   66TCq2    C2 1005   3.500   2.686  15.219 -0.6852 -0.0068 -0.0170
   66TCq2    C3 1006   3.481   2.656  15.085 -0.0220 -0.4835  0.1533
   66TCq2    C4 1007   3.438   2.759  15.002  0.3382  0.4583 -0.4425
   66TCq2    C5 1008   3.421   2.887  15.048  0.2879 -0.2309 -0.3547
   66TCq2    C6 1009   3.441   2.911  15.181  0.3159  0.8845 -0.0257
   66TCq2    C7 1010   3.479   2.810  15.267 -0.2954  0.1771  0.0122
   66TCq2    C8 1011   3.455   3.048  15.220 -0.0538  0.8745  0.0953
   66TCq2    O4 1012   3.488   3.126  15.131 -0.3076  0.3689 -0.5510
   66TCq2    C9 1013   3.402   2.735  14.865 -0.0843 -0.5822 -0.0768
   66TCq2    O5 1014   3.403   2.615  14.832  0.4785  0.7306 -0.6346
   66TCq2    O6 1015   3.418   2.829  14.787 -0.0704  0.1311 -0.0421
   66TCq2    H2 1016   3.498   2.553  15.054  1.7673 -0.1852  0.1404
   66TCq2    H3 1017   3.390   2.965  14.980 -0.5632  0.7893  1.1986
   66TCq2    H4 1018   3.505   2.840  15.368  0.6854  1.0074 -0.4881
   67MPD2     C 1019   3.264   2.604  13.713 -0.8252  0.7528  0.0882
   67MPD2    C1 1020   3.255   2.514  13.817 -0.1748 -0.4219 -0.0149
   67MPD2    C2 1021   3.169   2.414  13.813  0.5023  0.3403 -0.1114
   67MPD2    C3 1022   3.088   2.394  13.695 -0.8763 -0.6586 -0.1140
   67MPD2    C4 1023   3.102   2.479  13.589  0.8750 -0.3389  0.3948
   67MPD2    C5 1024   3.194   2.582  13.603  0.4144  0.1934 -0.4262
   67MPD2     H 1025   3.174   2.336  13.889  2.9564  0.4231 -0.2017
   67MPD2    H1 1026   3.059   2.473  13.489 -2.0007 -1.6068  1.7127
   67MPD2    H2 1027   3.329   2.691  13.711  1.4550 -0.9526  0.2154
   67MPD2    H3 1028   3.204   2.652  13.521 -1.4407  0.3279 -0.5461
   67MPD2     N 1029   3.001   2.286  13.670 -0.1929 -0.2558  0.0801
   67MPD2    H5 1030   2.929   2.306  13.601  0.4906 -1.5894 -1.0108
   67MPD2    N1 1031   3.334   2.529  13.937  0.2088  0.1609  0.4304
   67MPD2    H7 1032   3.327   2.469  14.019 -2.0039 -0.4298 -0.2088
   68TCq2    C1 1033   3.417   2.627  13.963  0.4788  0.1245  0.7914
   68TCq2    O2 1034   3.439   2.730  13.901 -0.0025 -0.0450 -0.0072
   68TCq2    C2 1035   3.478   2.611  14.095  0.1224 -0.2236 -0.1234
   68TCq2    C3 1036   3.515   2.725  14.161 -0.0698 -0.4041 -0.0600
   68TCq2    C4 1037   3.589   2.715  14.281 -0.1184  0.0126 -0.2264
   68TCq2    C5 1038   3.626   2.594  14.325  0.2081 -0.6360 -0.1297
   68TCq2    C6 1039   3.595   2.483  14.255 -0.2183  0.0360  0.2138
   68TCq2    C7 1040   3.513   2.486  14.142 -0.2079  0.0392 -0.0489
   68TCq2    C8 1041   3.671   2.365  14.266 -0.0440  0.4577  0.4933
   68TCq2    O4 1042   3.707   2.317  14.160  0.3259  0.0111 -0.9077
   68TCq2    C9 1043   3.622   2.841  14.352  0.3617  0.5605  0.8334
   68TCq2    O5 1044   3.701   2.848  14.447 -0.8070  0.4536 -0.3195
   68TCq2    O6 1045   3.576   2.945  14.301 -0.0902  0.3671  0.3378
   68TCq2    H2 1046   3.497   2.826  14.125  1.8450 -0.8056 -2.1081
   68TCq2    H3 1047   3.693   2.588  14.409  0.1469  1.7363  0.0823
   68TCq2    H4 1048   3.494   2.397  14.084  0.9619 -0.1482 -0.1404
   69TMC2    C1 1049   0.026   3.021  12.667  0.0167 -0.4037  0.4610
   69TMC2    C2 1050   4.680   3.087  12.575  0.0766 -0.7986 -0.6901
   69TMC2    C3 1051   0.011   3.160  12.478  0.4047  0.0821  0.0184
   69TMC2    C4 1052   0.160   3.041  12.674  0.5385  0.0323 -0.6994
   69TMC2    C5 1053   0.222   3.115  12.573 -0.5115 -0.2401  0.5593
   69TMC2    C6 1054   0.148   3.166  12.470 -0.0011 -0.4131 -0.2966
   69TMC2     C 1055   4.699   2.903  12.732  0.1305 -0.2133 -0.3874
   69TMC2     O 1056   0.034   2.866  12.829 -0.2380  0.0576 -0.3460
   69TMC2     H 1057   4.573   3.083  12.593  0.1704  4.5578  1.0912
   69TMC2    H1 1058   0.209   2.985  12.752  0.8184  0.8418 -0.2992
   69TMC2    H2 1059   0.204   3.223  12.396  1.0623 -1.6112 -0.4104
   69TMC2    C7 1060   0.357   3.077  12.545  0.1088 -0.4716  0.2816
   69TMC2    C8 1061   4.647   3.237  12.404 -0.2488 -0.4893  0.5630
   69TMC2    O1 1062   0.392   3.099  12.427  0.3742  0.3459  0.2950
   69TMC2    O2 1063   4.527   3.233  12.430 -0.3641 -0.7604  0.0100
   69TMC2    O5 1064   4.706   3.305  12.304 -0.0651 -0.4991  0.3233
   69TMC2    H5 1065   0.059   3.263  12.272  0.0417 -0.7631  0.9548
   70MPD2     C 1066   4.433   2.676  12.612  0.0795 -0.4879 -0.1761
   70MPD2    C1 1067   4.525   2.724  12.701 -0.2179  0.6045  0.2319
   70MPD2    C2 1068   4.572   2.652  12.812  0.3483 -0.4579  0.1233
   70MPD2    C3 1069   4.522   2.524  12.834 -0.4673  0.1719  0.2639
   70MPD2    C4 1070   4.423   2.478  12.754  0.6299  0.5191 -0.2826
   70MPD2    C5 1071   4.385   2.554  12.646  0.5880 -0.4721 -0.4357
   70MPD2     H 1072   4.643   2.692  12.884 -0.5245  0.1858  0.6247
   70MPD2    H1 1073   4.390   2.376  12.771 -0.2704  1.0197  0.8788
   70MPD2    H2 1074   4.386   2.718  12.524  2.4231  3.1676  0.3018
   70MPD2    H3 1075   4.308   2.519  12.577  1.1016 -0.5778 -0.9581
   70MPD2     N 1076   4.568   2.439  12.942  0.4109  0.0337 -0.3440
   70MPD2    H5 1077   4.509   2.364  12.977  0.7443  0.5631  1.3494
   70MPD2    N1 1078   4.588   2.845  12.669 -0.0891 -0.6502 -0.4452
   70MPD2    H7 1079   4.561   2.886  12.581 -0.3225 -1.0958 -0.5838
   71TMC2    C1 1080   4.511   4.608   0.646  0.3506 -0.4243  0.6914
   71TMC2    C2 1081   4.636   4.595   0.586 -0.2302  0.0115  0.0698
   71TMC2    C3 1082   0.017   4.566   0.663  0.1169 -0.0934  0.2757
   71TMC2    C4 1083   4.489   4.592   0.779  0.0176 -0.5870  0.1826
   71TMC2    C5 1084   4.603   4.551   0.849 -0.2109  0.2763 -0.6598
   71TMC2    C6 1085   0.004   4.543   0.796  0.3928 -0.4137  0.2427
   71TMC2     C 1086   4.392   4.592   0.558 -0.4685 -0.4435  0.1666
   71TMC2     O 1087   4.281   4.607   0.604  0.1134  0.1001  0.2251
   71TMC2     H 1088   4.657   4.627   0.484 -2.4061  0.1055 -0.3413
   71TMC2    H1 1089   4.388   4.605   0.815  0.1457  1.5148 -0.2398
   71TMC2    H2 1090   0.088   4.508   0.856 -1.0726 -0.4495  2.2807
   71TMC2    C7 1091   4.586   4.496   0.984  0.2228  0.5630 -0.1464
   71TMC2    C8 1092   0.148   4.595   0.602  0.5942 -0.1127  0.2420
   71TMC2    O1 1093   4.688   4.452   1.033  0.0712  0.0354 -0.0380
   71TMC2    O2 1094   0.154   4.692   0.531 -0.3484  0.2594  0.3009
   71TMC2    O5 1095   0.255   4.541   0.666 -0.4652  0.2770  0.2253
   71TMC2    H5 1096   0.248   4.448   0.696 -0.9476  0.0648 -0.5353
   72MPD2     C 1097   4.177   4.391   0.147 -0.1030 -0.0419  0.2460
   72MPD2    C1 1098   4.123   4.490   0.229 -0.4167 -0.4192 -0.4771
   72MPD2    C2 1099   4.211   4.546   0.325  0.1945  0.5411  0.3083
   72MPD2    C3 1100   4.344   4.492   0.335  0.1444  0.3329 -0.2571
   72MPD2    C4 1101   4.389   4.397   0.248 -0.2600  0.0951 -0.0354
   72MPD2    C5 1102   4.304   4.346   0.155  0.0227  0.2740 -0.3122
   72MPD2     H 1103   4.168   4.614   0.398  0.0807  2.3723 -1.4772
   72MPD2    H1 1104   4.493   4.366   0.238 -0.7726 -1.4610 -0.6096
   72MPD2    H2 1105   4.112   4.347   0.073  1.1250  0.1002 -0.9347
   72MPD2    H3 1106   4.354   4.278   0.087 -0.8959 -0.7034  0.0031
   72MPD2     N 1107   4.431   4.530   0.446  0.4546 -0.2441  0.1633
   72MPD2    H5 1108   4.529   4.502   0.438  0.5256 -0.1547  0.6875
   72MPD2    N1 1109   3.989   4.534   0.230  0.3314 -0.4796  0.2869
   72MPD2    H7 1110   3.958   4.578   0.316  1.0455 -0.4362  0.5247
   73TMC2    C1 1111   2.443   0.414  13.638  0.6276  0.2130 -0.1124
   73TMC2    C2 1112   2.405   0.300  13.711 -0.8297 -0.2098  0.1406
   73TMC2    C3 1113   2.451   0.302  13.849  0.0533 -0.2269 -0.3010
   73TMC2    C4 1114   2.513   0.526  13.687  0.7937 -0.7688 -0.5160
   73TMC2    C5 1115   2.560   0.508  13.811  0.2092  0.5860  0.5386
   73TMC2    C6 1116   2.537   0.401  13.894  0.0267 -0.2522 -0.5534
   73TMC2     C 1117   2.483   0.396  13.505 -0.0080  0.2421 -0.4971
   73TMC2     O 1118   2.567   0.481  13.460 -0.8736 -0.1365  0.4521
   73TMC2     H 1119   2.351   0.210  13.682 -0.7423  0.2952 -1.5548
   73TMC2    H1 1120   2.520   0.618  13.629 -1.3824 -0.0639  0.3161
   73TMC2    H2 1121   2.581   0.397  13.993 -0.7950  0.9887 -0.1243
   73TMC2    C7 1122   2.702   0.548  13.813  0.5980 -0.2005 -0.0845
   73TMC2    C8 1123   2.452   0.176  13.915 -0.1486  0.0293  0.4435
   73TMC2    O1 1124   2.765   0.545  13.920  0.6735  0.1026  0.1034
   73TMC2    O2 1125   2.392   0.165  14.024 -0.6335 -0.3938  0.2566
   73TMC2    O5 1126   2.575   0.126  13.894 -0.6160  0.3189  0.2117
   73TMC2    H5 1127   2.625   0.149  13.814 -0.7875  0.2660  0.0893
   74MPD2     C 1128   2.512   0.202  13.051 -0.0234 -0.3489 -0.0126
   74MPD2    C1 1129   2.614   0.251  13.125 -0.1288  0.4326 -0.0492
   74MPD2    C2 1130   2.580   0.285  13.258  0.0129  0.3096  0.4081
   74MPD2    C3 1131   2.453   0.260  13.311  0.7395 -0.3662  0.3182
   74MPD2    C4 1132   2.368   0.179  13.244  0.3099  0.4345  0.1694
   74MPD2    C5 1133   2.391   0.158  13.106  0.0634  0.3573  0.4620
   74MPD2     H 1134   2.658   0.337  13.312 -0.1131 -0.6654  1.5267
   74MPD2    H1 1135   2.296   0.122  13.301 -1.0596  0.6612 -1.3505
   74MPD2    H2 1136   2.517   0.192  12.944  0.6599  1.1439 -0.1266
   74MPD2    H3 1137   2.326   0.104  13.037  0.0019  3.3480 -1.8416
   74MPD2     N 1138   2.420   0.291  13.444  0.2680 -0.5865 -0.1755
   74MPD2    H5 1139   2.329   0.264  13.479 -0.1729  0.6302 -0.3779
   74MPD2    N1 1140   2.737   0.278  13.057  0.2666  0.3678 -0.2084
   74MPD2    H7 1141   2.741   0.261  12.957 -0.4662  0.0329 -0.1789
   75TCq2    C1 1142   2.985   2.178  13.744 -0.5026  0.4281  0.3515
   75TCq2    O2 1143   3.033   2.165  13.854  0.0728 -0.2567  0.4468
   75TCq2    C2 1144   2.909   2.068  13.680  0.8463  0.0185 -0.0010
   75TCq2    C3 1145   2.873   1.976  13.765  0.5119  0.2775  0.0143
   75TCq2    C4 1146   2.763   1.897  13.740 -0.0825 -0.3165  0.0040
   75TCq2    C5 1147   2.710   1.899  13.614  0.5011  0.2038 -0.6248
   75TCq2    C6 1148   2.760   1.988  13.520 -0.2273  0.5586 -0.1165
   75TCq2    C7 1149   2.849   2.084  13.556 -0.1635 -0.4280 -0.4902
   75TCq2    C8 1150   2.666   2.008  13.408  0.2461 -0.1187 -0.1115
   75TCq2    O4 1151   2.604   1.908  13.382 -0.1687 -0.5481  0.1139
   75TCq2    C9 1152   2.711   1.813  13.846  0.1954  0.4158 -0.2980
   75TCq2    O5 1153   2.772   1.813  13.956 -0.4335 -0.3037  0.3204
   75TCq2    O6 1154   2.618   1.741  13.815 -0.3772 -0.8093 -0.5100
   75TCq2    H2 1155   2.921   1.962  13.861 -5.1951 -0.8751  2.7025
   75TCq2    H3 1156   2.631   1.832  13.583 -1.5025  2.2817  0.0497
   75TCq2    H4 1157   2.882   2.152  13.479  2.3762 -0.3611  0.6528
   76MPD2     C 1158   1.576   2.770  12.260  0.8338  0.5069  0.1984
   76MPD2    C1 1159   1.463   2.710  12.210  0.0774  0.3290 -0.3685
   76MPD2    C2 1160   1.481   2.573  12.186  0.0008 -0.5368  0.6804
   76MPD2    C3 1161   1.608   2.516  12.185 -0.7113 -0.7684  0.0670
   76MPD2    C4 1162   1.717   2.583  12.225  0.2566  0.2449 -0.3921
   76MPD2    C5 1163   1.702   2.716  12.252  0.2874 -0.1817 -0.2099
   76MPD2     H 1164   1.394   2.529  12.138  2.7160 -2.0388 -2.8062
   76MPD2    H1 1165   1.818   2.544  12.215  0.4307  0.0925  1.8543
   76MPD2    H2 1166   1.578   2.875  12.289  0.4011  0.6271 -0.2139
   76MPD2    H3 1167   1.798   2.765  12.266  0.3123 -0.4054  0.4140
   76MPD2     N 1168   1.625   2.377  12.154  0.2192 -0.0766  0.2156
   76MPD2    H5 1169   1.716   2.339  12.180  0.7381  0.7059 -0.4640
   76MPD2    N1 1170   1.337   2.770  12.183  0.2489 -0.3538 -0.1909
   76MPD2    H7 1171   1.265   2.711  12.143  1.0245 -1.2952 -0.1923
   77TCq2    C1 1172   1.525   2.294  12.110 -0.3051 -0.4518 -0.4922
   77TCq2    O2 1173   1.413   2.320  12.072 -0.0425 -0.4505 -0.0950
   77TCq2    C2 1174   1.576   2.168  12.054  0.4286 -0.1496 -0.8717
   77TCq2    C3 1175   1.514   2.141  11.933 -0.3991 -0.6378  0.4714
   77TCq2    C4 1176   1.572   2.054  11.848  0.8778 -0.2644 -0.0613
   77TCq2    C5 1177   1.692   1.994  11.886  0.6004 -0.3525  0.1058
   77TCq2    C6 1178   1.752   2.029  12.005 -0.0142  0.1000  0.3313
   77TCq2    C7 1179   1.695   2.117  12.091 -0.3482 -0.3223 -0.0714
   77TCq2    C8 1180   1.884   1.967  12.027 -0.5386 -0.3154 -0.1151
   77TCq2    O4 1181   1.898   1.849  11.991 -0.0570  0.7039  0.0421
   77TCq2    C9 1182   1.517   2.017  11.723  0.4097  0.0594  0.4568
   77TCq2    O5 1183   1.588   1.951  11.642 -0.5237 -0.3194 -0.3659
   77TCq2    O6 1184   1.394   2.048  11.711 -0.4826 -0.2929  0.0540
   77TCq2    H2 1185   1.414   2.178  11.912  0.4241  0.8543 -0.8420
   77TCq2    H3 1186   1.740   1.930  11.813 -0.0390  2.4911 -2.8211
   77TCq2    H4 1187   1.738   2.132  12.190  2.1150 -0.3184 -1.1447
   78MPD1     C 1188   3.868   2.152   2.431 -0.5937  0.4203 -0.1440
   78MPD1    C1 1189   4.002   2.137   2.454 -0.4432 -0.3916 -0.0525
   78MPD1    C2 1190   4.084   2.106   2.343  0.3440  0.1604 -0.1941
   78MPD1    C3 1191   4.039   2.098   2.212 -0.1761  0.1976 -0.5228
   78MPD1    C4 1192   3.911   2.126   2.189 -0.0896 -0.5186  0.1173
   78MPD1    C5 1193   3.830   2.153   2.295  0.3787 -0.4264 -0.2612
   78MPD1     H 1194   4.186   2.078   2.365  0.0930 -0.9648 -0.4253
   78MPD1    H1 1195   3.866   2.105   2.092 -1.7340 -1.7209  1.1265
   78MPD1    H2 1196   3.782   2.172   2.495 -0.7998  0.7973 -0.5358
   78MPD1    H3 1197   3.724   2.169   2.280 -0.2191 -2.6402  1.5560
   78MPD1     N 1198   4.115   2.059   2.100 -0.1672  0.7264 -0.2245
   78MPD1    H5 1199   4.057   2.052   2.017 -1.7566  0.1816  0.9252
   78MPD1    N1 1200   4.052   2.163   2.580 -0.1322  0.1668 -0.3485
   78MPD1    H6 1201   3.983   2.152   2.654 -1.1979 -0.0740 -1.3858
   78MPD1    H7 1202   4.135   2.110   2.605 -0.5914 -0.4362 -0.1056
   79TCq2    C1 1203   4.252   2.027   2.102 -1.1419 -0.1784 -0.5217
   79TCq2    O2 1204   4.331   2.052   2.190  0.2036  0.7243  0.0065
   79TCq2    C2 1205   4.295   1.971   1.977  0.4163 -0.0179 -0.1725
   79TCq2    C3 1206   4.200   1.916   1.888  0.1076  0.5029  0.8579
   79TCq2    C4 1207   4.226   1.932   1.756 -0.2482  0.7780  0.8461
   79TCq2    C5 1208   4.335   1.999   1.713 -0.0368 -0.3098  0.3901
   79TCq2    C6 1209   4.435   2.032   1.796 -0.0641  0.1419 -0.3150
   79TCq2    C7 1210   4.417   2.010   1.932  0.2399 -0.3253  0.2651
   79TCq2    C8 1211   4.501   2.155   1.763  0.0273  0.3367  0.0463
   79TCq2    O4 1212   4.513   2.232   1.855  0.4348 -0.5177  0.1383
   79TCq2    C9 1213   4.124   1.902   1.666  0.5431  0.5954 -0.0781
   79TCq2    O5 1214   4.009   1.885   1.717 -0.2862  0.1713  0.2231
   79TCq2    O6 1215   4.145   1.922   1.542  0.3433  0.3139 -0.2835
   79TCq2    H2 1216   4.104   1.880   1.921  0.5808 -2.1870 -0.7362
   79TCq2    H3 1217   4.333   2.032   1.609  1.5538 -0.8176  0.1975
   79TCq2    H4 1218   4.471   2.073   2.002 -1.5786 -0.6452  1.9672
   80MPD2     C 1219   0.507   2.400  12.170 -0.0150  0.3133  0.1904
   80MPD2    C1 1220   0.447   2.423  12.051  0.2761  0.2911 -0.0664
   80MPD2    C2 1221   0.317   2.471  12.042 -0.3033  0.2968  0.9326
   80MPD2    C3 1222   0.246   2.489  12.161 -0.2642  0.6381  0.1105
   80MPD2    C4 1223   0.307   2.453  12.281  0.1038 -0.4757 -0.0351
   80MPD2    C5 1224   0.434   2.411  12.286 -0.0686 -0.1106  0.1550
   80MPD2     H 1225   0.276   2.508  11.949 -2.6132 -1.8534  1.0851
   80MPD2    H1 1226   0.248   2.470  12.371  1.9008 -0.7542  1.1876
   80MPD2    H2 1227   0.612   2.373  12.177 -0.0760 -0.0069 -0.1332
   80MPD2    H3 1228   0.483   2.393  12.380 -1.5912 -0.6964  0.8358
   80MPD2     N 1229   0.107   2.536  12.171 -0.5503 -0.2995 -0.2060
   80MPD2    H5 1230   0.075   2.544  12.267 -1.3848  1.4121 -0.6284
   80MPD2    N1 1231   0.522   2.392  11.935  0.3459 -0.2712  0.1907
   80MPD2    H7 1232   0.467   2.393  11.850  0.6712  0.6439 -0.0120
   81TCq2    C1 1233   0.650   2.339  11.924 -0.6834  0.2737  0.2295
   81TCq2    O2 1234   0.743   2.316  12.004  0.3260 -0.1854 -0.5424
   81TCq2    C2 1235   0.679   2.308  11.787 -0.0582 -0.3469  0.2178
   81TCq2    C3 1236   0.806   2.310  11.744 -1.0167  0.5779  0.2679
   81TCq2    C4 1237   0.843   2.239  11.631  0.3659  0.3565 -0.4990
   81TCq2    C5 1238   0.756   2.154  11.567  0.2188 -0.3273 -0.2051
   81TCq2    C6 1239   0.625   2.152  11.609 -0.3636 -0.5486  0.1081
   81TCq2    C7 1240   0.587   2.230  11.717 -0.0929  0.0978  0.1253
   81TCq2    C8 1241   0.546   2.036  11.578 -0.4427 -0.3058 -0.2972
   81TCq2    O4 1242   0.505   2.022  11.465 -0.4082 -0.0281  0.4269
   81TCq2    C9 1243   0.983   2.228  11.594  0.2859  0.3412  0.2524
   81TCq2    O5 1244   1.012   2.165  11.492 -0.1633  0.1124 -0.4154
   81TCq2    O6 1245   1.067   2.278  11.677 -0.9221  0.2838 -1.1005
   81TCq2    H2 1246   0.881   2.371  11.792 -0.5723  1.3657 -1.4362
   81TCq2    H3 1247   0.780   2.088  11.485  1.1361  0.0642 -0.2507
   81TCq2    H4 1248   0.484   2.219  11.750  0.0764 -0.2651  0.5261
   82MPD2     C 1249   3.254   1.947  11.339  0.4669  0.1733 -0.1250
   82MPD2    C1 1250   3.335   1.987  11.231  0.3846 -0.7049 -0.9476
   82MPD2    C2 1251   3.477   1.969  11.239 -1.4498  0.3642 -0.0591
   82MPD2    C3 1252   3.527   1.923  11.362 -0.3316  0.6930  0.1897
   82MPD2    C4 1253   3.443   1.912  11.471  0.5549  0.2278 -0.1180
   82MPD2    C5 1254   3.305   1.924  11.461  0.4191 -0.6805 -0.7719
   82MPD2     H 1255   3.545   1.982  11.156 -0.5563  2.1141  0.9524
   82MPD2    H1 1256   3.492   1.872  11.559  0.5406  1.3611  0.4054
   82MPD2    H2 1257   3.148   1.938  11.318  0.6804  0.4250 -1.3213
   82MPD2    H3 1258   3.245   1.914  11.551 -0.2993 -0.5060 -1.2289
   82MPD2     N 1259   3.665   1.889  11.377  0.2863  0.2261  0.2987
   82MPD2    H5 1260   3.690   1.863  11.472 -0.1630 -2.1020 -0.2290
   82MPD2    N1 1261   3.268   2.029  11.115 -0.4031 -0.1432 -0.0043
   82MPD2    H7 1262   3.172   2.062  11.127 -0.0931  0.8213 -0.1525
   83TCq2    C1 1263   3.762   1.886  11.279  0.0654 -0.0272 -0.7396
   83TCq2    O2 1264   3.783   1.959  11.186  0.0790 -0.0952  0.2773
   83TCq2    C2 1265   3.851   1.772  11.286  0.0388 -0.5063  1.0895
   83TCq2    C3 1266   3.932   1.756  11.172  0.5038  0.1299 -0.6301
   83TCq2    C4 1267   3.944   1.629  11.116 -0.1469  0.2030  0.0815
   83TCq2    C5 1268   3.868   1.526  11.156  0.0144  0.3541  0.4976
   83TCq2    C6 1269   3.791   1.540  11.269 -0.2241  0.7233  0.0154
   83TCq2    C7 1270   3.795   1.652  11.341 -0.2186 -0.4511  0.3122
   83TCq2    C8 1271   3.664   1.477  11.270  0.0937  0.3136 -1.2764
   83TCq2    O4 1272   3.593   1.494  11.366  0.2365  0.2249  0.1930
   83TCq2    C9 1273   4.028   1.611  10.999  0.3487  0.7924  0.0940
   83TCq2    O5 1274   4.059   1.498  10.975  0.0350  0.4281  0.3128
   83TCq2    O6 1275   4.086   1.709  10.944  0.3017 -0.3435 -0.0751
   83TCq2    H2 1276   3.978   1.843  11.127  1.0761  0.0007 -0.2909
   83TCq2    H3 1277   3.879   1.427  11.113 -0.4445 -0.3260  1.9348
   83TCq2    H4 1278   3.729   1.663  11.427  0.3958  0.7365  0.6407
   84TCq2    C1 1279   0.262   0.766  10.432  0.4754  0.1568 -0.3388
   84TCq2    O2 1280   0.336   0.801  10.336  0.3561 -0.3766 -0.4247
   84TCq2    C2 1281   0.327   0.768  10.560 -0.4292  1.3494 -0.1377
   84TCq2    C3 1282   0.460   0.753  10.573 -0.2035 -0.2290  0.0399
   84TCq2    C4 1283   0.523   0.734  10.696  0.1709  0.0012 -0.0718
   84TCq2    C5 1284   0.441   0.728  10.811 -0.7935  0.5008 -0.2536
   84TCq2    C6 1285   0.302   0.741  10.790  0.5899  0.1127 -0.1393
   84TCq2    C7 1286   0.245   0.768  10.670  0.3870  0.0258 -0.1162
   84TCq2    C8 1287   0.203   0.746  10.898 -0.1795 -0.1641 -0.3894
   84TCq2    O4 1288   0.086   0.777  10.875 -0.1862  0.4500  0.0830
   84TCq2    C9 1289   0.668   0.703  10.703 -0.4218  0.0872 -0.8299
   84TCq2    O5 1290   0.718   0.674  10.819  0.3514  1.1125 -0.0924
   84TCq2    O6 1291   0.732   0.713  10.593 -0.2279  0.1943 -0.0019
   84TCq2    H2 1292   0.517   0.757  10.480  0.4641 -0.2531  0.4475
   84TCq2    H3 1293   0.495   0.709  10.903  0.1243  0.0079 -0.9011
   84TCq2    H4 1294   0.138   0.779  10.663  0.5563  1.3120 -0.7434
   85MPD2     C 1295   0.907   3.396  16.298 -0.1890 -0.5770  0.2677
   85MPD2    C1 1296   0.840   3.377  16.180  0.5296 -0.8202  0.1809
   85MPD2    C2 1297   0.837   3.475  16.083 -0.4504  0.0755  0.3907
   85MPD2    C3 1298   0.895   3.603  16.103  0.0167 -1.0498  0.2630
   85MPD2    C4 1299   0.955   3.622  16.228  0.2532 -0.2722 -0.0685
   85MPD2    C5 1300   0.954   3.524  16.327  0.4797  0.6467 -0.1236
   85MPD2     H 1301   0.768   3.455  16.002  0.6706 -4.6350  0.6055
   85MPD2    H1 1302   0.989   3.719  16.263 -1.1927  0.3312 -0.2992
   85MPD2    H2 1303   0.915   3.322  16.377  1.7870  0.5758  1.1558
   85MPD2    H3 1304   1.012   3.544  16.417 -0.3960 -1.7288  0.9710
   85MPD2     N 1305   0.885   3.696  16.005 -0.0921 -0.1715 -0.0441
   85MPD2    H5 1306   0.831   3.673  15.922  0.0591  1.3735 -0.5653
   85MPD2    N1 1307   0.784   3.248  16.153  0.3997  0.4685 -0.2142
   85MPD2    H7 1308   0.750   3.226  16.060  1.1711  1.7415 -0.7956
   86TCq2    C1 1309   0.938   3.825  16.017  0.1062 -0.1072 -0.4013
   86TCq2    O2 1310   1.003   3.882  16.106  0.0154 -0.3649  0.1373
   86TCq2    C2 1311   0.921   3.895  15.890  0.4547 -0.1594 -0.5490
   86TCq2    C3 1312   0.943   4.031  15.901 -0.0990  0.4359 -0.0418
   86TCq2    C4 1313   0.965   4.099  15.781  0.4858 -0.8568 -0.4093
   86TCq2    C5 1314   0.972   4.034  15.660 -0.6325  0.5853  0.0361
   86TCq2    C6 1315   0.961   3.900  15.659 -0.0481 -0.1747 -0.9923
   86TCq2    C7 1316   0.933   3.827  15.774 -0.3738  0.0755 -0.3986
   86TCq2    C8 1317   1.030   3.816  15.557 -0.2422  0.0907 -0.1529
   86TCq2    O4 1318   1.012   3.700  15.545 -0.3235  0.5215  0.4792
   86TCq2    C9 1319   0.996   4.236  15.777  0.2091 -0.0799 -0.0907
   86TCq2    O5 1320   1.046   4.282  15.671 -0.2296  0.2293 -0.0381
   86TCq2    O6 1321   0.954   4.307  15.875 -0.3542  0.2505 -0.3774
   86TCq2    H2 1322   0.937   4.084  15.995  0.1903  0.2936  0.0574
   86TCq2    H3 1323   1.006   4.089  15.574  1.1279  0.2645  0.5200
   86TCq2    H4 1324   0.919   3.720  15.760 -1.4433  0.4026 -1.7980
   87MPD2     C 1325   3.371   2.014   1.004  0.1554  0.3497  0.8953
   87MPD2    C1 1326   3.381   2.140   1.053  0.0737  0.0497  0.6756
   87MPD2    C2 1327   3.300   2.240   1.000  0.1343  0.4508  0.3751
   87MPD2    C3 1328   3.214   2.214   0.899  0.5116 -0.2061 -0.4051
   87MPD2    C4 1329   3.203   2.086   0.853  0.2842 -0.1020 -0.8315
   87MPD2    C5 1330   3.292   1.990   0.892 -0.0714 -0.5260  0.0810
   87MPD2     H 1331   3.306   2.340   1.042 -0.8133 -0.2762  2.2426
   87MPD2    H1 1332   3.130   2.059   0.779 -2.3137  0.8323  1.3846
   87MPD2    H2 1333   3.454   1.947   1.025  0.1870 -0.2785 -1.1751
   87MPD2    H3 1334   3.285   1.894   0.842 -0.7045 -0.8186  0.7446
   87MPD2     N 1335   3.125   2.310   0.845 -0.3751 -0.4686 -0.2841
   87MPD2    H5 1336   3.049   2.278   0.786 -0.7230 -0.1117 -0.0334
   87MPD2    N1 1337   3.480   2.156   1.158  0.1529  0.2541  0.2786
   87MPD2    H7 1338   3.536   2.074   1.179 -1.5016 -1.4526 -2.1076
   88TCq2    C1 1339   3.499   2.278   1.214 -0.9004  0.8834 -0.8917
   88TCq2    O2 1340   3.415   2.360   1.247 -0.0132 -0.0892  0.1792
   88TCq2    C2 1341   3.636   2.285   1.257 -0.1914 -0.6534  0.4047
   88TCq2    C3 1342   3.659   2.362   1.371 -0.3281 -0.3094  0.1378
   88TCq2    C4 1343   3.788   2.386   1.406 -0.6604 -0.2775 -0.4288
   88TCq2    C5 1344   3.890   2.326   1.339 -0.9965 -0.3822  0.2095
   88TCq2    C6 1345   3.864   2.247   1.229  0.4333 -0.6003  0.0819
   88TCq2    C7 1346   3.733   2.219   1.183 -0.9650 -0.0176 -0.2013
   88TCq2    C8 1347   3.972   2.227   1.129  0.3454 -0.0886  0.3907
   88TCq2    O4 1348   3.928   2.180   1.021 -0.4193  0.1984 -0.1815
   88TCq2    C9 1349   3.813   2.452   1.530  0.1938 -0.3662  0.0604
   88TCq2    O5 1350   3.936   2.467   1.561  0.1584  0.2936 -0.2241
   88TCq2    O6 1351   3.717   2.489   1.598 -0.0496  1.0207 -0.5636
   88TCq2    H2 1352   3.577   2.395   1.434  0.0122  1.1731 -0.2059
   88TCq2    H3 1353   3.989   2.348   1.377 -0.5082 -0.6795 -0.9055
   88TCq2    H4 1354   3.718   2.171   1.087 -1.4446 -0.9578  0.3492
   89MPD2     C 1355   3.575   0.486   2.431 -0.6154 -0.4397  0.2677
   89MPD2    C1 1356   3.557   0.442   2.305 -0.6523  0.2220  0.2555
   89MPD2    C2 1357   3.671   0.423   2.228  0.8735 -0.1318  0.2111
   89MPD2    C3 1358   3.807   0.432   2.280  0.3938  0.0830 -0.3560
   89MPD2    C4 1359   3.814   0.460   2.418 -0.6828 -0.1614 -0.0207
   89MPD2    C5 1360   3.701   0.493   2.489 -0.0660 -0.0940 -0.2004
   89MPD2     H 1361   3.663   0.398   2.123 -2.2322  0.8910  0.2120
   89MPD2    H1 1362   3.908   0.459   2.471 -1.7562 -1.7293  1.8357
   89MPD2    H2 1363   3.493   0.515   2.496 -1.5011  0.0988 -1.0976
   89MPD2    H3 1364   3.699   0.520   2.594 -2.3271 -3.7809  0.6977
   89MPD2     N 1365   3.910   0.382   2.199  0.3587 -0.4417  0.1990
   89MPD2    H5 1366   3.877   0.363   2.105  0.6327 -1.3778  0.2958
   89MPD2    N1 1367   3.432   0.433   2.233 -0.3787  0.5968  0.1771
   89MPD2    H7 1368   3.436   0.410   2.134 -0.7419 -0.2954  0.3769
   90TCq2    C1 1369   4.043   0.380   2.237  0.4798 -0.6150 -0.6417
   90TCq2    O2 1370   4.093   0.419   2.340  0.2230 -0.2024 -0.0512
   90TCq2    C2 1371   4.130   0.365   2.119 -0.1984  0.7374  0.2028
   90TCq2    C3 1372   4.260   0.321   2.142 -0.2575  0.4325  0.1135
   90TCq2    C4 1373   4.335   0.302   2.031 -0.6723  0.4900  0.3563
   90TCq2    C5 1374   4.281   0.313   1.904  0.0482 -0.2298  0.0051
   90TCq2    C6 1375   4.159   0.364   1.885  0.2706  1.1814  0.3416
   90TCq2    C7 1376   4.071   0.387   1.993 -0.2216 -0.2608  0.3677
   90TCq2    C8 1377   4.080   0.337   1.766 -0.6029  0.4861 -0.1620
   90TCq2    O4 1378   3.963   0.306   1.790  0.0074  0.0671 -0.1319
   90TCq2    C9 1379   4.468   0.266   2.050 -0.2270 -0.2753 -0.0559
   90TCq2    O5 1380   4.541   0.274   1.951 -0.7439  0.4806 -0.0094
   90TCq2    O6 1381   4.514   0.242   2.166 -0.0835  0.6157 -0.3001
   90TCq2    H2 1382   4.300   0.304   2.241 -2.8858 -0.2173  1.0436
   90TCq2    H3 1383   4.345   0.298   1.818  1.3209 -1.7320  1.2097
   90TCq2    H4 1384   3.984   0.446   1.968  1.3943  1.2615 -1.6304
   91TMC2    C1 1385   0.945   4.215  16.750 -0.1377 -0.7723  0.9465
   91TMC2    C2 1386   0.995   4.298  16.652  0.5597 -0.0665 -0.5241
   91TMC2    C3 1387   0.913   4.369  16.567 -0.0672  0.0570 -0.3898
   91TMC2    C4 1388   0.811   4.209  16.762  1.0340 -0.3790 -0.8165
   91TMC2    C5 1389   0.734   4.274  16.671  0.2484  0.8496  0.1950
   91TMC2    C6 1390   0.782   4.354  16.573 -1.2228  1.2875 -0.0599
   91TMC2     C 1391   1.037   4.126  16.814  0.1404 -0.7757 -0.9398
   91TMC2     O 1392   0.985   4.044  16.883  0.5397 -0.0151  0.7036
   91TMC2     H 1393   1.101   4.302  16.629  1.0151 -1.2569  1.3967
   91TMC2    H1 1394   0.771   4.141  16.835 -0.0067 -0.8447 -1.8320
   91TMC2    H2 1395   0.709   4.388  16.500  0.2825  0.3811 -1.9987
   91TMC2    C7 1396   0.599   4.219  16.648  0.6776 -0.0922  0.2935
   91TMC2    C8 1397   0.965   4.473  16.483 -0.1030 -0.0239 -0.3267
   91TMC2    O1 1398   0.553   4.162  16.748 -0.1503  0.4865 -0.5506
   91TMC2    O2 1399   1.040   4.430  16.394  0.1424  0.2110 -0.4558
   91TMC2    O5 1400   0.872   4.563  16.462 -0.1158 -0.3981 -0.8450
   91TMC2    H5 1401   0.797   4.556  16.525 -0.3505  1.5448 -0.9293
   92MPD2     C 1402   1.266   3.923  16.857  0.3862 -0.1654  0.0538
   92MPD2    C1 1403   1.275   4.061  16.828  0.4576  0.1430  0.1560
   92MPD2    C2 1404   1.405   4.118  16.816 -0.1807  0.3304 -0.0581
   92MPD2    C3 1405   1.517   4.032  16.824  0.8304  0.0047  0.1271
   92MPD2    C4 1406   1.496   3.897  16.858 -0.2491  0.3659  0.4578
   92MPD2    C5 1407   1.375   3.838  16.860  0.9848 -0.4158  0.3633
   92MPD2     H 1408   1.414   4.226  16.814  0.1683  0.3047  0.0001
   92MPD2    H1 1409   1.579   3.831  16.884 -0.2417  0.0773 -0.3091
   92MPD2    H2 1410   1.170   3.878  16.875  0.3059  0.8267  2.1256
   92MPD2    H3 1411   1.360   3.732  16.876  0.1916 -0.4074 -0.2981
   92MPD2     N 1412   1.640   4.088  16.806 -0.1085 -0.2899 -0.0128
   92MPD2    H5 1413   1.641   4.187  16.782  0.9591 -0.5528 -1.0313
   92MPD2    N1 1414   1.171   4.151  16.805 -0.4379 -0.2734 -0.3431
   92MPD2    H7 1415   1.198   4.245  16.777 -0.9807  0.4938  1.7030
   93MPD2     C 1416   2.690   4.564  13.069 -0.4871 -0.4603 -0.5970
   93MPD2    C1 1417   2.646   4.613  13.194  0.1309 -0.3309  0.4768
   93MPD2    C2 1418   2.521   4.580  13.244 -0.6352  0.3343 -0.0201
   93MPD2    C3 1419   2.431   4.512  13.163  0.3919  0.2257 -1.0509
   93MPD2    C4 1420   2.471   4.481  13.032 -0.1984  0.1247 -0.6749
   93MPD2    C5 1421   2.595   4.507  12.983  0.5271 -0.1020 -0.5126
   93MPD2     H 1422   2.482   4.611  13.340  3.0360  3.4111  0.4837
   93MPD2    H1 1423   2.401   4.435  12.963  0.0641  1.7359 -2.0247
   93MPD2    H2 1424   2.792   4.562  13.032 -0.9138  0.7025 -1.8354
   93MPD2    H3 1425   2.628   4.468  12.887 -0.0045 -2.9348  0.4631
   93MPD2     N 1426   2.300   4.481  13.200  0.3773 -0.5441 -0.0299
   93MPD2    H5 1427   2.237   4.448  13.128  0.3433  0.7741 -0.5970
   93MPD2    N1 1428   2.734   4.687  13.286  0.2053  0.4344 -0.3695
   93MPD2    H7 1429   2.694   0.008  13.365 -1.5411 -0.5660 -0.6360
   94TCq2    C1 1430   2.862   0.004  13.256 -0.2239  0.0307 -0.0986
   94TCq2    O2 1431   2.939   4.690  13.169  0.3541 -0.6296  0.0720
   94TCq2    C2 1432   2.923   0.083  13.366 -0.2868  0.8927 -0.3707
   94TCq2    C3 1433   2.848   0.135  13.468  0.0744  0.1747 -0.5949
   94TCq2    C4 1434   2.908   0.192  13.578 -0.4879 -0.4945  0.5167
   94TCq2    C5 1435   3.042   0.219  13.578  0.2497 -0.1106 -0.5636
   94TCq2    C6 1436   3.114   0.174  13.470 -0.9343 -0.8372  0.2838
   94TCq2    C7 1437   3.058   0.103  13.364 -0.2088 -0.1393 -0.3038
   94TCq2    C8 1438   3.255   0.193  13.492  0.2909  0.2970 -0.6432
   94TCq2    O4 1439   3.304   0.245  13.590 -0.7100  0.3363 -0.3011
   94TCq2    C9 1440   2.829   0.221  13.697 -0.0003 -0.1740  0.0227
   94TCq2    O5 1441   2.715   0.166  13.697  0.9353 -0.3519 -0.3870
   94TCq2    O6 1442   2.891   0.261  13.796 -0.0746 -0.6657 -0.5622
   94TCq2    H2 1443   2.740   0.124  13.465  0.0580 -0.5403  2.4552
   94TCq2    H3 1444   3.081   0.271  13.665  0.7881 -0.2448 -0.7203
   94TCq2    H4 1445   3.113   0.073  13.276 -0.1066 -0.8803  0.0046
   95TMC2    C1 1446   2.659   1.545  15.982 -0.3668 -0.1315 -0.1939
   95TMC2    C2 1447   2.574   1.451  16.017 -0.2424  0.4414  0.4354
   95TMC2    C3 1448   2.541   1.443  16.152  0.1185 -0.1151  1.3607
   95TMC2    C4 1449   2.719   1.623  16.076 -0.2051  0.4431  0.5435
   95TMC2    C5 1450   2.701   1.600  16.205  0.0255 -0.3472 -0.0944
   95TMC2    C6 1451   2.599   1.513  16.250 -0.7599  0.8094  0.1346
   95TMC2     C 1452   2.716   1.554  15.847  0.0619  0.0638  0.0998
   95TMC2     O 1453   2.773   1.657  15.817  0.2747 -0.1902  0.3553
   95TMC2     H 1454   2.529   1.383  15.946  0.9279  0.3018 -0.1683
   95TMC2    H1 1455   2.789   1.697  16.039  1.5379 -1.1921  0.5536
   95TMC2    H2 1456   2.572   1.489  16.352 -0.3530 -0.4127 -0.0476
   95TMC2    C7 1457   2.745   1.709  16.291 -0.1045  0.3121 -0.6924
   95TMC2    C8 1458   2.425   1.365  16.180  0.5460  0.2891  0.6616
   95TMC2    O1 1459   2.771   1.819  16.237  0.1640  0.2967 -0.0776
   95TMC2    O2 1460   2.420   1.272  16.261  0.0351  0.4446 -0.1142
   95TMC2    O5 1461   2.322   1.436  16.136 -0.3997 -0.1741  0.2049
   95TMC2    H5 1462   2.353   1.520  16.095 -0.8419 -0.4146 -0.6231
   96MPD2     C 1463   2.763   1.344  15.382  0.2964  0.0870 -0.3193
   96MPD2    C1 1464   2.791   1.475  15.418 -0.4261 -0.1000  0.2551
   96MPD2    C2 1465   2.763   1.504  15.552  0.2510  0.5155 -0.1921
   96MPD2    C3 1466   2.724   1.405  15.646  0.1818 -0.3446 -0.3367
   96MPD2    C4 1467   2.707   1.278  15.601 -0.1741 -0.1297  0.0248
   96MPD2    C5 1468   2.733   1.247  15.471  0.1820  0.0430 -0.5383
   96MPD2     H 1469   2.774   1.607  15.586 -0.6395  0.0951  1.4072
   96MPD2    H1 1470   2.679   1.200  15.671  4.0248 -3.5146 -2.0867
   96MPD2    H2 1471   2.767   1.311  15.279 -0.1233 -2.0754  0.3577
   96MPD2    H3 1472   2.716   1.149  15.428  1.7645 -0.3156 -0.3474
   96MPD2     N 1473   2.701   1.432  15.780  0.6913  0.0230  0.4825
   96MPD2    H5 1474   2.662   1.355  15.833 -1.2890  1.5604  1.2906
   96MPD2    N1 1475   2.840   1.560  15.322 -0.1869 -0.0055 -1.1124
   96MPD2    H7 1476   2.857   1.523  15.229 -0.3958 -1.0039 -0.7432
   97MPD2     C 1477   0.053   3.336   1.563  0.5611 -0.8536  0.1750
   97MPD2    C1 1478   0.107   3.445   1.505 -0.4772  0.2399 -0.1265
   97MPD2    C2 1479   0.143   3.425   1.373  0.4936 -0.0975  0.1593
   97MPD2    C3 1480   0.134   3.307   1.307  0.6990  0.2156 -0.1084
   97MPD2    C4 1481   0.069   3.195   1.364  0.4151  0.2464  0.1167
   97MPD2    C5 1482   0.037   3.219   1.494 -0.6258 -0.9292 -0.0973
   97MPD2     H 1483   0.187   3.505   1.314  1.8519 -0.8508  0.1446
   97MPD2    H1 1484   0.050   3.102   1.312  0.8989 -0.4441  1.1950
   97MPD2    H2 1485   0.015   3.332   1.665  1.8031 -1.8524  0.6055
   97MPD2    H3 1486   4.710   3.144   1.549 -1.1905 -1.4398 -1.3676
   97MPD2     N 1487   0.180   3.283   1.174  0.0615 -0.4331  0.6568
   97MPD2    H5 1488   0.137   3.205   1.125  0.2367 -0.4596  0.5446
   97MPD2    N1 1489   0.114   3.565   1.576 -0.3156  0.2278  0.2073
   97MPD2    H7 1490   0.082   3.566   1.672 -1.1734  2.5114 -0.1034
   98TCq2    C1 1491   0.296   3.336   1.115  0.3669  1.3931  0.7328
   98TCq2    O2 1492   0.362   3.431   1.157  0.1127 -0.2746  0.0688
   98TCq2    C2 1493   0.334   3.268   0.997 -0.0289 -0.1438  0.0178
   98TCq2    C3 1494   0.245   3.177   0.943  0.5146 -0.3959 -0.1355
   98TCq2    C4 1495   0.233   3.164   0.808  0.1717 -0.8582  0.2688
   98TCq2    C5 1496   0.303   3.244   0.730 -0.0103 -0.5518  0.1387
   98TCq2    C6 1497   0.404   3.317   0.784  0.2391 -0.0600 -0.1419
   98TCq2    C7 1498   0.421   3.338   0.920 -0.7042  0.6396 -0.4322
   98TCq2    C8 1499   0.462   3.424   0.700  0.2068 -0.0637  0.0945
   98TCq2    O4 1500   0.562   3.487   0.741  0.3893 -0.5870 -0.6647
   98TCq2    C9 1501   0.139   3.069   0.748 -0.4493  0.6055  0.1566
   98TCq2    O5 1502   0.083   2.995   0.838  0.4498  0.0338  0.3422
   98TCq2    O6 1503   0.139   3.066   0.625  0.2804 -0.7613  0.3896
   98TCq2    H2 1504   0.172   3.125   1.004  1.2029  0.3557  1.3404
   98TCq2    H3 1505   0.300   3.214   0.626 -2.5878  0.9747 -0.2320
   98TCq2    H4 1506   0.483   3.415   0.963 -0.4091 -0.7591  1.6862
   99MPD2     C 1507   4.043   1.176   1.800 -0.2429  0.5437 -0.0943
   99MPD2    C1 1508   3.903   1.188   1.794  0.9608 -0.0744  0.1156
   99MPD2    C2 1509   3.838   1.168   1.668 -0.3507 -0.2935 -0.6211
   99MPD2    C3 1510   3.914   1.163   1.552  0.2506 -0.6243  0.1214
   99MPD2    C4 1511   4.053   1.149   1.561 -0.6545  0.3640 -1.0326
   99MPD2    C5 1512   4.113   1.161   1.684  0.3565  0.9907 -0.3832
   99MPD2     H 1513   3.730   1.171   1.658 -0.2642 -1.4603 -2.0453
   99MPD2    H1 1514   4.110   1.131   1.471 -0.5709 -0.4256 -0.8192
   99MPD2    H2 1515   4.096   1.178   1.894 -0.5704 -0.1878  0.1130
   99MPD2    H3 1516   4.222   1.160   1.683  0.3526  0.7122 -3.0360
   99MPD2     N 1517   3.837   1.159   1.431 -0.0980  0.2769  0.6756
   99MPD2    H5 1518   3.737   1.173   1.425  0.4198  3.3988 -0.8051
   99MPD2    N1 1519   3.823   1.199   1.905 -0.1402 -0.0567 -0.1171
   99MPD2    H7 1520   3.724   1.182   1.892 -0.6885  1.9828  1.3593
  100TCq2    C1 1521   3.877   1.228   2.028  0.1658 -0.3291  0.2987
  100TCq2    O2 1522   3.986   1.279   2.056  0.0949 -0.4324 -0.3955
  100TCq2    C2 1523   3.776   1.243   2.136  0.1231 -0.2218  0.2275
  100TCq2    C3 1524   3.833   1.250   2.264 -0.4447 -0.2102 -0.4947
  100TCq2    C4 1525   3.753   1.285   2.364  0.1452 -0.2408 -0.1015
  100TCq2    C5 1526   3.616   1.297   2.348 -0.3014 -0.0617 -0.1328
  100TCq2    C6 1527   3.566   1.282   2.224  0.2672  0.2084 -0.3165
  100TCq2    C7 1528   3.641   1.257   2.109 -0.0256 -0.2162  0.0799
  100TCq2    C8 1529   3.420   1.312   2.211 -0.0249  0.4429  0.3611
  100TCq2    O4 1530   3.372   1.377   2.303  0.0536 -0.7298 -0.5894
  100TCq2    C9 1531   3.810   1.293   2.498 -0.3633  1.0768  0.3672
  100TCq2    O5 1532   3.723   1.285   2.592 -0.3971 -0.1549 -0.2619
  100TCq2    O6 1533   3.935   1.295   2.512 -0.0722  0.1834  0.2240
  100TCq2    H2 1534   3.940   1.240   2.274 -0.5914 -1.2435  0.0624
  100TCq2    H3 1535   3.551   1.297   2.435 -0.0397  0.2234  0.0636
  100TCq2    H4 1536   3.598   1.254   2.010  1.3183  1.4116 -0.5610
  101MPD2     C 1537   4.049   2.260  12.765  0.1579 -0.8352 -0.2433
  101MPD2    C1 1538   3.948   2.332  12.829  0.0226  0.7502  0.2655
  101MPD2    C2 1539   3.892   2.278  12.943  0.6003 -0.3329 -0.4275
  101MPD2    C3 1540   3.928   2.146  12.980  0.4060 -0.4139  0.1463
  101MPD2    C4 1541   4.031   2.079  12.914  0.4840  0.0439  0.4359
  101MPD2    C5 1542   4.090   2.136  12.810  0.1183  0.3335 -0.3760
  101MPD2     H 1543   3.814   2.330  12.998  0.1265 -1.5157  0.0399
  101MPD2    H1 1544   4.064   1.980  12.946 -1.9089 -0.5951  0.8864
  101MPD2    H2 1545   4.105   2.304  12.683  0.7154 -0.5616  0.2770
  101MPD2    H3 1546   4.174   2.082  12.767 -0.3877 -0.6518 -0.1156
  101MPD2     N 1547   3.846   2.099  13.081 -0.1809  0.0720 -0.2154
  101MPD2    H5 1548   3.770   2.158  13.112 -0.0297 -0.3622  0.9802
  101MPD2    N1 1549   3.912   2.459  12.780 -0.0330 -0.0725 -0.6622
  101MPD2    H7 1550   3.965   2.502  12.705  1.3548 -1.4506 -0.4712
  102TCq2    C1 1551   4.022   2.895  12.639 -0.5540 -0.6863  1.1784
  102TCq2    O2 1552   4.131   2.849  12.669 -0.1717  0.1280  0.2960
  102TCq2    C2 1553   3.904   2.860  12.713  0.4646  0.2513  0.2227
  102TCq2    C3 1554   3.787   2.915  12.671 -1.0856 -0.4471  0.3314
  102TCq2    C4 1555   3.670   2.848  12.688 -0.2794  0.1869 -0.3518
  102TCq2    C5 1556   3.671   2.719  12.739 -0.5201 -0.6035  0.1880
  102TCq2    C6 1557   3.795   2.668  12.773  0.4227 -0.2557  0.1649
  102TCq2    C7 1558   3.912   2.733  12.758  0.4173 -0.3609 -0.4810
  102TCq2    C8 1559   3.804   2.526  12.824  0.5119  0.4492 -0.5086
  102TCq2    O4 1560   3.698   2.477  12.867 -0.6599  0.2653 -0.0117
  102TCq2    C9 1561   3.546   2.907  12.648  0.1306  0.8909 -0.5257
  102TCq2    O5 1562   3.561   3.015  12.585 -0.4440  0.5999  0.1238
  102TCq2    O6 1563   3.444   2.829  12.640  0.4863  0.2595 -0.1053
  102TCq2    H2 1564   3.786   3.020  12.646 -0.4795 -0.5253 -0.0046
  102TCq2    H3 1565   3.575   2.678  12.766 -0.6045  0.0939  0.9395
  102TCq2    H4 1566   4.003   2.688  12.794  1.6340  2.3029 -0.2329
  103TMC2    C1 1567   2.377   2.370  12.480 -0.5886 -1.1769  0.7289
  103TMC2    C2 1568   2.489   2.407  12.402  0.1994 -0.1436  0.8082
  103TMC2    C3 1569   2.585   2.485  12.460  0.6841  0.3314 -0.5531
  103TMC2    C4 1570   2.370   2.407  12.613 -0.6495  0.2534 -0.5311
  103TMC2    C5 1571   2.476   2.484  12.662  0.0950 -0.8677 -0.9053
  103TMC2    C6 1572   2.582   2.525  12.587  0.4668  1.2663  0.3188
  103TMC2     C 1573   2.290   2.273  12.427 -0.4646  0.0979  0.2219
  103TMC2     O 1574   2.181   2.268  12.478 -0.6024  0.2941 -0.1748
  103TMC2     H 1575   2.509   2.383  12.298  0.4635 -0.5903  0.9630
  103TMC2    H1 1576   2.290   2.386  12.684  2.4292 -0.7596  2.6803
  103TMC2    H2 1577   2.666   2.576  12.635 -0.7242  2.9159  0.6428
  103TMC2    C7 1578   2.466   2.546  12.793  0.3067  0.0535 -0.2708
  103TMC2    C8 1579   2.708   2.499  12.385 -0.4664  0.6733  0.6189
  103TMC2    O1 1580   2.394   2.494  12.878 -0.0588  0.0439 -0.1299
  103TMC2    O2 1581   2.703   2.533  12.271 -0.4362  0.6497  0.3897
  103TMC2    O5 1582   2.816   2.444  12.443  0.0152 -0.5187 -0.5602
  103TMC2    H5 1583   2.797   2.384  12.519 -3.1157  0.5308 -0.5305
  104MPD2     C 1584   2.352   1.962  12.242  0.0976  0.5723 -0.0808
  104MPD2    C1 1585   2.290   2.078  12.284  0.9543 -0.2777 -0.1236
  104MPD2    C2 1586   2.159   2.095  12.243 -0.7100  0.1134  0.2900
  104MPD2    C3 1587   2.096   2.002  12.158 -0.4951  0.0095  0.4121
  104MPD2    C4 1588   2.158   1.881  12.132  0.5438 -0.6678  0.1779
  104MPD2    C5 1589   2.289   1.865  12.162  0.2703 -0.7014 -0.0468
  104MPD2     H 1590   2.117   2.191  12.266 -3.0636 -0.6900 -0.6905
  104MPD2    H1 1591   2.116   1.805  12.068 -0.5617 -1.3128  1.6879
  104MPD2    H2 1592   2.460   1.958  12.255  0.0802 -3.1907 -0.9647
  104MPD2    H3 1593   2.340   1.782  12.115 -0.1232 -1.9081  1.6393
  104MPD2     N 1594   1.966   2.045  12.108 -0.8190  0.6632  0.2629
  104MPD2    H5 1595   1.937   2.139  12.130  0.0769  0.6832  1.3618
  104MPD2    N1 1596   2.357   2.175  12.355  0.0324 -0.1108  0.3587
  104MPD2    H7 1597   2.458   2.166  12.349 -0.1654 -1.3873 -1.1924
  105MPD2     C 1598   4.550   1.566  17.561  0.2707 -0.0733 -0.2536
  105MPD2    C1 1599   4.474   1.684  17.542  0.5958 -1.1407  0.1166
  105MPD2    C2 1600   4.431   1.751  17.653 -0.9745 -0.4546 -0.4410
  105MPD2    C3 1601   4.459   1.710   0.067 -0.0674 -0.3490 -0.1115
  105MPD2    C4 1602   4.528   1.586   0.084  0.2284  0.4479  0.0715
  105MPD2    C5 1603   4.562   1.513  17.686  0.3101 -0.5935 -0.2942
  105MPD2     H 1604   4.368   1.837  17.637  0.6908  1.1124  1.3858
  105MPD2    H1 1605   4.563   1.543   0.178 -1.6518 -2.0472 -0.3472
  105MPD2    H2 1606   4.577   1.501  17.478 -0.6831 -2.0684  1.0143
  105MPD2    H3 1607   4.612   1.417  17.699  0.0485 -0.6373  0.3906
  105MPD2     N 1608   4.424   1.807   0.161 -0.1998 -0.0443  0.3581
  105MPD2    H5 1609   4.372   1.888   0.130 -1.4264 -0.4687  1.3096
  105MPD2    N1 1610   4.430   1.735  17.419 -0.7874 -0.1500 -0.3444
  105MPD2    H7 1611   4.355   1.803  17.418 -1.4101 -0.8255 -0.0154
  106TCq2    C1 1612   4.444   1.789   0.295  0.1588 -0.3909 -0.1227
  106TCq2    O2 1613   4.510   1.704   0.353  0.2352 -0.3186  0.3664
  106TCq2    C2 1614   4.386   1.893   0.371 -0.3502  0.1582  0.4692
  106TCq2    C3 1615   4.274   1.952   0.323  0.0808  0.0533  0.7083
  106TCq2    C4 1616   4.230   2.071   0.383  0.0093  0.4788  0.1261
  106TCq2    C5 1617   4.295   2.123   0.490 -0.1143  0.1656 -0.2932
  106TCq2    C6 1618   4.398   2.058   0.539  1.1243 -0.2823  0.6728
  106TCq2    C7 1619   4.447   1.945   0.478 -0.1998  0.5955 -0.3587
  106TCq2    C8 1620   4.440   2.085   0.675  0.0603  0.3900  0.3305
  106TCq2    O4 1621   4.548   2.042   0.712  0.6020 -0.9116  0.5901
  106TCq2    C9 1622   4.112   2.137   0.331  0.3171 -0.7239  0.0505
  106TCq2    O5 1623   4.063   2.229   0.395  0.3277  0.4534  0.3100
  106TCq2    O6 1624   4.063   2.078   0.230  0.0387  0.2508  0.2474
  106TCq2    H2 1625   4.213   1.907   0.245  0.4449  3.6971 -1.6903
  106TCq2    H3 1626   4.260   2.220   0.524 -1.5616 -0.7281  0.7594
  106TCq2    H4 1627   4.542   1.907   0.515 -1.0703 -1.8225 -0.6289
  107TMC2    C1 1628   4.272   0.971  11.523 -0.6250 -0.7730 -0.2002
  107TMC2    C2 1629   4.201   0.957  11.408  0.1129  0.5350 -0.1523
  107TMC2    C3 1630   4.253   0.885  11.305 -0.0494 -0.2260  0.5431
  107TMC2    C4 1631   4.400   0.923  11.533 -0.2895  0.5439 -0.5086
  107TMC2    C5 1632   4.442   0.836  11.436 -0.2580 -0.6992  0.9651
  107TMC2    C6 1633   4.370   0.815  11.321 -0.3750  0.2842  0.1316
  107TMC2     C 1634   4.230   1.065  11.624  0.5245 -0.4200 -0.3052
  107TMC2     O 1635   4.262   1.045  11.741 -0.4899 -0.0791 -0.0311
  107TMC2     H 1636   4.102   0.999  11.401 -0.2202 -0.0083  1.2538
  107TMC2    H1 1637   4.457   0.950  11.622  1.4767 -1.3034 -1.0679
  107TMC2    H2 1638   4.397   0.746  11.242 -1.0804  0.0153  0.1261
  107TMC2    C7 1639   4.577   0.805  11.447 -0.1973  0.9767  0.0931
  107TMC2    C8 1640   4.206   0.882  11.159 -0.4520 -0.5093  0.1749
  107TMC2    O1 1641   4.625   0.791  11.558  0.2977 -0.1353 -0.6110
  107TMC2    O2 1642   4.228   0.781  11.090 -0.0925  0.2108 -0.5300
  107TMC2    O5 1643   4.189   1.008  11.117  0.4878  0.0265  0.3177
  107TMC2    H5 1644   4.191   1.070  11.193 -3.5968 -2.1911  2.2415
  108MPD2     C 1645   4.038   1.377  11.587 -0.2124 -0.7821 -0.1431
  108MPD2    C1 1646   4.098   1.272  11.650 -0.8142 -0.2091  0.2213
  108MPD2    C2 1647   4.084   1.262  11.787  0.4280 -0.1861  0.8434
  108MPD2    C3 1648   4.025   1.354  11.865 -0.4406  0.0297  0.1952
  108MPD2    C4 1649   3.960   1.450  11.798 -0.2417 -0.9156 -0.1575
  108MPD2    C5 1650   3.970   1.464  11.666 -0.0243 -0.5015 -0.2143
  108MPD2     H 1651   4.095   1.165  11.834  0.0743 -0.8200 -0.3679
  108MPD2    H1 1652   3.903   1.529  11.847  0.3471 -1.1063  0.8322
  108MPD2    H2 1653   4.044   1.389  11.480  0.9868  0.4836  0.0825
  108MPD2    H3 1654   3.931   1.555  11.622  1.3285 -0.5994 -1.6318
  108MPD2     N 1655   3.991   1.335  12.002 -0.3760  0.2361  0.4033
  108MPD2    H5 1656   3.914   1.391  12.037 -0.8755  0.6772 -1.3854
  108MPD2    N1 1657   4.160   1.174  11.574  0.5087 -0.3070 -0.0953
  108MPD2    H7 1658   4.159   1.187  11.474 -0.9929 -2.2696 -0.3253
  109MPD2     C 1659   4.415   2.838   2.369 -0.3351  0.0159  0.4111
  109MPD2    C1 1660   4.454   2.935   2.291 -0.0406  0.4543 -0.2775
  109MPD2    C2 1661   4.420   3.066   2.319 -0.3544  0.2583  0.2842
  109MPD2    C3 1662   4.349   3.099   2.438 -0.0471 -0.1244  0.5528
  109MPD2    C4 1663   4.325   2.986   2.522  0.7179  0.8110  0.3202
  109MPD2    C5 1664   4.359   2.862   2.490  0.8345  0.5932 -0.5921
  109MPD2     H 1665   4.432   3.149   2.250  0.0490  1.3063  1.6201
  109MPD2    H1 1666   4.272   3.001   2.616  1.3775 -0.7270  0.9397
  109MPD2    H2 1667   4.430   2.733   2.347 -1.3259 -0.1737  0.6663
  109MPD2    H3 1668   4.325   2.784   2.557  0.0263 -0.5024 -2.2727
  109MPD2     N 1669   4.332   3.243   2.470 -0.2449 -0.4880 -0.5130
  109MPD2    H5 1670   4.359   3.304   2.393 -0.6933  2.3827  1.5934
  109MPD2    N1 1671   4.530   2.907   2.170  0.2365  0.7242  0.1793
  109MPD2    H7 1672   4.536   2.811   2.138 -0.8184  0.5928  0.3696
  110TCq2    C1 1673   4.282   3.290   2.590  0.2600 -0.1904 -0.1566
  110TCq2    O2 1674   4.236   3.239   2.688 -0.0666 -0.0957 -0.2262
  110TCq2    C2 1675   4.287   3.439   2.584  0.8469  0.5226  0.3849
  110TCq2    C3 1676   4.205   3.506   2.675 -0.0072  0.0895  0.1855
  110TCq2    C4 1677   4.195   3.641   2.675 -0.7968 -0.1316  0.1689
  110TCq2    C5 1678   4.266   3.719   2.584  0.8904  0.0909  0.0915
  110TCq2    C6 1679   4.365   3.655   2.511  0.0740 -0.6173 -1.0692
  110TCq2    C7 1680   4.366   3.516   2.501  0.1644 -0.6448 -0.3223
  110TCq2    C8 1681   4.446   3.715   2.400  0.2562  0.4908  0.1021
  110TCq2    O4 1682   4.550   3.657   2.374 -0.1912  0.1049  0.2691
  110TCq2    C9 1683   4.085   3.696   2.748 -0.3024 -0.0680 -0.5215
  110TCq2    O5 1684   3.984   3.624   2.765 -0.6351  0.4791 -0.1567
  110TCq2    O6 1685   4.070   3.819   2.734 -0.1984  0.0988  0.2121
  110TCq2    H2 1686   4.143   3.452   2.746 -0.2135 -0.5694 -0.4886
  110TCq2    H3 1687   4.246   3.826   2.588 -0.2227 -0.0225 -2.6994
  110TCq2    H4 1688   4.439   3.475   2.432 -2.1468 -0.7363 -2.6892
  111TMC2    C1 1689   4.039   3.324  11.313 -0.1980  0.1194 -0.2335
  111TMC2    C2 1690   3.923   3.323  11.384 -0.0589  0.0434 -0.5614
  111TMC2    C3 1691   3.923   3.291  11.520  0.3111 -0.0936 -0.4166
  111TMC2    C4 1692   4.161   3.293  11.369 -0.8264 -0.2961 -0.5508
  111TMC2    C5 1693   4.161   3.264  11.504 -0.1195  0.2263 -0.7067
  111TMC2    C6 1694   4.044   3.254  11.579 -0.1086 -0.1454  0.1635
  111TMC2     C 1695   4.037   3.384  11.181  0.5297  0.5536 -0.6639
  111TMC2     O 1696   3.933   3.439  11.145 -0.0299  0.0727 -0.1234
  111TMC2     H 1697   3.831   3.343  11.329 -0.7825  1.5470  1.2339
  111TMC2    H1 1698   4.250   3.312  11.312 -1.2968  1.0126 -0.8546
  111TMC2    H2 1699   4.056   3.208  11.676 -0.5308 -1.4352 -0.3951
  111TMC2    C7 1700   4.286   3.224  11.569 -1.2592  0.5036  0.1968
  111TMC2    C8 1701   3.820   3.203  11.573  0.0986  0.1288 -0.3538
  111TMC2    O1 1702   4.279   3.174  11.685 -0.3512  0.5201  0.2139
  111TMC2    O2 1703   3.854   3.100  11.626 -0.2340  0.1400 -0.1409
  111TMC2    O5 1704   3.704   3.212  11.503 -0.0009  0.7644  0.3155
  111TMC2    H5 1705   3.684   3.305  11.480  0.4318  0.5979 -0.7541
  112MPD2     C 1706   4.217   3.449  10.721 -0.0590 -1.0255  0.4725
  112MPD2    C1 1707   4.106   3.508  10.769 -0.9691 -0.0712 -0.2722
  112MPD2    C2 1708   4.089   3.485  10.903  0.1995 -0.4081  0.7625
  112MPD2    C3 1709   4.171   3.392  10.976 -0.7482  0.2627  0.6690
  112MPD2    C4 1710   4.273   3.329  10.907  0.1664 -0.6865  0.3054
  112MPD2    C5 1711   4.304   3.367  10.782  0.0748  0.2492 -0.4861
  112MPD2     H 1712   4.017   3.539  10.964 -0.5246 -0.5876  0.0548
  112MPD2    H1 1713   4.337   3.249  10.944  1.0600 -0.8965 -1.6848
  112MPD2    H2 1714   4.241   3.459  10.616 -1.0952 -0.0703  0.3237
  112MPD2    H3 1715   4.391   3.319  10.739  0.4677 -0.2527  0.8731
  112MPD2     N 1716   4.144   3.352  11.104  0.4756  1.1945  0.0447
  112MPD2    H5 1717   4.210   3.291  11.152  1.3862  2.1453  0.0033
  112MPD2    N1 1718   4.015   3.593  10.704  0.1695  0.1276  0.1806
  112MPD2    H7 1719   3.945   3.636  10.764  0.0355  1.6414 -1.0629
  113MPD2     C 1720   3.380   0.718   0.829 -0.2687  0.8587  0.4172
  113MPD2    C1 1721   3.264   0.788   0.850 -0.6628 -0.7498 -0.3579
  113MPD2    C2 1722   3.150   0.771   0.772 -0.2547  0.3728  0.8575
  113MPD2    C3 1723   3.161   0.704   0.651 -0.1909  0.9817 -0.0840
  113MPD2    C4 1724   3.278   0.639   0.628 -0.1770 -0.3701  0.0082
  113MPD2    C5 1725   3.388   0.647   0.710  0.1187  0.1858  0.5948
  113MPD2     H 1726   3.060   0.823   0.804 -0.4969  0.3020  0.2961
  113MPD2    H1 1727   3.295   0.588   0.534 -0.9965  0.3109 -0.5042
  113MPD2    H2 1728   3.469   0.719   0.891  1.0957 -0.1644 -1.5214
  113MPD2    H3 1729   3.476   0.591   0.680  0.0622  0.4403 -0.0503
  113MPD2     N 1730   3.052   0.679   0.568 -0.0026 -0.6486  0.0588
  113MPD2    H5 1731   3.060   0.606   0.498  0.4685 -2.2002  1.7477
  113MPD2    N1 1732   3.249   0.874   0.957 -0.7295 -0.0820  0.1231
  113MPD2    H7 1733   3.158   0.917   0.967 -1.0261 -0.2715 -1.7935
  114TCq2    C1 1734   2.943   0.761   0.574 -0.5151  0.4821 -0.1902
  114TCq2    O2 1735   2.919   0.868   0.632  0.3751 -0.2387  0.0816
  114TCq2    C2 1736   2.832   0.716   0.494  0.4051  0.2024  0.3202
  114TCq2    C3 1737   2.830   0.593   0.433 -0.2536  0.6568  0.8635
  114TCq2    C4 1738   2.739   0.568   0.337 -0.1925 -0.4710  0.3703
  114TCq2    C5 1739   2.637   0.656   0.308  0.4783 -0.0671  0.1510
  114TCq2    C6 1740   2.639   0.778   0.376  0.4142 -0.7354  0.7593
  114TCq2    C7 1741   2.734   0.801   0.471  0.4515  0.1948 -0.5304
  114TCq2    C8 1742   2.506   0.821   0.417  1.1441  0.2146  0.2825
  114TCq2    O4 1743   2.499   0.880   0.523  0.2029  0.1175  0.1105
  114TCq2    C9 1744   2.733   0.440   0.265 -0.0019 -0.4151  0.1808
  114TCq2    O5 1745   2.820   0.350   0.286  0.5745 -0.3302  0.0540
  114TCq2    O6 1746   2.650   0.437   0.170 -0.4921  0.3127 -0.0336
  114TCq2    H2 1747   2.901   0.513   0.452 -1.1269 -0.3681 -0.2475
  114TCq2    H3 1748   2.567   0.626   0.230  3.6541  0.5095 -2.9141
  114TCq2    H4 1749   2.729   0.901   0.512  0.6048  0.7439 -1.8430
  115TMC2    C1 1750   3.570   3.666  17.270  0.4980 -0.4829  0.5642
  115TMC2    C2 1751   3.683   3.716  17.330  1.1956 -0.1796  0.1295
  115TMC2    C3 1752   3.720   3.841  17.309  0.2227 -0.6904  0.0156
  115TMC2    C4 1753   3.509   3.739  17.173  0.0974  0.3322  0.2303
  115TMC2    C5 1754   3.561   3.866  17.143 -0.2684  0.3172  0.4482
  115TMC2    C6 1755   3.662   3.921  17.218 -0.3950  0.0958  0.3114
  115TMC2     C 1756   3.524   3.531  17.297 -0.1533  0.5796 -0.0508
  115TMC2     O 1757   3.431   3.489  17.230  0.4581 -0.0667  0.0117
  115TMC2     H 1758   3.748   3.652  17.389 -1.2680 -2.9865 -0.2141
  115TMC2    H1 1759   3.418   3.712  17.122 -0.4174  1.8761  0.3408
  115TMC2    H2 1760   3.695   4.023  17.205 -1.1377  0.4475  1.1968
  115TMC2    C7 1761   3.494   3.946  17.046  0.3287  0.0398 -1.1177
  115TMC2    C8 1762   3.830   3.899  17.380 -0.5372  0.2061 -0.5119
  115TMC2    O1 1763   3.372   3.925  17.032 -0.5495  0.2966 -0.2538
  115TMC2    O2 1764   3.883   3.997  17.325 -0.4131  0.2336 -0.1093
  115TMC2    O5 1765   3.823   3.870  17.504 -0.0818 -0.2247  0.0456
  115TMC2    H5 1766   3.786   3.780  17.521  1.8615 -1.0730 -0.1290
  116MPD2     C 1767   3.448   3.129  17.604  0.0912  0.3245  0.1515
  116MPD2    C1 1768   3.427   3.138  17.468  0.3907 -0.4800  0.3357
  116MPD2    C2 1769   3.460   3.255  17.400 -0.7577  0.0866  0.1861
  116MPD2    C3 1770   3.516   3.360  17.475  0.5496 -0.1931 -0.2211
  116MPD2    C4 1771   3.533   3.351  17.606  0.5617 -0.3925 -0.6660
  116MPD2    C5 1772   3.495   3.233  17.672  0.5557  0.1804 -0.4419
  116MPD2     H 1773   3.442   3.263  17.294  0.0268  1.1157  0.1318
  116MPD2    H1 1774   3.573   3.428  17.670  0.2265 -2.2594  1.7684
  116MPD2    H2 1775   3.416   3.036  17.649 -0.9592  0.1532 -0.9338
  116MPD2    H3 1776   3.508   3.227   0.064 -2.3227  3.1136  0.0567
  116MPD2     N 1777   3.553   3.486  17.423 -0.8190  0.1738  0.1204
  116MPD2    H5 1778   3.595   3.558  17.481  2.9452 -2.1117  0.2063
  116MPD2    N1 1779   3.370   3.029  17.398  0.1349  0.7214 -0.1654
  116MPD2    H7 1780   3.370   2.940  17.446  0.3687  1.0090  0.3709
  117TMC2    C1 1781   1.742   0.216  13.628  0.0899 -0.5219  0.5074
  117TMC2    C2 1782   1.793   0.117  13.708  0.3140 -0.3759 -0.8772
  117TMC2    C3 1783   1.929   0.091  13.709 -0.5651  0.3014 -0.3408
  117TMC2    C4 1784   1.823   0.284  13.534 -0.1607  0.1867  0.5118
  117TMC2    C5 1785   1.954   0.250  13.534  0.0315 -0.1196 -0.8160
  117TMC2    C6 1786   2.009   0.160  13.626  0.4159  1.0953  0.0640
  117TMC2     C 1787   1.606   0.204  13.599  0.1895  0.5742 -0.6918
  117TMC2     O 1788   1.554   0.094  13.606  0.0445 -1.0846  0.0149
  117TMC2     H 1789   1.729   0.071  13.782 -0.4107  0.4259 -1.0007
  117TMC2    H1 1790   1.786   0.364  13.472 -2.3809 -1.0013  0.2887
  117TMC2    H2 1791   2.113   0.134  13.616  0.3543  1.1500 -0.6681
  117TMC2    C7 1792   2.045   0.353  13.494  0.4147  0.3348 -0.2507
  117TMC2    C8 1793   1.974   0.052  13.845 -0.0472  0.4188  0.5546
  117TMC2    O1 1794   2.156   0.315  13.468 -0.1997 -0.2639  0.3939
  117TMC2    O2 1795   1.899   0.033  13.940 -0.0608  0.4494  0.2620
  117TMC2    O5 1796   2.106   0.076  13.858 -0.0693 -0.4307  0.2348
  117TMC2    H5 1797   2.152   0.048  13.776 -0.8725 -2.2628  0.3991
  118MPD2     C 1798   2.048   0.695  13.616 -0.2986 -0.5884 -0.3790
  118MPD2    C1 1799   2.080   0.591  13.538  0.0068  0.2831  0.7732
  118MPD2    C2 1800   2.185   0.603  13.444 -0.2896  0.4775 -0.5849
  118MPD2    C3 1801   2.272   0.714  13.452  0.3296  0.3447  0.1385
  118MPD2    C4 1802   2.240   0.816  13.537  0.0274  0.1826  0.6233
  118MPD2    C5 1803   2.124   0.814  13.607 -0.0109 -0.0967  0.2836
  118MPD2     H 1804   2.207   0.529  13.368  0.8020 -0.5273  0.7130
  118MPD2    H1 1805   2.306   0.900  13.553 -0.9570  1.0631  0.0326
  118MPD2    H2 1806   1.962   0.688  13.682 -0.1887 -0.8347 -0.2594
  118MPD2    H3 1807   2.097   0.889  13.680 -1.4838  0.9038 -1.2926
  118MPD2     N 1808   2.385   0.709  13.365 -0.8547  0.3228  0.3853
  118MPD2    H5 1809   2.386   0.626  13.306  1.4808 -0.4260  1.4823
  118MPD2    N1 1810   2.004   0.473  13.547 -0.2325 -0.6638  0.2808
  118MPD2    H7 1811   1.922   0.483  13.607  0.6581  0.9212  1.2434
  119MPD2     C 1812   0.295   1.926  13.982 -0.1043  0.2572 -0.0549
  119MPD2    C1 1813   0.167   1.889  14.023  0.4537 -0.2184 -0.2979
  119MPD2    C2 1814   0.069   1.885  13.927 -0.4566  0.3087 -0.0087
  119MPD2    C3 1815   0.104   1.896  13.795 -0.6360  0.5936  0.5344
  119MPD2    C4 1816   0.231   1.937  13.757 -0.7227  0.4081  0.3536
  119MPD2    C5 1817   0.325   1.960  13.852  0.0078 -0.1830 -0.0823
  119MPD2     H 1818   4.694   1.865  13.952  0.0964 -1.0534  1.2002
  119MPD2    H1 1819   0.258   1.947  13.653  0.3719  1.4159  0.7344
  119MPD2    H2 1820   0.371   1.941  14.058  0.3445  1.9542 -0.8350
  119MPD2    H3 1821   0.426   1.985  13.822 -0.0317  0.5690  0.4107
  119MPD2     N 1822   0.013   1.854  13.690  0.4366 -0.0370 -0.5501
  119MPD2    H5 1823   0.050   1.852  13.596  0.4697  0.0053 -0.5379
  119MPD2    N1 1824   0.156   1.858  14.164  0.1583 -0.6928 -0.2696
  119MPD2    H7 1825   0.237   1.885  14.219 -0.1375  1.6311 -0.9855
  120TCq2    C1 1826   4.617   1.808  13.704 -0.9599 -0.8704  0.5863
  120TCq2    O2 1827   4.557   1.757  13.794 -0.0754 -0.2454  0.5491
  120TCq2    C2 1828   4.556   1.769  13.575 -0.2340  0.6853  0.1984
  120TCq2    C3 1829   4.625   1.780  13.453  0.4603 -0.0796  0.2829
  120TCq2    C4 1830   4.567   1.721  13.345  0.1526 -0.8038  0.3383
  120TCq2    C5 1831   4.446   1.658  13.348  0.3320 -0.5318 -0.4525
  120TCq2    C6 1832   4.378   1.663  13.467 -0.3075  0.2910 -0.5288
  120TCq2    C7 1833   4.437   1.706  13.581  0.7815  0.3653  0.1912
  120TCq2    C8 1834   4.259   1.567  13.487 -0.0507 -0.0816  0.1084
  120TCq2    O4 1835   4.171   1.548  13.404  0.1633  0.2743  0.0420
  120TCq2    C9 1836   4.629   1.720  13.218 -0.6915  0.6386 -0.2804
  120TCq2    O5 1837   4.555   1.726  13.120 -0.8576 -0.0613  0.1297
  120TCq2    O6 1838   0.019   1.747  13.211  0.3248  0.1815  0.2148
  120TCq2    H2 1839   4.725   1.818  13.441  0.5094 -0.4035 -0.3174
  120TCq2    H3 1840   4.408   1.606  13.260 -0.1517 -0.3592 -0.3435
  120TCq2    H4 1841   4.388   1.697  13.677 -0.2308 -1.0051 -0.4525
  121TMC2    C1 1842   1.403   3.432  14.047  0.0186 -0.1616 -0.7327
  121TMC2    C2 1843   1.359   3.365  14.156  0.7884 -0.6590  0.4707
  121TMC2    C3 1844   1.217   3.349  14.163  0.5343 -0.4142 -0.8282
  121TMC2    C4 1845   1.321   3.455  13.938 -0.4153  0.0444  0.8155
  121TMC2    C5 1846   1.190   3.429  13.953  0.2421  0.8430 -0.2629
  121TMC2    C6 1847   1.134   3.386  14.067 -0.4355 -0.3838  0.0559
  121TMC2     C 1848   1.517   3.511  14.067  0.6244  0.0413  0.1465
  121TMC2     O 1849   1.552   3.521  14.183 -0.0615 -0.1034  0.9427
  121TMC2     H 1850   1.421   3.344  14.243  0.6332 -0.3322  0.6632
  121TMC2    H1 1851   1.357   3.483  13.840 -2.1285  2.2493  0.8183
  121TMC2    H2 1852   1.030   3.401  14.092  0.1951 -0.4606  2.7096
  121TMC2    C7 1853   1.107   3.464  13.840  0.5377  0.2866 -0.0384
  121TMC2    C8 1854   1.160   3.321  14.294  0.1818 -0.6231 -0.2593
  121TMC2    O1 1855   1.143   3.554  13.767  0.3176 -0.0474  0.0001
  121TMC2    O2 1856   1.040   3.332  14.312  0.1258 -0.0639  0.1645
  121TMC2    O5 1857   1.248   3.269  14.384 -0.2650 -0.7652  0.0889
  121TMC2    H5 1858   1.318   3.215  14.342 -0.4473 -0.7143 -0.2787
  122MPD2     C 1859   1.764   3.675  14.044  0.7915  0.1442  0.4301
  122MPD2    C1 1860   1.681   3.640  13.940 -0.8307 -0.5881 -0.6141
  122MPD2    C2 1861   1.722   3.662  13.815  0.3549  0.1697  0.3032
  122MPD2    C3 1862   1.822   3.754  13.793 -0.1024 -0.0634 -0.4472
  122MPD2    C4 1863   1.879   3.824  13.897  0.0803  0.3712 -0.4346
  122MPD2    C5 1864   1.857   3.774  14.023 -0.5541  0.9113  0.3598
  122MPD2     H 1865   1.658   3.624  13.736  1.8433  0.4045 -1.0101
  122MPD2    H1 1866   1.963   3.890  13.875 -0.2434  0.6669 -0.7949
  122MPD2    H2 1867   1.753   3.631  14.142  0.4207 -2.4308 -0.7523
  122MPD2    H3 1868   1.921   3.803  14.106  0.0197  0.7442 -0.0205
  122MPD2     N 1869   1.878   3.779  13.663 -0.4448 -0.0485 -0.2642
  122MPD2    H5 1870   1.947   3.853  13.652 -1.7206  0.9924 -1.2989
  122MPD2    N1 1871   1.567   3.559  13.952  0.2765  0.2879 -0.6390
  122MPD2    H7 1872   1.524   3.524  13.866 -0.3370  0.5745 -0.4430
  123MPD2     C 1873   3.321   1.844   9.713  0.3665 -0.1334  0.5037
  123MPD2    C1 1874   3.442   1.806   9.759  0.8319  0.2368  0.5101
  123MPD2    C2 1875   3.565   1.843   9.699  0.1539  0.1661 -0.4792
  123MPD2    C3 1876   3.560   1.921   9.575  0.1545  0.4343 -0.4194
  123MPD2    C4 1877   3.439   1.966   9.533 -0.4293  0.0215 -0.9820
  123MPD2    C5 1878   3.322   1.928   9.604  0.2456  0.8382 -0.5320
  123MPD2     H 1879   3.663   1.822   9.741  0.2729 -0.0681 -0.8750
  123MPD2    H1 1880   3.436   2.024   9.441  2.4772  0.5311 -0.7365
  123MPD2    H2 1881   3.226   1.817   9.759  0.5387  0.1232  1.0057
  123MPD2    H3 1882   3.223   1.948   9.564 -0.9292  1.3531  2.6249
  123MPD2     N 1883   3.681   1.958   9.510 -0.1708 -0.6282  0.0015
  123MPD2    H5 1884   3.763   1.945   9.568 -0.6592 -2.3663  0.3076
  123MPD2    N1 1885   3.436   1.716   9.870 -0.1710 -0.2486  0.4479
  123MPD2    H7 1886   3.342   1.704   9.907 -0.3010 -1.4241 -0.2628
  124TCq2    C1 1887   3.704   1.999   9.380 -0.3150  0.0264 -0.7743
  124TCq2    O2 1888   3.628   1.998   9.281  0.1358 -0.1088  0.3592
  124TCq2    C2 1889   3.842   2.033   9.357 -0.4066 -0.0577 -0.5768
  124TCq2    C3 1890   3.870   2.130   9.264  0.3182  0.1455 -0.5952
  124TCq2    C4 1891   4.003   2.165   9.244  0.0888  0.7986 -0.5737
  124TCq2    C5 1892   4.105   2.116   9.319  0.3647  0.2384 -0.4584
  124TCq2    C6 1893   4.078   2.027   9.414 -0.0795 -0.3131 -0.8779
  124TCq2    C7 1894   3.947   1.976   9.426 -0.2818  0.6924 -0.2207
  124TCq2    C8 1895   4.183   1.951   9.476 -0.7223  0.4967 -0.2129
  124TCq2    O4 1896   4.152   1.863   9.556  0.0049  0.1937  0.6462
  124TCq2    C9 1897   4.034   2.272   9.153  0.2362  0.4012 -0.4652
  124TCq2    O5 1898   3.934   2.328   9.098  0.1613 -0.5018 -0.0312
  124TCq2    O6 1899   4.158   2.297   9.131  0.1997  0.1247 -0.1297
  124TCq2    H2 1900   3.795   2.183   9.207  0.0745  2.4081  1.8281
  124TCq2    H3 1901   4.202   2.162   9.306  0.8898 -0.8224 -0.3382
  124TCq2    H4 1902   3.926   1.886   9.482  0.6981  0.9291  0.5175
  125TMC2    C1 1903   0.808   3.676   9.810 -0.1439  0.4527  0.3924
  125TMC2    C2 1904   0.713   3.715   9.900  0.8329 -0.1076  0.5221
  125TMC2    C3 1905   0.656   3.620   9.977 -0.3857 -0.9905  0.2428
  125TMC2    C4 1906   0.848   3.544   9.797 -0.3959  1.1142 -0.2545
  125TMC2    C5 1907   0.780   3.454   9.878 -0.0286  0.2443  0.4587
  125TMC2    C6 1908   0.682   3.490   9.970 -0.5245  0.0740 -0.1642
  125TMC2     C 1909   0.880   3.770   9.726 -0.1346  0.1951 -1.4056
  125TMC2     O 1910   0.937   3.719   9.627 -0.5202 -0.1072  0.0042
  125TMC2     H 1911   0.656   3.807   9.895 -0.4810 -0.8499  1.7599
  125TMC2    H1 1912   0.919   3.511   9.723 -3.8008 -1.8754 -2.1558
  125TMC2    H2 1913   0.632   3.419  10.035  0.6118  0.3773  1.0330
  125TMC2    C7 1914   0.808   3.308   9.889  0.0337  0.0833 -0.0123
  125TMC2    C8 1915   0.544   3.661  10.048  0.0281  0.2962  0.1101
  125TMC2    O1 1916   0.745   3.240   9.971 -0.3608 -0.5326  0.0289
  125TMC2    O2 1917   0.517   3.775  10.084  0.2682 -0.1046  0.4327
  125TMC2    O5 1918   0.461   3.566  10.009  0.2891  0.1319 -0.0338
  125TMC2    H5 1919   0.496   3.504   9.942  1.8179 -1.0426  1.8622
  126MPD1     C 1920   0.970   4.257   9.592 -0.6733  0.3422  0.3135
  126MPD1    C1 1921   0.871   4.261   9.687 -0.0339 -0.2300 -0.3684
  126MPD1    C2 1922   0.827   4.140   9.741 -0.0694  0.1034 -0.0970
  126MPD1    C3 1923   0.885   4.023   9.695  0.6660  0.0898  0.8161
  126MPD1    C4 1924   0.997   4.019   9.617 -0.6981 -0.1166  0.4139
  126MPD1    C5 1925   1.037   4.142   9.556 -0.4582 -0.0704 -0.4282
  126MPD1     H 1926   0.747   4.133   9.814  0.8227  0.4362  0.9197
  126MPD1    H1 1927   1.067   3.938   9.602 -1.0324 -0.0995 -1.3144
  126MPD1    H2 1928   1.010   4.352   9.557 -0.1427 -0.4796 -1.2809
  126MPD1    H3 1929   1.119   4.137   9.486 -0.2399 -1.6524 -0.0492
  126MPD1     N 1930   0.853   3.901   9.761  0.3108 -0.2272 -0.1803
  126MPD1    H5 1931   0.794   3.915   9.842  1.6106  1.8048  0.4186
  126MPD1    N1 1932   0.833   4.378   9.749  0.6249 -0.3208 -0.4577
  126MPD1    H6 1933   0.819   4.463   9.694  0.1811 -0.3614 -0.4101
  126MPD1    H7 1934   0.747   4.362   9.802  0.8794  0.4873  0.2050
  127MPD2     C 1935   1.739   1.958   9.265 -0.7659 -0.5152  0.2480
  127MPD2    C1 1936   1.828   1.926   9.358  0.0676  0.3486 -1.0128
  127MPD2    C2 1937   1.949   1.988   9.348  0.4405 -0.7085 -0.0061
  127MPD2    C3 1938   1.974   2.100   9.269  0.1162 -0.8915 -0.1467
  127MPD2    C4 1939   1.871   2.144   9.188  0.1393  0.0365 -0.1679
  127MPD2    C5 1940   1.754   2.073   9.197  0.4257 -0.2393  0.0901
  127MPD2     H 1941   2.035   1.946   9.399  1.3902  2.1422  0.7370
  127MPD2    H1 1942   1.864   2.233   9.126  2.6193 -1.1325 -2.0759
  127MPD2    H2 1943   1.641   1.913   9.258 -0.7214 -0.4204 -0.9691
  127MPD2    H3 1944   1.674   2.099   9.128  0.8114 -2.3806 -1.1437
  127MPD2     N 1945   2.102   2.159   9.268 -0.4626 -0.6477 -0.0428
  127MPD2    H5 1946   2.167   2.133   9.342 -0.1120 -1.7027 -0.7225
  127MPD2    N1 1947   1.806   1.818   9.445 -0.6212  0.3209  0.0571
  127MPD2    H7 1948   1.730   1.754   9.423  1.3698 -1.8101 -0.7130
  128TCq2    C1 1949   1.874   1.809   9.570 -0.2251  0.0429 -0.7216
  128TCq2    O2 1950   1.957   1.882   9.623  0.0428 -0.3205  0.0987
  128TCq2    C2 1951   1.843   1.686   9.637  0.6870  0.7017  0.3879
  128TCq2    C3 1952   1.946   1.613   9.685 -0.4921  0.2854 -0.1572
  128TCq2    C4 1953   1.928   1.477   9.695 -0.8118  0.3771  0.2278
  128TCq2    C5 1954   1.803   1.418   9.666  0.4691 -0.1080 -0.4658
  128TCq2    C6 1955   1.708   1.497   9.614 -0.4834  0.3238 -0.4218
  128TCq2    C7 1956   1.720   1.629   9.616  0.6292  1.0667 -0.3409
  128TCq2    C8 1957   1.625   1.450   9.505 -0.1920 -0.9030  0.0809
  128TCq2    O4 1958   1.596   1.539   9.430 -0.0942  0.2284  0.7502
  128TCq2    C9 1959   2.036   1.390   9.710  0.1447  0.0925 -0.2915
  128TCq2    O5 1960   2.149   1.444   9.732  0.1996  0.8796 -0.7617
  128TCq2    O6 1961   2.013   1.264   9.706  0.2103  0.2226 -0.2378
  128TCq2    H2 1962   2.038   1.660   9.719 -0.6811 -1.1532  2.3374
  128TCq2    H3 1963   1.807   1.311   9.649 -3.0632 -0.8071  2.9154
  128TCq2    H4 1964   1.639   1.692   9.580  2.1024  3.5354  0.6550
  129MPD2     C 1965   0.790   2.725   1.753 -0.3869 -0.4599  0.1978
  129MPD2    C1 1966   0.718   2.844   1.768 -0.6012  0.0227 -0.4043
  129MPD2    C2 1967   0.729   2.934   1.664  0.4689 -0.3446  0.3665
  129MPD2    C3 1968   0.814   2.920   1.555  0.4373  0.2662  0.3007
  129MPD2    C4 1969   0.886   2.805   1.543  0.1783  0.9136 -0.4268
  129MPD2    C5 1970   0.862   2.708   1.640  0.6112  0.0947  0.7385
  129MPD2     H 1971   0.675   3.027   1.672  0.6870 -0.2977  1.3300
  129MPD2    H1 1972   0.970   2.784   1.476  1.9322 -1.8754  2.6355
  129MPD2    H2 1973   0.798   2.646   1.827 -1.7402  0.2321  1.0841
  129MPD2    H3 1974   0.919   2.618   1.621  1.1296  0.4568  0.5709
  129MPD2     N 1975   0.830   3.032   1.467  0.1148 -0.2847  0.7982
  129MPD2    H5 1976   0.764   3.109   1.477 -0.4900 -0.8065  0.7930
  129MPD2    N1 1977   0.623   2.867   1.863  1.1269 -0.2926 -0.1647
  129MPD2    H7 1978   0.589   2.963   1.862  0.2564 -0.6027 -0.6915
  130TCq2    C1 1979   0.569   2.778   1.948 -0.1434 -0.4869  0.1394
  130TCq2    O2 1980   0.591   2.660   1.965  0.5660 -0.3851 -0.4360
  130TCq2    C2 1981   0.459   2.842   2.026  0.2768  0.0485 -0.1167
  130TCq2    C3 1982   0.462   2.975   2.040  0.6880 -0.0872 -0.1020
  130TCq2    C4 1983   0.365   3.033   2.110  0.3734  0.0752 -0.0819
  130TCq2    C5 1984   0.253   2.963   2.155  0.3547  0.4132  0.0038
  130TCq2    C6 1985   0.269   2.828   2.154  0.4214 -0.1304  0.0988
  130TCq2    C7 1986   0.373   2.764   2.103 -0.2709 -0.1608  0.3293
  130TCq2    C8 1987   0.172   2.744   2.229 -0.4533  0.6909 -0.8823
  130TCq2    O4 1988   0.177   2.624   2.202 -0.6715  0.1208 -0.0738
  130TCq2    C9 1989   0.367   3.171   2.128  0.5486  0.8014 -0.6925
  130TCq2    O5 1990   0.446   3.237   2.054 -0.2631  0.5272  0.0246
  130TCq2    O6 1991   0.297   3.222   2.220  0.4235  0.0644  0.1695
  130TCq2    H2 1992   0.542   3.045   2.022  2.6446 -1.9608  1.3602
  130TCq2    H3 1993   0.160   3.014   2.178  0.5225  1.1151 -0.8375
  130TCq2    H4 1994   0.377   2.657   2.087 -1.6166 -0.3216  1.0611
  131MPD2     C 1995   4.129   1.163  10.389 -0.4978  0.1439  0.4076
  131MPD2    C1 1996   4.135   1.300  10.365 -0.1717  0.6851  0.6733
  131MPD2    C2 1997   4.025   1.363  10.296  0.0258  0.0317 -0.1244
  131MPD2    C3 1998   3.923   1.288  10.255  0.7308 -0.5970  0.3743
  131MPD2    C4 1999   3.930   1.153  10.270  0.0414 -0.7304  0.3897
  131MPD2    C5 2000   4.030   1.088  10.341  0.5017 -0.3477 -0.0619
  131MPD2     H 2001   4.027   1.471  10.285 -1.2019  0.1375  0.7083
  131MPD2    H1 2002   3.847   1.088  10.247  0.0399 -0.9299  0.9703
  131MPD2    H2 2003   4.212   1.118  10.442  0.1541  0.3402 -0.4609
  131MPD2    H3 2004   4.035   0.981  10.358  0.3788 -0.9271 -3.6558
  131MPD2     N 2005   3.808   1.348  10.211  0.0328 -0.4998  0.4989
  131MPD2    H5 2006   3.820   1.446  10.187 -0.6537 -0.3220  0.8840
  131MPD2    N1 2007   4.247   1.369  10.421  0.6177 -0.1400  0.4436
  131MPD2    H7 2008   4.311   1.326  10.487  3.0248 -0.7657 -2.3058
  132TCq2    C1 2009   4.570   1.846  10.494 -0.5376 -0.0258 -0.2683
  132TCq2    O2 2010   4.475   1.914  10.532 -0.1782 -0.2186  0.1921
  132TCq2    C2 2011   4.555   1.702  10.480 -0.7681 -0.7544 -0.0771
  132TCq2    C3 2012   4.660   1.616  10.477 -0.1492 -0.0060 -0.8391
  132TCq2    C4 2013   4.639   1.485  10.453 -0.4658 -0.4551  0.0923
  132TCq2    C5 2014   4.508   1.442  10.431 -0.0328 -0.2132  0.7829
  132TCq2    C6 2015   4.406   1.536  10.443 -1.0685  0.6278 -0.0129
  132TCq2    C7 2016   4.426   1.666  10.470  0.4644 -0.5695 -0.2022
  132TCq2    C8 2017   4.275   1.500  10.394  0.8466  0.1515  0.3964
  132TCq2    O4 2018   4.232   1.586  10.314  0.2774 -0.0833  1.2396
  132TCq2    C9 2019   0.028   1.404  10.439  0.2163  0.4547 -0.1512
  132TCq2    O5 2020   0.027   1.317  10.353  0.3288  0.0242 -0.0686
  132TCq2    O6 2021   0.136   1.458  10.476  0.3837 -0.4405  0.0283
  132TCq2    H2 2022   0.024   1.654  10.519 -0.4908 -2.5363  2.1672
  132TCq2    H3 2023   4.486   1.339  10.404 -0.4807  0.1926 -0.3844
  132TCq2    H4 2024   4.353   1.746  10.466 -0.8046 -1.7531 -0.5834
  133MPD2     C 2025   2.336   2.955   8.591 -0.4136 -0.4306  0.5071
  133MPD2    C1 2026   2.397   2.826   8.592 -0.1732 -0.2074  0.3589
  133MPD2    C2 2027   2.505   2.797   8.674 -0.6982  0.3163 -0.2081
  133MPD2    C3 2028   2.549   2.891   8.767  0.4432 -0.1757  0.3906
  133MPD2    C4 2029   2.491   3.015   8.763  0.4489  0.2973  0.1388
  133MPD2    C5 2030   2.387   3.048   8.679 -0.0728 -0.1685 -0.5419
  133MPD2     H 2031   2.548   2.697   8.677  2.3575  1.6573  0.7202
  133MPD2    H1 2032   2.542   3.090   8.823  1.6189  0.7182 -1.3885
  133MPD2    H2 2033   2.251   2.984   8.530 -0.0237  3.6160  1.8856
  133MPD2    H3 2034   2.351   3.150   8.692 -0.7593 -0.4240 -0.4189
  133MPD2     N 2035   2.654   2.872   8.854 -0.6028  0.2644 -0.3878
  133MPD2    H5 2036   2.667   2.946   8.921 -0.0070  0.0676 -0.2853
  133MPD2    N1 2037   2.347   2.731   8.499 -0.5039 -0.8732 -0.5632
  133MPD2    H7 2038   2.276   2.766   8.436 -0.6942 -0.9508 -0.3930
  134TCq2    C1 2039   2.381   2.598   8.497  0.4855 -0.3600  0.1741
  134TCq2    O2 2040   2.446   2.533   8.578  0.0559 -0.1667  0.1840
  134TCq2    C2 2041   2.314   2.523   8.390 -0.2857 -0.0610  0.1746
  134TCq2    C3 2042   2.299   2.579   8.271 -0.3052  0.3809 -0.4803
  134TCq2    C4 2043   2.232   2.510   8.179  0.8064 -0.1552 -0.0037
  134TCq2    C5 2044   2.191   2.382   8.195  0.0532  0.2180 -0.4712
  134TCq2    C6 2045   2.213   2.322   8.318 -0.0475  0.1730  1.1138
  134TCq2    C7 2046   2.281   2.392   8.416  0.0466  1.0388  0.2046
  134TCq2    C8 2047   2.163   2.191   8.359 -0.0294 -0.2885  0.0856
  134TCq2    O4 2048   2.194   2.148   8.469 -0.3411 -0.0053  0.0376
  134TCq2    C9 2049   2.210   2.564   8.048  0.3849  0.6623  0.8301
  134TCq2    O5 2050   2.187   2.483   7.954  0.0592 -0.0322 -0.0652
  134TCq2    O6 2051   2.235   2.684   8.022  0.4610 -0.2621  0.2156
  134TCq2    H2 2052   2.335   2.679   8.253  1.0187 -0.3476 -1.9037
  134TCq2    H3 2053   2.117   2.345   8.125 -1.9923  0.3748  1.6077
  134TCq2    H4 2054   2.294   2.354   8.517 -1.7999  1.9608  0.7858
  135MPD2     C 2055   1.949   3.473   8.949 -0.0288 -0.4047  0.4559
  135MPD2    C1 2056   1.867   3.361   8.979  0.0750 -0.3509  0.0788
  135MPD2    C2 2057   1.920   3.239   8.964 -0.0846  0.0966  0.1534
  135MPD2    C3 2058   2.045   3.215   8.914 -0.0827  0.2268  0.3861
  135MPD2    C4 2059   2.127   3.322   8.896  0.3584 -0.0272 -0.4166
  135MPD2    C5 2060   2.074   3.449   8.905  0.4774  0.5572  0.1292
  135MPD2     H 2061   1.860   3.153   8.991 -0.8960  0.0840 -1.6922
  135MPD2    H1 2062   2.225   3.313   8.851  0.8989 -1.3668  1.0208
  135MPD2    H2 2063   1.917   3.575   8.965  0.0559  0.1354 -2.9896
  135MPD2    H3 2064   2.143   3.525   8.871 -0.2874  1.5634  0.8400
  135MPD2     N 2065   2.104   3.088   8.901  0.5308 -0.3306 -0.2102
  135MPD2    H5 2066   2.203   3.078   8.880  0.1060  0.7220 -2.7507
  135MPD2    N1 2067   1.733   3.375   9.019 -0.5421  0.0912  0.4979
  135MPD2    H7 2068   1.688   3.288   9.045 -0.1707  0.0940  1.1391
  136TCq2    C1 2069   1.667   3.499   9.039 -0.2277 -0.0177  0.3858
  136TCq2    O2 2070   1.703   3.613   9.050  0.2472  0.1383  0.3063
  136TCq2    C2 2071   1.525   3.476   9.068 -0.4700  1.1053 -0.0587
  136TCq2    C3 2072   1.464   3.362   9.027  0.0615 -0.5024 -0.1073
  136TCq2    C4 2073   1.345   3.327   9.087 -0.2233 -0.1325 -0.3725
  136TCq2    C5 2074   1.291   3.396   9.196  0.7791 -0.1136  0.1307
  136TCq2    C6 2075   1.361   3.511   9.229  0.2519 -0.4197  0.1126
  136TCq2    C7 2076   1.478   3.553   9.165 -0.0456 -0.0977  0.3960
  136TCq2    C8 2077   1.340   3.559   9.363  0.1820  0.3068 -0.2773
  136TCq2    O4 2078   1.366   3.678   9.379 -0.3154 -0.0756 -0.2097
  136TCq2    C9 2079   1.261   3.219   9.025  0.2736  0.9736 -0.8809
  136TCq2    O5 2080   1.147   3.185   9.075 -0.0082 -0.5943  0.1037
  136TCq2    O6 2081   1.289   3.181   8.906  0.1963  0.0853  0.2690
  136TCq2    H2 2082   1.510   3.304   8.948 -1.8416 -4.0750  1.3954
  136TCq2    H3 2083   1.191   3.373   9.232  0.5690  1.1297  0.3426
  136TCq2    H4 2084   1.537   3.640   9.194  1.3449 -1.1928  0.8141
  137MPD2     C 2085   1.426   2.300   9.076  0.2522 -0.2649 -0.5253
  137MPD2    C1 2086   1.425   2.231   9.195 -0.0821 -0.1282 -0.3099
  137MPD2    C2 2087   1.522   2.264   9.295 -0.3665  0.0395  0.3249
  137MPD2    C3 2088   1.627   2.350   9.262  0.0020 -0.1367 -0.2949
  137MPD2    C4 2089   1.634   2.407   9.139 -0.0757  0.3251  0.6445
  137MPD2    C5 2090   1.529   2.382   9.051 -0.0476 -0.7172 -0.2582
  137MPD2     H 2091   1.524   2.208   9.387  1.5560  2.9636  2.0566
  137MPD2    H1 2092   1.715   2.474   9.113  0.9901 -1.4796 -0.7439
  137MPD2    H2 2093   1.350   2.299   8.998  0.6723 -0.7729 -0.9338
  137MPD2    H3 2094   1.521   2.424   8.951 -0.6501 -0.5450 -0.1374
  137MPD2     N 2095   1.717   2.372   9.371 -0.2109  0.5067  0.5265
  137MPD2    H5 2096   1.698   2.326   9.459  0.7743 -0.2770  0.3284
  137MPD2    N1 2097   1.323   2.135   9.208  0.6619  0.4701 -0.3943
  137MPD2    H7 2098   1.262   2.118   9.128  0.6076  0.6337 -0.3883
  138TCq2    C1 2099   1.299   2.067   9.325  0.7552  0.6467  0.7142
  138TCq2    O2 2100   1.355   2.082   9.431  0.0682  0.1647  0.4997
  138TCq2    C2 2101   1.198   1.968   9.325  0.6912 -0.3210 -0.4596
  138TCq2    C3 2102   1.137   1.934   9.211  0.4685  0.1581 -1.1371
  138TCq2    C4 2103   1.020   1.865   9.215 -0.2668 -0.2908 -0.9539
  138TCq2    C5 2104   0.963   1.828   9.332 -0.3321 -0.5218 -0.5248
  138TCq2    C6 2105   1.022   1.874   9.447 -0.0890  0.2396 -0.4165
  138TCq2    C7 2106   1.142   1.947   9.450 -0.0240  0.2962  0.6124
  138TCq2    C8 2107   0.992   1.782   9.555  0.0236 -0.2312  0.6501
  138TCq2    O4 2108   0.963   1.665   9.536 -0.0390  0.3944 -0.3694
  138TCq2    C9 2109   0.948   1.840   9.091 -0.1032 -0.3789  0.0323
  138TCq2    O5 2110   0.987   1.908   8.991 -0.8704 -0.3768  0.1994
  138TCq2    O6 2111   0.826   1.806   9.114 -0.3199 -0.1616  0.3590
  138TCq2    H2 2112   1.166   1.962   9.110  1.5968 -1.7916 -1.3667
  138TCq2    H3 2113   0.881   1.757   9.343  0.3291 -1.0994  0.6588
  138TCq2    H4 2114   1.181   1.980   9.546  1.6600 -0.7042  0.2701
  139TMC2    C1 2115   1.555   1.498  13.262  0.5363 -0.0813 -0.3313
  139TMC2    C2 2116   1.510   1.505  13.130  0.1104 -0.5827  0.2986
  139TMC2    C3 2117   1.402   1.588  13.092 -0.4402 -0.6382  0.3260
  139TMC2    C4 2118   1.500   1.582  13.351 -0.3797  0.5673 -0.0486
  139TMC2    C5 2119   1.397   1.664  13.310  0.0922  0.0810 -0.0004
  139TMC2    C6 2120   1.346   1.663  13.185 -0.2577  0.4261 -0.5285
  139TMC2     C 2121   1.671   1.415  13.300 -1.5707  0.2823 -0.4616
  139TMC2     O 2122   1.678   1.306  13.248  0.8404  0.5899 -0.1525
  139TMC2     H 2123   1.551   1.433  13.060  2.1830  0.2074  0.7046
  139TMC2    H1 2124   1.543   1.581  13.450  0.0565  3.3773 -0.2270
  139TMC2    H2 2125   1.269   1.732  13.155 -1.0393 -0.1009  0.2492
  139TMC2    C7 2126   1.329   1.732  13.422 -0.5381 -0.3869 -0.5327
  139TMC2    C8 2127   1.334   1.551  12.970  0.4850  0.2900 -0.3399
  139TMC2    O1 2128   1.213   1.761  13.400  0.1549  0.2684  0.2548
  139TMC2    O2 2129   1.380   1.471  12.892  0.4755  0.1697 -0.4853
  139TMC2    O5 2130   1.209   1.619  12.957  0.1554  0.4451 -0.2280
  139TMC2    H5 2131   1.190   1.705  12.999 -2.1870 -0.7655  1.1213
  140MPD2     C 2132   1.979   1.530  13.477 -0.2449  0.2045 -0.5071
  140MPD2    C1 2133   1.887   1.440  13.417  0.0914 -0.4049 -0.0016
  140MPD2    C2 2134   1.920   1.309  13.407  0.0808  0.2675  0.0352
  140MPD2    C3 2135   2.046   1.266  13.431 -0.0774 -0.3358 -0.3136
  140MPD2    C4 2136   2.139   1.357  13.472  0.3030 -0.2141  0.1187
  140MPD2    C5 2137   2.103   1.483  13.512 -0.1186 -0.2006  0.2700
  140MPD2     H 2138   1.849   1.240  13.362  0.2127 -1.0472  1.8639
  140MPD2    H1 2139   2.243   1.330  13.463  0.1981 -0.9417  1.1819
  140MPD2    H2 2140   1.940   1.630  13.492  2.9268  1.4356 -0.3897
  140MPD2    H3 2141   2.170   1.559  13.551  0.8199  0.3077 -2.3205
  140MPD2     N 2142   2.096   1.135  13.402  0.0949  0.1178  0.4905
  140MPD2    H5 2143   2.196   1.125  13.394  0.3341  2.9347 -0.0196
  140MPD2    N1 2144   1.763   1.489  13.370 -0.2253 -0.3998  0.2263
  140MPD2    H7 2145   1.743   1.588  13.378 -2.1574 -0.6847 -1.0583
  141TCq2    C1 2146   2.468   2.526  14.295 -0.2485  0.6400  0.6361
  141TCq2    O2 2147   2.361   2.552  14.240  0.0463 -0.1050  0.2212
  141TCq2    C2 2148   2.478   2.532  14.442 -0.7329  0.4988  0.5858
  141TCq2    C3 2149   2.577   2.463  14.508 -0.2309  0.3508  0.3287
  141TCq2    C4 2150   2.568   2.462  14.646  0.6934  0.0466 -0.0828
  141TCq2    C5 2151   2.470   2.529  14.717 -0.3017  0.0517 -0.6247
  141TCq2    C6 2152   2.381   2.595  14.642 -0.6123  0.2890  0.7737
  141TCq2    C7 2153   2.382   2.600  14.502 -0.1884  0.7294  0.9216
  141TCq2    C8 2154   2.311   2.697  14.714  0.2880 -0.2568 -0.3620
  141TCq2    O4 2155   2.308   2.687  14.834  0.0366  0.6728  0.3291
  141TCq2    C9 2156   2.667   2.385  14.714  0.3623  0.4191  0.0704
  141TCq2    O5 2157   2.687   2.388  14.835 -0.5275 -0.0156 -0.3654
  141TCq2    O6 2158   2.746   2.319  14.636  0.0623 -0.7397 -0.2309
  141TCq2    H2 2159   2.657   2.411  14.456 -0.2647  0.5016  0.1225
  141TCq2    H3 2160   2.478   2.544  14.824 -1.1576  0.4659 -0.6212
  141TCq2    H4 2161   2.300   2.636  14.441  0.7283 -1.0761 -1.3727
  142MPD2     C 2162   4.424   0.864  10.406 -0.0599  0.1439  0.0132
  142MPD2    C1 2163   4.340   0.895  10.300 -0.5224  0.1220 -0.4819
  142MPD2    C2 2164   4.361   1.012  10.223 -0.3035 -0.0841  0.3706
  142MPD2    C3 2165   4.472   1.092  10.262 -0.8703  0.6848  0.4952
  142MPD2    C4 2166   4.552   1.055  10.363  0.0957 -0.2910  0.0309
  142MPD2    C5 2167   4.537   0.941  10.430  0.4683  0.0260  0.5276
  142MPD2     H 2168   4.313   1.027  10.127 -1.0137  0.1394  0.7654
  142MPD2    H1 2169   4.632   1.119  10.400 -0.4976 -0.5494  1.7271
  142MPD2    H2 2170   4.409   0.775  10.466  0.6986 -0.0488 -0.0751
  142MPD2    H3 2171   4.600   0.915  10.514  1.8460  1.8538  0.0490
  142MPD2     N 2172   4.523   1.203  10.196  0.0733  0.6811 -0.0776
  142MPD2    H5 2173   4.610   1.239  10.235  0.7322 -1.6990  0.6336
  142MPD2    N1 2174   4.269   0.784  10.261  0.1956  0.3249 -0.1630
  142MPD2    H7 2175   4.280   0.701  10.317  1.8651 -1.2702 -2.8699
  143TCq2    C1 2176   4.463   1.263  10.088 -0.7335  0.0700 -0.1957
  143TCq2    O2 2177   4.360   1.237  10.026  0.1413 -0.1813 -0.0900
  143TCq2    C2 2178   4.541   1.372  10.037  0.3102 -0.3859  0.1836
  143TCq2    C3 2179   4.676   1.392  10.056  0.4050  0.3450  0.8069
  143TCq2    C4 2180   0.006   1.498   9.998  0.7217 -0.0299 -0.1936
  143TCq2    C5 2181   4.675   1.573   9.906 -0.9496 -0.5132 -0.6295
  143TCq2    C6 2182   4.547   1.549   9.881 -0.1952 -0.4398  0.3567
  143TCq2    C7 2183   4.477   1.456   9.950  0.5787  0.6272 -0.2516
  143TCq2    C8 2184   4.490   1.604   9.761  0.2225 -0.3325 -0.1820
  143TCq2    O4 2185   4.371   1.610   9.750 -0.1100 -0.1254 -0.1619
  143TCq2    C9 2186   0.147   1.513  10.020 -0.7702  0.6920  0.3570
  143TCq2    O5 2187   0.212   1.599   9.956  0.1077  0.0375  0.7221
  143TCq2    O6 2188   0.203   1.420  10.089 -0.4060  0.3109  0.3304
  143TCq2    H2 2189   0.013   1.333  10.118  1.2052  0.4522  0.0647
  143TCq2    H3 2190   0.006   1.654   9.864 -0.8899  0.0515  0.5243
  143TCq2    H4 2191   4.372   1.449   9.925  0.2861 -0.3645  1.2940
  144MPD2     C 2192   2.683   0.266   0.696  0.1636 -0.1517 -0.3265
  144MPD2    C1 2193   2.748   0.236   0.578  0.0397 -0.6266 -1.0327
  144MPD2    C2 2194   2.890   0.245   0.575  0.3364  0.1088 -0.6039
  144MPD2    C3 2195   2.959   0.277   0.691 -0.7108 -0.5649  0.0540
  144MPD2    C4 2196   2.892   0.293   0.806 -0.2538  0.6147  0.1715
  144MPD2    C5 2197   2.755   0.287   0.809  0.8009 -0.7780  0.6974
  144MPD2     H 2198   2.942   0.239   0.480  1.4231 -0.9770  0.0673
  144MPD2    H1 2199   2.943   0.299   0.901 -0.6421  0.6747  0.3736
  144MPD2    H2 2200   2.576   0.263   0.713 -0.0261  0.3564 -1.3751
  144MPD2    H3 2201   2.702   0.300   0.903 -2.6107 -2.0177 -1.0867
  144MPD2     N 2202   3.098   0.290   0.699  0.0338 -0.4252  0.5789
  144MPD2    H5 2203   3.136   0.335   0.782 -0.2628  0.5338  0.1863
  144MPD2    N1 2204   2.679   0.202   0.462 -0.9943  0.3640 -0.0876
  144MPD2    H7 2205   2.725   0.214   0.372 -0.9054  0.2401 -0.0583
  145TCq2    C1 2206   3.190   0.261   0.601  0.0283 -0.0603 -0.1966
  145TCq2    O2 2207   3.166   0.223   0.488 -0.0704  0.3627 -0.1480
  145TCq2    C2 2208   3.330   0.282   0.638  0.0930  0.3336 -0.0688
  145TCq2    C3 2209   3.432   0.243   0.553  1.1114 -0.4078  0.0835
  145TCq2    C4 2210   3.560   0.259   0.601  0.4306  0.0324  0.0802
  145TCq2    C5 2211   3.585   0.305   0.728  0.2047  0.3831 -0.2645
  145TCq2    C6 2212   3.479   0.335   0.809  0.7098 -0.3923 -0.4503
  145TCq2    C7 2213   3.355   0.327   0.765  0.2266  0.2604 -0.1075
  145TCq2    C8 2214   3.504   0.372   0.944 -0.5234 -0.0230  0.1956
  145TCq2    O4 2215   3.617   0.346   0.986 -0.1239  0.2721  0.5352
  145TCq2    C9 2216   3.663   0.197   0.522  0.1703 -0.0546  0.2783
  145TCq2    O5 2217   3.750   0.147   0.592 -0.3471  0.8850  0.0385
  145TCq2    O6 2218   3.632   0.158   0.406  0.4367 -0.0323  0.5498
  145TCq2    H2 2219   3.408   0.199   0.457  0.1726 -0.8562  0.5211
  145TCq2    H3 2220   3.683   0.305   0.774 -0.2607 -0.2903  0.7315
  145TCq2    H4 2221   3.276   0.367   0.827  0.7649  0.8737  0.1846
  146TMC2    C1 2222   3.579   3.794  12.506 -0.0625 -0.2044  0.2928
  146TMC2    C2 2223   3.458   3.781  12.441  0.0190  0.0225 -0.0445
  146TMC2    C3 2224   3.464   3.757  12.307  0.0809 -0.1211 -0.6646
  146TMC2    C4 2225   3.697   3.773  12.444 -0.2036  0.0359  0.6989
  146TMC2    C5 2226   3.694   3.736  12.311 -0.0674  0.1449 -0.1341
  146TMC2    C6 2227   3.579   3.735  12.243 -0.9884 -0.4742 -0.4569
  146TMC2     C 2228   3.580   3.850  12.633 -0.7530  0.3455  0.1372
  146TMC2     O 2229   3.522   3.954  12.650 -0.0364 -0.0104 -0.5225
  146TMC2     H 2230   3.367   3.796  12.498 -0.1076 -3.4911  0.6971
  146TMC2    H1 2231   3.794   3.799  12.485 -0.7941  3.4934 -0.1363
  146TMC2    H2 2232   3.573   3.708  12.138  0.1015 -0.9755 -0.3845
  146TMC2    C7 2233   3.816   3.679  12.245  0.1231  0.1124 -0.2928
  146TMC2    C8 2234   3.350   3.691  12.246  0.9342  0.6838 -0.1413
  146TMC2    O1 2235   3.829   3.699  12.124 -0.0341  0.1678  0.0081
  146TMC2    O2 2236   3.359   3.632  12.141 -0.6483 -0.1137  0.2393
  146TMC2    O5 2237   3.239   3.730  12.308 -0.3020  0.3702 -0.4916
  146TMC2    H5 2238   3.243   3.805  12.370  1.4006 -2.2001  2.5239
  147MPD2     C 2239   4.290   3.484  12.278  0.4177 -0.0490 -0.0221
  147MPD2    C1 2240   4.219   3.449  12.391  0.3233  0.1372 -0.1366
  147MPD2    C2 2241   4.096   3.500  12.414  0.0969 -0.2626  0.4242
  147MPD2    C3 2242   4.024   3.564  12.309  0.1442 -0.5495  0.2296
  147MPD2    C4 2243   4.095   3.597  12.190 -0.8133 -0.0143 -0.3319
  147MPD2    C5 2244   4.228   3.559  12.180  0.0301  0.2874 -0.3279
  147MPD2     H 2245   4.043   3.483  12.507 -0.2040 -0.2679  0.2515
  147MPD2    H1 2246   4.040   3.658  12.118 -2.1040  0.2835  0.9003
  147MPD2    H2 2247   4.388   3.448  12.249  0.9564  0.7911  0.7394
  147MPD2    H3 2248   4.281   3.578  12.087 -2.7342 -1.9614 -2.3556
  147MPD2     N 2249   3.892   3.616  12.340 -0.0416 -0.1619  0.3190
  147MPD2    H5 2250   3.850   3.606  12.432 -0.8871 -1.3899 -0.2048
  147MPD2    N1 2251   4.280   3.363  12.489  0.0629  0.0799 -0.6040
  147MPD2    H7 2252   4.370   3.325  12.462 -0.4746  0.0349 -2.3848
  148MPD2     C 2253   3.986   2.740  10.263 -0.1159 -0.0945 -1.0246
  148MPD2    C1 2254   4.039   2.611  10.246 -0.5482  0.5071  0.9874
  148MPD2    C2 2255   3.960   2.503  10.262 -0.5863 -0.5842 -0.7533
  148MPD2    C3 2256   3.826   2.513  10.292 -0.0590  0.3348 -0.2087
  148MPD2    C4 2257   3.779   2.639  10.304 -0.1936  0.2054 -0.5724
  148MPD2    C5 2258   3.858   2.749  10.283 -0.2468 -1.1881  0.8393
  148MPD2     H 2259   4.002   2.403  10.263  0.0952 -0.2980 -0.2650
  148MPD2    H1 2260   3.672   2.650  10.316 -0.2278 -0.7075 -0.0665
  148MPD2    H2 2261   4.040   2.834  10.253  0.7428 -0.3955  0.8984
  148MPD2    H3 2262   3.827   2.853  10.287 -2.5239 -1.8601  0.1944
  148MPD2     N 2263   3.738   2.401  10.303  0.8213 -0.4278 -0.3704
  148MPD2    H5 2264   3.639   2.421  10.300  0.6683 -1.1773 -0.1764
  148MPD2    N1 2265   4.174   2.592  10.224  0.3448  0.0699 -0.4845
  148MPD2    H7 2266   4.203   2.504  10.183 -0.3073 -1.4033  2.2073
  149TCq2    C1 2267   4.272   2.690  10.216  0.4214 -0.5267  0.7095
  149TCq2    O2 2268   4.273   2.799  10.279 -0.5967 -0.0246 -0.4727
  149TCq2    C2 2269   4.407   2.632  10.179 -0.2868 -0.2844  0.0556
  149TCq2    C3 2270   4.517   2.660  10.254  0.2547 -0.3495  0.1405
  149TCq2    C4 2271   4.636   2.604  10.222  0.0799  0.4448 -0.4240
  149TCq2    C5 2272   4.641   2.511  10.124 -0.3449  0.1878 -0.3673
  149TCq2    C6 2273   4.533   2.478  10.049  0.6523  0.2210 -0.0107
  149TCq2    C7 2274   4.414   2.533  10.080 -0.6204 -0.0059  0.0546
  149TCq2    C8 2275   4.532   2.355   9.969  0.9139 -0.0792  0.6129
  149TCq2    O4 2276   4.451   2.331   9.881  0.2492 -0.1676 -0.1459
  149TCq2    C9 2277   0.026   2.621  10.306  0.5844  0.1225  0.4650
  149TCq2    O5 2278   0.135   2.585  10.258  0.7404  0.1386 -0.1189
  149TCq2    O6 2279   0.018   2.700  10.400  0.2464 -0.3149  0.6201
  149TCq2    H2 2280   4.509   2.730  10.336  3.6968 -1.6568  1.5681
  149TCq2    H3 2281   0.008   2.463  10.113 -1.5208 -2.2873  0.3525
  149TCq2    H4 2282   4.323   2.504  10.030 -1.4672  1.0917  0.9686
  150MPD2     C 2283   1.313   1.505  11.546 -0.7438 -0.2414 -0.2619
  150MPD2    C1 2284   1.214   1.463  11.630  0.0946 -0.2013 -0.2012
  150MPD2    C2 2285   1.213   1.523  11.762 -0.1759 -0.3596  0.6076
  150MPD2    C3 2286   1.314   1.610  11.801  0.7704 -0.1635 -0.3160
  150MPD2    C4 2287   1.423   1.637  11.719 -0.0541  1.0822  0.0255
  150MPD2    C5 2288   1.416   1.588  11.594  0.1058 -0.3359 -0.1805
  150MPD2     H 2289   1.138   1.490  11.832 -0.8000 -3.1574 -1.3609
  150MPD2    H1 2290   1.503   1.707  11.740  0.8187 -0.1054  0.6656
  150MPD2    H2 2291   1.324   1.472  11.443  0.1248  0.8119 -0.5060
  150MPD2    H3 2292   1.499   1.625  11.536 -0.1001 -3.0910 -2.2202
  150MPD2     N 2293   1.303   1.665  11.933 -0.5678 -0.1293 -0.4993
  150MPD2    H5 2294   1.210   1.663  11.973 -1.0133  0.7447 -1.4947
  150MPD2    N1 2295   1.122   1.362  11.582  0.4300  0.5522 -0.7344
  150MPD2    H7 2296   1.141   1.323  11.490  0.7495 -0.3095 -0.3014
  151TCq2    C1 2297   1.398   1.735  12.001 -0.3604  0.1684 -1.0286
  151TCq2    O2 2298   1.519   1.728  11.971 -0.7753 -0.0029 -0.0099
  151TCq2    C2 2299   1.356   1.785  12.131 -0.1282  0.6018 -0.6677
  151TCq2    C3 2300   1.241   1.867  12.145 -0.4715 -0.0084 -0.3869
  151TCq2    C4 2301   1.246   1.964  12.244 -0.5531 -0.1449 -0.0033
  151TCq2    C5 2302   1.360   1.981  12.319 -0.3075 -0.0669  0.3369
  151TCq2    C6 2303   1.468   1.901  12.298  0.2508 -0.0665  0.2015
  151TCq2    C7 2304   1.469   1.798  12.215 -0.3969 -0.1817  0.6241
  151TCq2    C8 2305   1.588   1.949  12.360 -0.5361 -0.2484  0.1951
  151TCq2    O4 2306   1.610   2.060  12.390 -0.1377  0.4742 -0.7030
  151TCq2    C9 2307   1.133   2.057  12.261 -0.6762 -0.6896 -0.3940
  151TCq2    O5 2308   1.135   2.144  12.354 -0.0068  0.4077  0.4027
  151TCq2    O6 2309   1.020   2.027  12.207  0.5758  0.2572  0.1998
  151TCq2    H2 2310   1.166   1.874  12.067 -1.3352 -1.3769  0.3330
  151TCq2    H3 2311   1.368   2.059  12.394 -1.0745  0.6689 -0.3384
  151TCq2    H4 2312   1.563   1.752  12.187 -0.7474  0.1970 -1.1473
  152MPD2     C 2313   0.623   1.299  12.554  0.6549  0.2472  0.1559
  152MPD2    C1 2314   0.636   1.428  12.508 -0.5729  0.2204 -0.6061
  152MPD2    C2 2315   0.530   1.496  12.458  0.7899  0.3489 -0.1290
  152MPD2    C3 2316   0.401   1.444  12.466 -0.9232 -0.2368 -0.0864
  152MPD2    C4 2317   0.385   1.320  12.528 -0.6852  0.1704  0.0830
  152MPD2    C5 2318   0.494   1.242  12.562 -0.2444  0.3998 -0.1144
  152MPD2     H 2319   0.546   1.596  12.421  2.2763  0.0624 -0.2420
  152MPD2    H1 2320   0.288   1.274  12.522  0.2655 -1.6868 -1.0978
  152MPD2    H2 2321   0.696   1.230  12.594  0.2942  0.1393  0.6308
  152MPD2    H3 2322   0.475   1.139  12.589  0.4065  0.0167 -1.1408
  152MPD2     N 2323   0.295   1.513  12.410 -0.4625 -0.2135 -0.3353
  152MPD2    H5 2324   0.316   1.597  12.357  1.4136 -0.4548  0.0381
  152MPD2    N1 2325   0.762   1.484  12.507  0.0380 -0.2151  0.0267
  152MPD2    H7 2326   0.840   1.424  12.531  0.6190  0.4205 -0.2622
  153TCq2    C1 2327   0.803   1.603  12.462 -0.3827 -0.7074  0.4574
  153TCq2    O2 2328   0.727   1.701  12.441 -0.2193 -0.0990 -0.2068
  153TCq2    C2 2329   0.945   1.618  12.458 -0.7114  0.2212  0.4507
  153TCq2    C3 2330   1.011   1.520  12.403 -0.0776 -0.6357 -0.1453
  153TCq2    C4 2331   1.148   1.530  12.405 -0.0303 -0.4634 -0.1776
  153TCq2    C5 2332   1.213   1.642  12.447 -0.6080 -0.5684 -0.7809
  153TCq2    C6 2333   1.136   1.744  12.500  0.6022  0.1604  0.4706
  153TCq2    C7 2334   0.999   1.729  12.509 -0.3474  0.8275  0.6380
  153TCq2    C8 2335   1.186   1.824  12.607 -0.3400 -0.1981  0.5215
  153TCq2    O4 2336   1.108   1.906  12.664  1.0868  0.7535  0.0070
  153TCq2    C9 2337   1.217   1.421  12.356  0.4949 -0.4015 -0.6297
  153TCq2    O5 2338   1.150   1.315  12.349 -0.2105  0.2925 -0.5325
  153TCq2    O6 2339   1.343   1.428  12.352 -0.0919 -0.2305  0.2620
  153TCq2    H2 2340   0.958   1.434  12.364 -0.4847 -0.7651  0.6838
  153TCq2    H3 2341   1.321   1.642  12.445 -0.5818  0.7459  0.1948
  153TCq2    H4 2342   0.932   1.808  12.540  0.6535  1.2492  1.7189
  154MPD2     C 2343   2.857   1.160  17.501 -0.3339 -0.2860  0.6657
  154MPD2    C1 2344   2.950   1.165  17.600  0.0224  0.4619  0.2392
  154MPD2    C2 2345   2.904   1.237  17.712 -0.0694 -0.0380  0.3967
  154MPD2    C3 2346   2.797   1.317  17.703 -0.5181  0.5238  0.4176
  154MPD2    C4 2347   2.720   1.327  17.586 -0.0778 -0.5697  0.6160
  154MPD2    C5 2348   2.746   1.236  17.490  1.2330  0.6718 -0.4764
  154MPD2     H 2349   2.961   1.250   0.088  0.5697  0.6895 -0.1044
  154MPD2    H1 2350   2.633   1.391  17.585  0.1991 -0.2416 -1.4417
  154MPD2    H2 2351   2.861   1.083  17.425  0.0130 -0.0473  0.4392
  154MPD2    H3 2352   2.691   1.234  17.397  1.1284  1.0997 -0.4251
  154MPD2     N 2353   2.771   1.407   0.092  0.4341  0.0775 -0.2066
  154MPD2    H5 2354   2.837   1.402   0.169  0.7321 -0.3464 -0.4882
  154MPD2    N1 2355   3.057   1.070  17.595 -0.4867 -0.1733 -1.2199
  154MPD2    H7 2356   3.068   1.014  17.512  0.5241 -0.7317 -0.7170
  155TCq2    C1 2357   3.143   1.048  17.703 -0.8055 -0.2232 -0.3385
  155TCq2    O2 2358   3.153   1.112   0.088 -0.1641  0.1494 -0.4885
  155TCq2    C2 2359   3.250   0.956  17.673 -0.0300  1.0521 -0.1163
  155TCq2    C3 2360   3.372   0.988   0.006  0.2575  0.8683  0.4435
  155TCq2    C4 2361   3.469   0.891  17.712 -0.3655 -0.0199  0.1600
  155TCq2    C5 2362   3.450   0.770  17.658  0.8103  0.2079 -0.3642
  155TCq2    C6 2363   3.323   0.751  17.598 -0.1223 -0.2625 -0.0591
  155TCq2    C7 2364   3.222   0.839  17.602 -0.5019 -0.5777 -0.1740
  155TCq2    C8 2365   3.283   0.626  17.537  0.1747  0.6074 -0.0031
  155TCq2    O4 2366   3.164   0.611  17.513 -0.9495  0.0568  0.1179
  155TCq2    C9 2367   3.585   0.917   0.080 -0.0095 -0.6465 -0.4565
  155TCq2    O5 2368   3.590   1.018   0.157 -0.2238 -0.4735  0.6358
  155TCq2    O6 2369   3.681   0.833   0.064 -0.0218  0.7729 -0.1865
  155TCq2    H2 2370   3.386   1.076   0.066  1.2911  0.8836  0.1751
  155TCq2    H3 2371   3.536   0.707  17.635 -0.1506 -1.6228  1.1348
  155TCq2    H4 2372   3.120   0.814  17.575 -0.7992  0.7340 -0.2873
  156MPD2     C 2373   1.011   3.270  12.535 -0.7296  0.7628  0.2336
  156MPD2    C1 2374   0.971   3.375  12.461 -0.8185  1.3112  0.5759
  156MPD2    C2 2375   0.994   3.511  12.497  1.1969  0.0176 -1.0146
  156MPD2    C3 2376   1.042   3.537  12.624  0.0874  0.0616  0.0108
  156MPD2    C4 2377   1.076   3.432  12.707 -0.7298  0.5313 -0.0640
  156MPD2    C5 2378   1.063   3.301  12.658 -0.2760 -0.4336 -0.3055
  156MPD2     H 2379   0.973   3.589  12.426 -2.9482 -0.5123 -0.3487
  156MPD2    H1 2380   1.123   3.448  12.803  0.0127 -1.5272 -0.0858
  156MPD2    H2 2381   0.985   3.168  12.508  0.3740  0.4320  0.4408
  156MPD2    H3 2382   1.087   3.225  12.731  1.0958  0.8794  0.6117
  156MPD2     N 2383   1.090   3.668  12.648 -0.0427 -0.1914  0.4971
  156MPD2    H5 2384   1.086   3.740  12.577  1.9529  1.9344  2.5725
  156MPD2    N1 2385   0.906   3.335  12.338 -0.1415  0.5523 -0.5994
  156MPD2    H7 2386   0.922   3.239  12.311  0.4311  0.9183 -1.5605
  157TCq2    C1 2387   0.850   3.419  12.247  0.5085  0.2453 -0.5588
  157TCq2    O2 2388   0.795   3.527  12.267 -0.5912 -0.1918  0.0656
  157TCq2    C2 2389   0.875   3.377  12.108  0.7137 -0.0267 -0.4168
  157TCq2    C3 2390   1.000   3.336  12.060  0.3927 -0.6742  0.1899
  157TCq2    C4 2391   1.020   3.329  11.921  0.1085 -0.1235 -0.1614
  157TCq2    C5 2392   0.929   3.373  11.831 -0.6705 -0.8729 -0.4419
  157TCq2    C6 2393   0.810   3.425  11.879 -0.0777  0.0456  0.5486
  157TCq2    C7 2394   0.781   3.430  12.016  0.1025  1.0793  0.2767
  157TCq2    C8 2395   0.720   3.465  11.766  0.3683  0.7329  0.1087
  157TCq2    O4 2396   0.602   3.463  11.781  0.1558 -0.2197  0.2196
  157TCq2    C9 2397   1.144   3.301  11.871 -0.5963 -0.1408  0.3036
  157TCq2    O5 2398   1.244   3.296  11.950  0.6486 -0.1002 -0.3423
  157TCq2    O6 2399   1.153   3.270  11.750  0.1517 -0.0201  0.1212
  157TCq2    H2 2400   1.083   3.313  12.126 -1.0667  0.1958  2.3330
  157TCq2    H3 2401   0.945   3.360  11.724  3.1530 -0.7962  0.1202
  157TCq2    H4 2402   0.692   3.477  12.057 -0.4369 -0.1745  0.5292
  158TMC2    C1 2403   1.114   2.973  13.350 -0.4031  0.4216  0.1631
  158TMC2    C2 2404   1.126   3.048  13.235  0.0886 -0.8935 -0.3089
  158TMC2    C3 2405   1.014   3.066  13.159  0.5691  0.1104  0.2603
  158TMC2    C4 2406   0.991   2.912  13.384 -0.1691  0.2673 -0.2910
  158TMC2    C5 2407   0.888   2.917  13.300  0.3269 -0.2864  0.1377
  158TMC2    C6 2408   0.901   2.998  13.186 -0.1950 -0.3208 -0.4825
  158TMC2     C 2409   1.236   2.934  13.434 -0.3001 -0.3795  0.3581
  158TMC2     O 2410   1.342   2.949  13.367  0.6498  0.1203  0.6450
  158TMC2     H 2411   1.218   3.101  13.217 -0.8856  0.3105 -1.7807
  158TMC2    H1 2412   0.997   2.856  13.476 -0.6157 -1.4963 -1.3311
  158TMC2    H2 2413   0.806   3.022  13.138 -2.3253  0.8553  4.3156
  158TMC2    C7 2414   0.764   2.849  13.318 -0.2390  0.4671 -0.4504
  158TMC2    C8 2415   1.023   3.172  13.066  0.3610  0.2851  0.4696
  158TMC2    O1 2416   0.662   2.875  13.254 -0.0975 -0.0512  0.1646
  158TMC2    O2 2417   1.086   3.275  13.083  0.2722 -0.5369 -0.2523
  158TMC2    O5 2418   0.931   3.146  12.970  0.3140  0.1982  0.2911
  158TMC2    H5 2419   0.906   3.052  12.970 -0.7398  0.4834 -0.2822
  159MPD2     C 2420   1.529   2.844  13.850  0.2343 -0.6764 -0.0890
  159MPD2    C1 2421   1.404   2.881  13.892 -0.0942  0.4997  0.3193
  159MPD2    C2 2422   1.312   2.910  13.797  0.5014  0.1065  0.0050
  159MPD2    C3 2423   1.331   2.899  13.659 -0.0343  0.4117 -0.1041
  159MPD2    C4 2424   1.450   2.842  13.621 -0.3824 -0.0827 -0.1521
  159MPD2    C5 2425   1.550   2.830  13.718  1.0684 -0.0428 -0.3631
  159MPD2     H 2426   1.209   2.940  13.814  0.8647  0.1885  2.0621
  159MPD2    H1 2427   1.475   2.814  13.520 -1.2400 -0.7190 -0.1901
  159MPD2    H2 2428   1.603   2.810  13.922 -0.1088 -0.9365  0.1402
  159MPD2    H3 2429   1.645   2.792  13.683  0.7371 -1.6518  0.4800
  159MPD2     N 2430   1.221   2.917  13.569  0.2046 -0.3116 -0.0108
  159MPD2    H5 2431   1.131   2.932  13.615  0.6437  0.1559  0.7006
  159MPD2    N1 2432   1.374   2.879  14.034 -0.0087  0.0187  0.5748
  159MPD2    H7 2433   1.446   2.845  14.097 -0.5406 -1.1038  0.5777
  160TMC2    C1 2434   1.513   0.672   1.630  0.6370 -0.9387 -0.1599
  160TMC2    C2 2435   1.642   0.675   1.682  1.1394  0.4070 -0.1168
  160TMC2    C3 2436   1.727   0.757   1.610  0.6163 -0.4448 -0.2667
  160TMC2    C4 2437   1.477   0.743   1.522  0.8599  0.1842 -0.0419
  160TMC2    C5 2438   1.570   0.817   1.456 -0.7155 -0.0818 -0.5093
  160TMC2    C6 2439   1.698   0.831   1.499  0.1369 -0.9147 -0.3974
  160TMC2     C 2440   1.418   0.572   1.692  0.2918 -0.0429 -0.0016
  160TMC2     O 2441   1.452   0.505   1.788  0.1363  0.2270 -0.0834
  160TMC2     H 2442   1.682   0.608   1.758 -0.3778  0.1445  0.4397
  160TMC2    H1 2443   1.401   0.708   1.453  1.1176  0.7711 -0.6337
  160TMC2    H2 2444   1.780   0.881   1.449  0.9798  0.8280  2.7571
  160TMC2    C7 2445   1.522   0.891   1.336  0.1124 -0.1395  0.5060
  160TMC2    C8 2446   1.867   0.737   1.618  0.3682 -0.2756  0.1676
  160TMC2    O1 2447   1.402   0.906   1.319 -0.3707 -0.3507 -0.3580
  160TMC2    O2 2448   1.944   0.801   1.688 -0.3005 -0.2200 -0.6313
  160TMC2    O5 2449   1.898   0.662   1.512 -0.2564  0.0087  0.7465
  160TMC2    H5 2450   1.821   0.616   1.473  0.2067 -1.0931  1.1467
  161MPD2     C 2451   1.186   0.415   1.753  0.4124 -0.4127  0.1501
  161MPD2    C1 2452   1.168   0.531   1.680 -0.7451  0.4302  0.3596
  161MPD2    C2 2453   1.048   0.574   1.636 -0.1818 -0.2667  0.2007
  161MPD2    C3 2454   0.941   0.494   1.652  0.7411 -0.2534 -0.1574
  161MPD2    C4 2455   0.956   0.365   1.701 -0.2721  0.1542  0.0361
  161MPD2    C5 2456   1.082   0.330   1.763 -0.5382  0.7658 -0.0304
  161MPD2     H 2457   1.046   0.670   1.585 -1.7619 -0.2339  0.3293
  161MPD2    H1 2458   0.877   0.291   1.703 -0.1353  0.0434  2.0069
  161MPD2    H2 2459   1.278   0.376   1.794 -0.4032 -3.2443 -0.7207
  161MPD2    H3 2460   1.098   0.232   1.806  0.9804  1.7936  1.7177
  161MPD2     N 2461   0.805   0.521   1.606  0.4738  0.3787  0.5201
  161MPD2    H5 2462   0.742   0.441   1.605  2.3986 -1.1335 -0.3440
  161MPD2    N1 2463   1.285   0.603   1.645  0.4409 -0.3750  0.1333
  161MPD2    H7 2464   1.278   0.685   1.586 -0.3524  0.6834  1.6731
  162TMC2    C1 2465   0.267   2.368   1.442 -0.5186 -0.4616 -0.7316
  162TMC2    C2 2466   0.283   2.472   1.536 -0.2654 -0.5779  0.0717
  162TMC2    C3 2467   0.267   2.451   1.665 -0.3469  0.2920  0.3613
  162TMC2    C4 2468   0.264   2.240   1.493  0.0576  0.6019 -0.0904
  162TMC2    C5 2469   0.262   2.223   1.634  0.4001  0.8698 -0.1866
  162TMC2    C6 2470   0.251   2.331   1.719  0.3073  0.4561  0.0062
  162TMC2     C 2471   0.267   2.387   1.301  0.3120  0.8937  0.1134
  162TMC2     O 2472   0.246   2.290   1.231 -0.7665  0.2390 -0.3197
  162TMC2     H 2473   0.293   2.576   1.506  0.5582 -0.4589  0.7674
  162TMC2    H1 2474   0.259   2.154   1.427  0.4047  2.7880 -2.9505
  162TMC2    H2 2475   0.265   2.309   1.824 -2.0600 -0.0063  0.2162
  162TMC2    C7 2476   0.228   2.085   1.678  0.6172 -0.2832  1.0439
  162TMC2    C8 2477   0.278   2.571   1.749 -0.2754  0.8095  0.1563
  162TMC2    O1 2478   0.258   1.987   1.611 -0.5008 -0.4980 -0.3457
  162TMC2    O2 2479   0.312   2.681   1.708 -0.2897  0.2806 -0.1199
  162TMC2    O5 2480   0.189   2.545   1.846  0.1996  0.3557 -0.3498
  162TMC2    H5 2481   0.169   2.450   1.857  1.8504 -0.0837 -1.1486
  163MPD2     C 2482   0.326   2.665   0.876  0.9610  0.0971  0.7241
  163MPD2    C1 2483   0.320   2.530   0.886 -0.6158 -0.2461 -0.0842
  163MPD2    C2 2484   0.300   2.484   1.013  0.1275  0.0634 -0.8296
  163MPD2    C3 2485   0.304   2.564   1.129 -0.2004 -0.0578 -0.7145
  163MPD2    C4 2486   0.311   2.695   1.111  0.1675 -0.3309 -0.3170
  163MPD2    C5 2487   0.326   2.744   0.987 -0.2016  0.8049 -0.2893
  163MPD2     H 2488   0.287   2.376   1.019 -1.2842  0.3297  0.9397
  163MPD2    H1 2489   0.311   2.771   1.188  1.2787  1.1536 -1.7799
  163MPD2    H2 2490   0.325   2.716   0.780  0.7409 -0.8979  0.1989
  163MPD2    H3 2491   0.329   2.852   0.970  0.0815  0.9775  0.8708
  163MPD2     N 2492   0.287   2.516   1.266 -0.1236  0.6730 -0.0866
  163MPD2    H5 2493   0.283   2.585   1.341 -2.5519 -0.7861  1.1090
  163MPD2    N1 2494   0.359   2.457   0.771 -0.4885 -0.8181  0.4045
  163MPD2    H7 2495   0.355   2.516   0.689 -0.0002  3.4298  3.4508
  164TCq2    C1 2496   0.157   2.947  11.221  0.1159 -0.2938 -0.7013
  164TCq2    O2 2497   0.274   2.984  11.239 -0.2263  0.4790 -0.3416
  164TCq2    C2 2498   0.048   3.044  11.197  0.6928  0.6101 -0.6383
  164TCq2    C3 2499   0.067   3.154  11.128  0.1886  0.0344 -0.9248
  164TCq2    C4 2500   4.696   3.239  11.090 -0.4899  0.6668 -0.0918
  164TCq2    C5 2501   4.570   3.207  11.124  0.0907  0.0534  0.3793
  164TCq2    C6 2502   4.545   3.091  11.174  0.2013 -0.0046 -0.7276
  164TCq2    C7 2503   4.643   3.001  11.197 -0.3159 -0.0726  0.5658
  164TCq2    C8 2504   4.411   3.052  11.203 -0.6020  0.4585  0.0727
  164TCq2    O4 2505   4.327   3.111  11.136 -0.7698  0.5761  0.5225
  164TCq2    C9 2506   0.004   3.369  11.047  0.0980  0.1156 -0.7410
  164TCq2    O5 2507   4.654   3.461  11.077 -0.1952  0.2123 -0.6207
  164TCq2    O6 2508   0.104   3.372  10.970  0.3743 -0.0041 -0.1690
  164TCq2    H2 2509   0.167   3.188  11.103  0.1337  0.6596 -0.2898
  164TCq2    H3 2510   4.492   3.280  11.109  0.8945  0.6677 -0.8379
  164TCq2    H4 2511   4.615   2.899  11.223  1.1214 -0.7931 -0.7270
  165MPD2     C 2512   1.863   4.468   1.687 -1.0366 -0.0710  0.1915
  165MPD2    C1 2513   1.744   4.409   1.643 -0.7933  0.1299 -0.3718
  165MPD2    C2 2514   1.635   4.492   1.604  0.2114 -0.8383  0.1454
  165MPD2    C3 2515   1.646   4.623   1.586 -0.2392 -0.4841 -1.0332
  165MPD2    C4 2516   1.767   4.673   1.622  0.4405  0.3362 -0.1594
  165MPD2    C5 2517   1.876   4.600   1.669 -0.1064 -0.0464 -0.0677
  165MPD2     H 2518   1.543   4.441   1.577 -0.5539  0.6741 -0.0755
  165MPD2    H1 2519   1.788   0.049   1.600  0.3275  0.4415  0.2334
  165MPD2    H2 2520   1.948   4.410   1.719 -1.8226 -0.7897  0.9979
  165MPD2    H3 2521   1.972   4.649   1.681 -1.0761  1.2947  2.0719
  165MPD2     N 2522   1.553   4.714   1.542  0.5806 -0.5444 -0.0255
  165MPD2    H5 2523   1.583   0.082   1.532 -0.0997 -0.4191 -0.8373
  165MPD2    N1 2524   1.726   4.265   1.655  0.5838 -0.3404  0.4772
  165MPD2    H7 2525   1.787   4.216   1.721  1.5457 -0.5629 -0.5887
  166TCq2    C1 2526   1.424   4.683   1.505 -0.4067 -0.4068  0.6510
  166TCq2    O2 2527   1.375   4.575   1.521  0.5996 -0.1053 -0.4639
  166TCq2    C2 2528   1.329   0.067   1.473  0.2315 -0.0706  0.2299
  166TCq2    C3 2529   1.191   0.046   1.447 -0.0519 -0.2579 -0.6406
  166TCq2    C4 2530   1.109   0.151   1.437  0.2198  0.3473 -0.3005
  166TCq2    C5 2531   1.149   0.277   1.417 -0.0174  0.6003 -0.4323
  166TCq2    C6 2532   1.285   0.297   1.429 -0.4931 -0.5235  0.1301
  166TCq2    C7 2533   1.373   0.197   1.462 -0.2126 -0.0952  0.3051
  166TCq2    C8 2534   1.341   0.405   1.352  0.1286 -0.5489 -0.2695
  166TCq2    O4 2535   1.459   0.426   1.369  0.5011 -0.2772 -0.1072
  166TCq2    C9 2536   0.967   0.131   1.442 -0.2129  0.0444  0.0974
  166TCq2    O5 2537   0.890   0.159   1.344 -0.3007  0.0320 -0.0723
  166TCq2    O6 2538   0.926   0.065   1.543  0.0756 -0.5106  0.7879
  166TCq2    H2 2539   1.147   4.676   1.461  0.5530 -0.7548 -2.2629
  166TCq2    H3 2540   1.074   0.354   1.425 -0.2381  0.3624 -0.1856
  166TCq2    H4 2541   1.479   0.201   1.482 -0.2631 -1.2082  0.7868
  167TMC2    C1 2542   3.559   2.218  12.615 -0.3891  0.3203  0.1758
  167TMC2    C2 2543   3.509   2.271  12.729  0.1184  0.3318 -0.0255
  167TMC2    C3 2544   3.538   2.202  12.846  0.5993  0.7809  0.4293
  167TMC2    C4 2545   3.645   2.110  12.608  0.5817 -0.3027 -0.7732
  167TMC2    C5 2546   3.668   2.045  12.727 -0.8117  1.2730 -0.4149
  167TMC2    C6 2547   3.613   2.087  12.844 -0.3054  0.7201  1.3507
  167TMC2     C 2548   3.541   2.295  12.500  0.0455  0.2583 -0.9900
  167TMC2     O 2549   3.552   2.417  12.507 -0.3008 -0.0435 -0.0142
  167TMC2     H 2550   3.461   2.368  12.722 -1.4926 -0.4068  0.8757
  167TMC2    H1 2551   3.682   2.073  12.513 -1.7162 -0.9559 -1.4182
  167TMC2    H2 2552   3.621   2.030  12.935  0.5521  2.5367  2.4148
  167TMC2    C7 2553   3.756   1.934  12.730 -0.8386 -0.3821 -1.0866
  167TMC2    C8 2554   3.481   2.243  12.974 -0.1909  0.4248 -0.1681
  167TMC2    O1 2555   3.737   1.864  12.826 -0.4190 -0.4064  0.6443
  167TMC2    O2 2556   3.523   2.195  13.079  0.4125  0.5717 -0.0403
  167TMC2    O5 2557   3.366   2.300  12.953 -0.2522  0.0338  0.1371
  167TMC2    H5 2558   3.340   2.301  12.858 -0.3917 -1.1354  0.1703
  168MPD2     C 2559   3.553   2.365  12.203 -0.4786 -0.1050  0.7605
  168MPD2    C1 2560   3.531   2.243  12.255 -0.7443 -0.1816  0.0179
  168MPD2    C2 2561   3.510   2.134  12.173 -0.4529  0.0591 -0.3736
  168MPD2    C3 2562   3.514   2.146  12.034 -0.4536 -0.5224 -0.1118
  168MPD2    C4 2563   3.558   2.270  11.982 -0.3693 -0.5022  0.3088
  168MPD2    C5 2564   3.571   2.378  12.071  0.3496 -0.6066  0.5127
  168MPD2     H 2565   3.498   2.045  12.233 -1.0266  1.3901  1.5004
  168MPD2    H1 2566   3.579   2.282  11.876 -0.7245  0.4958  0.3553
  168MPD2    H2 2567   3.565   2.447  12.273  1.0935 -0.7121  1.2130
  168MPD2    H3 2568   3.594   2.476  12.033 -0.8051 -1.1946 -1.7373
  168MPD2     N 2569   3.499   2.032  11.950 -0.0676  0.1533  0.0166
  168MPD2    H5 2570   3.530   2.046  11.854  1.4586  1.7584  0.7469
  168MPD2    N1 2571   3.520   2.217  12.391  0.1865 -0.2013 -0.2070
  168MPD2    H7 2572   3.503   2.120  12.415  0.2418 -0.3050 -0.5825
  169MPD1     C 2573   1.469   2.152   8.780 -0.4795  0.1188 -0.0127
  169MPD1    C1 2574   1.393   2.045   8.827 -0.4875 -0.4473 -0.2731
  169MPD1    C2 2575   1.460   1.939   8.873 -0.2399  0.5763 -0.1618
  169MPD1    C3 2576   1.601   1.938   8.881 -0.3280 -0.1561 -0.1869
  169MPD1    C4 2577   1.674   2.048   8.845  0.0578 -0.8005 -0.2688
  169MPD1    C5 2578   1.607   2.152   8.787 -0.1941  0.5621  0.1859
  169MPD1     H 2579   1.396   1.854   8.893 -1.0160  0.9418 -1.1469
  169MPD1    H1 2580   1.782   2.044   8.854  0.1834 -0.0145 -1.3804
  169MPD1    H2 2581   1.437   2.231   8.713  4.2806 -1.3610 -4.1090
  169MPD1    H3 2582   1.661   2.241   8.757  3.5971 -2.3974 -1.6442
  169MPD1     N 2583   1.676   1.839   8.940 -0.0653  0.7449  0.4649
  169MPD1    H5 2584   1.771   1.864   8.964  0.2527  1.1479 -1.2588
  169MPD1    N1 2585   1.254   2.032   8.798 -0.0841 -0.0020 -0.2740
  169MPD1    H6 2586   1.209   2.123   8.794 -1.9535 -0.9945 -1.3625
  169MPD1    H7 2587   1.191   1.974   8.852 -1.2317  1.5199  0.0197
  170MPD1     C 2588   0.096   4.238  12.845  0.4013 -0.9056 -0.9565
  170MPD1    C1 2589   0.194   4.245  12.938  0.1552 -0.0550 -0.2556
  170MPD1    C2 2590   0.167   4.309  13.062 -0.5548  0.5410  0.3924
  170MPD1    C3 2591   0.050   4.377  13.081 -0.0645  0.2972  0.0717
  170MPD1    C4 2592   4.680   4.373  12.984  0.2303  0.1412  0.0791
  170MPD1    C5 2593   4.708   4.304  12.868 -0.1312  0.2258 -0.2284
  170MPD1     H 2594   0.245   4.310  13.137 -0.7247  1.9334  0.5543
  170MPD1    H1 2595   4.586   4.427  12.987  0.3650  0.4984 -2.3662
  170MPD1    H2 2596   0.103   4.179  12.754 -0.9525 -1.2796 -0.8124
  170MPD1    H3 2597   4.630   4.300  12.793 -0.4627 -1.3711  0.1986
  170MPD1     N 2598   0.035   4.444  13.203  0.2092  0.0227  0.0492
  170MPD1    H5 2599   0.106   4.436  13.274 -0.2877  2.6568  0.8626
  170MPD1    N1 2600   0.318   4.178  12.905  0.4048 -0.1971 -0.1853
  170MPD1    H6 2601   0.304   4.082  12.872 -0.9133  0.1707 -0.6908
  170MPD1    H7 2602   0.393   4.174  12.973  0.3228 -0.4403 -0.1064
  171MPD1     C 2603   3.587   1.273  15.429 -0.2616  0.6754 -0.6788
  171MPD1    C1 2604   3.519   1.156  15.393  0.6621 -0.0973 -0.1204
  171MPD1    C2 2605   3.590   1.038  15.399  0.0941  0.3706  0.4782
  171MPD1    C3 2606   3.723   1.033  15.435  0.5819  0.5150 -0.1052
  171MPD1    C4 2607   3.788   1.149  15.466  0.5946 -0.6461 -0.7090
  171MPD1    C5 2608   3.720   1.272  15.463  0.5824  0.1178  0.3092
  171MPD1     H 2609   3.537   0.946  15.377  1.5322 -0.7767  1.8416
  171MPD1    H1 2610   3.889   1.156  15.505 -0.0085 -0.9203  0.9315
  171MPD1    H2 2611   3.538   1.368  15.412  0.1602  0.8404 -0.9725
  171MPD1    H3 2612   3.777   1.361  15.484  2.1397 -0.8293  0.1190
  171MPD1     N 2613   3.793   0.909  15.440 -0.5544 -0.1499  0.1610
  171MPD1    H5 2614   3.885   0.900  15.482 -0.7829 -1.4908  0.3772
  171MPD1    N1 2615   3.375   1.166  15.381 -0.2306  0.0688  0.0888
  171MPD1    H6 2616   3.337   1.256  15.352  0.3550  0.1874 -0.3106
  171MPD1    H7 2617   3.322   1.087  15.344 -2.7204  1.4307  0.7952
  172MPD1     C 2618   2.818   4.513   0.234 -0.1215 -0.0103  1.0174
  172MPD1    C1 2619   2.890   4.524   0.120 -0.6334 -1.3558 -0.3584
  172MPD1    C2 2620   2.981   4.625   0.113 -0.2461 -0.0605 -0.4587
  172MPD1    C3 2621   2.983   4.722   0.210  0.2327  0.1472 -0.0521
  172MPD1    C4 2622   2.910   4.705   0.318 -0.2929  0.1759  0.2627
  172MPD1    C5 2623   2.825   4.606   0.331 -0.1057 -1.0662 -0.4478
  172MPD1     H 2624   3.044   4.632   0.025 -0.1981 -2.3123 -0.5979
  172MPD1    H1 2625   2.918   0.044   0.402 -0.9921 -1.2514  1.4641
  172MPD1    H2 2626   2.745   4.434   0.249 -2.1432  1.6984  0.2783
  172MPD1    H3 2627   2.758   4.611   0.416  2.5038  0.6558  1.4857
  172MPD1     N 2628   3.080   0.097   0.225  0.3403  0.3089 -0.2260
  172MPD1    H5 2629   3.061   0.159   0.303  0.5325  1.5545 -1.1663
  172MPD1    N1 2630   2.891   4.421   0.026  0.0958  0.4920  0.2953
  172MPD1    H6 2631   2.915   4.453  17.647 -0.9772  1.2387  0.2748
  172MPD1    H7 2632   2.801   4.375   0.014 -1.0017  2.8803 -0.4077
  173MPD1     C 2633   3.545   4.615  13.709 -0.2284 -1.0630 -0.2684
  173MPD1    C1 2634   3.606   4.689  13.808  0.9014 -0.1208  1.3201
  173MPD1    C2 2635   3.691   4.626  13.894  0.2395  0.5899 -0.3038
  173MPD1    C3 2636   3.699   4.494  13.904 -0.3889 -0.3618  0.2717
  173MPD1    C4 2637   3.648   4.419  13.799 -0.5536 -0.2298 -0.0183
  173MPD1    C5 2638   3.573   4.481  13.696  0.3179  0.0490 -0.0526
  173MPD1     H 2639   3.746   4.674  13.974 -0.6451  0.1094  0.5850
  173MPD1    H1 2640   3.673   4.314  13.786 -0.1476 -0.2276  0.7456
  173MPD1    H2 2641   3.484   4.671  13.639 -0.7420 -1.0560  0.1823
  173MPD1    H3 2642   3.527   4.420  13.620 -0.6266 -0.7240  1.1348
  173MPD1     N 2643   3.777   4.429  14.001 -0.0896  0.1004 -0.5373
  173MPD1    H5 2644   3.839   4.488  14.055  0.8954 -0.6222 -0.8799
  173MPD1    N1 2645   3.586   0.095  13.819  0.0880 -0.8253  0.0220
  173MPD1    H6 2646   3.616   0.123  13.912  1.5269 -0.3246 -0.5991
  173MPD1    H7 2647   3.486   0.113  13.811 -0.2931 -2.3194  1.4796
  174MPD1     C 2648   4.357   0.159  14.243 -0.4450  0.5190 -0.0480
  174MPD1    C1 2649   4.277   0.113  14.340  0.6325 -0.5811  0.5121
  174MPD1    C2 2650   4.228   4.710  14.332  0.0709 -0.6709 -0.2673
  174MPD1    C3 2651   4.247   4.635  14.216  0.6412  0.3600  0.0534
  174MPD1    C4 2652   4.323   4.689  14.116 -0.1366  0.4717  0.3000
  174MPD1    C5 2653   4.379   0.084  14.130  0.0163  0.7577  0.3654
  174MPD1     H 2654   4.166   4.674  14.414  1.0167 -0.4657  0.5295
  174MPD1    H1 2655   4.340   4.631  14.026 -0.4167 -0.7805  1.0556
  174MPD1    H2 2656   4.413   0.249  14.264 -2.0742  1.5660 -0.1922
  174MPD1    H3 2657   4.448   0.110  14.050  0.6615 -0.8007  0.4129
  174MPD1     N 2658   4.199   4.503  14.205 -0.0620  0.0132 -0.1024
  174MPD1    H5 2659   4.208   4.449  14.119 -2.4561  1.0066 -0.9831
  174MPD1    N1 2660   4.274   0.190  14.458 -0.5130 -0.2567 -0.0179
  174MPD1    H6 2661   4.297   0.289  14.452 -0.0004 -0.2158  2.5096
  174MPD1    H7 2662   4.182   0.175  14.500 -0.4870  0.6893  0.3918
  175MPD1     C 2663   3.537   0.191  15.491 -0.3848  0.5845 -0.0258
  175MPD1    C1 2664   3.412   0.130  15.500  0.2733  0.4116 -0.0032
  175MPD1    C2 2665   3.326   0.150  15.605  0.2451 -0.1578  0.0497
  175MPD1    C3 2666   3.362   0.240  15.707  0.0928 -0.5697 -0.3370
  175MPD1    C4 2667   3.497   0.291  15.709  0.5255  0.5246 -0.2710
  175MPD1    C5 2668   3.573   0.257  15.596  0.1815 -0.6945  0.3408
  175MPD1     H 2669   3.231   0.099  15.612 -0.3662  1.2002  1.6199
  175MPD1    H1 2670   3.543   0.348  15.789  1.1324  2.3010 -1.8952
  175MPD1    H2 2671   3.607   0.185  15.408 -1.2145 -2.5437 -0.4954
  175MPD1    H3 2672   3.674   0.297  15.599 -0.5741  1.2336  0.1071
  175MPD1     N 2673   3.281   0.275  15.816 -0.3722  0.5070 -0.2267
  175MPD1    H5 2674   3.328   0.324  15.891 -1.0505 -0.0411  0.5634
  175MPD1    N1 2675   3.366   0.057  15.387 -0.2019 -0.0071 -0.1394
  175MPD1    H6 2676   3.439   0.010  15.334 -1.1887 -1.0109 -0.6044
  175MPD1    H7 2677   3.297   4.714  15.405  1.1086 -1.0290  0.7962
  176MPD1     C 2678   0.339   3.191  17.620  0.2278  0.2784  0.1807
  176MPD1    C1 2679   0.224   3.181  17.539 -0.1074 -0.1623 -0.6307
  176MPD1    C2 2680   0.164   3.298  17.490 -0.1963  0.0082  1.1631
  176MPD1    C3 2681   0.229   3.419  17.502  0.3868  0.3808 -0.5587
  176MPD1    C4 2682   0.343   3.421  17.576  0.4963 -0.0243 -0.1734
  176MPD1    C5 2683   0.399   3.309  17.631 -0.5161 -0.3436  0.8086
  176MPD1     H 2684   0.069   3.302  17.439  1.6197 -3.2559 -2.5873
  176MPD1    H1 2685   0.401   3.511  17.593 -0.4271  0.0091  2.6379
  176MPD1    H2 2686   0.392   3.101  17.649  0.3061  0.0168 -0.7566
  176MPD1    H3 2687   0.499   3.305  17.672 -1.0443 -1.9649  1.9289
  176MPD1     N 2688   0.160   3.531  17.458 -0.0587  0.0439  0.2402
  176MPD1    H5 2689   0.083   3.524  17.394 -0.3700 -0.5315  0.6841
  176MPD1    N1 2690   0.165   3.055  17.511 -0.4006 -0.8514 -0.0438
  176MPD1    H6 2691   0.100   3.045  17.434 -0.4261 -2.9805  0.2490
  176MPD1    H7 2692   0.236   2.982  17.502 -0.9139 -1.3153 -0.4039
  177MPD1     C 2693   2.922   2.090   9.606 -0.8201  0.9571 -0.6674
  177MPD1    C1 2694   2.848   2.025   9.508  0.4357 -0.5730  0.4711
  177MPD1    C2 2695   2.721   2.072   9.473 -0.0751 -0.1296  0.2756
  177MPD1    C3 2696   2.663   2.183   9.533 -0.3123 -0.4126 -0.1993
  177MPD1    C4 2697   2.732   2.241   9.639 -0.2868 -0.2392 -0.2736
  177MPD1    C5 2698   2.858   2.193   9.674 -0.1657  0.0326  0.6049
  177MPD1     H 2699   2.683   2.038   9.378  0.4287  0.1436 -0.0256
  177MPD1    H1 2700   2.688   2.318   9.701  0.5761 -0.1686  0.2558
  177MPD1    H2 2701   3.010   2.043   9.649 -2.7844 -1.6925  0.4416
  177MPD1    H3 2702   2.908   2.219   9.767 -1.3388  0.7246  1.0481
  177MPD1     N 2703   2.547   2.238   9.475  0.3217  0.1228 -0.2961
  177MPD1    H5 2704   2.515   2.197   9.388 -0.7110 -0.6545  0.4495
  177MPD1    N1 2705   2.910   1.925   9.434  0.1616 -0.2040  0.2674
  177MPD1    H6 2706   2.981   1.882   9.494  0.7215 -1.4615 -1.2928
  177MPD1    H7 2707   2.840   1.858   9.403  0.2167  0.4628 -1.2810
  178MPD1     C 2708   0.391   4.213   0.028 -0.2421 -0.2475  0.6069
  178MPD1    C1 2709   0.528   4.199   0.017  0.3104  0.7461 -0.0226
  178MPD1    C2 2710   0.580   4.080  17.697 -0.2193  0.3277  0.0112
  178MPD1    C3 2711   0.500   3.981  17.642 -0.1353 -0.2324 -0.9158
  178MPD1    C4 2712   0.366   4.004  17.648 -0.3813 -0.3703  0.0609
  178MPD1    C5 2713   0.308   4.115  17.697  0.4274  0.0739 -0.7474
  178MPD1     H 2714   0.686   4.055  17.695 -0.2044  0.3460  0.7495
  178MPD1    H1 2715   0.291   3.927  17.634  0.4967 -1.0975 -0.6011
  178MPD1    H2 2716   0.348   4.308   0.059  0.2564  0.4237 -0.7398
  178MPD1    H3 2717   0.200   4.119  17.692  0.5819  3.0796 -1.5552
  178MPD1     N 2718   0.545   3.851  17.603 -0.6277  0.5891 -0.1610
  178MPD1    H5 2719   0.474   3.785  17.573  0.6556 -0.7217 -0.3092
  178MPD1    N1 2720   0.605   4.316   0.035 -0.5038  0.7597 -0.2943
  178MPD1    H6 2721   0.571   4.381   0.106  1.3199  0.6666  0.6527
  178MPD1    H7 2722   0.701   4.298   0.064 -0.1036 -1.3270 -2.8761
  179MPD1     C 2723   0.150   2.077  16.004 -0.3524 -0.6194 -0.1538
  179MPD1    C1 2724   0.018   2.054  15.979 -0.2762  0.3540 -0.6873
  179MPD1    C2 2725   4.711   1.953  15.901  0.2063  0.5629  0.3482
  179MPD1    C3 2726   0.078   1.860  15.856 -0.0736  0.0828 -0.6557
  179MPD1    C4 2727   0.211   1.880  15.896  0.3756  0.2308  0.1867
  179MPD1    C5 2728   0.250   1.993  15.962  0.9339  0.8624 -0.0273
  179MPD1     H 2729   4.605   1.948  15.880  0.2897  0.6678 -0.0988
  179MPD1    H1 2730   0.284   1.815  15.850  1.7642  0.9629  1.3481
  179MPD1    H2 2731   0.182   2.162  16.063 -0.1019 -1.6117  1.1342
  179MPD1    H3 2732   0.352   2.024  15.979  1.1515 -0.4667  1.1730
  179MPD1     N 2733   0.052   1.750  15.768  0.2534  0.7093 -0.5607
  179MPD1    H5 2734   0.129   1.688  15.747 -0.2385 -0.0407 -0.1396
  179MPD1    N1 2735   4.644   2.145  16.017 -0.4097  0.0561 -0.4191
  179MPD1    H6 2736   4.552   2.101  16.029 -0.6341  0.6404 -0.0057
  179MPD1    H7 2737   4.674   2.188  16.104 -0.7656 -1.3144  0.3936
  180MPD1     C 2738   4.381   3.321  15.260 -0.6473  0.3271  0.5280
  180MPD1    C1 2739   4.481   3.388  15.194  0.3045 -0.0550  0.4042
  180MPD1    C2 2740   4.467   3.423  15.067  0.3601 -0.5784 -0.6705
  180MPD1    C3 2741   4.352   3.374  15.003  0.0711 -0.1723 -0.2541
  180MPD1    C4 2742   4.252   3.311  15.069  0.3233 -0.8139  0.2551
  180MPD1    C5 2743   4.266   3.281  15.198 -0.1683  0.9671 -0.2314
  180MPD1     H 2744   4.536   3.484  15.011 -1.5041  1.4134 -0.7752
  180MPD1    H1 2745   4.157   3.282  15.025 -1.2333  0.3213  2.8990
  180MPD1    H2 2746   4.381   3.305  15.368 -2.5322  1.2879  0.6527
  180MPD1    H3 2747   4.190   3.233  15.257 -0.2001 -0.2312 -1.2233
  180MPD1     N 2748   4.348   3.390  14.865 -0.3501  0.6022 -0.5041
  180MPD1    H5 2749   4.435   3.421  14.822 -0.4154  0.2127 -0.9214
  180MPD1    N1 2750   4.595   3.443  15.254  0.2766 -0.2262 -0.5133
  180MPD1    H6 2751   4.658   3.476  15.182  0.0803 -1.0200 -1.0519
  180MPD1    H7 2752   4.646   3.376  15.310 -2.0356 -0.2824  1.5349
  181MPD1     C 2753   1.660   4.572   8.652  0.3361  0.0309  0.6997
  181MPD1    C1 2754   1.703   4.696   8.691  0.4763 -0.0185  0.3255
  181MPD1    C2 2755   1.755   4.707   8.820 -0.2012  0.5988  0.7191
  181MPD1    C3 2756   1.746   4.601   8.910  0.3479  0.1926 -0.2997
  181MPD1    C4 2757   1.682   4.487   8.877 -0.6868  0.6814  0.6676
  181MPD1    C5 2758   1.636   4.472   8.747  0.3666  0.4346  0.4354
  181MPD1     H 2759   1.805   0.074   8.834 -0.4851  0.7945  0.3978
  181MPD1    H1 2760   1.668   4.406   8.948  0.5681  0.3130  0.4990
  181MPD1    H2 2761   1.634   4.554   8.548 -4.3055  1.3036  1.6138
  181MPD1    H3 2762   1.593   4.376   8.722  1.5032 -0.1844  0.8479
  181MPD1     N 2763   1.791   4.615   9.044 -0.2123 -0.0461  0.0975
  181MPD1    H5 2764   1.775   4.543   9.113 -0.3868  3.4172  3.6354
  181MPD1    N1 2765   1.735   0.066   8.595  0.1772 -0.1604 -0.5870
  181MPD1    H6 2766   1.673   0.087   8.517  0.8265  1.1398 -0.7545
  181MPD1    H7 2767   1.762   0.159   8.625  1.2990 -0.5869 -0.2615
  182MPD1     C 2768   3.775   4.454   0.722  1.0473 -0.0881 -0.4182
  182MPD1    C1 2769   3.749   4.508   0.843  0.2207  0.0378  0.0349
  182MPD1    C2 2770   3.631   4.467   0.898 -0.5191 -1.6249 -0.0493
  182MPD1    C3 2771   3.541   4.373   0.841 -0.5376 -0.2362  0.4355
  182MPD1    C4 2772   3.579   4.308   0.726  0.3045  0.1117 -0.5501
  182MPD1    C5 2773   3.698   4.344   0.671  0.3578 -0.5552  0.0410
  182MPD1     H 2774   3.597   4.517   0.988  0.0801 -0.0911 -0.6784
  182MPD1    H1 2775   3.512   4.239   0.676 -0.4383 -0.0014  0.5960
  182MPD1    H2 2776   3.855   4.492   0.660  1.8773 -0.8474  0.1749
  182MPD1    H3 2777   3.738   4.304   0.579  0.1002  1.0571 -0.7605
  182MPD1     N 2778   3.416   4.348   0.893 -0.1943 -0.5198 -0.2023
  182MPD1    H5 2779   3.352   4.287   0.843  0.3684 -0.2102 -1.2972
  182MPD1    N1 2780   3.820   4.620   0.883  0.4247  0.1944 -0.5300
  182MPD1    H6 2781   3.921   4.620   0.870  0.6113  2.0138  0.9522
  182MPD1    H7 2782   3.811   4.653   0.979 -0.5610  0.2959 -0.6609
  183MPD1     C 2783   2.200   4.509   9.013 -0.8211  0.5368  0.4355
  183MPD1    C1 2784   2.253   4.465   9.133 -0.7490  0.3178 -0.3546
  183MPD1    C2 2785   2.313   4.551   9.219  0.6225  0.8493  0.3164
  183MPD1    C3 2786   2.300   4.687   9.194  0.1823 -0.2304 -0.1489
  183MPD1    C4 2787   2.243   0.004   9.076 -0.6733 -0.4744  0.0668
  183MPD1    C5 2788   2.195   4.644   8.987  0.0160  0.7838 -0.4455
  183MPD1     H 2789   2.356   4.518   9.314  2.9568  0.9269 -0.7080
  183MPD1    H1 2790   2.230   0.109   9.049  2.2940 -0.5614 -1.7280
  183MPD1    H2 2791   2.165   4.434   8.943  1.5427 -0.2666  0.1340
  183MPD1    H3 2792   2.150   4.680   8.895 -0.1153 -1.8379 -1.3990
  183MPD1     N 2793   2.359   0.043   9.293 -0.7661 -0.0054 -0.4473
  183MPD1    H5 2794   2.398   0.007   9.379 -1.1527  0.1526 -0.2046
  183MPD1    N1 2795   2.266   4.326   9.154  0.1725 -0.3323 -0.2406
  183MPD1    H6 2796   2.178   4.280   9.132  0.2829 -1.6849  2.1376
  183MPD1    H7 2797   2.301   4.292   9.243 -0.5629  1.0286  0.5616
  184MPD1     C 2798   2.007   1.917  10.793  0.0614 -0.7872  0.8743
  184MPD1    C1 2799   2.131   1.899  10.720 -0.0386  0.6293  0.3753
  184MPD1    C2 2800   2.131   1.916  10.586  0.0510  0.4255 -0.6275
  184MPD1    C3 2801   2.017   1.927  10.515  0.6627 -0.2479  0.2044
  184MPD1    C4 2802   1.896   1.923  10.581 -0.1685 -0.0597  0.2143
  184MPD1    C5 2803   1.893   1.920  10.718  0.4524 -0.1476  0.8591
  184MPD1     H 2804   2.226   1.921  10.535  0.0905 -1.0853 -0.7189
  184MPD1    H1 2805   1.806   1.936  10.523 -0.2690 -1.8362 -0.0317
  184MPD1    H2 2806   2.004   1.934  10.900 -1.9264 -1.5212  0.9435
  184MPD1    H3 2807   1.798   1.916  10.771 -0.3411 -0.4179 -0.5680
  184MPD1     N 2808   2.005   1.969  10.379 -0.0789  0.1893 -0.7701
  184MPD1    H5 2809   1.910   1.974  10.342 -1.3328  0.2004  2.4945
  184MPD1    N1 2810   2.248   1.860  10.779 -0.0298 -0.4913 -0.4335
  184MPD1    H6 2811   2.324   1.898  10.724  0.2500  2.2624  1.8442
  184MPD1    H7 2812   2.264   1.892  10.875 -0.2406  1.3726 -1.0165
  185MPD1     C 2813   1.429   1.569   9.909 -0.2490  0.3800  0.0888
  185MPD1    C1 2814   1.427   1.706   9.903 -0.1389  0.8223  0.2609
  185MPD1    C2 2815   1.540   1.781   9.909  0.5314  0.3738 -0.4245
  185MPD1    C3 2816   1.659   1.713   9.931  0.8306 -0.2607  0.0962
  185MPD1    C4 2817   1.662   1.578   9.951 -0.3073  0.3518  0.7658
  185MPD1    C5 2818   1.549   1.505   9.933  0.3279 -0.2143 -0.3823
  185MPD1     H 2819   1.532   1.889   9.900 -2.5252  0.0001 -2.2867
  185MPD1    H1 2820   1.757   1.531   9.977  0.1471  0.5520 -0.5226
  185MPD1    H2 2821   1.346   1.503   9.890  1.4753 -2.1773  1.3666
  185MPD1    H3 2822   1.558   1.398   9.949 -3.1272 -0.4600  0.0227
  185MPD1     N 2823   1.779   1.788   9.958 -0.1814  0.2427 -0.1649
  185MPD1    H5 2824   1.858   1.744  10.003  0.9029  1.6582 -0.6614
  185MPD1    N1 2825   1.307   1.774   9.869  0.1923  0.0371  0.1297
  185MPD1    H6 2826   1.317   1.875   9.870  2.6084 -0.2143  0.5756
  185MPD1    H7 2827   1.219   1.746   9.913  0.5968 -3.9093 -1.5588
  186MPD1     C 2828   4.675   2.428  15.849 -0.5750 -0.2008 -0.1552
  186MPD1    C1 2829   0.068   2.387  15.785  0.3940  0.2052  0.4562
  186MPD1    C2 2830   0.183   2.390  15.857  0.2471  0.1119  0.3415
  186MPD1    C3 2831   0.188   2.434  15.985  0.2165 -0.8538 -1.2329
  186MPD1    C4 2832   0.076   2.483  16.041  0.0264  0.0960  0.4447
  186MPD1    C5 2833   4.685   2.481  15.976 -0.6548 -0.3710 -0.4217
  186MPD1     H 2834   0.272   2.355  15.806 -1.8439 -0.6913 -2.7513
  186MPD1    H1 2835   0.090   2.512  16.144 -0.0643  0.7751  0.2693
  186MPD1    H2 2836   4.573   2.419  15.816 -0.3594 -0.3348 -0.7937
  186MPD1    H3 2837   4.597   2.524  16.022  0.4327  0.8682  0.5164
  186MPD1     N 2838   0.307   2.424  16.060  0.0239  0.2638 -0.2200
  186MPD1    H5 2839   0.295   2.440  16.160  3.8090  1.8451 -0.0005
  186MPD1    N1 2840   0.070   2.342  15.653 -0.2881  0.6419 -0.2664
  186MPD1    H6 2841   0.026   2.414  15.598 -0.4133  0.0693 -0.9171
  186MPD1    H7 2842   0.165   2.319  15.623 -0.0756  1.1710  0.0027
  187MPD1     C 2843   4.630   4.424  17.569  0.2882 -0.0242 -0.0920
  187MPD1    C1 2844   4.636   4.335  17.469 -0.2039 -0.3299 -0.3430
  187MPD1    C2 2845   4.518   4.293  17.413 -0.0076 -0.9157  0.2308
  187MPD1    C3 2846   4.397   4.353  17.443 -0.4544 -0.0010 -0.1996
  187MPD1    C4 2847   4.397   4.460  17.537  0.5433 -0.1879 -0.3123
  187MPD1    C5 2848   4.516   4.483  17.600  0.6254  0.6047  0.0544
  187MPD1     H 2849   4.524   4.220  17.333 -0.0725 -1.2889  0.5680
  187MPD1    H1 2850   4.303   4.502  17.569  0.8099 -1.0163  1.5875
  187MPD1    H2 2851   4.722   4.451  17.621  0.1681 -1.3033  0.7928
  187MPD1    H3 2852   4.515   4.553  17.683 -1.5278 -0.1993  0.7093
  187MPD1     N 2853   4.277   4.322  17.372 -0.1948 -0.5468 -0.0903
  187MPD1    H5 2854   4.204   4.393  17.374 -1.3452 -1.7453  0.2492
  187MPD1    N1 2855   0.025   4.262  17.451  0.2845 -0.7471  0.1049
  187MPD1    H6 2856   0.112   4.310  17.472  0.7927 -0.2189 -3.1533
  187MPD1    H7 2857   0.030   4.218  17.359  0.7394  0.5692 -0.5009
  188MPD1     C 2858   2.451   4.120   9.733  0.9353  0.2908 -0.0892
  188MPD1    C1 2859   2.519   4.161   9.620  0.2763  0.1120 -0.1176
  188MPD1    C2 2860   2.633   4.096   9.589  0.0569 -0.2865 -0.0985
  188MPD1    C3 2861   2.668   3.980   9.667 -0.9313 -0.5223 -0.0574
  188MPD1    C4 2862   2.598   3.946   9.777 -0.1230  0.3865  0.0275
  188MPD1    C5 2863   2.493   4.024   9.816  0.0690  0.7858 -0.7894
  188MPD1     H 2864   2.693   4.127   9.504 -1.1604  2.3494  0.0154
  188MPD1    H1 2865   2.619   3.856   9.832  1.9760  0.0611 -1.3079
  188MPD1    H2 2866   2.362   4.171   9.767 -0.4294 -1.8172 -0.4782
  188MPD1    H3 2867   2.424   3.992   9.893 -0.5140  2.2922 -0.6942
  188MPD1     N 2868   2.771   3.890   9.622  0.0596  0.1072 -1.3258
  188MPD1    H5 2869   2.799   3.812   9.680 -1.5549 -0.3903 -1.2123
  188MPD1    N1 2870   2.486   4.286   9.557  0.2339 -0.4473 -0.0333
  188MPD1    H6 2871   2.385   4.285   9.548  0.4168  0.2073 -2.2074
  188MPD1    H7 2872   2.523   4.294   9.462  1.5413  2.2333  0.6935
  189MPD1     C 2873   1.558   3.608   0.582  0.0122 -0.1945  0.4841
  189MPD1    C1 2874   1.434   3.555   0.631 -0.0180  0.2982  0.2110
  189MPD1    C2 2875   1.317   3.632   0.609  0.0507 -0.6672 -0.1586
  189MPD1    C3 2876   1.318   3.749   0.532 -0.2415 -0.0324  0.3519
  189MPD1    C4 2877   1.440   3.798   0.489  0.0839 -0.1758 -0.2836
  189MPD1    C5 2878   1.557   3.723   0.504  0.0202  0.1293  0.2386
  189MPD1     H 2879   1.218   3.597   0.636  0.3253 -0.7226  0.7832
  189MPD1    H1 2880   1.449   3.892   0.435  0.6013  0.3022  0.6374
  189MPD1    H2 2881   1.646   3.555   0.614 -0.4969 -0.8379  0.8241
  189MPD1    H3 2882   1.648   3.760   0.459 -0.5408 -1.0093 -1.8726
  189MPD1     N 2883   1.197   3.814   0.511 -0.2247  0.1656  0.3746
  189MPD1    H5 2884   1.116   3.775   0.559  0.5914  3.9637  4.8613
  189MPD1    N1 2885   1.439   3.434   0.702  0.0812  0.1472 -0.5726
  189MPD1    H6 2886   1.514   3.370   0.678 -0.9687 -0.1785 -2.9600
  189MPD1    H7 2887   1.358   3.379   0.673  1.3381 -1.1042 -1.7025
  190MPD1     C 2888   4.429   3.076  15.546 -0.4202 -0.7311  0.1395
  190MPD1    C1 2889   4.476   3.119  15.669  0.7172  0.1174  0.1545
  190MPD1    C2 2890   4.609   3.145  15.676  0.1505 -0.1302 -0.2588
  190MPD1    C3 2891   4.690   3.136  15.568  0.2871 -0.2250 -0.7442
  190MPD1    C4 2892   4.641   3.110  15.443  0.2767 -0.0477 -0.0317
  190MPD1    C5 2893   4.509   3.086  15.436 -0.0911 -0.3694  0.0077
  190MPD1     H 2894   4.646   3.197  15.764  3.6463 -1.0620 -1.1401
  190MPD1    H1 2895   4.696   3.111  15.349  0.0987 -0.0770 -0.1363
  190MPD1    H2 2896   4.328   3.040  15.528 -1.3596  0.7407  2.4729
  190MPD1    H3 2897   4.459   3.082  15.340 -0.2820 -4.3955  0.2445
  190MPD1     N 2898   0.096   3.155  15.593 -0.1510  0.3556  0.0751
  190MPD1    H5 2899   0.125   3.180  15.687  0.0651  0.0157  0.1002
  190MPD1    N1 2900   4.399   3.092  15.782 -0.0782  0.0025 -0.0660
  190MPD1    H6 2901   4.301   3.112  15.765 -0.6126 -0.2583  2.6099
  190MPD1    H7 2902   4.423   3.151  15.861  1.5908  0.9564 -1.3016
  191MPD1     C 2903   3.690   4.727  12.450 -0.1919 -0.6813  0.1218
  191MPD1    C1 2904   3.818   0.034  12.482 -0.3525  0.5601  0.5135
  191MPD1    C2 2905   3.848   0.167  12.496 -0.1181  0.4880 -0.5463
  191MPD1    C3 2906   3.757   0.266  12.507  0.3608 -0.1718  0.1354
  191MPD1    C4 2907   3.623   0.232  12.480  0.7391 -0.0303 -0.0307
  191MPD1    C5 2908   3.595   0.099  12.460 -0.2361  0.3958 -0.0225
  191MPD1     H 2909   3.953   0.193  12.502  0.0070  0.1686 -1.3911
  191MPD1    H1 2910   3.539   0.300  12.478 -0.5158 -1.5789  0.3154
  191MPD1    H2 2911   3.650   4.627  12.436  0.2134 -0.6899 -1.0294
  191MPD1    H3 2912   3.493   0.072  12.432 -1.2267  1.3476  2.6284
  191MPD1     N 2913   3.787   0.401  12.544 -0.7082  0.3488 -0.6203
  191MPD1    H5 2914   3.885   0.420  12.524 -0.4808 -0.6074 -0.4047
  191MPD1    N1 2915   3.917   4.667  12.466  0.4322 -0.2798 -0.6187
  191MPD1    H6 2916   4.002   4.681  12.521 -0.2877 -4.4659  1.5697
  191MPD1    H7 2917   3.884   4.571  12.479 -0.2223  0.0756  0.2592
  192MPD1     C 2918   3.460   1.365  12.975  0.1406  0.1372  0.5253
  192MPD1    C1 2919   3.438   1.230  13.014 -0.2818  0.2663  0.7708
  192MPD1    C2 2920   3.492   1.130  12.931  0.2020 -0.3422 -1.3261
  192MPD1    C3 2921   3.544   1.158  12.803  0.2674  0.4796 -0.5696
  192MPD1    C4 2922   3.535   1.287  12.757 -0.6249  0.3203 -0.5189
  192MPD1    C5 2923   3.495   1.383  12.845  0.0061  0.1666 -0.5507
  192MPD1     H 2924   3.476   1.026  12.953  0.0755  0.0150  0.2584
  192MPD1    H1 2925   3.586   1.326  12.669  0.8208 -0.9765 -0.2660
  192MPD1    H2 2926   3.429   1.452  13.032  1.5337 -1.2204  3.3319
  192MPD1    H3 2927   3.504   1.488  12.823  1.9331  0.0867 -0.1320
  192MPD1     N 2928   3.599   1.059  12.716 -0.2231 -0.0333  0.8201
  192MPD1    H5 2929   3.619   1.074  12.618  1.3626 -0.7367  1.0383
  192MPD1    N1 2930   3.392   1.195  13.143  0.2139 -0.2863 -0.4643
  192MPD1    H6 2931   3.358   1.100  13.152 -0.1220  0.0339  1.5753
  192MPD1    H7 2932   3.316   1.253  13.179  0.4343  0.2582 -0.8699
  193MPD1     C 2933   3.426   0.129  16.239 -0.5689 -0.7920  1.5246
  193MPD1    C1 2934   3.546   0.143  16.170  0.1607 -0.0417  0.0563
  193MPD1    C2 2935   3.649   0.217  16.231  0.1048 -0.1662  0.0630
  193MPD1    C3 2936   3.642   0.262  16.364 -0.6626 -0.4584  0.0290
  193MPD1    C4 2937   3.519   0.249  16.424 -0.7069 -0.1213  0.1689
  193MPD1    C5 2938   3.419   0.174  16.369  0.9141  0.4636 -0.7020
  193MPD1     H 2939   3.740   0.242  16.178 -0.7939  0.1792 -1.3150
  193MPD1    H1 2940   3.502   0.279  16.527  4.5160  3.1029  0.0901
  193MPD1    H2 2941   3.343   0.073  16.198 -0.3573 -0.0752  0.1094
  193MPD1    H3 2942   3.330   0.167  16.430  1.0164  1.5986 -0.4235
  193MPD1     N 2943   3.756   0.305  16.435  0.0898  0.0857 -0.1199
  193MPD1    H5 2944   3.740   0.344  16.528  0.9466 -1.3646  0.6411
  193MPD1    N1 2945   3.552   0.125  16.031  0.3835 -0.2954  0.4615
  193MPD1    H6 2946   3.515   0.036  16.000 -1.1122  0.5733 -0.2068
  193MPD1    H7 2947   3.650   0.127  16.003  0.7299 -2.2480  1.5119
  194MPD1     C 2948   1.625   2.406  16.410 -0.6397  0.1542 -0.1142
  194MPD1    C1 2949   1.594   2.304  16.319 -0.0926 -0.3354  0.6891
  194MPD1    C2 2950   1.614   2.173  16.352 -0.4660  0.3913 -0.2450
  194MPD1    C3 2951   1.670   2.139  16.474  0.0025  0.5333  0.0214
  194MPD1    C4 2952   1.688   2.239  16.567 -0.0207  0.7175  0.3971
  194MPD1    C5 2953   1.671   2.369  16.533  1.5809  0.1578  0.4924
  194MPD1     H 2954   1.604   2.101  16.271 -1.4045 -0.5192  0.6705
  194MPD1    H1 2955   1.717   2.221  16.670 -0.7572  2.5802  0.9401
  194MPD1    H2 2956   1.632   2.511  16.383 -0.6123 -0.1547 -1.2969
  194MPD1    H3 2957   1.695   2.445  16.607  2.1508 -0.0039  0.4713
  194MPD1     N 2958   1.700   2.009  16.526 -1.2935  0.0444  0.0617
  194MPD1    H5 2959   1.745   1.993  16.616  1.4056 -0.0248 -1.2958
  194MPD1    N1 2960   1.571   2.344  16.186  0.2881 -0.1929  0.0347
  194MPD1    H6 2961   1.530   2.437  16.174 -2.7594 -1.6356 -0.6440
  194MPD1    H7 2962   1.513   2.283  16.129  0.1618  0.0710 -0.1218
  195MPD1     C 2963   3.604   4.659  17.003 -0.3600  0.7737 -0.2767
  195MPD1    C1 2964   3.730   4.621  17.043  0.1407  0.7225  0.4261
  195MPD1    C2 2965   3.748   4.539  17.150  0.5983  0.5685 -0.5844
  195MPD1    C3 2966   3.634   4.469  17.195 -0.1578 -0.0415  0.1018
  195MPD1    C4 2967   3.509   4.506  17.146  0.1736  0.2501  0.0613
  195MPD1    C5 2968   3.499   4.600  17.048  0.2210 -0.9040 -1.0090
  195MPD1     H 2969   3.851   4.521  17.180  0.0897 -0.1208  0.7291
  195MPD1    H1 2970   3.410   4.471  17.172  0.5359 -1.4091 -0.8194
  195MPD1    H2 2971   3.596   0.021  16.945 -1.5791 -1.6129 -3.8435
  195MPD1    H3 2972   3.401   4.628  17.009  0.1309  2.4998  1.5616
  195MPD1     N 2973   3.632   4.377  17.302 -0.5122 -0.2085 -0.0914
  195MPD1    H5 2974   3.552   4.317  17.319  0.5774 -1.7247 -0.3210
  195MPD1    N1 2975   3.836   4.703  17.006 -0.1715 -0.0487  0.8184
  195MPD1    H6 2976   3.826   0.004  16.909  0.0170  1.3930  1.2405
  195MPD1    H7 2977   3.929   4.661  17.013 -0.1417 -0.0002  0.7129
  196MPD1     C 2978   3.098   4.210  17.426 -0.3236 -0.3088  0.4342
  196MPD1    C1 2979   3.168   4.319  17.387  0.1212 -0.0311  0.7204
  196MPD1    C2 2980   3.263   4.381  17.468 -0.2297 -0.9864  0.5868
  196MPD1    C3 2981   3.288   4.328  17.598  0.7199 -0.0009  0.4578
  196MPD1    C4 2982   3.221   4.214  17.638  0.1386 -0.0876 -0.6193
  196MPD1    C5 2983   3.121   4.165  17.556 -0.3996 -0.6184 -0.5234
  196MPD1     H 2984   3.300   4.480  17.442 -0.6894 -0.8263  0.5417
  196MPD1    H1 2985   3.239   4.173   0.022  1.0526  0.0876 -0.7114
  196MPD1    H2 2986   3.017   4.170  17.366 -1.3386  1.0573  0.8719
  196MPD1    H3 2987   3.068   4.080  17.598  0.5033 -0.8372  0.1731
  196MPD1     N 2988   3.387   4.385  17.688 -0.1715 -0.2383  0.1201
  196MPD1    H5 2989   3.387   4.360   0.071  2.6458  0.1226  0.2183
  196MPD1    N1 2990   3.154   4.378  17.267  0.5770 -0.1801 -0.2183
  196MPD1    H6 2991   3.170   4.478  17.262  0.5285 -0.2064 -0.8326
  196MPD1    H7 2992   3.061   4.354  17.232  0.4150 -2.2715  1.6125
  197MPD1     C 2993   2.366   0.361  17.131 -0.1149 -0.7996  0.1588
  197MPD1    C1 2994   2.489   0.407  17.175  0.1098  0.3582 -0.1958
  197MPD1    C2 2995   2.551   0.502  17.097  0.6735  0.2828 -0.5906
  197MPD1    C3 2996   2.493   0.536  16.974  0.7264 -0.2782  0.0392
  197MPD1    C4 2997   2.377   0.480  16.929 -0.1037 -0.5967 -0.0524
  197MPD1    C5 2998   2.314   0.386  17.009  0.2585 -0.1645 -0.6352
  197MPD1     H 2999   2.648   0.542  17.125 -0.0642 -0.2952  2.7456
  197MPD1    H1 3000   2.336   0.509  16.833 -1.4559 -1.5048  0.2621
  197MPD1    H2 3001   2.313   0.304  17.207 -1.6022  1.2739  0.6594
  197MPD1    H3 3002   2.217   0.346  16.981 -0.7675  1.4093  0.6934
  197MPD1     N 3003   2.546   0.627  16.883 -0.1196  0.3348 -0.0491
  197MPD1    H5 3004   2.502   0.637  16.792 -0.8693  1.3802  0.4314
  197MPD1    N1 3005   2.532   0.368  17.306 -0.1634  0.0540 -0.1941
  197MPD1    H6 3006   2.498   0.281  17.346  0.9951 -0.9060 -1.2691
  197MPD1    H7 3007   2.632   0.377  17.326  0.0935  0.3209 -1.6088
  198MPD1     C 3008   4.253   3.888  15.499  0.4549  0.0058 -0.1483
  198MPD1    C1 3009   4.249   3.913  15.630  0.0092 -0.0515 -0.4186
  198MPD1    C2 3010   4.367   3.942  15.695  0.9682  0.2950  0.2258
  198MPD1    C3 3011   4.480   3.935  15.617 -0.2001  0.2494 -0.6173
  198MPD1    C4 3012   4.485   3.891  15.484  0.2369 -0.1806  0.2714
  198MPD1    C5 3013   4.366   3.869  15.423  0.0210 -0.3260  0.0295
  198MPD1     H 3014   4.368   3.967  15.801  2.4152  0.4263  0.1901
  198MPD1    H1 3015   4.572   3.892  15.420 -1.4379 -0.2495 -2.0007
  198MPD1    H2 3016   4.160   3.882  15.445  0.8891 -1.6201 -0.7131
  198MPD1    H3 3017   4.360   3.861  15.315 -2.2329 -1.4828  0.2603
  198MPD1     N 3018   4.601   3.976  15.676 -0.1868 -0.2150  0.1290
  198MPD1    H5 3019   4.605   3.978  15.778  1.3105 -0.5200  0.0833
  198MPD1    N1 3020   4.131   3.940  15.694 -0.0558 -0.3120 -0.0709
  198MPD1    H6 3021   4.060   3.873  15.665  0.0315 -0.6532  0.5022
  198MPD1    H7 3022   4.141   3.917  15.792 -0.9680 -2.0760 -0.3953
  199MPD1     C 3023   1.724   0.894  10.284 -0.0496 -1.0261  0.5102
  199MPD1    C1 3024   1.630   0.815  10.227 -0.7583 -0.3381 -0.1910
  199MPD1    C2 3025   1.656   0.752  10.105 -0.3122  0.9621 -0.4621
  199MPD1    C3 3026   1.783   0.758  10.049  0.2534 -0.0555  0.5675
  199MPD1    C4 3027   1.879   0.840  10.112  0.3581 -0.4913 -0.4235
  199MPD1    C5 3028   1.852   0.910  10.233 -0.9576 -0.8040  0.5828
  199MPD1     H 3029   1.579   0.709  10.042 -2.0764  2.2732  0.8125
  199MPD1    H1 3030   1.973   0.855  10.061  0.4664 -1.0565 -0.3957
  199MPD1    H2 3031   1.708   0.946  10.378 -1.6234 -0.8133  0.1169
  199MPD1    H3 3032   1.918   0.984  10.277 -1.2245  1.2804 -2.5094
  199MPD1     N 3033   1.804   0.706   9.916  0.3104  0.1442 -0.7906
  199MPD1    H5 3034   1.883   0.744   9.866  0.5694  1.6886  0.7808
  199MPD1    N1 3035   1.494   0.842  10.252 -1.6178  0.1197 -0.6724
  199MPD1    H6 3036   1.481   0.880  10.345 -1.4142 -2.9456  0.6033
  199MPD1    H7 3037   1.426   0.767  10.248 -3.3985  1.7537 -0.8711
  200MPD1     C 3038   0.246   0.121  14.542  0.2649  0.1343 -0.4610
  200MPD1    C1 3039   0.361   0.050  14.499  0.1281  0.6202  0.3130
  200MPD1    C2 3040   0.479   0.123  14.482  0.3942 -0.5270 -0.2891
  200MPD1    C3 3041   0.487   0.258  14.513  0.6156  0.4054  0.2133
  200MPD1    C4 3042   0.379   0.327  14.558 -0.7285 -0.0893  0.6749
  200MPD1    C5 3043   0.256   0.257  14.562 -0.2315 -0.0618  0.5998
  200MPD1     H 3044   0.568   0.074  14.444  0.4218 -1.9828  1.6996
  200MPD1    H1 3045   0.383   0.430  14.591 -0.3541 -0.4846  1.8615
  200MPD1    H2 3046   0.161   0.060  14.569  1.0554  0.4880  2.8519
  200MPD1    H3 3047   0.163   0.310  14.580 -2.2314 -3.4915  0.3875
  200MPD1     N 3048   0.601   0.321  14.469  0.2205  0.2208 -0.2668
  200MPD1    H5 3049   0.671   0.266  14.420  1.4529  1.5353 -0.0074
  200MPD1    N1 3050   0.359   4.638  14.502  0.1010  0.2131  0.8296
  200MPD1    H6 3051   0.408   4.583  14.432  1.8060  1.4633  1.0405
  200MPD1    H7 3052   0.262   4.606  14.495  0.9042 -2.3816  1.7420
  201MPD1     C 3053   2.786   4.235  13.256  0.1485  0.5376  0.7010
  201MPD1    C1 3054   2.814   4.111  13.293  0.3433  0.1211  0.5379
  201MPD1    C2 3055   2.942   4.074  13.316  0.0054 -0.0658  0.7863
  201MPD1    C3 3056   3.049   4.157  13.289 -0.2782  0.4088 -0.0853
  201MPD1    C4 3057   3.019   4.291  13.252 -0.3099  0.3738 -0.4207
  201MPD1    C5 3058   2.890   4.326  13.235  0.4258 -0.4589  0.1457
  201MPD1     H 3059   2.954   3.972  13.351  1.2310 -0.4711 -0.8061
  201MPD1    H1 3060   3.094   4.358  13.214  0.9846  0.0452  1.5566
  201MPD1    H2 3061   2.686   4.277  13.263 -0.8332 -1.9844  1.6299
  201MPD1    H3 3062   2.861   4.426  13.207  1.3350 -0.4204 -0.6539
  201MPD1     N 3063   3.180   4.104  13.285 -0.0725 -0.6315  0.0791
  201MPD1    H5 3064   3.180   4.005  13.304 -2.9568 -0.9218 -1.4722
  201MPD1    N1 3065   2.703   4.039  13.337 -0.4172 -0.2090  0.0242
  201MPD1    H6 3066   2.713   3.938  13.341 -0.7945 -0.3104 -1.6447
  201MPD1    H7 3067   2.618   4.065  13.286  0.9117  2.1002 -0.9915
  202MPD1     C 3068   2.039   4.237  10.211  0.3942 -0.1949  0.0331
  202MPD1    C1 3069   2.109   4.133  10.261 -0.2213 -0.0401 -0.6282
  202MPD1    C2 3070   2.241   4.152  10.226  0.4123 -0.1789  0.2451
  202MPD1    C3 3071   2.292   4.218  10.112 -0.0238 -0.5881  1.2738
  202MPD1    C4 3072   2.201   4.298  10.046  0.0052  0.9868 -0.5811
  202MPD1    C5 3073   2.073   4.311  10.099  0.0763 -0.0343 -0.2477
  202MPD1     H 3074   2.315   4.096  10.281  0.2013 -0.7891 -0.0887
  202MPD1    H1 3075   2.228   4.356   9.960  0.3796  0.9534 -0.4851
  202MPD1    H2 3076   1.936   4.252  10.240 -0.2741 -1.1251 -1.8627
  202MPD1    H3 3077   2.007   4.388  10.059  0.8558  1.7254  1.8379
  202MPD1     N 3078   2.430   4.233  10.086  0.2792 -0.1692 -0.3248
  202MPD1    H5 3079   2.461   4.305  10.020  2.6207  0.6856  1.7178
  202MPD1    N1 3080   2.077   4.069  10.382 -0.3051  0.0257 -0.1767
  202MPD1    H6 3081   1.983   4.030  10.378  0.3161 -1.6956  1.5334
  202MPD1    H7 3082   2.139   3.989  10.393  0.6443  0.4190 -2.5885
  203MPD1     C 3083   1.664   0.451  12.496 -1.0639  0.2277 -0.0758
  203MPD1    C1 3084   1.592   0.355  12.433 -0.6063  0.2380  0.1231
  203MPD1    C2 3085   1.625   0.221  12.442 -0.4234  0.1171  0.5824
  203MPD1    C3 3086   1.716   0.182  12.547  0.6272  0.3816  0.1187
  203MPD1    C4 3087   1.780   0.286  12.611 -0.7468  0.4795  0.7811
  203MPD1    C5 3088   1.748   0.414  12.591 -1.2823 -0.1421  0.0482
  203MPD1     H 3089   1.587   0.143  12.377  0.8993  1.2235 -1.5209
  203MPD1    H1 3090   1.859   0.277  12.685 -0.4894 -0.7538  0.3471
  203MPD1    H2 3091   1.654   0.558  12.480  0.0980  0.7634  2.7958
  203MPD1    H3 3092   1.792   0.494  12.650 -1.8170 -0.4192  0.8093
  203MPD1     N 3093   1.767   0.049  12.568  0.1516  0.3088 -0.1137
  203MPD1    H5 3094   1.834   0.033  12.642 -1.1782  0.1651  1.0754
  203MPD1    N1 3095   1.500   0.398  12.328 -0.3686  0.5252  0.6404
  203MPD1    H6 3096   1.456   0.487  12.351  0.6273  1.0450  0.5411
  203MPD1    H7 3097   1.421   0.334  12.327  1.3869 -1.6126 -0.3092
  204MPD1     C 3098   0.586   0.716  17.599 -0.4388 -0.8471 -1.2272
  204MPD1    C1 3099   0.682   0.656  17.681  0.4948  0.1763 -0.0177
  204MPD1    C2 3100   0.789   0.600  17.621 -0.0793  0.6531 -0.0539
  204MPD1    C3 3101   0.777   0.576  17.481 -0.6863 -0.4002 -0.6116
  204MPD1    C4 3102   0.677   0.621  17.398  0.5929 -0.0005 -0.4197
  204MPD1    C5 3103   0.583   0.694  17.464 -0.0391  0.0221  0.6071
  204MPD1     H 3104   0.869   0.554  17.679 -0.2326  1.3507  0.7037
  204MPD1    H1 3105   0.670   0.616  17.290 -1.3708 -2.4699 -0.1810
  204MPD1    H2 3106   0.505   0.771  17.645  0.6303  0.3507 -0.8005
  204MPD1    H3 3107   0.501   0.737  17.408 -0.9937 -2.5588  0.0028
  204MPD1     N 3108   0.880   0.496  17.428  0.6720 -0.1189 -0.3829
  204MPD1    H5 3109   0.953   0.472  17.495 -0.3158  1.3143  1.2306
  204MPD1    N1 3110   0.693   0.668   0.105  0.6640  0.0142  0.3700
  204MPD1    H6 3111   0.602   0.693   0.143  0.9461  2.4344 -0.4951
  204MPD1    H7 3112   0.728   0.583   0.147  1.8689  0.5317  0.3953
  205MPD1     C 3113   2.361   4.543  17.238 -0.0159 -0.2996 -0.2777
  205MPD1    C1 3114   2.386   4.589  17.360 -0.3269  0.5568 -0.1733
  205MPD1    C2 3115   2.285   4.605  17.448 -0.8841 -0.5111  0.5502
  205MPD1    C3 3116   2.156   4.577  17.420  0.4828  0.7575  0.4985
  205MPD1    C4 3117   2.121   4.538  17.290  0.0157  0.3635  0.3833
  205MPD1    C5 3118   2.226   4.526  17.206  0.1639  0.3874  0.4029
  205MPD1     H 3119   2.306   4.636  17.550  0.3173  2.3836 -0.5803
  205MPD1    H1 3120   2.021   4.530  17.248  0.0754 -1.8896  0.7021
  205MPD1    H2 3121   2.442   4.524  17.170 -1.0924 -1.0844 -1.3424
  205MPD1    H3 3122   2.219   4.497  17.102 -2.0223  0.1112  0.6384
  205MPD1     N 3123   2.061   4.590  17.520 -0.4811 -0.6961 -0.1551
  205MPD1    H5 3124   1.963   4.584  17.495 -0.1449 -1.2017 -1.3643
  205MPD1    N1 3125   2.521   4.596  17.402 -1.1431 -0.5648  0.2084
  205MPD1    H6 3126   2.583   4.649  17.340 -2.9390  1.3370  0.0645
  205MPD1    H7 3127   2.535   4.640  17.493 -1.6675 -0.6689  0.3391
  206MPD1     C 3128   2.014   2.705  16.667 -0.0036  0.2347 -0.3183
  206MPD1    C1 3129   2.078   2.609  16.590  0.3802  0.1800  0.2577
  206MPD1    C2 3130   2.041   2.591  16.457  0.0201 -0.3657 -0.3765
  206MPD1    C3 3131   1.941   2.664  16.400 -0.1923  0.0337  0.4685
  206MPD1    C4 3132   1.877   2.756  16.481 -0.0332 -0.6532  0.2530
  206MPD1    C5 3133   1.908   2.765  16.616 -0.0972  0.2342  0.4256
  206MPD1     H 3134   2.105   2.519  16.408  0.2858 -0.0244 -0.5292
  206MPD1    H1 3135   1.789   2.807  16.443  0.2923 -0.8302 -0.7414
  206MPD1    H2 3136   2.043   2.718  16.771 -1.1637  0.2272  0.0127
  206MPD1    H3 3137   1.842   2.827  16.675 -2.1192 -3.0491  1.6009
  206MPD1     N 3138   1.896   2.651  16.267  0.5500  0.6882  0.3276
  206MPD1    H5 3139   1.812   2.703  16.243  0.2248 -0.1429 -0.3255
  206MPD1    N1 3140   2.187   2.533  16.650  0.1391 -0.3093 -0.0487
  206MPD1    H6 3141   2.156   2.509  16.744 -0.4333 -0.5038 -0.2876
  206MPD1    H7 3142   2.205   2.445  16.604  0.7788 -0.6888  0.9234
  207MPD1     C 3143   3.515   0.697   9.616  0.1640  0.6636  0.1623
  207MPD1    C1 3144   3.519   0.576   9.684 -0.2757  0.1807  0.0111
  207MPD1    C2 3145   3.623   0.548   9.775 -0.1415 -0.5757 -0.1639
  207MPD1    C3 3146   3.715   0.646   9.808  0.8867  0.1713 -0.0863
  207MPD1    C4 3147   3.704   0.767   9.743  0.1034 -0.2959  0.1758
  207MPD1    C5 3148   3.607   0.787   9.646 -0.2917 -0.3934 -0.1344
  207MPD1     H 3149   3.630   0.449   9.820  0.3639 -0.1674  0.6600
  207MPD1    H1 3150   3.763   0.856   9.762 -1.4718  0.6018  0.8727
  207MPD1    H2 3151   3.451   0.723   9.533  0.0862 -0.3969 -0.1096
  207MPD1    H3 3152   3.614   0.881   9.593 -1.4798 -0.9130 -1.2234
  207MPD1     N 3153   3.819   0.630   9.895  0.4030  0.2621  0.4259
  207MPD1    H5 3154   3.870   0.717   9.908 -1.2691  1.2632  0.2198
  207MPD1    N1 3155   3.433   0.477   9.637 -0.1829 -0.4384 -0.2631
  207MPD1    H6 3156   3.348   0.505   9.588 -0.9630 -2.1656  0.0721
  207MPD1    H7 3157   3.405   0.408   9.707 -2.4019 -0.2349 -0.9404
  208MPD1     C 3158   2.780   3.072   0.102 -0.7381  0.2056  0.2409
  208MPD1    C1 3159   2.797   3.087   0.239 -0.4559  0.1841  0.1253
  208MPD1    C2 3160   2.751   3.201   0.297  0.2846 -0.5554 -0.0505
  208MPD1    C3 3161   2.668   3.285   0.226  0.6622 -0.2858 -0.1866
  208MPD1    C4 3162   2.639   3.268   0.094 -0.7614 -0.0278  0.1925
  208MPD1    C5 3163   2.698   3.156   0.027  0.4866  0.1149  0.0932
  208MPD1     H 3164   2.778   3.219   0.400  0.7168 -1.4648 -0.0072
  208MPD1    H1 3165   2.567   3.319   0.030 -0.6222 -1.3440 -1.0086
  208MPD1    H2 3166   2.834   2.998   0.044 -1.1709  0.4608 -0.4788
  208MPD1    H3 3167   2.689   3.136  17.636  0.2470 -1.4165  0.3941
  208MPD1     N 3168   2.610   3.389   0.297  0.2329  0.2068 -0.4629
  208MPD1    H5 3169   2.624   3.397   0.397 -2.6488 -1.3118  0.0564
  208MPD1    N1 3170   2.897   3.010   0.292 -0.2665  0.0067 -0.1913
  208MPD1    H6 3171   2.888   2.995   0.393 -1.4647  1.9261 -0.0244
  208MPD1    H7 3172   2.882   2.916   0.256  0.4420 -0.0484 -0.3417
  209MPD1     C 3173   4.311   3.794  10.657  0.2569  0.7659 -0.3610
  209MPD1    C1 3174   4.399   3.867  10.579 -0.0199 -0.0812 -0.1155
  209MPD1    C2 3175   4.413   4.002  10.612  0.2250  0.1553  0.9996
  209MPD1    C3 3176   4.363   4.057  10.725 -0.4098  0.5906 -0.5659
  209MPD1    C4 3177   4.274   3.982  10.797  0.2536 -0.8800 -0.2727
  209MPD1    C5 3178   4.250   3.854  10.763 -0.2237  0.3279 -0.0474
  209MPD1     H 3179   4.474   4.070  10.554 -1.2603  1.3995  0.8976
  209MPD1    H1 3180   4.223   4.037  10.876  0.7677 -0.8530  0.0409
  209MPD1    H2 3181   4.277   3.694  10.636 -2.4802  1.1123  2.4038
  209MPD1    H3 3182   4.182   3.799  10.827  0.1157  0.2259  0.2281
  209MPD1     N 3183   4.388   4.195  10.746 -0.9859  0.1441 -0.4955
  209MPD1    H5 3184   4.437   4.245  10.672 -1.1920 -1.3576 -1.6498
  209MPD1    N1 3185   4.424   3.814  10.449 -0.0222 -0.6999 -0.6552
  209MPD1    H6 3186   4.508   3.858  10.413  0.5079 -0.9997  0.1979
  209MPD1    H7 3187   4.427   3.712  10.451 -2.2183 -0.7533 -0.8250
  210MPD1     C 3188   4.475   0.008  11.585  0.4347 -0.6586  0.1914
  210MPD1    C1 3189   4.542   0.073  11.485 -0.3390  0.5466 -0.7423
  210MPD1    C2 3190   4.537   0.021  11.356 -0.0941 -0.2518  0.2808
  210MPD1    C3 3191   4.446   4.647  11.326 -0.3017  0.3279  0.1940
  210MPD1    C4 3192   4.377   4.587  11.427 -0.4162 -0.4481 -0.5501
  210MPD1    C5 3193   4.399   4.627  11.554  1.0722 -0.1371  0.0124
  210MPD1     H 3194   4.599   0.068  11.281  0.6683  0.0507  1.1001
  210MPD1    H1 3195   4.306   4.507  11.404  1.5647 -1.9638 -1.4037
  210MPD1    H2 3196   4.478   0.037  11.689 -1.2856  0.1802  0.0031
  210MPD1    H3 3197   4.338   4.576  11.628 -0.3324  2.6653  0.7946
  210MPD1     N 3198   4.421   4.603  11.195 -0.0279  0.0064 -1.0418
  210MPD1    H5 3199   4.359   4.524  11.185  1.4676 -1.2035 -0.7776
  210MPD1    N1 3200   4.625   0.182  11.517 -0.8103  0.6924 -0.0975
  210MPD1    H6 3201   4.580   0.242  11.586  0.5446  3.1062 -1.3357
  210MPD1    H7 3202   4.646   0.237  11.435 -2.4161 -1.0619 -1.6899
  211MPD1     C 3203   2.722   4.192  16.710  0.4317  0.2724 -0.6485
  211MPD1    C1 3204   2.656   4.271  16.618  0.3929  1.0253  0.1066
  211MPD1    C2 3205   2.517   4.278  16.618  0.2284 -0.0360  0.0663
  211MPD1    C3 3206   2.442   4.187  16.689  0.4707  0.5667 -0.4723
  211MPD1    C4 3207   2.510   4.094  16.768 -0.2225  0.9356 -0.0094
  211MPD1    C5 3208   2.647   4.108  16.789 -0.1881  0.0635 -0.7249
  211MPD1     H 3209   2.461   4.353  16.563  0.6039  1.5058  1.7845
  211MPD1    H1 3210   2.454   4.015  16.815 -0.8553  1.3520 -0.0688
  211MPD1    H2 3211   2.830   4.188  16.711  0.4724  1.6703  1.1119
  211MPD1    H3 3212   2.703   4.039  16.851 -0.1888 -0.8197 -1.7029
  211MPD1     N 3213   2.306   4.192  16.672  0.5692 -0.1809 -0.2223
  211MPD1    H5 3214   2.269   4.257  16.604 -0.3175 -0.7369 -0.2839
  211MPD1    N1 3215   2.735   4.351  16.538 -0.2540 -0.1957  0.2393
  211MPD1    H6 3216   2.700   4.368  16.444  0.5157  0.4370  0.0654
  211MPD1    H7 3217   2.830   4.319  16.520  0.4368  1.8279  0.2326
  212MPD1     C 3218   1.548   2.899  16.356 -1.0293  0.3847  0.2822
  212MPD1    C1 3219   1.514   2.912  16.491  0.0266  0.4814  0.1389
  212MPD1    C2 3220   1.432   2.817  16.548 -0.0776  0.4237  0.0784
  212MPD1    C3 3221   1.408   2.697  16.480 -0.6740  0.2724  0.1198
  212MPD1    C4 3222   1.459   2.676  16.359 -0.0735  0.5530  0.0448
  212MPD1    C5 3223   1.525   2.779  16.297  0.2615 -0.0231 -0.2390
  212MPD1     H 3224   1.387   2.833  16.645  0.0863  0.1392  0.2030
  212MPD1    H1 3225   1.427   2.589  16.302  1.0196  0.1075  0.1051
  212MPD1    H2 3226   1.596   2.980  16.303 -0.6963  0.2704  0.4081
  212MPD1    H3 3227   1.553   2.774  16.192  2.6900  1.6508  0.3265
  212MPD1     N 3228   1.331   2.586  16.533  0.4040 -0.5164  0.6859
  212MPD1    H5 3229   1.338   2.500  16.481 -1.0960  0.0981 -0.5371
  212MPD1    N1 3230   1.539   3.035  16.560 -0.3385 -0.0926  0.9984
  212MPD1    H6 3231   1.633   3.063  16.535  0.5952 -4.1457  0.0052
  212MPD1    H7 3232   1.541   3.026  16.661 -2.3981  0.6047  1.0966
  213MPD1     C 3233   3.768   4.187  15.689 -0.0089 -0.1235  0.1528
  213MPD1    C1 3234   3.781   4.258  15.573  0.1309 -0.5983 -0.3484
  213MPD1    C2 3235   3.794   4.179  15.460 -0.0606 -0.3775 -0.0899
  213MPD1    C3 3236   3.733   4.055  15.454 -0.4004  0.6550  0.5379
  213MPD1    C4 3237   3.708   3.985  15.576 -0.3156 -0.2159 -0.3947
  213MPD1    C5 3238   3.738   4.056  15.688  0.2039 -0.2492 -0.6087
  213MPD1     H 3239   3.810   4.223  15.363 -1.3292  0.6308  0.1567
  213MPD1    H1 3240   3.671   3.885  15.595 -1.5336  0.2749 -0.1739
  213MPD1    H2 3241   3.801   4.233  15.782 -1.7141  2.6823 -0.6216
  213MPD1    H3 3242   3.723   4.009  15.785  0.9659  0.4097 -0.1713
  213MPD1     N 3243   3.716   3.992  15.330 -0.2612 -0.2452 -0.7460
  213MPD1    H5 3244   3.755   4.041  15.250 -0.0736  1.1956  0.2252
  213MPD1    N1 3245   3.841   4.383  15.582  0.2255  0.1421  0.2926
  213MPD1    H6 3246   3.803   4.447  15.652 -1.0428  0.7502 -0.9357
  213MPD1    H7 3247   3.839   4.434  15.493  3.0285  1.2417  0.8614
  214MPD1     C 3248   3.110   3.199  15.160  0.4866 -0.3349  0.3432
  214MPD1    C1 3249   3.170   3.214  15.034 -0.0413 -0.3423 -0.2209
  214MPD1    C2 3250   3.248   3.332  15.016  0.6144  0.9811 -0.0515
  214MPD1    C3 3251   3.262   3.429  15.116  0.9064 -0.7868 -0.8283
  214MPD1    C4 3252   3.188   3.418  15.233  0.3149 -0.0686 -0.3212
  214MPD1    C5 3253   3.119   3.304  15.252  0.4559  0.1091  0.0760
  214MPD1     H 3254   3.295   3.351  14.920  0.5990 -1.5406 -0.5715
  214MPD1    H1 3255   3.188   3.489  15.314  1.2675  0.5974 -0.8916
  214MPD1    H2 3256   3.048   3.113  15.182 -0.3717  0.2161  0.0801
  214MPD1    H3 3257   3.042   3.294  15.328 -1.5346  0.5555 -1.8877
  214MPD1     N 3258   3.344   3.545  15.099  0.2107 -0.6820  0.0458
  214MPD1    H5 3259   3.345   3.605  15.180  0.6635 -0.7838  0.1178
  214MPD1    N1 3260   3.143   3.117  14.933  0.3529 -0.4169  0.0712
  214MPD1    H6 3261   3.216   3.106  14.863  0.3784 -1.6853  0.2939
  214MPD1    H7 3262   3.094   3.035  14.969 -2.6533  0.4086 -2.2146
  215MPD1     C 3263   3.873   4.257  10.103 -0.3975  0.7326  0.3819
  215MPD1    C1 3264   3.819   4.380  10.112  0.6141 -0.9886  0.7068
  215MPD1    C2 3265   3.851   4.455  10.227 -0.5024  0.2635  0.0792
  215MPD1    C3 3266   3.930   4.404  10.332 -0.0783 -0.3376  0.4372
  215MPD1    C4 3267   3.978   4.274  10.324  0.5198 -0.7016 -0.2203
  215MPD1    C5 3268   3.945   4.201  10.211 -0.4325  0.1624  0.5069
  215MPD1     H 3269   3.819   4.558  10.243  1.1884  0.6024  1.2563
  215MPD1    H1 3270   4.043   4.228  10.397 -0.2088 -0.9039  0.3066
  215MPD1    H2 3271   3.852   4.198  10.014  0.5811  1.5235 -0.3792
  215MPD1    H3 3272   3.986   4.102  10.195 -0.6418  0.1509  0.0639
  215MPD1     N 3273   3.969   4.497  10.433  1.0862 -0.5687  0.0794
  215MPD1    H5 3274   3.949   4.596  10.434  0.3203 -0.7188 -0.0498
  215MPD1    N1 3275   3.775   4.445   9.997 -0.0180  0.2200  0.1349
  215MPD1    H6 3276   3.709   4.521  10.013  0.1097  0.3404  0.0875
  215MPD1    H7 3277   3.734   4.383   9.926  1.4310  0.1499 -0.6336
  216MPD1     C 3278   1.200   1.164  16.198  0.1598  0.4484 -0.3024
  216MPD1    C1 3279   1.095   1.141  16.286 -0.2133 -0.0185  0.3744
  216MPD1    C2 3280   1.120   1.135  16.417  0.5502  0.4110 -0.7238
  216MPD1    C3 3281   1.252   1.137  16.465 -0.2090 -0.1986 -0.6344
  216MPD1    C4 3282   1.360   1.171  16.377  0.2900  0.7002 -0.0936
  216MPD1    C5 3283   1.326   1.185  16.247  0.3687 -0.1459 -0.0375
  216MPD1     H 3284   1.038   1.116  16.485 -0.6303  1.6603 -1.7994
  216MPD1    H1 3285   1.464   1.180  16.406  0.1666 -0.4895  0.7527
  216MPD1    H2 3286   1.178   1.170  16.092  3.0926  0.1866 -0.9306
  216MPD1    H3 3287   1.397   1.212  16.169  1.7677 -3.0340  0.2677
  216MPD1     N 3288   1.265   1.106  16.600  0.2575 -0.2693  0.2542
  216MPD1    H5 3289   1.183   1.120  16.659 -0.4148 -2.5255 -0.1519
  216MPD1    N1 3290   0.957   1.130  16.245 -0.4839  0.5981 -0.3360
  216MPD1    H6 3291   0.894   1.069  16.296  1.0268 -0.5351  0.1649
  216MPD1    H7 3292   0.965   1.111  16.145  0.8259 -0.7602  0.0337
  217MPD1     C 3293   1.785   2.292   8.366  0.2755 -0.7703  0.3856
  217MPD1    C1 3294   1.834   2.244   8.485 -0.2500  0.2687  0.1443
  217MPD1    C2 3295   1.899   2.336   8.570 -0.2493 -0.6586 -0.6009
  217MPD1    C3 3296   1.931   2.460   8.516 -0.1114  0.8067 -0.2610
  217MPD1    C4 3297   1.885   2.502   8.395 -0.2330 -0.2732  0.7969
  217MPD1    C5 3298   1.806   2.422   8.327  0.4020  0.4799  0.3107
  217MPD1     H 3299   1.925   2.290   8.665  2.3663 -1.0674 -1.5216
  217MPD1    H1 3300   1.904   2.602   8.355 -2.5610 -0.3462 -0.4826
  217MPD1    H2 3301   1.719   2.231   8.305 -2.7003  3.0701 -0.2080
  217MPD1    H3 3302   1.761   2.459   8.236  0.9693 -0.3107 -0.2842
  217MPD1     N 3303   2.001   2.552   8.598 -0.3391  0.1764 -0.2497
  217MPD1    H5 3304   1.994   2.646   8.562 -2.3984  1.3046  3.0849
  217MPD1    N1 3305   1.787   2.117   8.531 -0.2155 -0.7239 -0.1115
  217MPD1    H6 3306   1.771   2.051   8.455 -0.5998 -0.3905 -0.3191
  217MPD1    H7 3307   1.851   2.078   8.600 -0.4283  1.6169  1.4145
  218MPD1     C 3308   2.790   3.701  12.351 -0.4574  0.3726  0.0606
  218MPD1    C1 3309   2.752   3.819  12.294 -0.4297  0.0297  1.1261
  218MPD1    C2 3310   2.832   3.925  12.279  0.2273 -0.6277  0.2752
  218MPD1    C3 3311   2.943   3.932  12.362  0.1937  0.4933  0.3529
  218MPD1    C4 3312   2.966   3.823  12.454  0.5326  0.1106  0.2056
  218MPD1    C5 3313   2.891   3.706  12.440  0.4263  0.0231 -0.2828
  218MPD1     H 3314   2.816   4.001  12.203  1.0875  2.2564  2.9834
  218MPD1    H1 3315   3.039   3.835  12.534  2.7181 -0.9864 -1.6452
  218MPD1    H2 3316   2.734   3.609  12.334 -2.1120  1.3263  0.2891
  218MPD1    H3 3317   2.910   3.620  12.502  0.0768 -0.4633 -0.8518
  218MPD1     N 3318   3.024   4.048  12.359 -0.1140 -0.2728 -0.8238
  218MPD1    H5 3319   2.983   4.123  12.303  1.9801  0.6624 -1.0962
  218MPD1    N1 3320   2.637   3.810  12.218  0.0468 -0.2793  0.0045
  218MPD1    H6 3321   2.566   3.748  12.256  0.1763 -0.9335 -0.8258
  218MPD1    H7 3322   2.599   3.902  12.196 -2.5538 -1.4486 -0.4523
  219MPD1     C 3323   3.121   0.277  12.576  0.1939 -0.4335  0.3262
  219MPD1    C1 3324   3.023   0.189  12.538  0.5787  0.2402  0.0267
  219MPD1    C2 3325   3.054   0.058  12.522  0.3948 -0.4495 -0.4386
  219MPD1    C3 3326   3.182   0.009  12.555 -0.2607  1.0335 -0.5380
  219MPD1    C4 3327   3.266   0.091  12.631  0.4284 -0.2850  0.0490
  219MPD1    C5 3328   3.239   0.225  12.631  0.1743 -0.2556 -0.0942
  219MPD1     H 3329   2.986   4.724  12.467  0.7748 -0.6871 -0.6425
  219MPD1    H1 3330   3.356   0.063  12.685  0.5901  1.4227  0.6497
  219MPD1    H2 3331   3.109   0.384  12.585  0.2626 -0.2172 -2.4566
  219MPD1    H3 3332   3.305   0.301  12.672 -3.4586  3.2050 -0.6848
  219MPD1     N 3333   3.228   4.603  12.529 -0.2520 -0.2451 -0.3239
  219MPD1    H5 3334   3.313   4.588  12.582 -0.2693  1.1634  0.1052
  219MPD1    N1 3335   2.924   0.250  12.464  0.7526  0.6858 -0.2691
  219MPD1    H6 3336   2.841   0.191  12.462  1.5249 -0.3752 -0.6709
  219MPD1    H7 3337   2.902   0.340  12.507 -2.8116  0.0044 -0.7093
  220MPD1     C 3338   3.546   1.386   9.673  0.0933  0.2880  0.0572
  220MPD1    C1 3339   3.670   1.326   9.696  0.1703  0.4318  0.1895
  220MPD1    C2 3340   3.660   1.209   9.765 -1.1237 -0.4812  0.3764
  220MPD1    C3 3341   3.548   1.157   9.829  0.0096  0.3932  0.2822
  220MPD1    C4 3342   3.428   1.227   9.818 -0.8946 -0.0104 -0.3851
  220MPD1    C5 3343   3.431   1.344   9.740  0.3157  0.1194  0.1246
  220MPD1     H 3344   3.746   1.142   9.770 -0.5686  0.0918 -1.8847
  220MPD1    H1 3345   3.331   1.191   9.850  0.2708 -2.2458  0.6189
  220MPD1    H2 3346   3.544   1.475   9.612  0.8424  0.8410  0.8339
  220MPD1    H3 3347   3.342   1.395   9.706  1.4100  0.0598 -2.8430
  220MPD1     N 3348   3.557   1.027   9.889  0.1436  0.2323  0.0113
  220MPD1    H5 3349   3.652   0.994   9.905 -0.5672 -2.1411 -0.6126
  220MPD1    N1 3350   3.783   1.362   9.629  0.7559  1.1714 -0.0245
  220MPD1    H6 3351   3.785   1.463   9.616 -3.4201  1.3505  0.8752
  220MPD1    H7 3352   3.863   1.339   9.688 -1.3850  1.0332  2.8387
  221MPD1     C 3353   1.544   3.388  16.636  0.6804 -0.2658 -0.5671
  221MPD1    C1 3354   1.433   3.395  16.553  0.0865 -0.4734  0.4138
  221MPD1    C2 3355   1.384   3.518  16.522  0.0666 -0.0097 -0.3100
  221MPD1    C3 3356   1.444   3.635  16.574 -0.8338 -1.0529 -0.3591
  221MPD1    C4 3357   1.558   3.629  16.644 -0.0531  0.0289 -0.3218
  221MPD1    C5 3358   1.599   3.505  16.675 -0.1615  0.0435  0.2164
  221MPD1     H 3359   1.311   3.523  16.443 -0.8415 -0.0016  0.5282
  221MPD1    H1 3360   1.607   3.722  16.670 -2.6593  1.2561  0.2573
  221MPD1    H2 3361   1.581   3.293  16.671  0.3348  0.0600  0.6579
  221MPD1    H3 3362   1.679   3.498  16.748  1.0587  2.8434 -0.8395
  221MPD1     N 3363   1.403   3.770  16.546 -0.4149  0.0614 -0.0936
  221MPD1    H5 3364   1.450   3.846  16.594 -0.1049 -0.4480  0.4096
  221MPD1    N1 3365   1.379   3.274  16.498 -0.2170 -0.0106 -0.4031
  221MPD1    H6 3366   1.425   3.190  16.532  0.1890 -0.0320 -1.0012
  221MPD1    H7 3367   1.285   3.262  16.535  0.5426 -1.0199  1.1722
  222MPD1     C 3368   1.760   2.523  16.863 -0.2071  0.3210 -0.0082
  222MPD1    C1 3369   1.733   2.398  16.928 -0.1993 -0.4317 -0.6914
  222MPD1    C2 3370   1.616   2.398  16.997  0.0981  0.1570  0.0473
  222MPD1    C3 3371   1.530   2.502  16.987  0.3396  0.1667  0.2544
  222MPD1    C4 3372   1.553   2.621  16.913 -0.3068  0.3108  0.0165
  222MPD1    C5 3373   1.674   2.631  16.857  0.2086 -0.0531  0.0052
  222MPD1     H 3374   1.597   2.317  17.067 -1.2994  0.7616  0.3656
  222MPD1    H1 3375   1.478   2.698  16.899  0.6958  1.0346 -1.4142
  222MPD1    H2 3376   1.858   2.537  16.818 -0.8899  2.9647 -0.7052
  222MPD1    H3 3377   1.696   2.714  16.791  0.8715  0.5437  0.9888
  222MPD1     N 3378   1.406   2.501  17.061 -0.2577  0.6329 -0.2554
  222MPD1    H5 3379   1.351   2.585  17.052  0.3298  0.7694 -2.7172
  222MPD1    N1 3380   1.834   2.307  16.941 -0.0353 -0.5661 -0.1653
  222MPD1    H6 3381   1.801   2.216  16.972 -1.7542 -0.3233 -1.3379
  222MPD1    H7 3382   1.903   2.302  16.866 -0.1297 -2.2773 -0.1532
  223MPD1     C 3383   0.844   1.738  17.387 -0.3472  0.3984  0.3704
  223MPD1    C1 3384   0.974   1.745  17.361  0.0001 -0.5063 -0.3187
  223MPD1    C2 3385   1.019   1.878  17.347 -0.2001  0.4067 -0.2982
  223MPD1    C3 3386   0.952   1.990  17.385 -0.5273 -0.6685  0.8902
  223MPD1    C4 3387   0.821   1.975  17.414  0.3870  0.5697  0.2552
  223MPD1    C5 3388   0.771   1.851  17.422  0.0406 -0.0608 -0.0043
  223MPD1     H 3389   1.116   1.895  17.301 -0.4777 -0.8183 -1.3360
  223MPD1    H1 3390   0.762   2.065  17.427  0.9312  1.2994 -2.2131
  223MPD1    H2 3391   0.793   1.642  17.393  1.4091 -0.4818  1.1982
  223MPD1    H3 3392   0.666   1.839  17.447 -0.3534 -1.3438 -2.2694
  223MPD1     N 3393   1.018   2.116  17.369  0.5973 -0.2795 -0.0547
  223MPD1    H5 3394   1.118   2.109  17.355  0.5547 -0.5388 -0.2242
  223MPD1    N1 3395   1.040   1.639  17.315  0.0319  0.5401  0.4811
  223MPD1    H6 3396   1.003   1.549  17.344 -1.8840  1.2675  0.2568
  223MPD1    H7 3397   1.141   1.635  17.331 -0.3651  0.4829  2.9198
  224MPD1     C 3398   2.458   3.392   8.581  0.3829 -0.0177  0.3094
  224MPD1    C1 3399   2.380   3.506   8.602  0.0913  0.5688  0.5217
  224MPD1    C2 3400   2.393   3.571   8.717  0.0069 -0.0922 -0.9694
  224MPD1    C3 3401   2.483   3.531   8.815 -0.1093  0.1279 -0.2758
  224MPD1    C4 3402   2.568   3.428   8.790  0.1089 -1.2750 -0.2111
  224MPD1    C5 3403   2.550   3.356   8.676 -0.1022  0.8650  0.0933
  224MPD1     H 3404   2.329   3.657   8.736  1.1756  0.3026  1.1114
  224MPD1    H1 3405   2.641   3.397   8.863  0.7754  0.7374 -0.0379
  224MPD1    H2 3406   2.455   3.347   8.483 -0.7861 -0.0560  0.3647
  224MPD1    H3 3407   2.617   3.273   8.654 -0.3318  0.3375  1.4291
  224MPD1     N 3408   2.501   3.607   8.933  0.1868  0.0881  0.9740
  224MPD1    H5 3409   2.588   3.589   8.982  1.1853  0.7539 -0.5435
  224MPD1    N1 3410   2.283   3.545   8.511 -0.2668 -0.4293  0.0984
  224MPD1    H6 3411   2.314   3.535   8.415  0.5366 -2.1849  0.5444
  224MPD1    H7 3412   2.261   3.643   8.528  0.6529 -0.2919  0.4986
  225MPD1     C 3413   3.324   0.721  12.942  0.0093 -0.4400  0.7087
  225MPD1    C1 3414   3.338   0.621  12.848 -0.1034 -0.2280 -0.5288
  225MPD1    C2 3415   3.252   0.622  12.742  0.8852 -0.4949  0.3141
  225MPD1    C3 3416   3.164   0.729  12.726  0.4029 -0.5805 -0.1141
  225MPD1    C4 3417   3.149   0.825  12.821 -0.2488  0.0608  0.3753
  225MPD1    C5 3418   3.227   0.822  12.929 -0.6128 -0.7972 -0.4822
  225MPD1     H 3419   3.264   0.540  12.671  2.7425  0.1430 -0.1016
  225MPD1    H1 3420   3.080   0.908  12.815  0.1754  0.3386 -0.6140
  225MPD1    H2 3421   3.387   0.723  13.031 -1.4512 -0.7453  1.7534
  225MPD1    H3 3422   3.232   0.905  12.998 -3.1520 -0.2644 -0.9369
  225MPD1     N 3423   3.079   0.748  12.610 -0.4896 -0.0243  0.5857
  225MPD1    H5 3424   3.014   0.825  12.618 -2.7455 -1.7769 -1.1280
  225MPD1    N1 3425   3.428   0.510  12.875  0.0837  0.0679 -0.3969
  225MPD1    H6 3426   3.501   0.543  12.937 -0.2303  0.0836 -0.0340
  225MPD1    H7 3427   3.476   0.491  12.787 -1.3020 -3.7474 -0.3331
  226MPD1     C 3428   2.636   1.948   8.914  0.5445 -0.3700 -0.0529
  226MPD1    C1 3429   2.519   1.868   8.904  0.3123  1.0005  0.3115
  226MPD1    C2 3430   2.504   1.777   9.008 -0.1473 -0.7027 -0.6824
  226MPD1    C3 3431   2.599   1.759   9.112 -0.1372  0.3229 -1.0192
  226MPD1    C4 3432   2.699   1.858   9.123 -0.3018 -0.1192 -0.3344
  226MPD1    C5 3433   2.721   1.951   9.022  0.0415 -0.2776  0.7904
  226MPD1     H 3434   2.418   1.711   9.006  0.1813 -1.1201 -0.9298
  226MPD1    H1 3435   2.771   1.860   9.204  1.8333  2.1707 -2.2825
  226MPD1    H2 3436   2.646   2.013   8.827  1.7705 -0.6358 -0.0979
  226MPD1    H3 3437   2.804   2.019   9.009  0.4463 -0.9644 -0.2513
  226MPD1     N 3438   2.585   1.651   9.203 -1.0912  0.7150 -0.5846
  226MPD1    H5 3439   2.507   1.587   9.189  0.0872 -1.4813  2.9282
  226MPD1    N1 3440   2.447   1.864   8.786 -0.0274 -0.5214  0.5014
  226MPD1    H6 3441   2.349   1.849   8.809 -0.0669  0.5357  1.0574
  226MPD1    H7 3442   2.454   1.944   8.723  1.0017 -0.4897  0.6487
  227MPD1     C 3443   2.637   1.394  10.273 -0.2923 -0.2568 -0.6070
  227MPD1    C1 3444   2.515   1.355  10.210  0.9491 -0.2363  0.3623
  227MPD1    C2 3445   2.504   1.357  10.074  0.0233  0.9939  0.0581
  227MPD1    C3 3446   2.616   1.398   9.994 -0.7795 -0.0493 -0.1568
  227MPD1    C4 3447   2.724   1.451  10.064 -0.3345  0.0154 -0.1888
  227MPD1    C5 3448   2.740   1.445  10.198  0.2786  0.3662  0.5176
  227MPD1     H 3449   2.415   1.305  10.042  0.1242  0.8680 -0.0199
  227MPD1    H1 3450   2.807   1.490  10.006 -0.2363 -0.0978 -0.1231
  227MPD1    H2 3451   2.652   1.382  10.380  1.0180 -0.2575 -0.7915
  227MPD1    H3 3452   2.825   1.493  10.246  2.0089  0.0360 -2.2051
  227MPD1     N 3453   2.599   1.394   9.853 -0.1480  0.2530 -0.0517
  227MPD1    H5 3454   2.513   1.349   9.823  0.3472 -1.3298  0.8484
  227MPD1    N1 3455   2.403   1.321  10.288 -0.9779 -0.3037  0.4380
  227MPD1    H6 3456   2.436   1.257  10.360  0.0973  0.0857  0.2926
  227MPD1    H7 3457   2.326   1.286  10.232  1.7231 -2.3126 -2.0286
  228MPD1     C 3458   0.377   3.429  12.589 -0.1670  0.6605 -0.1582
  228MPD1    C1 3459   0.268   3.492  12.524 -0.1650  0.0900 -0.6064
  228MPD1    C2 3460   0.141   3.471  12.572  0.0035  0.0962 -0.0189
  228MPD1    C3 3461   0.122   3.426  12.700 -0.9417  0.1020 -0.4593
  228MPD1    C4 3462   0.229   3.379  12.769  0.2331  0.3280  0.7952
  228MPD1    C5 3463   0.357   3.373  12.712 -0.3045 -0.0335  0.5810
  228MPD1     H 3464   0.051   3.491  12.515 -0.7721 -1.4894  0.6625
  228MPD1    H1 3465   0.223   3.317  12.858  2.1565 -1.4587 -0.3083
  228MPD1    H2 3466   0.482   3.431  12.565 -0.2726 -1.3485 -0.7624
  228MPD1    H3 3467   0.444   3.325  12.754  1.1838  0.8239 -1.5448
  228MPD1     N 3468   4.723   3.394  12.741  0.0306 -0.0216 -0.0989
  228MPD1    H5 3469   4.649   3.436  12.686  0.2509 -1.5473 -1.5802
  228MPD1    N1 3470   0.279   3.534  12.392 -0.2794 -0.2576 -0.3562
  228MPD1    H6 3471   0.374   3.558  12.362  0.0424 -1.5627 -0.3713
  228MPD1    H7 3472   0.203   3.594  12.361 -0.3815 -0.6266 -0.8232
  229MPD1     C 3473   4.294   1.474  14.899 -0.4484 -0.6515 -0.3328
  229MPD1    C1 3474   4.373   1.533  14.801 -0.5263 -0.2756  0.0768
  229MPD1    C2 3475   4.506   1.504  14.804  0.3422  0.5936 -0.4446
  229MPD1    C3 3476   4.559   1.415  14.900  0.0452  0.6624 -0.0153
  229MPD1    C4 3477   4.483   1.366  14.997  0.2409 -0.2973 -0.3660
  229MPD1    C5 3478   4.349   1.394  14.994 -0.0950  0.7716 -0.2193
  229MPD1     H 3479   4.576   1.556  14.740  0.5605  0.2643 -0.4720
  229MPD1    H1 3480   4.528   1.314  15.080 -0.2401 -1.3407 -0.7542
  229MPD1    H2 3481   4.187   1.488  14.904 -0.1480  1.6347 -0.2610
  229MPD1    H3 3482   4.279   1.364  15.071 -0.8071  1.0242 -0.7670
  229MPD1     N 3483   4.694   1.378  14.901  0.3681 -0.5105 -0.0260
  229MPD1    H5 3484   4.722   1.319  14.979 -1.2762  0.1248  1.0587
  229MPD1    N1 3485   4.323   1.631  14.721  0.5205  0.2471  0.3408
  229MPD1    H6 3486   4.223   1.622  14.705  0.4375  1.8993 -0.0511
  229MPD1    H7 3487   4.364   1.637  14.628  0.2231  1.7940  0.3199
  230MPD1     C 3488   0.771   1.536  15.483  0.0080 -0.1665  0.3401
  230MPD1    C1 3489   0.819   1.460  15.383  0.1381  0.1718 -1.0701
  230MPD1    C2 3490   0.741   1.394  15.291  0.0035  0.3656 -0.1062
  230MPD1    C3 3491   0.609   1.428  15.287 -0.0387 -0.3140 -0.3480
  230MPD1    C4 3492   0.559   1.516  15.377  0.9103  0.1397  0.2191
  230MPD1    C5 3493   0.640   1.563  15.479  0.4571 -0.6753  0.2143
  230MPD1     H 3494   0.786   1.327  15.220  1.4289 -0.5235  1.6221
  230MPD1    H1 3495   0.455   1.545  15.371  0.8713 -0.1779 -0.5488
  230MPD1    H2 3496   0.842   1.572  15.557 -1.0083  1.4091  0.5470
  230MPD1    H3 3497   0.600   1.627  15.557  1.2883  1.5265 -1.1628
  230MPD1     N 3498   0.534   1.372  15.185  0.5672 -0.0393  0.2643
  230MPD1    H5 3499   0.590   1.301  15.140 -1.2298 -0.8527 -0.6810
  230MPD1    N1 3500   0.954   1.432  15.375 -0.7817  0.4544 -0.2673
  230MPD1    H6 3501   1.009   1.508  15.415 -0.2451  0.1580 -0.4504
  230MPD1    H7 3502   0.980   1.433  15.277  1.2056 -0.1939  0.2598
  231MPD1     C 3503   2.632   3.344  15.376 -0.2522  0.6590  0.2110
  231MPD1    C1 3504   2.638   3.271  15.264 -0.6533  0.8015  0.0888
  231MPD1    C2 3505   2.713   3.319  15.158 -0.7478  0.6616 -0.4636
  231MPD1    C3 3506   2.773   3.443  15.154 -0.6529 -0.3833  0.3687
  231MPD1    C4 3507   2.763   3.516  15.268  0.1848 -0.6861  0.3053
  231MPD1    C5 3508   2.693   3.464  15.378 -0.8758  0.1455 -0.3615
  231MPD1     H 3509   2.741   3.253  15.076  2.2268  2.1301 -0.5959
  231MPD1    H1 3510   2.802   3.615  15.289  0.6775 -0.5683 -1.2034
  231MPD1    H2 3511   2.575   3.315  15.464  0.1056  1.0776  0.5772
  231MPD1    H3 3512   2.697   3.519  15.471 -0.1361 -0.8820  0.2125
  231MPD1     N 3513   2.860   3.476  15.043 -0.0990  0.6429  0.4402
  231MPD1    H5 3514   2.868   3.399  14.976 -1.3702  0.0311  0.9855
  231MPD1    N1 3515   2.580   3.140  15.265  0.1269  0.5359  0.0937
  231MPD1    H6 3516   2.496   3.139  15.322  0.2473  1.6274  0.2822
  231MPD1    H7 3517   2.558   3.121  15.167  0.8265  2.6735 -0.4657
  232MPD1     C 3518   0.569   0.986  17.259 -0.3812  0.1139  0.1037
  232MPD1    C1 3519   0.577   1.022  17.396  0.1834  0.4258  0.1167
  232MPD1    C2 3520   0.465   1.049  17.462  0.3070 -0.0656  0.6039
  232MPD1    C3 3521   0.344   1.024  17.402  0.0080 -0.1204  0.1406
  232MPD1    C4 3522   0.336   0.977  17.273 -0.4263  0.3328 -0.1894
  232MPD1    C5 3523   0.448   0.964  17.201 -0.3872 -0.0798  0.7206
  232MPD1     H 3524   0.475   1.074  17.567 -1.4084  1.4749  0.3944
  232MPD1    H1 3525   0.249   0.949  17.216  0.0994 -0.1830 -0.7427
  232MPD1    H2 3526   0.656   0.964  17.197 -0.1390  2.4503 -0.3824
  232MPD1    H3 3527   0.433   0.937  17.097  0.5967  2.8001 -0.1676
  232MPD1     N 3528   0.227   1.033  17.479  0.7912  0.0875 -0.0573
  232MPD1    H5 3529   0.240   1.062  17.575  2.3840  1.6716 -0.7519
  232MPD1    N1 3530   0.700   1.064  17.447 -0.5183  0.5756  0.7653
  232MPD1    H6 3531   0.695   1.077  17.548  0.6805  1.9936  0.6340
  232MPD1    H7 3532   0.774   0.995  17.434  0.4744  2.1056 -1.4769
  233MPD1     C 3533   2.505   0.313   2.343  0.5574 -0.3697 -0.0918
  233MPD1    C1 3534   2.636   0.344   2.361 -0.2720  0.2101  0.4419
  233MPD1    C2 3535   2.738   0.285   2.291 -0.2476 -0.0824  0.0647
  233MPD1    C3 3536   2.707   0.211   2.179  0.1461  0.7195  0.3574
  233MPD1    C4 3537   2.569   0.192   2.152 -0.4152  0.1123 -0.8932
  233MPD1    C5 3538   2.471   0.234   2.236 -0.2065  0.1481 -0.1996
  233MPD1     H 3539   2.840   0.301   2.324 -0.3301  0.9692 -0.1935
  233MPD1    H1 3540   2.540   0.143   2.060 -0.6439 -2.0884  0.3568
  233MPD1    H2 3541   2.433   0.360   2.409  1.0050 -0.2828  0.3387
  233MPD1    H3 3542   2.372   0.211   2.196 -0.8694  0.7266  1.1361
  233MPD1     N 3543   2.796   0.142   2.097 -0.2081  0.3513 -0.0144
  233MPD1    H5 3544   2.753   0.077   2.032 -0.5463 -0.6662  1.2280
  233MPD1    N1 3545   2.673   0.433   2.469  0.0165 -0.2492  0.2574
  233MPD1    H6 3546   2.765   0.477   2.455  0.1965 -0.2592  1.4435
  233MPD1    H7 3547   2.604   0.506   2.486  0.4570  0.6371 -1.6715
  234MPD1     C 3548   2.486   2.172  10.123  0.7728 -0.7978  0.0517
  234MPD1    C1 3549   2.486   2.158   9.984  0.2662 -0.1196  0.2158
  234MPD1    C2 3550   2.514   2.269   9.910  0.2349 -0.3903  0.2499
  234MPD1    C3 3551   2.556   2.388   9.970 -0.2296  0.2181  0.3784
  234MPD1    C4 3552   2.569   2.393  10.109  0.3600  0.0665  0.0457
  234MPD1    C5 3553   2.533   2.284  10.183  0.0173  0.0368  0.5513
  234MPD1     H 3554   2.487   2.266   9.805  1.1338  1.6656 -0.0297
  234MPD1    H1 3555   2.610   2.480  10.159 -1.9961  0.3729  1.4147
  234MPD1    H2 3556   2.461   2.085  10.183  2.8248 -2.4750 -1.4893
  234MPD1    H3 3557   2.519   2.287  10.291 -0.6284 -2.0275  0.5404
  234MPD1     N 3558   2.583   2.491   9.890 -0.9154  0.6859 -0.3768
  234MPD1    H5 3559   2.565   2.468   9.793  0.0659 -0.0678 -0.3771
  234MPD1    N1 3560   2.428   2.056   9.918 -0.4668 -1.2984 -0.8051
  234MPD1    H6 3561   2.443   1.965   9.962  0.5948 -1.1058 -0.7628
  234MPD1    H7 3562   2.474   2.048   9.828 -0.2419 -0.0688 -0.7938
  235MPD1     C 3563   2.870   0.984  10.083  0.0144  0.4543  0.1404
  235MPD1    C1 3564   2.994   0.926  10.081  0.0783  0.4564 -0.4998
  235MPD1    C2 3565   3.107   1.002  10.083 -0.0516  0.1500 -0.5228
  235MPD1    C3 3566   3.094   1.142  10.087 -0.0016  0.6114  0.2842
  235MPD1    C4 3567   2.971   1.198  10.106  0.6091 -0.0707  0.5673
  235MPD1    C5 3568   2.857   1.123  10.092  0.4251 -0.7598 -0.1128
  235MPD1     H 3569   3.203   0.954  10.071 -0.4919 -0.9263  0.3752
  235MPD1    H1 3570   2.959   1.304  10.122  2.4340  0.4993 -1.9256
  235MPD1    H2 3571   2.783   0.920  10.087  0.3389 -0.1384 -1.9298
  235MPD1    H3 3572   2.761   1.169  10.114  0.4895 -1.4361  1.6647
  235MPD1     N 3573   3.215   1.224  10.082  0.0131 -0.8310 -0.7219
  235MPD1    H5 3574   3.303   1.174  10.076  1.3762  1.6159 -1.1248
  235MPD1    N1 3575   3.011   0.793  10.039 -0.0558  0.1632 -0.1829
  235MPD1    H6 3576   2.926   0.738  10.052 -0.4626  1.1668  1.4684
  235MPD1    H7 3577   3.092   0.741  10.072 -1.4430 -0.5700  2.0805
  236MPD1     C 3578   2.929   2.362  10.028  0.6163 -0.5151 -0.3023
  236MPD1    C1 3579   2.937   2.240  10.089 -0.3171  0.0124 -0.0605
  236MPD1    C2 3580   3.056   2.204  10.153 -0.0731  0.3155 -0.5206
  236MPD1    C3 3581   3.157   2.294  10.163  0.1485 -0.3340  0.0715
  236MPD1    C4 3582   3.148   2.415  10.094 -0.0903 -0.4008  0.4084
  236MPD1    C5 3583   3.033   2.455  10.034 -0.6304  0.0722  0.2156
  236MPD1     H 3584   3.062   2.105  10.196 -1.9964 -0.3780 -1.8618
  236MPD1    H1 3585   3.235   2.479  10.096 -1.6344  1.6983  0.3166
  236MPD1    H2 3586   2.836   2.393   9.981  0.2192  2.1640  2.2389
  236MPD1    H3 3587   3.025   2.553   9.988  1.2003 -0.6224 -1.5824
  236MPD1     N 3588   3.272   2.275  10.237  0.9091  0.1061 -0.4808
  236MPD1    H5 3589   3.349   2.339  10.223  1.2646 -0.2286 -0.0040
  236MPD1    N1 3590   2.840   2.144  10.065  0.1605  0.7773  0.3388
  236MPD1    H6 3591   2.745   2.180  10.072  0.0415  0.3537  0.8753
  236MPD1    H7 3592   2.848   2.064  10.127 -0.3713 -0.1617 -0.8012
  237MPD1     C 3593   3.821   4.720  14.462 -0.1221 -0.4572  0.5384
  237MPD1    C1 3594   3.723   4.634  14.415 -0.0510  0.2634  0.0526
  237MPD1    C2 3595   3.600   4.646  14.473  0.2008 -0.2482 -0.3220
  237MPD1    C3 3596   3.572   0.024  14.552 -0.1678 -0.2685 -0.1863
  237MPD1    C4 3597   3.675   0.105  14.597  0.2653  0.5630 -0.0920
  237MPD1    C5 3598   3.805   0.087  14.556  0.3447  0.0993 -0.3972
  237MPD1     H 3599   3.519   4.582  14.441  0.2400 -0.5345  0.1489
  237MPD1    H1 3600   3.662   0.188  14.664  0.7880 -1.6715  2.7714
  237MPD1    H2 3601   3.920   4.724  14.417 -0.8713  0.4973 -1.0211
  237MPD1    H3 3602   3.869   0.174  14.566  1.0354 -0.3454 -1.0361
  237MPD1     N 3603   3.450   0.045  14.610 -0.2466  0.2465 -0.0113
  237MPD1    H5 3604   3.458   0.110  14.688 -1.8857 -0.2570  0.5711
  237MPD1    N1 3605   3.751   4.537  14.324 -0.0291 -0.3885 -0.1087
  237MPD1    H6 3606   3.836   4.552  14.270 -1.4350 -0.1145 -2.2437
  237MPD1    H7 3607   3.670   4.502  14.273  0.6257  0.4750 -1.7247
  238MPD1     C 3608   0.242   3.756  15.537  0.6022 -0.2587 -0.6982
  238MPD1    C1 3609   0.291   3.809  15.419  0.0844 -0.8899  0.5820
  238MPD1    C2 3610   0.210   3.814  15.307 -0.3368 -0.0407  0.6298
  238MPD1    C3 3611   0.078   3.765  15.311  0.4008 -0.1857 -0.5508
  238MPD1    C4 3612   0.029   3.710  15.427 -0.2785 -1.0420  0.4747
  238MPD1    C5 3613   0.109   3.704  15.538 -0.7930 -0.2792  0.0604
  238MPD1     H 3614   0.239   3.888  15.233 -0.9774  0.4490  0.8645
  238MPD1    H1 3615   4.656   3.674  15.436 -1.2724  0.6456 -3.7053
  238MPD1    H2 3616   0.303   3.736  15.625 -1.7572 -0.0653  0.9661
  238MPD1    H3 3617   0.083   3.659  15.634 -0.6425 -1.2622 -0.3604
  238MPD1     N 3618   4.714   3.772  15.200  0.3874  0.1262 -0.3815
  238MPD1    H5 3619   4.624   3.727  15.205  0.7126 -0.1310  3.7251
  238MPD1    N1 3620   0.406   3.886  15.424 -0.3149 -0.5410 -0.1899
  238MPD1    H6 3621   0.455   3.898  15.336  1.5701  1.6465  1.1774
  238MPD1    H7 3622   0.480   3.855  15.487  1.0067  1.3743 -0.7870
  239MPD1     C 3623   0.522   4.310  14.415 -0.4628  0.6121  0.3422
  239MPD1    C1 3624   0.624   4.387  14.371  0.0152  0.1293 -0.2993
  239MPD1    C2 3625   0.595   4.472  14.272  0.7085 -0.4629 -0.1898
  239MPD1    C3 3626   0.466   4.496  14.224  0.2675  0.6333 -0.2943
  239MPD1    C4 3627   0.368   4.413  14.268 -0.1908  0.0067 -0.5060
  239MPD1    C5 3628   0.396   4.320  14.360 -0.4394 -0.7154  0.5450
  239MPD1     H 3629   0.679   4.523  14.227  1.2312 -1.6405 -0.5533
  239MPD1    H1 3630   0.268   4.409  14.227 -0.2254  0.9765 -0.5185
  239MPD1    H2 3631   0.535   4.227  14.484 -1.4836 -0.5081 -0.7966
  239MPD1    H3 3632   0.318   4.247  14.380 -0.6624 -0.7909 -0.5847
  239MPD1     N 3633   0.432   4.589  14.123 -0.1936  0.0665  0.2509
  239MPD1    H5 3634   0.338   4.599  14.088  0.5136 -0.8546 -1.8696
  239MPD1    N1 3635   0.756   4.351  14.397  0.5540 -0.6419 -0.9641
  239MPD1    H6 3636   0.758   4.319  14.494 -1.9232  1.1867 -0.3077
  239MPD1    H7 3637   0.826   4.424  14.381 -1.2194  1.7113  1.9600
  240MPD1     C 3638   4.402   4.708  13.577 -0.1424 -0.2260  0.2355
  240MPD1    C1 3639   4.325   4.594  13.564 -0.1163 -0.2789 -0.1220
  240MPD1    C2 3640   4.339   4.492  13.652 -0.8524 -0.0605  0.2851
  240MPD1    C3 3641   4.435   4.517  13.755  0.7210  0.0219 -0.8991
  240MPD1    C4 3642   4.505   4.640  13.772  0.1790  0.2454 -0.9268
  240MPD1    C5 3643   4.489   0.007  13.673 -0.1271  0.0069 -0.0642
  240MPD1     H 3644   4.285   4.399  13.640 -0.7033  0.0675 -1.4043
  240MPD1    H1 3645   4.582   4.658  13.847 -1.2606  0.6246  0.4418
  240MPD1    H2 3646   4.384   0.064  13.512 -0.4132 -0.2734  0.2469
  240MPD1    H3 3647   4.519   0.111  13.676 -1.3845  0.3188  2.1945
  240MPD1     N 3648   4.465   4.408  13.839  0.7799  0.4351 -0.6376
  240MPD1    H5 3649   4.410   4.323  13.828 -0.3517  0.7965  2.0301
  240MPD1    N1 3650   4.248   4.574  13.452 -0.5733  0.3283 -0.1055
  240MPD1    H6 3651   4.232   4.661  13.401 -1.0502  0.7167  0.7079
  240MPD1    H7 3652   4.162   4.521  13.466 -0.6916  0.2703 -1.0748
  241MPD1     C 3653   0.036   4.139  14.842 -0.0188 -0.2204  0.4488
  241MPD1    C1 3654   0.121   4.158  14.739  0.5529 -0.3476 -0.0424
  241MPD1    C2 3655   0.070   4.175  14.611  0.4343 -0.0302 -0.4583
  241MPD1    C3 3656   4.663   4.170  14.589  0.1900  0.5272 -0.5824
  241MPD1    C4 3657   4.578   4.150  14.694  0.1088  0.4733 -0.2929
  241MPD1    C5 3658   4.630   4.139  14.823 -0.1743 -0.0583 -0.3382
  241MPD1     H 3659   0.146   4.193  14.536  1.6246 -1.6413  0.3801
  241MPD1    H1 3660   4.471   4.138  14.685 -0.3358  1.8244  3.5281
  241MPD1    H2 3661   0.066   4.145  14.946  0.6381 -1.0418  0.3000
  241MPD1    H3 3662   4.562   4.130  14.907 -0.7429 -1.1361 -0.9070
  241MPD1     N 3663   4.614   4.176  14.461 -0.2102  0.1846 -0.4858
  241MPD1    H5 3664   4.513   4.174  14.452 -0.1807 -0.2682 -0.6937
  241MPD1    N1 3665   0.260   4.180  14.765  0.5393  0.0248 -0.3661
  241MPD1    H6 3666   0.277   4.128  14.851 -0.0839  0.1048 -0.1912
  241MPD1    H7 3667   0.312   4.138  14.689 -0.1822 -1.4998 -0.0164
  242MPD1     C 3668   4.160   2.393  16.001 -0.0422 -0.9416  0.6471
  242MPD1    C1 3669   4.061   2.329  15.931 -0.1014 -0.3091  0.0067
  242MPD1    C2 3670   4.095   2.249  15.832 -0.4299 -1.0987  0.4120
  242MPD1    C3 3671   4.230   2.223  15.800 -0.4352 -0.3267  0.0084
  242MPD1    C4 3672   4.323   2.285  15.876  0.7090  0.0076 -0.2681
  242MPD1    C5 3673   4.289   2.372  15.978 -0.5918 -0.0716  0.2683
  242MPD1     H 3674   4.016   2.202  15.774 -1.8483 -1.9151  3.0179
  242MPD1    H1 3675   4.430   2.272  15.864  0.3216 -2.3484 -1.1955
  242MPD1    H2 3676   4.126   2.472  16.067  0.0952  0.2695 -0.7318
  242MPD1    H3 3677   4.356   2.435  16.035  0.2173 -1.4105  0.8007
  242MPD1     N 3678   4.277   2.155  15.683 -0.2458 -0.6820 -0.1502
  242MPD1    H5 3679   4.376   2.169  15.662 -0.1459  0.9425  1.5058
  242MPD1    N1 3680   3.931   2.367  15.956  0.9079 -0.3054  0.5226
  242MPD1    H6 3681   3.862   2.299  15.924 -0.3768  1.7757 -1.1651
  242MPD1    H7 3682   3.911   2.381  16.055  1.9791 -1.4946  0.9151
  243MPD1     C 3683   2.077   0.383  16.685 -0.1576 -1.0745  0.0713
  243MPD1    C1 3684   1.972   0.434  16.754  0.1017 -0.4652  0.0862
  243MPD1    C2 3685   1.878   0.507  16.682 -0.4432  0.0123  0.4383
  243MPD1    C3 3686   1.870   0.506  16.542 -0.8009  0.4001 -0.1277
  243MPD1    C4 3687   1.972   0.439  16.474 -0.4342  0.0366  1.1876
  243MPD1    C5 3688   2.077   0.387  16.546 -0.0962 -0.5059 -0.8470
  243MPD1     H 3689   1.791   0.552  16.729 -0.4928  0.6978 -0.3052
  243MPD1    H1 3690   1.975   0.433  16.366 -0.9360 -3.2320  1.3423
  243MPD1    H2 3691   2.149   0.322  16.737 -0.5551  0.4377  2.4117
  243MPD1    H3 3692   2.139   0.318  16.489 -0.2082 -0.2359 -1.2991
  243MPD1     N 3693   1.761   0.565  16.478  0.0269 -0.2837  0.4184
  243MPD1    H5 3694   1.692   0.607  16.540  0.1714  2.4920 -1.3161
  243MPD1    N1 3695   1.975   0.423  16.895  0.0806 -0.5167 -0.3891
  243MPD1    H6 3696   1.880   0.431  16.929  1.1446  0.5465  2.4025
  243MPD1    H7 3697   2.007   0.331  16.927 -1.8899 -2.1984 -3.3017
  244MPD1     C 3698   0.811   0.823  16.560 -0.2508  0.3673  0.1521
  244MPD1    C1 3699   0.835   0.838  16.426  0.1073  0.2240 -0.3272
  244MPD1    C2 3700   0.962   0.820  16.380 -0.5846  0.2421  0.3688
  244MPD1    C3 3701   1.069   0.790  16.461  0.0445  0.5865  0.4007
  244MPD1    C4 3702   1.044   0.777  16.592 -0.6630 -0.6558 -0.8663
  244MPD1    C5 3703   0.915   0.781  16.638  0.2357  0.0040 -0.0474
  244MPD1     H 3704   0.973   0.833  16.273 -0.7356 -0.4805  0.2645
  244MPD1    H1 3705   1.130   0.748  16.651 -1.3351 -0.1835  0.3486
  244MPD1    H2 3706   0.713   0.836  16.606 -0.0192 -1.1639  1.1010
  244MPD1    H3 3707   0.910   0.750  16.742  0.3175  4.2509  1.2315
  244MPD1     N 3708   1.198   0.786  16.406 -0.1312 -0.5902 -0.0722
  244MPD1    H5 3709   1.201   0.792  16.305 -0.7191  1.7977  0.0592
  244MPD1    N1 3710   0.737   0.891  16.344  0.3800  0.5528 -0.1028
  244MPD1    H6 3711   0.643   0.862  16.372  1.2551 -3.0221 -0.8313
  244MPD1    H7 3712   0.746   0.856  16.249 -2.3597 -0.2861 -0.0624
  245MPD1     C 3713   2.722   1.511  13.216 -0.0071  0.1871  0.2489
  245MPD1    C1 3714   2.809   1.523  13.319 -0.5931  0.2146  0.1046
  245MPD1    C2 3715   2.893   1.630  13.328 -0.3380  0.4415 -0.5671
  245MPD1    C3 3716   2.887   1.732  13.233  0.8034 -0.0912 -0.7628
  245MPD1    C4 3717   2.793   1.720  13.130  0.0016 -0.2452 -0.4002
  245MPD1    C5 3718   2.713   1.612  13.125  0.0761 -0.0608  0.3723
  245MPD1     H 3719   2.953   1.643  13.418  0.2031  2.4480 -1.2081
  245MPD1    H1 3720   2.790   1.799  13.055 -2.1288  1.6726  1.6969
  245MPD1    H2 3721   2.657   1.424  13.206 -2.4057  2.1133 -1.0087
  245MPD1    H3 3722   2.638   1.607  13.046  1.3840  0.5535 -0.8939
  245MPD1     N 3723   2.966   1.843  13.256 -0.5267 -0.0782  0.1709
  245MPD1    H5 3724   3.021   1.833  13.341 -1.1952 -1.5053  0.4415
  245MPD1    N1 3725   2.797   1.423  13.421 -0.4071 -0.5422 -0.1388
  245MPD1    H6 3726   2.783   1.333  13.378 -1.8884 -0.7775  0.8269
  245MPD1    H7 3727   2.879   1.414  13.481 -0.1747 -3.4299 -0.9131
  246MPD1     C 3728   2.023   1.720   8.211 -0.3200 -0.1134  0.5348
  246MPD1    C1 3729   2.007   1.799   8.103  0.1934 -0.8745 -0.1712
  246MPD1    C2 3730   2.049   1.928   8.118  1.5579 -0.1786 -0.0839
  246MPD1    C3 3731   2.086   1.989   8.239 -0.2182  0.2587  0.1798
  246MPD1    C4 3732   2.075   1.908   8.355 -0.1243  0.3730  0.7931
  246MPD1    C5 3733   2.047   1.774   8.331  0.3713  0.3918  1.1407
  246MPD1     H 3734   2.056   1.984   8.026  1.2093 -0.1862 -0.1137
  246MPD1    H1 3735   2.108   1.943   8.452 -1.4804  0.3365  1.2645
  246MPD1    H2 3736   2.002   1.614   8.211  1.7402 -0.5294 -0.3793
  246MPD1    H3 3737   2.038   1.710   8.418 -1.1512 -0.3810  0.4164
  246MPD1     N 3738   2.115   2.126   8.248 -0.5147  0.1001 -0.2436
  246MPD1    H5 3739   2.113   2.176   8.160 -1.2778 -2.1663 -1.5203
  246MPD1    N1 3740   1.983   1.748   7.975 -0.0599  0.2929 -0.6625
  246MPD1    H6 3741   1.933   1.659   7.979 -1.4192  1.1051  0.3046
  246MPD1    H7 3742   1.930   1.814   7.918 -0.1790 -1.0848 -2.1484
  247MPD1     C 3743   2.824   1.896  16.762  0.1104  0.6178 -0.1825
  247MPD1    C1 3744   2.847   1.959  16.639  0.3051  0.6577 -0.2388
  247MPD1    C2 3745   2.816   1.886  16.523  0.7226 -0.9511 -0.0721
  247MPD1    C3 3746   2.780   1.754  16.534 -0.0354  0.1880  0.0982
  247MPD1    C4 3747   2.757   1.691  16.657 -0.0013 -0.1510 -0.2231
  247MPD1    C5 3748   2.774   1.763  16.771  0.2880  0.4315 -0.0767
  247MPD1     H 3749   2.822   1.938  16.428  1.4809  1.8832  1.5297
  247MPD1    H1 3750   2.723   1.589  16.669 -0.8588  0.1847  0.2021
  247MPD1    H2 3751   2.843   1.950  16.854  0.2036  0.3547 -0.0445
  247MPD1    H3 3752   2.750   1.717  16.866  0.3255 -1.8658 -1.1774
  247MPD1     N 3753   2.750   1.667  16.423  0.0525  0.2281 -0.3403
  247MPD1    H5 3754   2.719   1.577  16.457 -0.7893  0.3309 -0.8399
  247MPD1    N1 3755   2.875   2.097  16.629  0.7068  0.0475 -0.0817
  247MPD1    H6 3756   2.949   2.120  16.694  0.9009  1.8814 -0.9489
  247MPD1    H7 3757   2.902   2.129  16.536 -0.3588 -0.5565 -0.6022
  248MPD1     C 3758   3.350   0.177  17.291 -0.3241 -0.3145 -0.0844
  248MPD1    C1 3759   3.436   0.184  17.403 -0.0036 -0.5286  0.0213
  248MPD1    C2 3760   3.443   0.307  17.475 -0.0300 -0.2686  0.0831
  248MPD1    C3 3761   3.367   0.416  17.455 -0.1679  1.0285 -0.5293
  248MPD1    C4 3762   3.279   0.406  17.353 -0.0650  0.2228  0.1910
  248MPD1    C5 3763   3.269   0.285  17.277 -0.7037  0.0362  0.1682
  248MPD1     H 3764   3.514   0.310  17.557  1.2693 -0.4121 -1.0361
  248MPD1    H1 3765   3.206   0.477  17.317 -0.4039  0.2664  0.9797
  248MPD1    H2 3766   3.339   0.097  17.220 -2.0119 -0.9129  0.8355
  248MPD1    H3 3767   3.198   0.282  17.195 -0.4230 -0.8408 -0.0416
  248MPD1     N 3768   3.378   0.533  17.537  0.5210  0.7438  0.5329
  248MPD1    H5 3769   3.458   0.541  17.599  0.4079  1.9695  0.5301
  248MPD1    N1 3770   3.523   0.073  17.424 -0.1792  0.7870  0.6061
  248MPD1    H6 3771   3.537   0.048  17.521 -1.7674  2.3171  1.2164
  248MPD1    H7 3772   3.485   4.713  17.390  0.5965  0.6738  0.0266
  249MPD1     C 3773   4.302   1.498   9.207 -0.1752 -0.3112  0.2611
  249MPD1    C1 3774   4.424   1.549   9.242  0.6311 -0.1665  0.5153
  249MPD1    C2 3775   4.489   1.475   9.341 -0.5881 -0.5636  0.1552
  249MPD1    C3 3776   4.427   1.374   9.413  0.8959 -0.3429 -0.5648
  249MPD1    C4 3777   4.303   1.330   9.375  1.3010 -0.3877 -0.2849
  249MPD1    C5 3778   4.243   1.386   9.265  0.3944  0.8102 -0.4136
  249MPD1     H 3779   4.588   1.500   9.378 -0.6752 -0.3548  0.2432
  249MPD1    H1 3780   4.256   1.249   9.430 -1.3904  1.9220  0.7975
  249MPD1    H2 3781   4.247   1.546   9.127  0.3865  0.5509  0.3896
  249MPD1    H3 3782   4.153   1.345   9.221  0.7841 -1.0644  0.5423
  249MPD1     N 3783   4.500   1.320   9.521  0.4662 -0.0901  0.0839
  249MPD1    H5 3784   4.597   1.349   9.526 -0.0303  1.6870 -0.6244
  249MPD1    N1 3785   4.484   1.660   9.175 -0.2082 -0.0709 -0.1272
  249MPD1    H6 3786   4.419   1.737   9.160  1.7193  1.0978 -2.3593
  249MPD1    H7 3787   4.571   1.687   9.221 -1.3370  4.4732 -0.6977
  250MPD2     C 3788   1.450   0.407  12.836  0.7053  0.0609  0.6347
  250MPD2    C1 3789   1.369   0.488  12.915  0.2524 -0.3768 -0.3273
  250MPD2    C2 3790   1.265   0.430  12.989 -0.1502  0.0589 -0.3667
  250MPD2    C3 3791   1.253   0.294  12.982  0.5292 -0.6113  0.2239
  250MPD2    C4 3792   1.326   0.214  12.900 -1.1032 -0.2627 -0.0476
  250MPD2    C5 3793   1.418   0.279  12.823  0.5078  0.4250  0.0471
  250MPD2     H 3794   1.208   0.478  13.068  0.1614 -0.0498 -0.0755
  250MPD2    H1 3795   1.320   0.106  12.896 -2.2586 -0.1840 -0.4735
  250MPD2    H2 3796   1.545   0.445  12.799  0.0400  0.1026 -1.0380
  250MPD2    H3 3797   1.480   0.233  12.747 -0.0677 -0.1302 -0.0830
  250MPD2     N 3798   1.151   0.219  13.055 -0.1617  0.3795 -0.4843
  250MPD2    H5 3799   1.146   0.121  13.031 -0.7246  0.5265 -0.9766
  250MPD2    N1 3800   1.404   0.622  12.932  0.2904  0.2329 -0.7018
  250MPD2    H7 3801   1.483   0.657  12.878  0.0898  2.0279  0.1692
  251TMC3    C1 3802   1.390   0.847  12.968 -0.3282 -0.5650  0.5958
  251TMC3    C2 3803   1.303   0.952  12.993  0.2744  0.5997 -0.4733
  251TMC3    C3 3804   1.363   1.071  13.028 -0.2852 -0.1945  0.1997
  251TMC3    C4 3805   1.524   0.859  12.999  0.6445 -0.6238 -0.3328
  251TMC3    C5 3806   1.578   0.972  13.053  0.0057  0.0361  0.0997
  251TMC3    C6 3807   1.496   1.080  13.069 -0.6140 -0.0028  0.0554
  251TMC3     C 3808   1.329   0.721  12.992  0.4708 -0.1468  0.0507
  251TMC3     O 3809   1.213   0.724  13.036  0.2685 -0.3083 -0.4715
  251TMC3     H 3810   1.195   0.949  12.985  0.3798 -1.2456 -1.2927
  251TMC3    H1 3811   1.586   0.772  12.978  2.0076  0.5079 -1.0189
  251TMC3    H2 3812   1.533   1.176  13.103 -0.0748 -0.6602  1.3183
  251TMC3    C7 3813   1.715   0.981  13.039  0.0090  0.0493 -0.6945
  251TMC3    C8 3814   1.286   1.194  13.057 -0.1225 -0.1481 -0.2257
  251TMC3    O1 3815   1.779   0.876  13.063 -0.1726 -0.3985 -0.0190
  251TMC3    O2 3816   1.322   1.247  13.160 -0.0661 -0.2300  0.3693
  252TMC3    C1 3817   1.727   1.646   9.051 -0.6939  0.3978 -0.4159
  252TMC3    C2 3818   1.851   1.694   9.079  0.2729 -0.3675 -0.1987
  252TMC3    C3 3819   1.947   1.603   9.125  0.2902  0.2008 -0.1311
  252TMC3    C4 3820   1.698   1.513   9.068  0.0258 -0.4535  0.4537
  252TMC3    C5 3821   1.792   1.430   9.109 -0.6411  0.1489  0.3670
  252TMC3    C6 3822   1.919   1.472   9.138  0.5805  0.6041  0.1608
  252TMC3     C 3823   1.628   1.717   8.964  0.0861  0.1147  0.1819
  252TMC3     O 3824   1.527   1.664   8.922  0.7147 -0.2762  0.5496
  252TMC3     H 3825   1.872   1.800   9.092 -0.4107 -0.2835  0.2244
  252TMC3    H1 3826   1.609   1.467   9.026  0.8011  0.3653 -2.0682
  252TMC3    H2 3827   1.995   1.397   9.161  1.1330  1.0200 -0.3234
  252TMC3    C7 3828   1.784   1.293   9.059  0.6470 -0.2534  0.1734
  252TMC3    C8 3829   2.077   1.669   9.156  0.2325 -0.0402 -0.4120
  252TMC3    O1 3830   1.727   1.282   8.953 -0.2435  0.1126 -0.1982
  252TMC3    O2 3831   2.116   1.749   9.077 -0.8188  0.2972 -0.0028
  253MPD2     C 3832   3.011   0.398  15.182 -0.5222  0.1793  0.1397
  253MPD2    C1 3833   2.880   0.350  15.182  0.3423 -0.4534 -1.1039
  253MPD2    C2 3834   2.828   0.311  15.300 -0.9867 -0.9051  0.7361
  253MPD2    C3 3835   2.901   0.305  15.417 -0.3924  0.4027 -0.2953
  253MPD2    C4 3836   3.026   0.360  15.416 -0.4716  1.0227  0.0139
  253MPD2    C5 3837   3.081   0.403  15.301 -0.0906 -0.1446 -0.5343
  253MPD2     H 3838   2.725   0.277  15.301 -1.5195  0.6998  0.7946
  253MPD2    H1 3839   3.069   0.366  15.515 -1.2703  0.7252  0.3771
  253MPD2    H2 3840   3.052   0.435  15.089 -1.0630 -3.2343 -1.4616
  253MPD2    H3 3841   3.182   0.442  15.300  0.0689 -0.5626 -0.7483
  253MPD2     N 3842   2.850   0.255  15.539 -0.0869  0.1580  0.2426
  253MPD2    H5 3843   2.907   0.259  15.623 -1.6156  0.4978  1.2618
  253MPD2    N1 3844   2.790   0.346  15.064  0.4450 -0.4049  0.0850
  253MPD2    H7 3845   2.693   0.317  15.066  0.0344  0.8455 -1.7250
  254TMC3    C1 3846   2.691   0.178  15.690  0.7595 -0.3416  0.5941
  254TMC3    C2 3847   2.562   0.207  15.736 -0.1934 -0.1560 -0.4723
  254TMC3    C3 3848   2.519   0.161  15.859 -0.0712 -0.7799 -0.3927
  254TMC3    C4 3849   2.782   0.099  15.755 -0.1397  0.4414  0.6558
  254TMC3    C5 3850   2.740   0.059  15.878 -0.0947 -0.0033  0.7382
  254TMC3    C6 3851   2.610   0.087  15.928  0.4419 -0.4950  0.2555
  254TMC3     C 3852   2.715   0.217  15.554 -0.2932  0.2902  0.3452
  254TMC3     O 3853   2.619   0.234  15.486 -0.0841 -0.1458  0.4795
  254TMC3     H 3854   2.502   0.275  15.676  0.9299  0.8274 -0.4882
  254TMC3    H1 3855   2.885   0.096  15.721 -0.0983 -0.1838  0.8450
  254TMC3    H2 3856   2.575   0.047  16.022 -1.0207  0.2955  0.0438
  254TMC3    C7 3857   2.824   0.006  15.976  0.2810  0.3859 -0.1540
  254TMC3    C8 3858   2.383   0.160  15.910 -0.3250 -0.3135  1.4749
  254TMC3    O1 3859   2.777   4.719  16.090 -0.7211  0.4405 -0.2952
  254TMC3    O2 3860   2.351   0.092  16.005  0.4984 -0.0206 -0.3373
  255MPD2     C 3861   1.436   2.472  10.129 -0.2698 -0.3651 -0.1837
  255MPD2    C1 3862   1.473   2.594  10.076  0.1054  0.0173  0.0138
  255MPD2    C2 3863   1.580   2.599   9.991  0.6913  0.1916 -0.5563
  255MPD2    C3 3864   1.654   2.481   9.962  0.1332  0.7818  0.1995
  255MPD2    C4 3865   1.618   2.357  10.013  0.6380  0.3952 -0.1372
  255MPD2    C5 3866   1.505   2.358  10.107 -0.4585 -0.7146 -0.8091
  255MPD2     H 3867   1.607   2.697   9.955 -0.1491  0.3120 -0.8579
  255MPD2    H1 3868   1.663   2.262   9.988 -0.3433 -0.1390  0.1329
  255MPD2    H2 3869   1.353   2.455  10.196  0.6452 -0.8740  0.8182
  255MPD2    H3 3870   1.471   2.268  10.156 -1.7920  1.6132  2.5190
  255MPD2     N 3871   1.760   2.496   9.879  0.4848  0.5287 -0.1402
  255MPD2    H5 3872   1.773   2.591   9.846  0.9363  0.6827  0.4855
  255MPD2    N1 3873   1.386   2.705  10.096  0.3108 -0.2158 -0.8008
  255MPD2    H7 3874   1.305   2.696  10.157  0.0247  0.7074 -1.0388
  256TMC3    C1 3875   1.293   2.922  10.090 -0.3819 -0.4838 -0.2999
  256TMC3    C2 3876   1.268   3.036  10.016  0.8349  0.1076 -0.1935
  256TMC3    C3 3877   1.187   3.130  10.069  0.2042 -0.2949 -0.2629
  256TMC3    C4 3878   1.233   2.894  10.206 -0.0403  0.0189  0.2388
  256TMC3    C5 3879   1.137   2.978  10.248 -0.1268 -0.1450  0.6329
  256TMC3    C6 3880   1.103   3.091  10.176 -0.1767 -0.4351 -0.1471
  256TMC3     C 3881   1.396   2.829  10.041  0.0434  0.3792  0.2752
  256TMC3     O 3882   1.452   2.860   9.938  0.3725  0.1819 -0.2256
  256TMC3     H 3883   1.324   3.062   9.927  0.5043  2.4344  0.2644
  256TMC3    H1 3884   1.272   2.817  10.271 -1.6958 -1.0107  0.0176
  256TMC3    H2 3885   1.029   3.159  10.216  1.8284  1.5651  0.1301
  256TMC3    C7 3886   1.040   2.913  10.336 -0.4651  0.0364 -0.7140
  256TMC3    C8 3887   1.188   3.269  10.024  0.1607 -0.3856 -0.1324
  256TMC3    O1 3888   1.072   2.799  10.368  0.4608  0.1439  0.1478
  256TMC3    O2 3889   1.110   3.345  10.077  0.0069 -0.9217  0.6370
  257MPD2     C 3890   0.253   0.630  13.283 -0.5456  0.3887  0.1998
  257MPD2    C1 3891   0.175   0.560  13.185 -0.1685 -0.2881 -0.7806
  257MPD2    C2 3892   0.107   0.447  13.224  0.7922 -0.1551 -0.0091
  257MPD2    C3 3893   0.118   0.393  13.351  0.3175 -0.2152  0.4011
  257MPD2    C4 3894   0.187   0.465  13.447 -0.2758  0.8754  0.6184
  257MPD2    C5 3895   0.262   0.575  13.411  0.2498  0.2284 -0.1157
  257MPD2     H 3896   0.069   0.386  13.143  2.0899  0.5059 -1.1072
  257MPD2    H1 3897   0.201   0.426  13.547  1.4402  1.0839  0.4574
  257MPD2    H2 3898   0.294   0.729  13.264 -0.4690 -0.0744 -2.1307
  257MPD2    H3 3899   0.311   0.627  13.492  0.2744 -0.5211  0.3574
  257MPD2     N 3900   0.064   0.266  13.377  0.0018 -0.3712  0.0670
  257MPD2    H5 3901   0.017   0.220  13.300 -0.9273  2.0208 -0.7883
  257MPD2    N1 3902   0.161   0.625  13.061 -0.1670  0.2958 -0.2895
  257MPD2    H7 3903   0.218   0.704  13.032 -2.3138  2.4795  1.3877
  258TMC3    C1 3904   0.048   0.055  13.479  0.1090 -0.0048 -0.5918
  258TMC3    C2 3905   4.706   4.724  13.379 -0.3163  0.1074  0.0444
  258TMC3    C3 3906   4.687   4.588  13.364  0.3227 -0.5617 -0.1606
  258TMC3    C4 3907   0.096   4.698  13.575 -0.2641  0.0254  0.0790
  258TMC3    C5 3908   0.088   4.565  13.554 -0.3185  0.1466 -0.2006
  258TMC3    C6 3909   0.023   4.510  13.445  0.0678  0.6032 -0.2804
  258TMC3     C 3910   0.072   0.195  13.496 -0.6489 -0.0725 -0.3495
  258TMC3     O 3911   0.094   0.246  13.606  0.1257  0.0630 -0.1669
  258TMC3     H 3912   4.673   0.067  13.304 -3.9333  0.0754  1.6242
  258TMC3    H1 3913   0.146   0.012  13.660 -1.1516  1.3355 -0.0633
  258TMC3    H2 3914   0.013   4.403  13.432 -0.2422  0.7831 -1.5147
  258TMC3    C7 3915   0.129   4.476  13.661  0.4745 -0.3555  0.2051
  258TMC3    C8 3916   4.665   4.538  13.231 -0.4631 -0.2212 -0.2317
  258TMC3    O1 3917   0.058   4.375  13.674 -0.4137  0.3973  0.3807
  258TMC3    O2 3918   4.573   4.581  13.164 -0.3457 -0.0916 -0.1559
  259MPD2     C 3919   4.577   1.814   1.563 -0.3895 -0.8798  0.1725
  259MPD2    C1 3920   4.474   1.743   1.504  0.1621 -0.0366 -0.3666
  259MPD2    C2 3921   4.468   1.756   1.364  0.0114 -0.1494  0.3727
  259MPD2    C3 3922   4.569   1.821   1.290  0.1703  0.5728 -0.1703
  259MPD2    C4 3923   4.675   1.874   1.359  0.7769  0.9596 -0.3305
  259MPD2    C5 3924   4.677   1.876   1.494 -0.2998 -0.3789 -0.0460
  259MPD2     H 3925   4.390   1.711   1.304  0.6636  1.7141 -1.8580
  259MPD2    H1 3926   0.026   1.924   1.306  0.8107 -1.0102 -2.1878
  259MPD2    H2 3927   4.592   1.805   1.670 -0.4416  1.5966  0.3863
  259MPD2    H3 3928   0.032   1.923   1.546 -1.0891  1.7909 -0.7235
  259MPD2     N 3929   4.557   1.809   1.147 -0.0225 -0.1776 -0.1262
  259MPD2    H5 3930   4.480   1.749   1.117 -0.2669 -0.8872  1.8968
  259MPD2    N1 3931   4.391   1.667   1.588  0.0538 -0.0684 -0.6047
  259MPD2    H7 3932   4.414   1.670   1.687  2.2488  0.9118 -1.1393
  260TMC3    C1 3933   4.616   1.796   0.911 -0.1336 -0.0587 -0.4479
  260TMC3    C2 3934   4.726   1.771   0.833 -0.1363  0.0223  0.3606
  260TMC3    C3 3935   4.711   1.689   0.723 -0.0659  0.3413  0.2967
  260TMC3    C4 3936   4.495   1.738   0.885  0.4973 -0.1242  0.1501
  260TMC3    C5 3937   4.490   1.656   0.769  0.3896 -0.3346 -0.2179
  260TMC3    C6 3938   4.592   1.641   0.683  0.1710 -0.1025 -0.0508
  260TMC3     C 3939   4.654   1.830   1.052  0.5430  0.6450  0.4271
  260TMC3     O 3940   0.037   1.874   1.067 -0.0984  0.7773  0.3055
  260TMC3     H 3941   0.087   1.828   0.852  1.2048 -1.8217 -0.4644
  260TMC3    H1 3942   4.406   1.756   0.943 -0.7546 -0.0201 -1.7917
  260TMC3    H2 3943   4.581   1.582   0.592  2.5401 -0.2393 -0.2460
  260TMC3    C7 3944   4.367   1.606   0.724 -0.4755  0.0817 -0.5753
  260TMC3    C8 3945   0.089   1.690   0.619 -0.5455 -0.2183 -0.4281
  260TMC3    O1 3946   4.380   1.520   0.635  0.1921 -0.5636  0.7896
  260TMC3    O2 3947   0.172   1.778   0.619  0.3402 -0.1147 -0.4104
  261MPD2     C 3948   0.523   0.067  12.754  0.3632 -0.0026 -0.6431
  261MPD2    C1 3949   0.621   0.161  12.793  0.3059  0.0779 -0.7164
  261MPD2    C2 3950   0.679   0.230  12.691 -0.0549  1.0899 -0.0638
  261MPD2    C3 3951   0.645   0.210  12.562  0.7944  0.0881  0.0753
  261MPD2    C4 3952   0.553   0.116  12.527  0.4294  0.9006  0.1580
  261MPD2    C5 3953   0.493   0.046  12.625  0.1905  0.4291 -0.3302
  261MPD2     H 3954   0.770   0.280  12.724  0.2929 -0.0217  0.6525
  261MPD2    H1 3955   0.529   0.074  12.430  1.0405  1.6246 -0.3071
  261MPD2    H2 3956   0.489   4.722  12.826 -1.5065  1.2568 -0.2414
  261MPD2    H3 3957   0.423   4.698  12.594  0.1391  0.3686 -0.0659
  261MPD2     N 3958   0.712   0.275  12.455 -0.0086 -0.1073 -0.5726
  261MPD2    H5 3959   0.705   0.234  12.362 -0.5981  0.9512 -1.0058
  261MPD2    N1 3960   0.667   0.179  12.929 -0.4420  0.6380  0.1378
  261MPD2    H7 3961   0.729   0.256  12.953 -1.8334  0.8252  3.0990
  262TMC3    C1 3962   0.854   0.411  12.347  0.1180 -0.5051  0.0581
  262TMC3    C2 3963   0.861   0.542  12.311  0.5509  0.1039  0.2726
  262TMC3    C3 3964   0.921   0.577  12.195 -0.2131  0.1806  0.1904
  262TMC3    C4 3965   0.910   0.315  12.274 -0.2486  0.3112 -0.1107
  262TMC3    C5 3966   0.972   0.348  12.153  0.3505  1.2072 -0.4763
  262TMC3    C6 3967   0.973   0.478  12.114  0.1018  0.5737  0.0527
  262TMC3     C 3968   0.799   0.381  12.477  0.6111 -0.4090 -0.2499
  262TMC3     O 3969   0.788   0.457  12.570  0.0003 -0.8340 -0.7563
  262TMC3     H 3970   0.796   0.606  12.369 -1.6449 -0.3103 -1.7275
  262TMC3    H1 3971   0.893   0.213  12.309 -2.4465  1.0929  1.0961
  262TMC3    H2 3972   1.015   0.504  12.017  2.1460  0.8522  1.0108
  262TMC3    C7 3973   0.957   0.246  12.047 -0.2207 -0.8183  0.7086
  262TMC3    C8 3974   0.871   0.687  12.121  0.0756 -0.7698  0.4821
  262TMC3    O1 3975   0.899   0.143  12.076  0.1374  0.5633  0.2310
  262TMC3    O2 3976   0.947   0.740  12.044 -0.0407  0.4135  0.7422
  263MPD2     C 3977   1.473   4.396  11.405 -0.4162  1.0137  0.9120
  263MPD2    C1 3978   1.601   4.406  11.356  0.1016 -0.0788 -0.5532
  263MPD2    C2 3979   1.619   4.480  11.236 -0.2375  0.4452  0.0330
  263MPD2    C3 3980   1.515   4.537  11.166  0.0265 -0.5504  0.6050
  263MPD2    C4 3981   1.390   4.521  11.218 -0.4278 -0.0553  0.4240
  263MPD2    C5 3982   1.375   4.468  11.339 -0.1797 -0.4237 -0.8588
  263MPD2     H 3983   1.719   4.483  11.195  0.2551  1.0312  1.2567
  263MPD2    H1 3984   1.307   4.567  11.165 -0.5508 -1.1925 -0.3611
  263MPD2    H2 3985   1.446   4.348  11.499 -1.7539  1.3844  0.7140
  263MPD2    H3 3986   1.275   4.472  11.380 -0.5136  2.6775 -2.0056
  263MPD2     N 3987   1.531   4.618  11.048 -0.0318 -0.4920  0.8722
  263MPD2    H5 3988   1.454   4.679  11.020  2.4707  1.5735 -1.4132
  263MPD2    N1 3989   1.707   4.338  11.428 -0.1985  0.7738 -0.0759
  263MPD2    H7 3990   1.683   4.284  11.511 -0.0905 -0.1523 -0.6413
  264TMC3    C1 3991   1.618   0.017  10.881 -0.1178  0.3665 -0.1239
  264TMC3    C2 3992   1.519   0.114  10.900 -0.0421  0.8260 -0.4838
  264TMC3    C3 3993   1.532   0.230  10.822 -0.1949 -0.3825 -0.1335
  264TMC3    C4 3994   1.709   0.027  10.779 -0.0943 -0.2787 -0.5148
  264TMC3    C5 3995   1.701   0.130  10.691 -0.0794  0.5447  0.6260
  264TMC3    C6 3996   1.609   0.227  10.705  0.3745  0.2605 -0.6256
  264TMC3     C 3997   1.646   4.649  10.983 -0.3084 -0.7056  0.4979
  264TMC3     O 3998   1.757   4.603  11.003  0.0957 -0.2868 -0.4801
  264TMC3     H 3999   1.485   0.119  11.003 -0.6625  1.3550 -0.7183
  264TMC3    H1 4000   1.802   4.702  10.765  1.5367  2.8087 -1.4088
  264TMC3    H2 4001   1.608   0.314  10.641 -0.6379 -0.9620 -2.2802
  264TMC3    C7 4002   1.835   0.170  10.635  0.1448 -0.3891 -0.5225
  264TMC3    C8 4003   1.589   0.331  10.904  0.2926 -0.7045 -0.2593
  264TMC3    O1 4004   1.878   0.104  10.539 -0.1837  0.3625  0.1018
  264TMC3    O2 4005   1.689   0.380  10.853 -0.1201 -0.1675  0.3230
  265MPD2     C 4006   3.776   0.148  15.064 -0.5310 -0.2991 -0.3814
  265MPD2    C1 4007   3.904   0.169  15.108 -0.2662  0.1902 -0.0269
  265MPD2    C2 4008   4.008   0.109  15.039 -0.7285 -0.3027 -1.2091
  265MPD2    C3 4009   3.977   0.036  14.922 -0.4337  0.7025  0.0959
  265MPD2    C4 4010   3.846   0.017  14.884  0.0435  0.3443  0.4714
  265MPD2    C5 4011   3.744   0.080  14.949  0.2377 -0.4852  0.2606
  265MPD2     H 4012   4.112   0.131  15.058 -0.9803 -0.5602  0.4905
  265MPD2    H1 4013   3.822   4.682  14.800 -0.8435  0.8529  0.3317
  265MPD2    H2 4014   3.686   0.167  15.122 -1.3161 -1.2058 -1.3118
  265MPD2    H3 4015   3.639   0.070  14.924  0.7740  0.7261 -2.4516
  265MPD2     N 4016   4.078   4.713  14.835  1.0770 -0.0778 -0.3756
  265MPD2    H5 4017   4.039   4.653  14.763  2.6074 -1.9899  0.3781
  265MPD2    N1 4018   3.921   0.248  15.221 -0.2881 -0.8690 -0.4971
  265MPD2    H7 4019   4.012   0.250  15.266  0.2616 -1.5909 -1.5996
  266TMC3    C1 4020   3.878   0.448  15.362  0.2749  1.3137  0.3698
  266TMC3    C2 4021   3.915   0.427  15.490 -0.0636  0.2784 -0.5591
  266TMC3    C3 4022   3.917   0.538  15.579 -0.4163  0.0903  0.7501
  266TMC3    C4 4023   3.829   0.573  15.326  0.7500 -0.2218 -0.5249
  266TMC3    C5 4024   3.828   0.676  15.415  0.4802  0.2265 -0.4587
  266TMC3    C6 4025   3.873   0.662  15.544  0.1361 -0.1253  0.3869
  266TMC3     C 4026   3.832   0.344  15.266  0.8690  0.2335  0.4635
  266TMC3     O 4027   3.721   0.370  15.220  0.1665  0.3844  0.1340
  266TMC3     H 4028   3.937   0.329  15.531  1.6537  1.1880  0.6758
  266TMC3    H1 4029   3.788   0.592  15.227  1.5728  1.9668 -0.4430
  266TMC3    H2 4030   3.850   0.736  15.619  1.0521  0.8384 -0.2764
  266TMC3    C7 4031   3.751   0.794  15.380  0.4201 -0.6159 -0.5879
  266TMC3    C8 4032   3.889   0.508  15.717 -0.0487  0.1345  0.1526
  266TMC3    O1 4033   3.657   0.777  15.304 -0.5729  0.5382  0.4121
  266TMC3    O2 4034   3.843   0.398  15.748  0.1430  0.1974 -0.3307
  267MPD2     C 4035   1.796   0.768  17.516  0.5253  0.7236 -0.2537
  267MPD2    C1 4036   1.843   0.846  17.414  0.1207 -0.8523 -0.2623
  267MPD2    C2 4037   1.764   0.867  17.304 -0.2182 -0.0428 -0.2973
  267MPD2    C3 4038   1.636   0.817  17.290 -0.2210 -0.0852 -0.3910
  267MPD2    C4 4039   1.597   0.731  17.387 -0.8419  0.3349  0.0353
  267MPD2    C5 4040   1.679   0.704  17.495 -0.0592 -0.4891 -0.9530
  267MPD2     H 4041   1.794   0.932  17.222 -3.2810  2.9418  0.9768
  267MPD2    H1 4042   1.498   0.685  17.389 -0.2949 -0.7472  2.5292
  267MPD2    H2 4043   1.852   0.747  17.606  0.9626 -0.3300 -0.7673
  267MPD2    H3 4044   1.642   0.634  17.569  2.1888 -1.6740 -0.9480
  267MPD2     N 4045   1.550   0.859  17.187 -0.4128 -0.0422  0.4183
  267MPD2    H5 4046   1.461   0.812  17.173  0.1224 -0.6758 -0.9216
  267MPD2    N1 4047   1.968   0.904  17.421 -0.0879  0.9369 -0.0083
  267MPD2    H7 4048   2.024   0.888  17.505  1.5375  1.6024 -0.9472
  268TMC3    C1 4049   2.154   1.048  17.373 -0.4667 -0.8919 -0.1317
  268TMC3    C2 4050   2.221   1.124  17.277 -0.0595  0.5247  0.0494
  268TMC3    C3 4051   2.307   1.220  17.320 -0.2996  0.2312 -0.7236
  268TMC3    C4 4052   2.180   1.070  17.503 -0.3092  0.7220 -0.9195
  268TMC3    C5 4053   2.278   1.157  17.548  0.1261 -0.2151 -0.4174
  268TMC3    C6 4054   2.343   1.229  17.455 -0.2081  0.1540  0.8361
  268TMC3     C 4055   2.041   0.977  17.327  0.0950 -0.7649  0.1856
  268TMC3     O 4056   2.021   0.983  17.205 -0.6914 -0.0452  0.4730
  268TMC3     H 4057   2.209   1.103  17.171 -1.2837  0.6607  0.1720
  268TMC3    H1 4058   2.124   1.018  17.580 -1.0333 -0.4840 -2.2656
  268TMC3    H2 4059   2.416   1.304  17.484  0.2912 -0.2160  0.5486
  268TMC3    C7 4060   2.293   1.183  17.688 -0.2120  0.0969 -0.3679
  268TMC3    C8 4061   2.349   1.315  17.218 -0.4079 -0.2730  0.2593
  268TMC3    O1 4062   2.192   1.199   0.039 -0.2760  0.3307 -0.3056
  268TMC3    O2 4063   2.452   1.378  17.243 -0.0993  0.5731  0.3386
  269MPD2     C 4064   2.118   0.539  15.322  0.2032 -0.0884 -0.3783
  269MPD2    C1 4065   1.997   0.590  15.349 -0.2640 -0.0124  0.1859
  269MPD2    C2 4066   1.969   0.725  15.361  0.0167  0.5306 -0.2259
  269MPD2    C3 4067   2.076   0.817  15.354  0.0520  0.5520 -0.2590
  269MPD2    C4 4068   2.200   0.769  15.321 -0.6754  0.5856 -0.4745
  269MPD2    C5 4069   2.216   0.632  15.303  0.3901  0.2434  0.3103
  269MPD2     H 4070   1.868   0.757  15.387 -1.3440 -1.3619 -3.2020
  269MPD2    H1 4071   2.286   0.831  15.296 -2.0776  1.7307 -2.4364
  269MPD2    H2 4072   2.138   0.432  15.328 -2.2618 -0.5122  0.2893
  269MPD2    H3 4073   2.310   0.594  15.264  0.1774 -0.5124  0.5359
  269MPD2     N 4074   2.051   0.951  15.380  0.6265  0.5141  0.0165
  269MPD2    H5 4075   1.957   0.974  15.410  0.3028 -0.2384 -0.4266
  269MPD2    N1 4076   1.898   0.499  15.384 -0.3158 -0.4838  0.2498
  269MPD2    H7 4077   1.929   0.411  15.425 -0.2372  0.0999  1.4487
  270TMC3    C1 4078   1.698   0.429  15.483  0.6016 -0.2210  0.3357
  270TMC3    C2 4079   1.580   0.366  15.452 -0.6022  0.2094  0.1224
  270TMC3    C3 4080   1.555   0.250  15.517  0.0664  1.3624  0.0471
  270TMC3    C4 4081   1.787   0.379  15.570  0.6523  0.9905 -0.6414
  270TMC3    C5 4082   1.764   0.258  15.619 -1.0050 -0.2153  1.0072
  270TMC3    C6 4083   1.652   0.186  15.588  0.5451  0.1008 -0.3995
  270TMC3     C 4084   1.761   0.521  15.383  0.0719  0.5368 -0.4554
  270TMC3     O 4085   1.700   0.614  15.336  0.4718 -0.6057  0.9971
  270TMC3     H 4086   1.520   0.396  15.367 -3.1148 -0.0456  1.8168
  270TMC3    H1 4087   1.870   0.438  15.606  2.4379 -0.1659 -2.9132
  270TMC3    H2 4088   1.635   0.085  15.624 -0.1724  0.2641 -0.2867
  270TMC3    C7 4089   1.876   0.177  15.653 -0.3531  0.4654 -0.4053
  270TMC3    C8 4090   1.470   0.157  15.441  0.1030  0.0597 -0.4894
  270TMC3    O1 4091   1.967   0.174  15.575 -0.2376  0.4506  0.5122
  270TMC3    O2 4092   1.501   0.040  15.442 -0.3707  0.1334 -0.3051
  271MPD2     C 4093   0.799   0.204  13.656  0.2091  0.5832 -0.3091
  271MPD2    C1 4094   0.791   0.242  13.786  0.6974  0.0231  0.4682
  271MPD2    C2 4095   0.722   0.357  13.812  0.1781  0.1196 -0.0092
  271MPD2    C3 4096   0.654   0.430  13.711 -0.2669 -0.3885  0.1193
  271MPD2    C4 4097   0.661   0.379  13.578  0.5722 -0.3110 -0.0493
  271MPD2    C5 4098   0.739   0.268  13.558  0.0477 -0.8602 -0.2654
  271MPD2     H 4099   0.715   0.394  13.914  0.7545  0.9181 -0.2611
  271MPD2    H1 4100   0.618   0.422  13.488 -1.0544 -0.3522  0.7013
  271MPD2    H2 4101   0.862   0.126  13.616 -1.0277  0.0902 -1.2958
  271MPD2    H3 4102   0.751   0.242  13.454 -0.1758  2.1713 -1.0426
  271MPD2     N 4103   0.585   0.557  13.730  0.0229  0.5022 -0.2729
  271MPD2    H5 4104   0.550   0.605  13.648 -0.4878  0.2721 -0.1899
  271MPD2    N1 4105   0.852   0.180  13.895  0.2839 -0.1273  0.2527
  271MPD2    H7 4106   0.859   0.235  13.980  2.5430 -0.8127  0.5322
  272TMC3    C1 4107   0.959   0.006  14.023 -0.4820  0.7363 -0.0896
  272TMC3    C2 4108   1.059   4.646  14.033 -0.4825 -0.6141 -0.2110
  272TMC3    C3 4109   1.106   4.607  14.152 -0.4859 -0.6312  0.6837
  272TMC3    C4 4110   0.897   0.052  14.137  0.4441  0.1322  0.0113
  272TMC3    C5 4111   0.937   4.728  14.257 -0.0595  1.0777 -0.5194
  272TMC3    C6 4112   1.048   4.652  14.263  0.6455  0.9225  0.1482
  272TMC3     C 4113   0.919   0.059  13.891  0.4274 -0.1162 -0.5507
  272TMC3     O 4114   0.959   0.004  13.786 -0.0883 -0.7506 -0.0186
  272TMC3     H 4115   1.107   4.618  13.940 -1.5193 -2.4047 -0.1883
  272TMC3    H1 4116   0.819   0.128  14.137 -0.6894 -1.0491  1.9104
  272TMC3    H2 4117   1.074   4.618  14.363 -0.2663  0.6153  0.2800
  272TMC3    C7 4118   0.906   0.078  14.370 -0.2525  0.4085  0.7953
  272TMC3    C8 4119   1.203   4.501  14.156 -0.3859  0.3530  0.5339
  272TMC3    O1 4120   0.786   0.098  14.380  0.1602  0.0704 -0.4564
  272TMC3    O2 4121   1.202   4.423  14.060  0.0703  0.1547  0.0008
  273MPD2     C 4122   2.015   2.760  11.586  0.6108 -0.8063 -0.4422
  273MPD2    C1 4123   2.119   2.829  11.640  0.2643 -0.3766  0.6308
  273MPD2    C2 4124   2.181   2.924  11.564 -0.4853  0.3685  0.5474
  273MPD2    C3 4125   2.142   2.946  11.429 -0.0336 -0.2461  0.2352
  273MPD2    C4 4126   2.038   2.871  11.378 -0.1532 -0.1878  0.4905
  273MPD2    C5 4127   1.971   2.781  11.460 -0.4937 -0.2283  0.0777
  273MPD2     H 4128   2.259   2.993  11.594 -0.9156  0.5257  1.2969
  273MPD2    H1 4129   2.017   2.876  11.271  0.4817 -1.6104  0.2883
  273MPD2    H2 4130   1.980   2.671  11.638 -0.4514  0.0261  0.2446
  273MPD2    H3 4131   1.892   2.721  11.416 -1.0615 -0.2422  1.1267
  273MPD2     N 4132   2.210   3.034  11.340  0.8179  0.1154 -0.8407
  273MPD2    H5 4133   2.172   3.050  11.248  0.4005  0.5198 -0.5975
  273MPD2    N1 4134   2.166   2.785  11.763 -0.4087  0.9276  0.2030
  273MPD2    H7 4135   2.106   2.717  11.808 -0.8859  0.9261 -0.4438
  274TMC3    C1 4136   2.373   3.189  11.262 -0.5111  0.5945  0.0439
  274TMC3    C2 4137   2.339   3.146  11.139 -0.3052 -0.2401 -0.3808
  274TMC3    C3 4138   2.356   3.228  11.032 -0.1293  0.4399  0.0050
  274TMC3    C4 4139   2.432   3.307  11.288  0.4092 -0.2356 -0.2014
  274TMC3    C5 4140   2.440   3.399  11.179  0.3710  0.1940  0.8659
  274TMC3    C6 4141   2.401   3.362  11.047 -1.4722 -0.9406  0.1879
  274TMC3     C 4142   2.314   3.121  11.375 -0.6272  0.1947  0.4243
  274TMC3     O 4143   2.361   3.152  11.483  0.1643  0.4796 -0.0013
  274TMC3     H 4144   2.319   3.041  11.123 -1.3310 -0.0375 -0.4004
  274TMC3    H1 4145   2.438   3.342  11.391  0.1055  1.0374 -0.6178
  274TMC3    H2 4146   2.382   3.436  10.971 -2.8056 -1.9930 -0.5147
  274TMC3    C7 4147   2.432   3.535  11.226  0.9481  0.1103 -0.3804
  274TMC3    C8 4148   2.302   3.190  10.902  0.4018 -0.1036 -0.8942
  274TMC3    O1 4149   2.397   3.557  11.344 -0.2988  0.2934 -0.1263
  274TMC3    O2 4150   2.214   3.103  10.902 -0.5228  0.3231 -0.1889
  275MPD2     C 4151   1.827   1.567  14.226  0.2643 -0.3015  0.1495
  275MPD2    C1 4152   1.883   1.437  14.226  0.0632 -0.0356  0.2006
  275MPD2    C2 4153   1.799   1.337  14.184  0.2068 -0.5528 -0.4221
  275MPD2    C3 4154   1.658   1.357  14.167 -0.2854  0.2565  0.1740
  275MPD2    C4 4155   1.615   1.488  14.174  0.3941 -0.2733  0.2941
  275MPD2    C5 4156   1.700   1.590  14.196  0.8210 -0.2149 -0.5374
  275MPD2     H 4157   1.831   1.234  14.198  0.5820 -0.3520  0.1789
  275MPD2    H1 4158   1.512   1.521  14.164  0.5194  0.1306  0.3531
  275MPD2    H2 4159   1.891   1.652  14.246 -0.4216  0.6292 -1.6596
  275MPD2    H3 4160   1.659   1.690  14.196 -1.3210 -1.0995  0.4418
  275MPD2     N 4161   1.567   1.256  14.130  0.0425 -0.1061  0.2534
  275MPD2    H5 4162   1.468   1.278  14.129  0.4176  1.5326  0.3541
  275MPD2    N1 4163   2.013   1.405  14.261  0.2479  0.3318  0.1070
  275MPD2    H7 4164   2.039   1.311  14.232  1.0266  0.0533  1.7433
  276TMC3    C1 4165   2.237   1.426  14.323  0.2649 -0.1886  0.0570
  276TMC3    C2 4166   2.259   1.304  14.254 -0.4671  0.8190 -0.3687
  276TMC3    C3 4167   2.365   1.227  14.300  0.4516 -0.0913  0.0046
  276TMC3    C4 4168   2.326   1.473  14.415 -0.5825 -0.2629  1.0395
  276TMC3    C5 4169   2.433   1.396  14.450 -0.8248  0.2932 -0.7886
  276TMC3    C6 4170   2.448   1.267  14.402 -0.1994  0.2976  0.4496
  276TMC3     C 4171   2.105   1.486  14.330 -0.0630 -0.8300 -0.0489
  276TMC3     O 4172   2.101   1.597  14.386  1.5759 -0.0132  0.2673
  276TMC3     H 4173   2.199   1.270  14.171  1.2139 -0.8032 -0.9129
  276TMC3    H1 4174   2.309   1.566  14.467 -1.0018  0.3042 -0.1075
  276TMC3    H2 4175   2.528   1.203  14.438 -0.8335 -1.3548 -1.0767
  276TMC3    C7 4176   2.542   1.465  14.523 -0.3869  0.7123 -0.6907
  276TMC3    C8 4177   2.378   1.090  14.247 -0.1144  0.8134  0.3429
  276TMC3    O1 4178   2.525   1.576  14.577 -0.5592  0.3442 -0.0085
  276TMC3    O2 4179   2.327   1.079  14.136 -0.0793 -0.6975  0.1260
  277MPD2     C 4180   4.491   0.485  13.388 -0.4367  0.1278 -0.4213
  277MPD2    C1 4181   4.375   0.430  13.344 -0.5929  0.3582 -0.0811
  277MPD2    C2 4182   4.287   0.369  13.427 -0.0964 -0.5880 -0.0768
  277MPD2    C3 4183   4.333   0.343  13.562  0.0743 -0.1606 -0.4876
  277MPD2    C4 4184   4.463   0.387  13.602 -0.2502  0.0902 -0.6879
  277MPD2    C5 4185   4.532   0.461  13.511  0.3900  0.7233  0.7000
  277MPD2     H 4186   4.194   0.322  13.401 -0.4450 -1.0935  2.0506
  277MPD2    H1 4187   4.506   0.385  13.701 -2.4643 -3.2361  0.1919
  277MPD2    H2 4188   4.559   0.529  13.316 -0.0829 -0.3251 -0.3588
  277MPD2    H3 4189   4.632   0.490  13.542  0.1173  2.0537  0.3160
  277MPD2     N 4190   4.243   0.288  13.653  0.2666 -0.3006 -0.2422
  277MPD2    H5 4191   4.147   0.282  13.619  0.0189  0.0919  0.3790
  277MPD2    N1 4192   4.341   0.446  13.207  0.1387  0.0640  0.3803
  277MPD2    H7 4193   4.397   0.509  13.151 -1.7724  0.4254 -1.1230
  278TMC3    C1 4194   4.139   0.185  13.831  0.6694 -0.2307 -1.1227
  278TMC3    C2 4195   4.151   0.050  13.845  0.0664  0.2061 -0.3500
  278TMC3    C3 4196   4.058   4.704  13.781  0.2883  0.1922 -0.2047
  278TMC3    C4 4197   4.030   0.241  13.780 -0.0974  0.3369 -0.1017
  278TMC3    C5 4198   3.925   0.170  13.740  0.4088  0.2120 -0.2514
  278TMC3    C6 4199   3.944   0.030  13.735  0.6106 -0.7085  0.3565
  278TMC3     C 4200   4.264   0.241  13.783 -0.0463 -0.3936  0.3937
  278TMC3     O 4201   4.367   0.239  13.853  0.0565 -0.1242  0.3453
  278TMC3     H 4202   4.245   0.009  13.878 -0.8899 -0.4513  1.5705
  278TMC3    H1 4203   4.037   0.346  13.754  1.1427  0.7129  1.7586
  278TMC3    H2 4204   3.862   4.710  13.683 -0.3572  0.3030  0.9277
  278TMC3    C7 4205   3.875   0.226  13.620 -0.1599 -1.0434 -0.1730
  278TMC3    C8 4206   4.064   4.563  13.789 -0.1700  0.1839  0.2915
  278TMC3    O1 4207   3.946   0.293  13.545  0.0475  0.0281  0.1630
  278TMC3    O2 4208   4.126   4.513  13.879  0.0461  0.2407 -0.0775
  279MPD2     C 4209   3.832   0.138   0.070  0.2978  0.5453 -0.1446
  279MPD2    C1 4210   3.745   0.252   0.062  0.0761  0.2485  0.1780
  279MPD2    C2 4211   3.755   0.335  17.670 -0.5797  0.5984  0.4529
  279MPD2    C3 4212   3.845   0.320  17.566  0.4210  0.6744  0.3478
  279MPD2    C4 4213   3.925   0.204  17.569  0.0515 -0.5634  0.0783
  279MPD2    C5 4214   3.921   0.120  17.681  0.3182 -0.0306  0.0418
  279MPD2     H 4215   3.691   0.422  17.657 -1.1575 -0.0452 -0.9946
  279MPD2    H1 4216   3.994   0.174  17.491  1.0321 -1.9140  1.4624
  279MPD2    H2 4217   3.827   0.055   0.140 -0.1799 -0.6210 -1.5438
  279MPD2    H3 4218   3.969   0.023  17.683 -2.3512 -1.3467  0.0503
  279MPD2     N 4219   3.842   0.404  17.448 -0.7984  0.1752  0.3643
  279MPD2    H5 4220   3.894   0.371  17.367  1.3523  0.6268  1.5607
  279MPD2    N1 4221   3.651   0.280   0.165  0.5895  0.1138  0.9898
  279MPD2    H7 4222   3.640   0.216   0.243  2.1224 -1.2972  0.0786
  280TMC3    C1 4223   3.440   0.369   0.220 -0.0858 -0.0058 -0.3978
  280TMC3    C2 4224   3.380   0.249   0.207 -0.2865  0.1849 -0.4361
  280TMC3    C3 4225   3.248   0.246   0.195  0.1019  0.0047  0.1072
  280TMC3    C4 4226   3.364   0.486   0.225 -0.6316  0.0819 -0.3514
  280TMC3    C5 4227   3.228   0.473   0.212 -0.4249  0.0664  0.4545
  280TMC3    C6 4228   3.169   0.355   0.194  0.2578 -0.0690 -0.0263
  280TMC3     C 4229   3.574   0.396   0.171 -0.1455  0.3602  0.3087
  280TMC3     O 4230   3.587   0.504   0.116 -0.1412 -0.1356  0.0209
  280TMC3     H 4231   3.430   0.154   0.190 -1.1345 -0.1045 -1.3613
  280TMC3    H1 4232   3.412   0.581   0.245 -1.9771  0.1612  2.4087
  280TMC3    H2 4233   3.060   0.351   0.193  0.2060  1.2706  0.4770
  280TMC3    C7 4234   3.149   0.594   0.205 -0.2286  0.8547 -0.8034
  280TMC3    C8 4235   3.196   0.115   0.153 -0.5582 -0.1026 -0.0262
  280TMC3    O1 4236   3.185   0.680   0.281  0.1263  0.1698 -0.1524
  280TMC3    O2 4237   3.259   0.049   0.070  0.2275  0.1075  0.2578
  281TMC3    C1 4238   2.078   0.922  13.298 -0.4013  0.1123 -0.1491
  281TMC3    C2 4239   2.180   0.951  13.218  0.6880 -0.1269 -0.3313
  281TMC3    C3 4240   2.207   0.865  13.117  0.3463 -0.5166 -0.5697
  281TMC3    C4 4241   1.992   0.809  13.275  0.0161 -0.3393  0.2077
  281TMC3    C5 4242   2.032   0.722  13.181  0.3280 -0.0861  0.6461
  281TMC3    C6 4243   2.145   0.743  13.104 -0.2099 -0.6830 -0.4640
  281TMC3     C 4244   2.010   1.030  13.370  1.0936  0.1809  0.0037
  281TMC3     O 4245   1.891   1.016  13.401  0.2144 -0.0067 -0.0952
  281TMC3     H 4246   2.225   1.050  13.217  0.7665 -0.1268  3.1674
  281TMC3    H1 4247   1.908   0.805  13.343 -1.2941  2.2505 -1.2605
  281TMC3    H2 4248   2.171   0.680  13.020  0.3985 -2.1836  0.8393
  281TMC3    C7 4249   1.979   0.591  13.176  0.0297 -0.4758 -0.2269
  281TMC3    C8 4250   2.273   0.916  12.995 -0.4291 -0.1833 -0.4402
  281TMC3    O1 4251   2.055   0.501  13.145 -0.2127 -0.2171 -0.2553
  281TMC3    O2 4252   2.345   0.836  12.934  0.6686  0.6439  0.3041
  282MPD2     C 4253   3.782   1.908  14.518  0.5682  0.0037  0.0258
  282MPD2    C1 4254   3.740   2.009  14.604 -0.1879  0.2447  0.3392
  282MPD2    C2 4255   3.722   2.140  14.564 -0.0847  0.0939  0.3861
  282MPD2    C3 4256   3.716   2.182  14.426 -0.6349  0.1002 -0.3213
  282MPD2    C4 4257   3.735   2.078  14.336 -0.1057 -0.3278 -0.6919
  282MPD2    C5 4258   3.775   1.949  14.388  0.3895 -0.5095 -0.2479
  282MPD2     H 4259   3.704   2.212  14.644  0.7524  1.4302 -0.6281
  282MPD2    H1 4260   3.732   2.097  14.229  0.3940 -2.2818 -1.0556
  282MPD2    H2 4261   3.813   1.810  14.551 -1.6202  0.0492  2.1663
  282MPD2    H3 4262   3.791   1.874  14.311  0.5581 -1.0479  0.3197
  282MPD2     N 4263   3.664   2.311  14.390  0.2308 -0.5477  0.1384
  282MPD2    H5 4264   3.645   2.378  14.464 -2.3372  0.9092 -1.8471
  282MPD2    N1 4265   3.725   1.986  14.742 -0.0542  0.2724  0.0614
  282MPD2    H7 4266   3.700   2.064  14.801 -1.6031  0.3809 -0.7523
  283TMC3    C1 4267   3.691   1.891  14.948 -0.5196  0.0909  0.4648
  283TMC3    C2 4268   3.767   1.975  15.023 -0.1699 -0.0508 -0.7255
  283TMC3    C3 4269   3.774   1.953  15.153 -0.0507  0.3046 -0.0220
  283TMC3    C4 4270   3.606   1.798  14.997  0.2229 -0.1070 -0.1932
  283TMC3    C5 4271   3.602   1.788  15.134 -0.4672 -0.3860 -0.0557
  283TMC3    C6 4272   3.688   1.863  15.208 -0.4514  0.3905  0.7887
  283TMC3     C 4273   3.735   1.868  14.810 -0.5710 -0.6238  0.2313
  283TMC3     O 4274   3.760   1.750  14.781  0.2721 -0.6367 -0.7231
  283TMC3     H 4275   3.823   2.049  14.967  0.0453  0.8637  0.6943
  283TMC3    H1 4276   3.539   1.739  14.935  2.9846 -1.3760 -2.0220
  283TMC3    H2 4277   3.672   1.857  15.315 -2.3173 -2.1717  0.3740
  283TMC3    C7 4278   3.487   1.716  15.190  0.3355 -0.2132 -0.0188
  283TMC3    C8 4279   3.816   2.058  15.245  0.0418  0.4956  0.1077
  283TMC3    O1 4280   3.467   1.731  15.305  0.6673  0.9048  0.0181
  283TMC3    O2 4281   3.832   2.015  15.359 -0.1694 -0.1991 -0.3208
  284MPD2     C 4282   2.082   1.151  12.193 -0.2822  0.5069 -0.2595
  284MPD2    C1 4283   1.971   1.197  12.127  0.3008  0.3514 -1.2647
  284MPD2    C2 4284   1.851   1.132  12.141  0.0368 -0.0285 -0.0617
  284MPD2    C3 4285   1.850   1.012  12.208 -0.2075 -0.1774 -0.0966
  284MPD2    C4 4286   1.962   0.961  12.264  0.1087  0.2773 -1.1586
  284MPD2    C5 4287   2.074   1.034  12.268 -0.1733  0.2364 -0.2339
  284MPD2     H 4288   1.772   1.170  12.078 -0.6323  1.9920  2.0031
  284MPD2    H1 4289   1.967   0.869  12.320 -1.2302  1.6029  1.1813
  284MPD2    H2 4290   2.183   1.188  12.187 -0.5693  1.6420  1.6051
  284MPD2    H3 4291   2.161   0.990  12.315 -1.3002  0.2003  1.8082
  284MPD2     N 4292   1.740   0.927  12.211 -0.0484 -0.3280  0.4435
  284MPD2    H5 4293   1.749   0.833  12.248 -2.0201 -0.2248  1.1852
  284MPD2    N1 4294   1.969   1.314  12.039  0.9743  0.4437 -0.5997
  284MPD2    H7 4295   1.879   1.346  12.005  1.1238  1.7268  0.2081
  285TMC3    C1 4296   2.063   1.483  11.913  0.6656 -0.0950 -0.0123
  285TMC3    C2 4297   1.983   1.452  11.801  0.1010 -0.2109 -0.3228
  285TMC3    C3 4298   1.994   1.538  11.694 -0.7187 -0.2614  0.5752
  285TMC3    C4 4299   2.144   1.594  11.926 -0.5257 -0.8038  0.4502
  285TMC3    C5 4300   2.140   1.682  11.825 -0.7502  0.0413  0.2440
  285TMC3    C6 4301   2.066   1.660  11.713 -0.5231 -0.1424  0.4103
  285TMC3     C 4302   2.078   1.387  12.015  0.8310 -0.1408  0.0484
  285TMC3     O 4303   2.183   1.390  12.076 -0.0402  0.2755  0.0262
  285TMC3     H 4304   1.940   1.354  11.783 -0.9661 -0.2052  2.2114
  285TMC3    H1 4305   2.194   1.613  12.020  0.2875 -2.1985  0.2987
  285TMC3    H2 4306   2.066   1.725  11.627 -1.1772 -2.7365 -1.5330
  285TMC3    C7 4307   2.251   1.766  11.792 -0.2551  0.0428  0.1397
  285TMC3    C8 4308   2.044   1.472  11.582  0.1361 -0.1979 -0.4105
  285TMC3    O1 4309   2.226   1.852  11.708 -0.3089 -0.5175 -0.4813
  285TMC3    O2 4310   1.973   1.382  11.538 -0.6000 -0.1174  0.2057
  286MPD2     C 4311   2.199   0.672   1.381 -0.4210 -0.0332 -0.2164
  286MPD2    C1 4312   2.213   0.637   1.244  1.2123 -0.0533  0.1898
  286MPD2    C2 4313   2.311   0.543   1.220 -0.2136  0.0290  0.0870
  286MPD2    C3 4314   2.379   0.490   1.322 -1.2992 -0.0216  0.3936
  286MPD2    C4 4315   2.374   0.533   1.449  0.6151  0.2272 -0.0018
  286MPD2    C5 4316   2.282   0.626   1.476 -0.2984  0.4998  0.0974
  286MPD2     H 4317   2.325   0.496   1.123  0.1881  0.2428  0.0422
  286MPD2    H1 4318   2.431   0.494   1.533  2.0547  0.2603 -0.9743
  286MPD2    H2 4319   2.117   0.736   1.411 -2.8845 -3.7528  0.8992
  286MPD2    H3 4320   2.277   0.663   1.578  0.0792 -1.3536  0.7906
  286MPD2     N 4321   2.474   0.384   1.302 -0.2619  0.0408 -0.3301
  286MPD2    H5 4322   2.527   0.364   1.386  0.3700  0.7782 -0.5552
  286MPD2    N1 4323   2.128   0.676   1.142  0.3682 -0.0799 -0.2378
  286MPD2    H7 4324   2.142   0.641   1.048  0.6433  1.8272 -0.9145
  287TMC3    C1 4325   2.596   0.196   1.219 -0.0982 -0.3762  0.3330
  287TMC3    C2 4326   2.645   0.134   1.107 -0.2620 -0.2455 -0.0715
  287TMC3    C3 4327   2.759   0.065   1.122  0.1452 -0.5145  0.4801
  287TMC3    C4 4328   2.650   0.179   1.344 -0.1015  0.5276 -0.4984
  287TMC3    C5 4329   2.760   0.091   1.347  0.7149 -0.4197  0.5646
  287TMC3    C6 4330   2.824   0.042   1.237 -0.1492 -0.6288  0.6697
  287TMC3     C 4331   2.497   0.301   1.194 -0.4107  0.3990  0.2834
  287TMC3     O 4332   2.455   0.308   1.078 -0.2291  0.0167  0.8768
  287TMC3     H 4333   2.603   0.161   1.010 -2.3634  0.3553  0.9848
  287TMC3    H1 4334   2.609   0.226   1.433 -3.3227 -1.6998 -0.8206
  287TMC3    H2 4335   2.917   4.715   1.238 -1.1752 -2.3107  1.5953
  287TMC3    C7 4336   2.836   0.103   1.475 -0.1079 -0.3971  0.5810
  287TMC3    C8 4337   2.790   4.693   1.025  0.0149  0.7438  0.1704
  287TMC3    O1 4338   2.786   0.163   1.568  0.6850 -0.0063 -0.1726
  287TMC3    O2 4339   2.895   4.628   1.023  0.1262 -0.3057  0.2102
  288TMC3    C1 4340   4.067   4.311  14.252  0.2656 -0.0396 -0.8721
  288TMC3    C2 4341   4.017   4.229  14.350 -0.3175 -1.1153 -0.2642
  288TMC3    C3 4342   3.904   4.154  14.336 -0.4609 -0.5213 -0.1287
  288TMC3    C4 4343   3.995   4.321  14.138 -0.5508  0.1952 -0.2834
  288TMC3    C5 4344   3.879   4.247  14.123  0.1140  0.4552 -0.7696
  288TMC3    C6 4345   3.831   4.164  14.223 -0.5390 -0.7317  0.1828
  288TMC3     C 4346   4.127   4.436  14.300  0.1964  0.3953  0.6612
  288TMC3     O 4347   4.094   4.462  14.414 -0.0396  0.1612  0.8378
  288TMC3     H 4348   4.069   4.217  14.445  1.2316  0.9621 -0.8825
  288TMC3    H1 4349   4.026   4.384  14.056 -0.4474 -1.2727 -1.3806
  288TMC3    H2 4350   3.725   4.138  14.222 -0.9688  1.1254 -1.8655
  288TMC3    C7 4351   3.778   4.294  14.029  0.4170  0.0663  0.0125
  288TMC3    C8 4352   3.831   4.164  14.455  0.5380  0.3387  0.0321
  288TMC3    O1 4353   3.692   4.213  14.012 -0.2432  0.3550  0.3224
  288TMC3    O2 4354   3.821   4.273  14.508 -0.2690 -0.0596 -0.4234
  289MPD2     C 4355   4.188   3.757  14.292 -0.6854  0.8217  0.1113
  289MPD2    C1 4356   4.175   3.860  14.201 -0.1829  0.5217 -0.5150
  289MPD2    C2 4357   4.071   3.853  14.108 -0.8497 -0.0230 -0.0998
  289MPD2    C3 4358   3.981   3.745  14.103  0.0973  0.1713  0.6312
  289MPD2    C4 4359   4.010   3.640  14.179  0.0964  0.1286 -0.5209
  289MPD2    C5 4360   4.101   3.653  14.282 -0.0605  0.3910  0.4344
  289MPD2     H 4361   4.058   3.938  14.042  0.4601  1.0093  0.9802
  289MPD2    H1 4362   3.949   3.551  14.179  1.7196 -0.9714 -0.1059
  289MPD2    H2 4363   4.269   3.764  14.364  1.0608  0.4055 -1.8252
  289MPD2    H3 4364   4.109   3.572  14.353  1.6809 -0.2044 -0.4483
  289MPD2     N 4365   3.867   3.733  14.027 -0.2521 -0.3025 -0.1066
  289MPD2    H5 4366   3.811   3.649  14.029 -1.1580  0.2899 -0.3692
  289MPD2    N1 4367   4.267   3.966  14.199 -0.2051  0.0952 -0.1182
  289MPD2    H7 4368   4.322   3.971  14.284  0.4552  2.0054 -0.6716
  290TMC3    C1 4369   3.693   3.827  13.879 -0.0922  0.7693 -0.4873
  290TMC3    C2 4370   3.605   3.930  13.856 -0.3168  0.2956 -0.5346
  290TMC3    C3 4371   3.485   3.901  13.794 -0.2138 -0.6090 -0.2796
  290TMC3    C4 4372   3.659   3.696  13.844  1.2021  0.2226 -0.6583
  290TMC3    C5 4373   3.540   3.673  13.781  0.3343 -0.3486 -0.5416
  290TMC3    C6 4374   3.457   3.775  13.745  0.5108  0.3207  0.1332
  290TMC3     C 4375   3.806   3.851  13.971 -0.2402  0.0662  0.5801
  290TMC3     O 4376   3.829   3.969  13.997  0.0858 -0.3736 -0.2249
  290TMC3     H 4377   3.632   4.025  13.900  0.0336 -0.3492  0.6118
  290TMC3    H1 4378   3.731   3.616  13.858 -0.0664 -0.8422 -0.1988
  290TMC3    H2 4379   3.365   3.756  13.692 -1.3719  3.0254  2.4572
  290TMC3    C7 4380   3.502   3.542  13.736  0.0218 -0.5514  0.2636
  290TMC3    C8 4381   3.394   4.001  13.744 -0.0311  0.5146  0.8631
  290TMC3    O1 4382   3.422   3.531  13.642  0.0823 -0.1736 -0.2565
  290TMC3    O2 4383   3.319   3.975  13.651  0.4003  0.2753 -0.0513
  291MPD2     C 4384   3.190   3.670  17.362 -0.4994 -0.1708 -0.1544
  291MPD2    C1 4385   3.250   3.661  17.484  0.3952 -0.4149  0.2040
  291MPD2    C2 4386   3.310   3.772  17.538  0.6897 -0.0700  0.1844
  291MPD2    C3 4387   3.325   3.886  17.467  0.1722 -0.2425  0.0208
  291MPD2    C4 4388   3.254   3.895  17.357  0.5001 -0.2013 -1.1297
  291MPD2    C5 4389   3.198   3.785  17.296 -0.0487  1.0019  0.0343
  291MPD2     H 4390   3.364   3.748  17.629  1.9741  0.3974 -0.4659
  291MPD2    H1 4391   3.260   3.987  17.300 -0.7147  0.8109  0.3861
  291MPD2    H2 4392   3.141   3.588  17.310  0.9696 -0.4990 -1.0302
  291MPD2    H3 4393   3.152   3.796  17.199  1.6656  2.1274 -0.6562
  291MPD2     N 4394   3.405   4.003  17.508 -0.0333 -0.3678  0.5573
  291MPD2    H5 4395   3.406   4.079  17.441  0.2769  1.5685  2.7641
  291MPD2    N1 4396   3.240   3.540  17.562  0.0707  0.0731 -0.1202
  291MPD2    H7 4397   3.302   3.538  17.643  0.0033  0.2594 -0.0641
  292TMC3    C1 4398   3.164   3.326  17.628  0.1774 -0.8245 -0.1726
  292TMC3    C2 4399   3.196   3.351   0.046 -0.0799 -0.6816  0.1506
  292TMC3    C3 4400   3.163   3.252   0.131  0.5076 -0.5254 -0.0261
  292TMC3    C4 4401   3.108   3.208  17.583 -0.3384  0.3915 -0.1989
  292TMC3    C5 4402   3.094   3.108  17.677  0.5287  0.2374 -0.1603
  292TMC3    C6 4403   3.124   3.127   0.094  0.1002 -0.5412  0.4638
  292TMC3     C 4404   3.159   3.433  17.532  0.1489 -0.1268  0.0618
  292TMC3     O 4405   3.064   3.429  17.455  0.2533  0.1961 -0.5220
  292TMC3     H 4406   3.249   3.443   0.067  2.1605 -2.2263  1.3270
  292TMC3    H1 4407   3.096   3.193  17.477 -0.5005 -1.8154  0.1342
  292TMC3    H2 4408   3.125   3.048   0.169 -0.8904 -0.7741  0.2263
  292TMC3    C7 4409   3.105   2.969  17.631  0.6421  0.6315  0.2644
  292TMC3    C8 4410   3.205   3.274   0.269  0.0523 -0.0580  1.1166
  292TMC3    O1 4411   3.171   2.893  17.697 -0.3206  0.5934 -0.3428
  292TMC3    O2 4412   3.296   3.350   0.286 -0.0936  0.4514 -0.5401
  293MPD2     C 4413   0.019   0.581  12.126 -0.1496  0.1478 -0.0746
  293MPD2    C1 4414   4.698   0.474  12.189 -0.2489 -0.6747 -0.4990
  293MPD2    C2 4415   0.039   0.420  12.297 -0.2114 -0.3307 -0.0587
  293MPD2    C3 4416   0.163   0.478  12.335  0.1589 -0.5406  0.0610
  293MPD2    C4 4417   0.210   0.586  12.262  0.6501  0.6710 -0.1043
  293MPD2    C5 4418   0.134   0.638  12.160 -0.5843  0.8126 -0.8317
  293MPD2     H 4419   4.722   0.333  12.344  2.2334 -2.2333 -1.1637
  293MPD2    H1 4420   0.299   0.644  12.283  1.5703 -1.1507  0.9905
  293MPD2    H2 4421   4.689   0.626  12.047 -1.3570 -1.3410 -0.0294
  293MPD2    H3 4422   0.168   0.733  12.122  0.9235 -0.4140 -2.5400
  293MPD2     N 4423   0.225   0.434  12.455 -0.1584  0.2296 -0.9591
  293MPD2    H5 4424   0.177   0.360  12.505  1.3619 -1.0461 -1.3998
  293MPD2    N1 4425   4.571   0.428  12.136 -0.3876  0.4193  0.3173
  293MPD2    H7 4426   4.521   0.486  12.070  0.0762  0.1978 -0.2202
  294TMC3    C1 4427   4.419   0.281  12.045 -0.1931  0.5450 -1.1440
  294TMC3    C2 4428   4.337   0.167  12.057 -0.0459 -0.6954 -0.5008
  294TMC3    C3 4429   4.260   0.135  11.950  1.0413  0.1279  0.5155
  294TMC3    C4 4430   4.407   0.368  11.940  0.5392  0.6322  0.6071
  294TMC3    C5 4431   4.323   0.341  11.834 -0.2322 -0.7404  0.0937
  294TMC3    C6 4432   4.259   0.217  11.832 -0.4998  0.0519  0.8837
  294TMC3     C 4433   4.513   0.305  12.152 -0.1244 -0.7070 -0.1160
  294TMC3     O 4434   4.554   0.207  12.216  0.2789  0.1619 -0.1419
  294TMC3     H 4435   4.339   0.101  12.143 -1.0544  0.3949  0.3632
  294TMC3    H1 4436   4.472   0.454  11.924 -2.3793  2.3295 -2.2169
  294TMC3    H2 4437   4.208   0.177  11.746  1.7797  0.5745 -0.7072
  294TMC3    C7 4438   4.364   0.373  11.699 -0.2660  0.6245 -0.1235
  294TMC3    C8 4439   4.249   4.718  11.932 -0.3293 -0.5633 -0.1046
  294TMC3    O1 4440   4.481   0.378  11.677 -0.7218 -0.0756  0.3897
  294TMC3    O2 4441   4.309   4.675  11.833 -0.5281 -0.3246  0.1214
  295MPD2     C 4442   0.548   3.023   0.543 -0.6252  0.4840  0.6699
  295MPD2    C1 4443   0.632   3.138   0.545  0.1230 -0.3332  0.5982
  295MPD2    C2 4444   0.698   3.172   0.665 -0.3165  0.4437 -0.7115
  295MPD2    C3 4445   0.664   3.106   0.784 -0.0430 -0.4934 -0.8525
  295MPD2    C4 4446   0.579   2.999   0.773 -0.4656  0.3179  0.7155
  295MPD2    C5 4447   0.520   2.959   0.658  0.6895  0.2198  0.0751
  295MPD2     H 4448   0.761   3.260   0.671 -2.1327  1.6422  0.8448
  295MPD2    H1 4449   0.543   2.948   0.862  0.1180 -3.3206 -1.1119
  295MPD2    H2 4450   0.499   2.992   0.451 -2.3161  0.4683  1.5676
  295MPD2    H3 4451   0.441   2.886   0.658 -0.4409  1.4352 -0.9169
  295MPD2     N 4452   0.716   3.142   0.913 -0.2446 -0.0534  0.3403
  295MPD2    H5 4453   0.699   3.073   0.986 -2.2237  1.2518  1.1011
  295MPD2    N1 4454   0.655   3.209   0.429  0.1464  0.5540  0.7763
  295MPD2    H7 4455   0.730   3.278   0.426  1.3844 -0.8522 -0.0247
  296TMC3    C1 4456   0.839   3.254   1.078  0.5121 -0.1324  0.5696
  296TMC3    C2 4457   0.849   3.376   1.142  0.2867  0.1306 -0.0565
  296TMC3    C3 4458   0.896   3.385   1.270  0.4554  0.1072 -0.3598
  296TMC3    C4 4459   0.866   3.141   1.152 -1.1045  0.0953 -0.0248
  296TMC3    C5 4460   0.892   3.155   1.283 -0.0768 -0.2587  0.4842
  296TMC3    C6 4461   0.912   3.273   1.345 -0.1733 -0.8022  0.4277
  296TMC3     C 4462   0.799   3.249   0.943 -0.7349  0.0439 -0.3329
  296TMC3     O 4463   0.824   3.345   0.868  0.3911 -0.6077  0.1883
  296TMC3     H 4464   0.809   3.462   1.090 -0.2970  0.3103  0.6895
  296TMC3    H1 4465   0.857   3.042   1.109  0.3154  0.0420 -0.1705
  296TMC3    H2 4466   0.942   3.282   1.449 -0.7646  3.5310  0.2573
  296TMC3    C7 4467   0.908   3.035   1.356 -0.2933 -0.3773 -0.3373
  296TMC3    C8 4468   0.862   3.496   1.349  0.1734 -0.2308  0.0055
  296TMC3    O1 4469   0.966   2.944   1.296 -0.0722 -0.5780 -0.1633
  296TMC3    O2 4470   0.779   3.577   1.309  0.0704  0.5216 -0.2240
  297MPD2     C 4471   3.318   0.518  16.476 -0.0059 -0.4633 -0.4835
  297MPD2    C1 4472   3.334   0.535  16.340  0.1668 -0.0045  0.8597
  297MPD2    C2 4473   3.432   0.626  16.292  0.2763 -0.1188 -0.4427
  297MPD2    C3 4474   3.518   0.701  16.373 -0.5259  0.2180 -0.4019
  297MPD2    C4 4475   3.517   0.670  16.507  0.1639  0.3658 -0.0865
  297MPD2    C5 4476   3.407   0.591  16.557 -0.3640 -0.1012  0.3069
  297MPD2     H 4477   3.439   0.647  16.186 -1.8312 -0.9015 -0.7517
  297MPD2    H1 4478   3.589   0.710  16.578 -0.9292  2.5579 -0.1915
  297MPD2    H2 4479   3.251   0.445  16.519  0.4981 -0.4576  0.3057
  297MPD2    H3 4480   3.412   0.570  16.663 -0.5324  1.6632  0.6646
  297MPD2     N 4481   3.604   0.797  16.313 -0.2187  0.8134  0.9799
  297MPD2    H5 4482   3.594   0.800  16.212  1.1479 -0.0992  0.8098
  297MPD2    N1 4483   3.248   0.477  16.243  0.2318  0.7927 -0.6252
  297MPD2    H7 4484   3.278   0.498  16.149 -1.6513 -0.8341 -1.5744
  298TMC3    C1 4485   3.073   0.359  16.152 -0.5412 -0.0041 -0.2188
  298TMC3    C2 4486   3.144   0.321  16.046  0.1217 -0.1289  0.7029
  298TMC3    C3 4487   3.079   0.311  15.924  0.0180 -0.4179 -0.7230
  298TMC3    C4 4488   2.935   0.370  16.149 -0.0785 -0.5853  0.0737
  298TMC3    C5 4489   2.876   0.368  16.028 -0.0127 -0.5506 -0.3613
  298TMC3    C6 4490   2.946   0.345  15.914 -0.1457  0.1791 -0.4948
  298TMC3     C 4491   3.149   0.386  16.272 -0.2083  0.5253  0.3065
  298TMC3     O 4492   3.099   0.362  16.378  0.1169  1.0798  0.2375
  298TMC3     H 4493   3.249   0.299  16.063  0.0221 -2.0101 -1.2334
  298TMC3    H1 4494   2.879   0.409  16.233 -1.7191  1.7755 -2.0782
  298TMC3    H2 4495   2.896   0.346  15.818  0.6229  3.3874 -0.8663
  298TMC3    C7 4496   2.738   0.407  16.027  0.3203  0.0250 -0.6348
  298TMC3    C8 4497   3.147   0.247  15.815  0.6745 -0.0257 -0.2631
  298TMC3    O1 4498   2.671   0.389  16.127  0.7217  0.0947  0.2448
  298TMC3    O2 4499   3.077   0.222  15.718  0.0967 -0.5489 -0.6710
  299MPD2     C 4500   3.685   0.525  10.640  0.3464  0.0974  0.3393
  299MPD2    C1 4501   3.641   0.641  10.587 -0.2256 -0.1691  0.2887
  299MPD2    C2 4502   3.527   0.649  10.512 -0.8177  0.0849  0.6495
  299MPD2    C3 4503   3.442   0.539  10.504 -0.4381 -0.0661 -0.1722
  299MPD2    C4 4504   3.481   0.426  10.565  0.0056 -0.1744  0.5823
  299MPD2    C5 4505   3.602   0.416  10.634 -0.0354  0.1354  0.0738
  299MPD2     H 4506   3.489   0.742  10.471 -0.7112 -0.0370  0.2739
  299MPD2    H1 4507   3.410   0.343  10.564 -0.7574  0.4801  0.9091
  299MPD2    H2 4508   3.787   0.506  10.673  0.6009  2.3472  0.8248
  299MPD2    H3 4509   3.619   0.327  10.693 -0.8665 -0.0363  0.0481
  299MPD2     N 4510   3.305   0.550  10.469  0.2660  0.2115 -1.0353
  299MPD2    H5 4511   3.248   0.467  10.484 -0.9085  0.8639 -1.8522
  299MPD2    N1 4512   3.721   0.759  10.621  0.6315  0.7133  0.3055
  299MPD2    H7 4513   3.804   0.742  10.677  0.3153  5.2699  2.1680
  300TMC3    C1 4514   3.093   0.645  10.420 -0.1238 -0.3481  0.4529
  300TMC3    C2 4515   3.026   0.752  10.374  0.3229 -0.3458  0.1140
  300TMC3    C3 4516   2.892   0.759  10.403 -0.0488 -0.0950 -0.4139
  300TMC3    C4 4517   3.032   0.535  10.479 -0.2497 -0.5272 -0.4433
  300TMC3    C5 4518   2.898   0.552  10.505 -0.1124 -0.4396 -0.8041
  300TMC3    C6 4519   2.825   0.665  10.477  0.1206 -0.3688  0.3482
  300TMC3     C 4520   3.239   0.662  10.421  0.4348  0.2530  0.4065
  300TMC3     O 4521   3.284   0.768  10.386  0.3448 -0.4007  0.3243
  300TMC3     H 4522   3.074   0.835  10.325 -3.0937  0.8134 -1.2201
  300TMC3    H1 4523   3.080   0.440  10.497  0.3230 -0.2539 -0.5359
  300TMC3    H2 4524   2.721   0.675  10.507  0.2518 -1.6367  1.2191
  300TMC3    C7 4525   2.843   0.458  10.601  0.0383  0.6307  0.0229
  300TMC3    C8 4526   2.863   0.897  10.431  0.1630 -0.3770  0.1609
  300TMC3    O1 4527   2.915   0.364  10.624 -0.2050 -0.5187 -0.6023
  300TMC3    O2 4528   2.953   0.983  10.454  0.4008 -0.0013  0.5682
  301MPD2     C 4529   0.252   1.306   1.686 -0.6795 -0.1907  0.5713
  301MPD2    C1 4530   0.255   1.286   1.549 -0.3738 -0.6501 -0.1334
  301MPD2    C2 4531   0.299   1.166   1.498  0.2890  0.3433  0.0795
  301MPD2    C3 4532   0.344   1.061   1.582  0.4330 -0.1500 -0.1684
  301MPD2    C4 4533   0.339   1.083   1.722  0.0566  0.4582  0.2765
  301MPD2    C5 4534   0.299   1.211   1.768 -0.1843 -0.1169  0.1265
  301MPD2     H 4535   0.305   1.150   1.391  2.5909 -1.1379  0.4331
  301MPD2    H1 4536   0.371   1.016   1.801  1.4067  0.8526  0.0612
  301MPD2    H2 4537   0.221   1.401   1.727  0.9167  0.6953 -0.2712
  301MPD2    H3 4538   0.315   1.233   1.873  1.1165 -1.7226  0.2570
  301MPD2     N 4539   0.386   0.930   1.531  0.3007 -0.3701 -1.0159
  301MPD2    H5 4540   0.404   0.859   1.601  0.2439 -1.9629 -2.5976
  301MPD2    N1 4541   0.242   1.397   1.452  0.2643 -0.1344  0.8010
  301MPD2    H7 4542   0.263   1.385   1.353 -0.8209  1.5023  0.3552
  302TMC3    C1 4543   0.484   0.779   1.387  0.0975 -0.1039 -0.3651
  302TMC3    C2 4544   0.553   0.734   1.498 -0.0057  0.3744 -0.2155
  302TMC3    C3 4545   0.633   0.625   1.476  0.3157  0.0823 -0.2119
  302TMC3    C4 4546   0.490   0.721   1.264 -0.0603  0.2906  0.3488
  302TMC3    C5 4547   0.579   0.618   1.257 -0.1456  0.7026 -0.1033
  302TMC3    C6 4548   0.647   0.566   1.357  0.3548  0.1587  0.7346
  302TMC3     C 4549   0.401   0.897   1.400 -0.0728 -0.4185  0.1796
  302TMC3     O 4550   0.354   0.956   1.305 -0.5166 -0.1124 -0.0032
  302TMC3     H 4551   0.555   0.782   1.595  1.5032 -0.8659  0.3693
  302TMC3    H1 4552   0.418   0.736   1.183  0.0169  1.5889  0.5251
  302TMC3    H2 4553   0.713   0.480   1.347 -1.6025 -1.3084  0.3682
  302TMC3    C7 4554   0.617   0.564   1.124 -0.0188  0.2415  0.2489
  302TMC3    C8 4555   0.763   0.632   1.537 -1.2571  0.4943  0.1144
  302TMC3    O1 4556   0.675   0.454   1.125 -0.4185  0.0747  0.1747
  302TMC3    O2 4557   0.813   0.741   1.532  0.0286  0.0429  0.1161
  303MPD2     C 4558   1.297   0.132  10.442  0.1807 -0.2073 -0.1359
  303MPD2    C1 4559   1.186   0.060  10.413  0.8138  0.8877  0.0431
  303MPD2    C2 4560   1.191   4.708  10.302 -0.1967  0.2377 -0.3707
  303MPD2    C3 4561   1.296   4.711  10.214  0.1647 -0.2889  0.7331
  303MPD2    C4 4562   1.402   0.065  10.242  0.5303  0.0797 -0.0670
  303MPD2    C5 4563   1.403   0.133  10.361 -0.5923  0.0725  0.0790
  303MPD2     H 4564   1.106   4.642  10.295  1.2847 -1.6431 -0.6711
  303MPD2    H1 4565   1.491   0.062  10.180 -1.0406 -0.5228 -2.2749
  303MPD2    H2 4566   1.284   0.189  10.533  1.1059  0.6762 -0.5617
  303MPD2    H3 4567   1.486   0.201  10.374 -0.1009 -0.2782 -1.1521
  303MPD2     N 4568   1.309   4.621  10.102 -0.3911 -0.9133 -0.1159
  303MPD2    H5 4569   1.394   4.634  10.048  0.9926 -0.2385  2.2576
  303MPD2    N1 4570   1.081   0.062  10.500 -0.2594 -0.5925  0.0234
  303MPD2    H7 4571   1.086   0.097  10.595 -0.0276 -0.1147 -0.1653
  304TMC3    C1 4572   0.860   0.023  10.594 -0.1687 -0.5603  0.0760
  304TMC3    C2 4573   0.726   0.026  10.566 -0.1570  0.1144  0.2866
  304TMC3    C3 4574   0.631   4.724  10.662 -0.6547 -0.2817 -0.4042
  304TMC3    C4 4575   0.908   4.692  10.704  0.9438 -0.4006 -0.6308
  304TMC3    C5 4576   0.816   4.651  10.797 -0.3329  0.2320  0.5623
  304TMC3    C6 4577   0.680   4.669  10.777  0.0684 -0.0925 -0.4613
  304TMC3     C 4578   0.950   0.021  10.480  1.0685 -0.4035 -0.8453
  304TMC3     O 4579   0.907   4.708  10.372 -0.2410 -0.4412 -0.2341
  304TMC3     H 4580   0.690   0.050  10.467  1.7535  0.7068 -0.2651
  304TMC3    H1 4581   1.013   4.666  10.711  0.9881  0.4254  1.7134
  304TMC3    H2 4582   0.612   4.631  10.853  2.2643 -0.1600  1.4708
  304TMC3    C7 4583   0.846   4.514  10.817 -0.3170  0.3020  0.3520
  304TMC3    C8 4584   0.526   4.645  10.614 -0.0740 -0.5264 -0.2972
  304TMC3    O1 4585   0.890   4.456  10.717  0.4007  0.3329 -0.0576
  304TMC3    O2 4586   0.553   4.590  10.506 -0.2047 -0.0377 -0.3966
  305MPD2     C 4587   4.061   2.283  13.844  0.1455  0.1739 -0.0095
  305MPD2    C1 4588   4.002   2.167  13.888  0.0362 -0.1358 -0.1973
  305MPD2    C2 4589   3.915   2.101  13.800  0.5226 -0.5085  0.1090
  305MPD2    C3 4590   3.899   2.139  13.672 -0.0047  0.4075  0.7240
  305MPD2    C4 4591   3.948   2.259  13.628  0.0789 -0.1919  0.0737
  305MPD2    C5 4592   4.033   2.328  13.712  0.5598  0.0846 -0.0616
  305MPD2     H 4593   3.857   2.017  13.835  0.2912 -0.8087 -0.9942
  305MPD2    H1 4594   3.938   2.295  13.526 -0.5670  0.5497  0.3930
  305MPD2    H2 4595   4.129   2.343  13.903 -0.1918  0.2510  0.3026
  305MPD2    H3 4596   4.089   2.412  13.673 -2.5290  3.2845  2.3968
  305MPD2     N 4597   3.812   2.086  13.578  0.5159  0.4826  0.6090
  305MPD2    H5 4598   3.813   2.135  13.489  2.4176 -1.7347 -0.5767
  305MPD2    N1 4599   4.036   2.119  14.016 -0.8632  0.0051 -0.5769
  305MPD2    H7 4600   4.108   2.167  14.068  0.0864 -0.7689 -1.1761
  306TMC3    C1 4601   4.037   1.991  14.196 -0.0237 -0.4914  0.2105
  306TMC3    C2 4602   4.088   1.873  14.237  0.8866 -0.5838 -0.1718
  306TMC3    C3 4603   4.154   1.859  14.355  0.1007 -0.3673  0.6683
  306TMC3    C4 4604   4.052   2.096  14.286  0.2826 -0.7079  0.0672
  306TMC3    C5 4605   4.118   2.088  14.403  0.0124  0.3386  0.4320
  306TMC3    C6 4606   4.174   1.968  14.441  0.7906 -0.3332 -0.3852
  306TMC3     C 4607   3.987   2.007  14.067  0.5234  0.0213  0.1174
  306TMC3     O 4608   3.902   1.925  14.031 -0.4731  0.7969 -0.3458
  306TMC3     H 4609   4.070   1.781  14.182 -0.9418 -0.6323  0.4910
  306TMC3    H1 4610   4.000   2.190  14.268  3.3640  0.3990 -3.0186
  306TMC3    H2 4611   4.251   1.956  14.517 -0.9515  1.8480  1.7062
  306TMC3    C7 4612   4.077   2.171  14.515  0.2128 -0.0652  0.2003
  306TMC3    C8 4613   4.245   1.747  14.377  0.7397  0.8942 -0.5279
  306TMC3    O1 4614   4.042   2.281  14.488  0.4029  0.2983 -0.1755
  306TMC3    O2 4615   4.345   1.759  14.446 -0.1507  0.3017 -0.3635
  307MPD2     C 4616   1.412   3.720   1.148 -0.1297 -0.0904  0.0858
  307MPD2    C1 4617   1.365   3.828   1.216 -1.0663 -0.0301 -0.1601
  307MPD2    C2 4618   1.226   3.835   1.231 -0.1873  0.3398 -0.0015
  307MPD2    C3 4619   1.138   3.748   1.178 -0.1510  0.6147  0.6084
  307MPD2    C4 4620   1.189   3.634   1.118 -0.0468 -0.0892  0.8127
  307MPD2    C5 4621   1.321   3.626   1.102 -0.0715 -0.1018  0.0388
  307MPD2     H 4622   1.178   3.915   1.287 -1.7349  0.7960 -1.9411
  307MPD2    H1 4623   1.130   3.554   1.075  3.0232 -1.1641 -1.4287
  307MPD2    H2 4624   1.516   3.697   1.127  0.1501  1.8423 -0.5868
  307MPD2    H3 4625   1.353   3.535   1.054 -0.9154  0.0992 -0.8925
  307MPD2     N 4626   1.005   3.781   1.166  0.4036  0.2299  0.5921
  307MPD2    H5 4627   0.981   3.864   1.221  2.0284  1.9025 -1.2115
  307MPD2    N1 4628   1.450   3.930   1.271  0.0761  0.3361 -0.4290
  307MPD2    H7 4629   1.400   4.016   1.292 -1.5831 -0.9998  1.0960
  308TMC3    C1 4630   0.662   3.909   0.917  0.4722  0.4600 -0.3721
  308TMC3    C2 4631   0.623   3.999   1.010 -0.1364 -0.8380  0.4072
  308TMC3    C3 4632   0.653   3.974   1.141 -0.2620  0.5263 -0.8447
  308TMC3    C4 4633   0.741   3.796   0.944 -0.5600  0.6607 -0.2331
  308TMC3    C5 4634   0.783   3.783   1.074 -0.3571  0.0516 -0.2031
  308TMC3    C6 4635   0.739   3.870   1.172  0.8520 -0.0273 -0.2030
  308TMC3     C 4636   0.613   3.934   0.779  0.2244  0.3666  0.0578
  308TMC3     O 4637   0.585   3.842   0.702 -0.9418  0.4168 -0.1660
  308TMC3     H 4638   0.544   4.069   0.984  3.2805  2.2376 -1.8431
  308TMC3    H1 4639   0.761   3.725   0.865 -0.5997 -0.7055  1.0013
  308TMC3    H2 4640   0.762   3.855   1.277 -0.1066 -0.3432 -0.0367
  308TMC3    C7 4641   0.919   3.723   1.077  0.0974  0.0981  1.0048
  308TMC3    C8 4642   0.655   4.084   1.237 -0.0181  0.1765 -0.4274
  308TMC3    O1 4643   0.948   3.645   0.990  0.7937  0.4207 -0.1078
  308TMC3    O2 4644   0.663   4.053   1.353 -0.2804 -0.3016  0.4266
  309MPD2     C 4645   0.791   0.046  17.128  0.0768 -0.0501  0.3273
  309MPD2    C1 4646   0.747   0.121  17.020  0.4326 -0.6011 -1.1499
  309MPD2    C2 4647   0.641   0.202  17.036 -0.3495  0.5523 -0.2592
  309MPD2    C3 4648   0.582   0.225  17.160  0.2820 -0.7200  0.1458
  309MPD2    C4 4649   0.619   0.147  17.264  0.6524 -0.8876 -0.6394
  309MPD2    C5 4650   0.718   0.054  17.246  0.3883 -0.4782 -0.1092
  309MPD2     H 4651   0.607   0.258  16.950 -0.1817  0.3469 -0.4575
  309MPD2    H1 4652   0.565   0.159  17.357 -0.0499 -1.6048 -0.9558
  309MPD2    H2 4653   0.873   4.704  17.121  1.1613  1.1955  0.4454
  309MPD2    H3 4654   0.752   0.000  17.334  3.0521 -1.1766 -1.5861
  309MPD2     N 4655   0.486   0.330  17.181 -0.9241 -0.2024  0.7845
  309MPD2    H5 4656   0.429   0.324  17.265 -0.6283 -0.6285  0.9545
  309MPD2    N1 4657   0.804   0.112  16.885 -0.5930  0.5863 -0.5377
  309MPD2    H7 4658   0.761   0.158  16.805 -0.1871 -1.8025 -2.1276
  310TMC3    C1 4659   0.976   0.034  16.721 -0.5662 -0.6542  0.9203
  310TMC3    C2 4660   0.915   0.107  16.620  0.2882  0.2969  0.2937
  310TMC3    C3 4661   0.983   0.125  16.499 -0.9974 -0.1926 -0.6729
  310TMC3    C4 4662   1.104   4.710  16.697  0.3691  0.3780  0.0598
  310TMC3    C5 4663   1.169   0.000  16.577  0.2294 -0.8511 -0.0939
  310TMC3    C6 4664   1.113   0.081  16.478 -0.4405  0.2665 -0.2807
  310TMC3     C 4665   0.926   0.043  16.856 -0.0915  0.1495  0.3280
  310TMC3     O 4666   1.000   4.723  16.943  0.1748  0.3098 -0.5005
  310TMC3     H 4667   0.811   0.133  16.633  0.7571  0.9721  2.5503
  310TMC3    H1 4668   1.139   4.637  16.770  0.2194  0.6801  0.4326
  310TMC3    H2 4669   1.161   0.114  16.387  0.8282  0.2292  0.3693
  310TMC3    C7 4670   1.303   4.692  16.572  0.2190  0.3412  1.0661
  310TMC3    C8 4671   0.921   0.193  16.387 -0.7026  0.3743 -0.1712
  310TMC3    O1 4672   1.352   4.652  16.679 -0.1847 -0.4111 -0.6517
  310TMC3    O2 4673   0.967   0.178  16.276  0.2755  0.1619 -0.1550
  311MPD2     C 4674   2.789   1.504  12.794  0.0514  0.3603  0.6653
  311MPD2    C1 4675   2.778   1.637  12.768 -0.0147  0.0826  0.3111
  311MPD2    C2 4676   2.647   1.694  12.764 -0.8627  0.3104 -0.6043
  311MPD2    C3 4677   2.532   1.619  12.779  0.0800 -0.3414  1.1500
  311MPD2    C4 4678   2.548   1.486  12.792 -0.9106  0.7538  0.6242
  311MPD2    C5 4679   2.675   1.432  12.812 -0.0182  0.4848  0.9253
  311MPD2     H 4680   2.633   1.802  12.760  0.9964  0.6099  1.1512
  311MPD2    H1 4681   2.466   1.419  12.815 -0.4717  0.4726  1.3787
  311MPD2    H2 4682   2.885   1.454  12.794  0.1801  0.6124  1.8797
  311MPD2    H3 4683   2.667   1.325  12.828 -3.6477  0.7195  0.6420
  311MPD2     N 4684   2.411   1.683  12.795 -0.2356 -0.2944 -0.0994
  311MPD2    H5 4685   2.417   1.782  12.812  1.3103 -0.3551 -0.2844
  311MPD2    N1 4686   2.891   1.725  12.773 -0.1388 -0.1713 -0.8225
  311MPD2    H7 4687   2.877   1.822  12.748  1.0272  0.2827  0.2996
  312TMC3    C1 4688   2.178   1.703  12.847 -0.1796 -0.7353  0.3013
  312TMC3    C2 4689   2.045   1.684  12.806  0.3056  0.0968 -0.3844
  312TMC3    C3 4690   1.954   1.779  12.841 -0.0674 -0.0269  0.5986
  312TMC3    C4 4691   2.211   1.817  12.918  0.1096  0.4797  0.1804
  312TMC3    C5 4692   2.113   1.904  12.956  0.7788 -0.5736  0.7274
  312TMC3    C6 4693   1.982   1.887  12.924 -0.4921 -0.1805 -0.4070
  312TMC3     C 4694   2.290   1.621  12.797 -0.3836 -0.1266 -0.7436
  312TMC3     O 4695   2.264   1.513  12.742  0.1874 -0.6431  0.5521
  312TMC3     H 4696   2.017   1.604  12.738 -1.7731 -0.1252  0.7179
  312TMC3    H1 4697   2.316   1.843  12.928  0.2975  0.2283 -1.1647
  312TMC3    H2 4698   1.915   1.968  12.949  0.4235  0.0399  1.3097
  312TMC3    C7 4699   2.150   2.029  13.011 -0.1908  0.3601 -0.2227
  312TMC3    C8 4700   1.817   1.763  12.815 -0.2150  0.4191  0.2534
  312TMC3    O1 4701   2.071   2.120  12.989 -0.1878 -0.3133  0.5344
  312TMC3    O2 4702   1.779   1.691  12.726 -0.6517  0.6156 -0.5845
  313MPD2     C 4703   2.267   1.082  10.916 -0.2687  0.3526 -0.0629
  313MPD2    C1 4704   2.132   1.064  10.903  0.0818 -0.0343  1.0527
  313MPD2    C2 4705   2.081   0.977  10.816 -0.2933 -0.1979 -0.2172
  313MPD2    C3 4706   2.158   0.918  10.726  0.1215 -0.3206  0.5900
  313MPD2    C4 4707   2.294   0.939  10.731 -0.1679  0.1872  0.2637
  313MPD2    C5 4708   2.349   1.024  10.824  0.0984 -0.4832  0.0036
  313MPD2     H 4709   1.974   0.976  10.803 -0.4153 -2.2100  0.8587
  313MPD2    H1 4710   2.361   0.888  10.663 -0.5945  0.8253 -0.6397
  313MPD2    H2 4711   2.310   1.153  10.986  1.3240 -0.6764  0.0085
  313MPD2    H3 4712   2.457   1.036  10.826  0.0552  0.1359 -1.3018
  313MPD2     N 4713   2.099   0.832  10.630 -0.2708  0.0654 -0.1600
  313MPD2    H5 4714   2.007   0.797  10.655 -0.2287 -1.1580 -1.7770
  313MPD2    N1 4715   2.042   1.151  10.970 -0.1440 -0.0477  0.1991
  313MPD2    H7 4716   1.943   1.127  10.970  0.1095 -1.0583 -1.3931
  314TMC3    C1 4717   1.959   1.345  11.083 -0.2799  0.1627  0.0705
  314TMC3    C2 4718   2.010   1.453  11.149 -0.1915  0.2733  0.0309
  314TMC3    C3 4719   2.013   1.570  11.077  0.2175  0.1704  0.1019
  314TMC3    C4 4720   1.875   1.357  10.976 -0.6536 -0.0027 -0.0011
  314TMC3    C5 4721   1.868   1.476  10.912  0.2642  0.2993  0.2976
  314TMC3    C6 4722   1.940   1.582  10.963 -0.7679 -0.2479  0.7088
  314TMC3     C 4723   2.067   1.263  11.048  0.4122  0.7668  0.0716
  314TMC3     O 4724   2.180   1.303  11.093  0.4727  0.1609 -1.0581
  314TMC3     H 4725   2.063   1.436  11.242  1.9288 -0.5133 -1.3198
  314TMC3    H1 4726   1.822   1.275  10.929  0.9362  0.2705 -2.2658
  314TMC3    H2 4727   1.940   1.678  10.914  3.9616  0.8406  2.8044
  314TMC3    C7 4728   1.805   1.489  10.790 -0.5049  0.4549  0.4603
  314TMC3    C8 4729   2.124   1.654  11.108  0.3375  0.0377  0.4686
  314TMC3    O1 4730   1.697   1.437  10.782 -0.4050 -0.3842  0.5690
  314TMC3    O2 4731   2.117   1.777  11.093 -0.6031 -0.6150  0.3857
  315MPD2     C 4732   2.043   0.279  17.638  0.3683 -0.7730 -0.1423
  315MPD2    C1 4733   2.176   0.250  17.628 -0.3133 -0.2575  0.5952
  315MPD2    C2 4734   2.260   0.321  17.545 -0.1709 -0.1580 -0.3005
  315MPD2    C3 4735   2.210   0.434  17.483 -0.2061 -0.2674 -0.7531
  315MPD2    C4 4736   2.076   0.457  17.482  0.5274  0.0927 -0.1571
  315MPD2    C5 4737   1.989   0.378  17.559  0.5933 -0.0192 -0.6704
  315MPD2     H 4738   2.365   0.295  17.550  0.1447  0.6460 -2.7065
  315MPD2    H1 4739   2.038   0.550  17.442 -1.0113 -0.6914 -0.4865
  315MPD2    H2 4740   1.979   0.229  17.709 -1.5165 -1.1942 -2.1224
  315MPD2    H3 4741   1.886   0.408  17.574  1.4511  1.9080  1.3193
  315MPD2     N 4742   2.299   0.524  17.420 -1.0906  0.3307 -0.3956
  315MPD2    H5 4743   2.397   0.497  17.419 -1.1221  0.2138 -0.0536
  315MPD2    N1 4744   2.239   0.157  17.706  0.4530 -0.4194  0.7456
  315MPD2    H7 4745   2.330   0.133  17.668  0.9148  0.5801  1.2133
  316TMC3    C1 4746   2.367   0.715  17.313 -0.4947  0.4078  0.1283
  316TMC3    C2 4747   2.487   0.712  17.384 -0.0882 -0.5458  0.4212
  316TMC3    C3 4748   2.566   0.819  17.369 -0.0628 -0.1024  0.5959
  316TMC3    C4 4749   2.340   0.813  17.213 -0.1653  1.1503  0.4366
  316TMC3    C5 4750   2.440   0.905  17.192  0.1430  0.5307 -0.3028
  316TMC3    C6 4751   2.538   0.913  17.279  0.2914  0.7105  0.0044
  316TMC3     C 4752   2.259   0.630  17.341  0.0301  0.0886  0.1589
  316TMC3     O 4753   2.153   0.651  17.286  0.1342 -0.4950  0.0075
  316TMC3     H 4754   2.512   0.636  17.458  0.2408  0.6879  1.5916
  316TMC3    H1 4755   2.249   0.805  17.154  0.8192  1.1047 -1.0829
  316TMC3    H2 4756   2.612   0.992  17.278 -0.3933  1.3207 -1.6774
  316TMC3    C7 4757   2.456   0.988  17.074 -0.0883  0.3492  0.3847
  316TMC3    C8 4758   2.633   0.858  17.484  0.0971 -0.3750 -0.2075
  316TMC3    O1 4759   2.547   1.069  17.067  0.5860 -0.5546 -0.1903
  316TMC3    O2 4760   2.605   0.971  17.519 -0.0531  0.4199  0.1821
  317MPD2     C 4761   3.706   3.968  12.876 -0.9670 -0.1930 -0.2133
  317MPD2    C1 4762   3.742   3.849  12.820 -0.5298  0.7862 -0.3777
  317MPD2    C2 4763   3.824   3.764  12.885 -0.7137 -0.2932  0.6599
  317MPD2    C3 4764   3.881   3.800  13.005  0.2235 -0.4879  0.2921
  317MPD2    C4 4765   3.861   3.925  13.048 -0.6503 -0.3619 -0.5982
  317MPD2    C5 4766   3.771   4.007  12.986  0.1213 -0.7858  0.6462
  317MPD2     H 4767   3.842   3.662  12.854 -1.2431  0.1347 -1.0559
  317MPD2    H1 4768   3.898   3.956  13.144 -0.7183 -0.1493 -0.6412
  317MPD2    H2 4769   3.644   4.041  12.826 -0.0453  0.4262 -0.4473
  317MPD2    H3 4770   3.749   4.104  13.029 -1.1830 -0.5278 -0.6234
  317MPD2     N 4771   3.962   3.708  13.076  0.6029  0.4276 -0.0654
  317MPD2    H5 4772   3.986   3.624  13.024  0.4502  0.2050  0.2256
  317MPD2    N1 4773   3.685   3.799  12.699  0.8439  0.2704  0.6356
  317MPD2    H7 4774   3.717   3.707  12.669  1.4783  0.3298  1.1339
  318TMC3    C1 4775   4.094   3.609  13.249 -0.1726  0.0239 -1.1338
  318TMC3    C2 4776   4.032   3.485  13.227  0.5914  0.3093  0.0887
  318TMC3    C3 4777   4.075   3.388  13.309  0.1051  0.0821 -0.2560
  318TMC3    C4 4778   4.195   3.629  13.340 -0.9066  0.4228 -0.5989
  318TMC3    C5 4779   4.246   3.524  13.400 -0.1106  0.5988  0.0041
  318TMC3    C6 4780   4.185   3.402  13.391 -0.1667 -0.1416  0.1137
  318TMC3     C 4781   4.022   3.725  13.197 -0.2252  0.5785 -0.4823
  318TMC3     O 4782   4.019   3.820  13.271 -0.3860 -0.0692  0.3029
  318TMC3     H 4783   3.946   3.473  13.164  0.5839 -1.6641  0.4757
  318TMC3    H1 4784   4.231   3.731  13.354 -1.0375  0.2662  0.8699
  318TMC3    H2 4785   4.219   3.318  13.450  0.5128 -0.4241 -0.6946
  318TMC3    C7 4786   4.352   3.544  13.494 -0.2824  0.0219  1.0156
  318TMC3    C8 4787   4.032   3.250  13.274  1.1603  0.4191  0.4780
  318TMC3    O1 4788   4.369   3.663  13.529  0.1689 -0.0062 -0.6480
  318TMC3    O2 4789   4.080   3.159  13.345  0.5553 -0.2703  0.1725
  319MPD2     C 4790   4.722   0.343  16.883  0.2129  0.2038 -0.0958
  319MPD2    C1 4791   4.712   0.206  16.915  1.5370  0.1375 -0.2755
  319MPD2    C2 4792   4.676   0.115  16.811  0.2270  0.4450 -0.1761
  319MPD2    C3 4793   4.639   0.160  16.681  0.3170  0.6193 -0.0344
  319MPD2    C4 4794   4.646   0.301  16.658  0.0999 -0.0555 -0.9522
  319MPD2    C5 4795   4.681   0.388  16.758 -0.9386 -0.6420 -0.0930
  319MPD2     H 4796   4.667   0.009  16.834 -0.6626  0.2977 -1.1872
  319MPD2    H1 4797   4.637   0.340  16.557 -0.3802  1.5503 -0.2934
  319MPD2    H2 4798   0.011   0.423  16.954  0.5439  0.3631 -0.3607
  319MPD2    H3 4799   4.696   0.493  16.733 -2.3583  0.1571  2.4221
  319MPD2     N 4800   4.608   0.082  16.573 -1.2310  0.1895 -0.3310
  319MPD2    H5 4801   4.598   0.136  16.487 -1.1164  1.0722  0.2041
  319MPD2    N1 4802   0.027   0.145  17.037  0.0850 -0.2985 -0.9250
  319MPD2    H7 4803   0.017   0.045  17.053 -0.6456 -0.6452 -3.5771
  320TMC3    C1 4804   4.593   4.619  16.442 -0.3635 -0.1211 -1.1264
  320TMC3    C2 4805   4.550   4.694  16.331  0.0673  0.1153  0.6073
  320TMC3    C3 4806   4.523   4.625  16.215 -0.2130  0.5673 -0.3777
  320TMC3    C4 4807   4.586   4.479  16.436  0.2916 -0.0768 -0.2644
  320TMC3    C5 4808   4.565   4.422  16.319 -0.1190 -0.2370  0.7914
  320TMC3    C6 4809   4.535   4.490  16.209 -0.4405  0.0153  0.4880
  320TMC3     C 4810   4.613   4.674  16.568 -0.0643  0.1772  0.1313
  320TMC3     O 4811   4.652   4.597  16.658  0.3317  0.1890 -0.7093
  320TMC3     H 4812   4.529   0.072  16.339  0.3582  0.2376 -0.3663
  320TMC3    H1 4813   4.609   4.424  16.527 -0.3056  0.4463  0.1963
  320TMC3    H2 4814   4.531   4.429  16.120 -0.1503  2.1323 -0.9688
  320TMC3    C7 4815   4.560   4.276  16.303  0.4065  0.7979  0.2095
  320TMC3    C8 4816   4.509   4.701  16.099 -0.5896  0.2222  0.6171
  320TMC3    O1 4817   4.579   4.238  16.189 -0.0558  0.0726 -0.0651
  320TMC3    O2 4818   4.490   0.094  16.116  0.5329  0.5225  0.0157
  321TMC3    C1 4819   0.088   0.125  17.266  0.5989  1.0318  0.8981
  321TMC3    C2 4820   0.098   4.715  17.262 -0.1266 -1.3005 -0.1648
  321TMC3    C3 4821   0.115   4.653  17.381  0.0966 -0.1422  0.5584
  321TMC3    C4 4822   0.109   0.195  17.377  0.5730 -0.9616 -0.8734
  321TMC3    C5 4823   0.155   0.127  17.487  0.3083  0.2014  0.6026
  321TMC3    C6 4824   0.142   4.725  17.491  0.0891  0.5243 -0.4378
  321TMC3     C 4825   0.050   0.212  17.149  0.0359  0.2302 -0.6796
  321TMC3     O 4826   0.024   0.329  17.170  0.0255  0.4484  0.1048
  321TMC3     H 4827   0.066   4.662  17.173 -0.8118  0.7828 -1.1609
  321TMC3    H1 4828   0.112   0.304  17.374 -0.4053 -0.9710 -2.4558
  321TMC3    H2 4829   0.167   4.677  17.586  1.6911 -1.0952 -1.6604
  321TMC3    C7 4830   0.285   0.179  17.539 -0.0697 -0.0151 -0.3821
  321TMC3    C8 4831   0.187   4.522  17.384  0.3543  0.0203  0.2806
  321TMC3    O1 4832   0.323   0.277  17.473 -0.3064 -0.3507 -0.0908
  321TMC3    O2 4833   0.232   4.485  17.495  0.3901 -0.2779  0.1350
  322MPD2     C 4834   3.512   1.288  13.659 -1.1475 -0.4346 -0.1459
  322MPD2    C1 4835   3.568   1.202  13.749 -0.9733 -0.0392 -0.7951
  322MPD2    C2 4836   3.649   1.098  13.708  0.5882 -0.6393  0.0294
  322MPD2    C3 4837   3.663   1.073  13.573  0.0180  0.3421  0.5730
  322MPD2    C4 4838   3.609   1.161  13.479  0.2037 -0.2646 -0.0115
  322MPD2    C5 4839   3.536   1.266  13.523 -0.0044  0.1091  0.5878
  322MPD2     H 4840   3.704   1.030  13.773  2.9559  0.4505 -0.8588
  322MPD2    H1 4841   3.623   1.155  13.371  2.6666  0.0838  0.3040
  322MPD2    H2 4842   3.479   1.384  13.697 -0.4161  0.3934 -1.6141
  322MPD2    H3 4843   3.507   1.341  13.450  3.0016 -1.3495 -2.1507
  322MPD2     N 4844   3.764   0.980  13.538  0.6154  0.3786  0.1484
  322MPD2    H5 4845   3.801   0.926  13.616  2.7657 -1.7504 -2.3328
  322MPD2    N1 4846   3.550   1.240  13.887 -0.0739 -0.2747  0.0153
  322MPD2    H7 4847   3.490   1.321  13.901  0.8909  0.1192  1.7699
  323TMC3    C1 4848   3.622   1.266  14.101  0.1618  0.3498  0.0354
  323TMC3    C2 4849   3.693   1.378  14.072 -0.0511  0.0457  0.3408
  323TMC3    C3 4850   3.752   1.446  14.174 -0.8999  0.2622  0.2146
  323TMC3    C4 4851   3.611   1.222  14.230 -0.7166 -0.0818  0.3960
  323TMC3    C5 4852   3.673   1.300  14.330  0.0674  0.7104  0.4881
  323TMC3    C6 4853   3.745   1.407  14.300  0.0858  0.1012 -0.0144
  323TMC3     C 4854   3.608   1.172  13.988  0.2230 -0.4923 -0.3326
  323TMC3     O 4855   3.612   1.052  14.012 -0.2597 -1.2426 -0.2540
  323TMC3     H 4856   3.710   1.403  13.968 -2.0994 -1.1149 -0.2641
  323TMC3    H1 4857   3.571   1.124  14.252  0.8117 -0.5519  1.0842
  323TMC3    H2 4858   3.814   1.446  14.374  1.4520 -0.3606 -1.0540
  323TMC3    C7 4859   3.713   1.227  14.449  0.3444 -0.5111 -0.1706
  323TMC3    C8 4860   3.861   1.541  14.135 -0.1279  0.3875  0.3312
  323TMC3    O1 4861   3.720   1.108  14.428 -1.1395  0.4968  0.1570
  323TMC3    O2 4862   3.923   1.573  14.236  0.4189 -0.6117 -0.2450
  324MPD2     C 4863   1.119   2.664  14.732  0.3115  0.3822 -0.6328
  324MPD2    C1 4864   1.123   2.792  14.679 -0.1970  0.2119  0.1159
  324MPD2    C2 4865   1.000   2.845  14.662 -0.8366  0.5005 -0.1499
  324MPD2    C3 4866   0.880   2.787  14.694  0.0168  0.1510  0.7292
  324MPD2    C4 4867   0.884   2.661  14.739  0.5685  0.0522 -0.0404
  324MPD2    C5 4868   1.001   2.594  14.748  0.6726 -0.0658  0.3909
  324MPD2     H 4869   0.996   2.945  14.619 -1.1867  1.6203  2.4806
  324MPD2    H1 4870   0.792   2.605  14.754  1.3757 -1.3505 -0.3917
  324MPD2    H2 4871   1.212   2.614  14.758 -0.6610 -0.6771  0.7725
  324MPD2    H3 4872   0.991   2.496  14.792 -2.1530 -0.1500 -0.4320
  324MPD2     N 4873   0.745   2.831  14.666  0.2556 -0.4242 -0.3390
  324MPD2    H5 4874   0.673   2.760  14.676  1.8856 -1.8593  1.2642
  324MPD2    N1 4875   1.240   2.866  14.666 -0.5999  0.0394  0.2611
  324MPD2    H7 4876   1.236   2.963  14.636 -0.0528 -0.0676 -0.1636
  325TMC3    C1 4877   0.573   2.949  14.568 -0.6336  0.0737 -0.1985
  325TMC3    C2 4878   0.473   2.862  14.611 -0.1581 -0.0131  0.6933
  325TMC3    C3 4879   0.350   2.865  14.545 -0.5073 -0.1691 -0.5169
  325TMC3    C4 4880   0.550   3.031  14.462 -0.2633 -0.2370 -0.0130
  325TMC3    C5 4881   0.429   3.030  14.403  0.9528 -0.0557  0.3977
  325TMC3    C6 4882   0.322   2.948  14.443  0.5303 -0.4914 -0.2923
  325TMC3     C 4883   0.708   2.950  14.620  0.0162 -0.2205  0.6658
  325TMC3     O 4884   0.779   3.046  14.592 -0.6567  0.9523 -0.1763
  325TMC3     H 4885   0.477   2.802  14.702 -1.1001 -0.2765  0.5668
  325TMC3    H1 4886   0.629   3.099  14.433 -0.3420  0.1753  0.7400
  325TMC3    H2 4887   0.232   2.940  14.383 -0.6526  2.4805  1.1213
  325TMC3    C7 4888   0.393   3.143  14.318 -1.1792  0.1620 -0.5445
  325TMC3    C8 4889   0.255   2.755  14.574  0.4210  0.0944 -0.1269
  325TMC3    O1 4890   0.482   3.197  14.253 -0.2284 -0.4419 -0.5576
  325TMC3    O2 4891   0.312   2.660  14.626  0.1734  0.0731 -0.2886
  326MPD2     C 4892   1.540   3.658  10.966  0.6474 -0.4691 -0.2786
  326MPD2    C1 4893   1.636   3.625  10.871  0.2485 -0.4621  0.0671
  326MPD2    C2 4894   1.741   3.711  10.855  0.6166 -0.8709  0.0527
  326MPD2    C3 4895   1.745   3.839  10.912 -0.2929  0.0187  0.0676
  326MPD2    C4 4896   1.650   3.867  11.006  0.6627 -0.3877 -0.7501
  326MPD2    C5 4897   1.556   3.777  11.041 -0.2992 -0.8140  0.0490
  326MPD2     H 4898   1.816   3.689  10.780  0.7895  0.2771 -0.1204
  326MPD2    H1 4899   1.645   3.957  11.065 -0.6481 -0.3099 -0.9841
  326MPD2    H2 4900   1.456   3.591  10.985  0.5809 -0.5471 -0.8528
  326MPD2    H3 4901   1.477   3.817  11.102 -0.3162  2.5258 -2.1667
  326MPD2     N 4902   1.836   3.940  10.869  0.2510  0.1559  0.0882
  326MPD2    H5 4903   1.815   4.032  10.906  0.9324  0.0650  0.6941
  326MPD2    N1 4904   1.636   3.509  10.793  0.5029 -0.6862  0.7228
  326MPD2    H7 4905   1.714   3.500  10.728  0.8694 -1.7670  1.3155
  327TMC3    C1 4906   1.547   3.337  10.665 -0.4204 -0.6578 -0.3781
  327TMC3    C2 4907   1.448   3.369  10.576  0.5752 -0.5092 -0.1162
  327TMC3    C3 4908   1.488   3.383  10.443 -0.8473 -0.2035  0.1998
  327TMC3    C4 4909   1.676   3.318  10.626 -0.5600 -0.6230 -0.0694
  327TMC3    C5 4910   1.703   3.315  10.497  0.1319 -0.6435 -0.4722
  327TMC3    C6 4911   1.610   3.351  10.397  0.0669 -0.5916  0.3244
  327TMC3     C 4912   1.531   3.426  10.778 -0.2712  0.5781 -0.1403
  327TMC3     O 4913   1.429   3.412  10.845 -0.0048 -0.7333 -0.1760
  327TMC3     H 4914   1.344   3.379  10.604  0.2833 -0.5856 -1.1767
  327TMC3    H1 4915   1.760   3.312  10.695 -0.7704  1.5562  0.3880
  327TMC3    H2 4916   1.639   3.377  10.296  0.5244  0.6017  0.7629
  327TMC3    C7 4917   1.847   3.324  10.459 -0.3454 -0.4786  0.0422
  327TMC3    C8 4918   1.414   3.482  10.365  0.4151 -0.5670 -0.2036
  327TMC3    O1 4919   1.869   3.371  10.345  0.4901 -0.3400 -0.1070
  327TMC3    O2 4920   1.462   3.520  10.261 -0.5806  0.7722  0.5052
  328MPD2     C 4921   4.469   4.053  16.961  0.0283  0.5335  0.3364
  328MPD2    C1 4922   4.485   3.926  17.005  0.0459 -0.1264  0.5917
  328MPD2    C2 4923   4.401   3.821  16.964  1.2129  0.6643  0.3131
  328MPD2    C3 4924   4.307   3.853  16.870 -0.5054 -0.2549  0.0225
  328MPD2    C4 4925   4.281   3.985  16.833  0.6715 -0.5204  0.1637
  328MPD2    C5 4926   4.372   4.079  16.876  0.3943  0.2556 -1.2186
  328MPD2     H 4927   4.399   3.720  17.004  2.0353 -0.1813 -1.7650
  328MPD2    H1 4928   4.210   4.012  16.757 -0.8826  2.1834  2.5995
  328MPD2    H2 4929   4.537   4.130  16.992 -0.5627  0.4604  1.7973
  328MPD2    H3 4930   4.365   4.181  16.840 -0.5525  0.9387  0.9394
  328MPD2     N 4931   4.223   3.762  16.809  0.5865  0.3460 -0.2644
  328MPD2    H5 4932   4.170   3.816  16.741  1.1583  1.6793  0.3394
  328MPD2    N1 4933   4.585   3.910  17.106 -0.1644  0.6218 -0.0054
  328MPD2    H7 4934   4.619   3.995  17.149 -1.8852  1.2832  0.0773
  329TMC3    C1 4935   4.646   3.796  17.292 -0.0457 -0.3346  0.7249
  329TMC3    C2 4936   4.604   3.897  17.375  0.0655  0.1892  0.3869
  329TMC3    C3 4937   4.675   3.905  17.490 -0.0295  0.1983 -0.4630
  329TMC3    C4 4938   0.026   3.713  17.318 -0.0106 -0.6319  0.5520
  329TMC3    C5 4939   0.109   3.751  17.421  0.1402  0.2171 -0.1365
  329TMC3    C6 4940   0.074   3.851  17.503  0.4759 -0.0967 -0.6045
  329TMC3     C 4941   4.592   3.785  17.165 -0.0798  0.3505 -0.4892
  329TMC3     O 4942   4.592   3.673  17.108  0.2009 -0.0700  0.1265
  329TMC3     H 4943   4.505   3.939  17.369  0.5517  1.2525 -0.1266
  329TMC3    H1 4944   0.065   3.640  17.248  0.3993 -0.9996  1.1637
  329TMC3    H2 4945   0.130   3.848  17.596 -1.1566  0.6495  0.3947
  329TMC3    C7 4946   0.203   3.657  17.479 -0.2210 -0.0193  0.4421
  329TMC3    C8 4947   4.604   3.940  17.615 -0.2968  0.4376 -0.1977
  329TMC3    O1 4948   0.294   3.702  17.544  0.2772  0.0036  0.0338
  329TMC3    O2 4949   4.672   3.911   0.000 -0.4651  0.0819 -0.2033
  330TMC3    C1 4950   2.268   2.577   9.357 -1.0163 -0.2652 -0.9533
  330TMC3    C2 4951   2.216   2.493   9.259  0.0377 -0.1437  0.4314
  330TMC3    C3 4952   2.232   2.359   9.261 -0.1743  1.2608  0.1224
  330TMC3    C4 4953   2.349   2.523   9.450  0.0407  0.2434  0.2333
  330TMC3    C5 4954   2.369   2.388   9.446  0.0691  0.5402  0.0786
  330TMC3    C6 4955   2.307   2.303   9.360 -0.5475 -0.1548 -0.6562
  330TMC3     C 4956   2.255   2.724   9.348 -0.7118 -0.3144  0.3822
  330TMC3     O 4957   2.314   2.793   9.426  0.0089 -0.2025  0.6494
  330TMC3     H 4958   2.139   2.524   9.188  0.5586  0.9428  0.3422
  330TMC3    H1 4959   2.409   2.593   9.508  1.1839  0.2294 -0.9298
  330TMC3    H2 4960   2.333   2.198   9.366 -0.6417 -0.3071 -2.9822
  330TMC3    C7 4961   2.480   2.344   9.528  0.2460  0.8269  0.1394
  330TMC3    C8 4962   2.130   2.276   9.195  0.1547  0.0315  0.1344
  330TMC3    O1 4963   2.508   2.422   9.620 -0.1577 -0.5008 -0.6768
  330TMC3    O2 4964   2.069   2.326   9.098  0.3488 -0.0571  0.1207
  331MPD2     C 4965   4.246   2.222  12.435 -0.4508  0.1726  0.0468
  331MPD2    C1 4966   4.373   2.235  12.376 -0.5383 -0.1347 -0.3047
  331MPD2    C2 4967   4.447   2.123  12.360 -0.7396 -0.0795  0.3574
  331MPD2    C3 4968   4.413   1.998  12.402 -0.4324  0.0309 -0.5163
  331MPD2    C4 4969   4.289   1.982  12.461 -0.1926  0.1770 -0.7714
  331MPD2    C5 4970   4.211   2.093  12.478 -0.6131  0.7177  0.2015
  331MPD2     H 4971   4.542   2.129  12.307 -1.1620 -0.0985 -0.3911
  331MPD2    H1 4972   4.263   1.886  12.504 -0.1143  0.6242  0.2735
  331MPD2    H2 4973   4.181   2.308  12.434 -0.7722 -0.0696  0.1406
  331MPD2    H3 4974   4.121   2.070  12.534 -0.1393  0.9395  1.0438
  331MPD2     N 4975   4.510   1.902  12.369 -0.1415  0.9483  0.1896
  331MPD2    H5 4976   4.592   1.931  12.316  0.5345 -0.9766  0.1688
  331MPD2    N1 4977   4.424   2.359  12.327 -0.3061  0.6326 -0.3688
  331MPD2    H7 4978   4.521   2.362  12.297  0.8126 -0.5509  3.0451
  332TMC3    C1 4979   4.616   1.699  12.342 -0.6827  0.1292  0.1305
  332TMC3    C2 4980   4.643   1.724  12.207 -1.0481 -0.0521 -0.6142
  332TMC3    C3 4981   0.041   1.694  12.157  0.1386 -0.2531 -0.8298
  332TMC3    C4 4982   4.700   1.624  12.419  0.4384 -0.2074 -0.4553
  332TMC3    C5 4983   0.093   1.600  12.370  0.5540 -0.1458 -1.0228
  332TMC3    C6 4984   0.129   1.627  12.240  0.2711  0.3578 -0.3970
  332TMC3     C 4985   4.502   1.770  12.399 -0.0707 -0.2116 -0.2536
  332TMC3     O 4986   4.419   1.708  12.468 -0.2728  0.5776 -0.1587
  332TMC3     H 4987   4.584   1.792  12.147 -0.3519 -0.2848 -1.5627
  332TMC3    H1 4988   4.686   1.594  12.522 -1.1784 -1.7365 -1.1149
  332TMC3    H2 4989   0.226   1.598  12.200  0.0902  1.6459 -1.7697
  332TMC3    C7 4990   0.164   1.490  12.430  0.0773  0.4237  0.5463
  332TMC3    C8 4991   0.068   1.720  12.015 -0.0943  0.4478 -0.7903
  332TMC3    O1 4992   0.104   1.410  12.505  0.8372 -0.1053  0.3672
  332TMC3    O2 4993   4.698   1.724  11.943 -0.6322  0.1050 -0.3944
  333MPD2     C 4994   1.046   1.598  11.035 -0.0334  0.0125 -0.4553
  333MPD2    C1 4995   0.913   1.608  10.985  0.3844  0.1666 -0.4629
  333MPD2    C2 4996   0.806   1.577  11.078 -0.1105 -0.6773  0.0172
  333MPD2    C3 4997   0.828   1.559  11.208  0.0106 -0.2069 -0.8041
  333MPD2    C4 4998   0.962   1.552  11.255  0.0411  0.1570  0.6455
  333MPD2    C5 4999   1.070   1.566  11.170  0.7012  1.0910  0.3302
  333MPD2     H 5000   0.702   1.571  11.047 -0.4072  0.3204  0.8284
  333MPD2    H1 5001   0.989   1.533  11.358 -2.7510  0.5185  1.4598
  333MPD2    H2 5002   1.139   1.606  10.980  1.9043 -1.7149  2.6006
  333MPD2    H3 5003   1.173   1.568  11.202  0.6329  2.7336  0.4948
  333MPD2     N 5004   0.718   1.538  11.291  0.2057 -0.1753  0.5219
  333MPD2    H5 5005   0.628   1.555  11.247  1.4625 -0.2639 -2.1170
  333MPD2    N1 5006   0.891   1.644  10.848  0.2142  0.1330 -0.1912
  333MPD2    H7 5007   0.969   1.670  10.789 -0.4859 -1.9159 -2.0261
  334TMC3    C1 5008   0.786   1.753  10.672 -0.1982 -0.2798 -0.8361
  334TMC3    C2 5009   0.900   1.723  10.607 -0.5309  0.4969  0.4602
  334TMC3    C3 5010   0.947   1.824  10.522 -0.1074 -0.4433 -0.3446
  334TMC3    C4 5011   0.723   1.877  10.670 -0.5527  0.0468  0.3111
  334TMC3    C5 5012   0.774   1.969  10.589  0.1452  1.0840  0.1977
  334TMC3    C6 5013   0.884   1.948  10.500  0.2033 -0.1557  0.6463
  334TMC3     C 5014   0.768   1.675  10.796  1.0853  0.4708 -0.0142
  334TMC3     O 5015   0.662   1.692  10.855 -0.5134  0.0429  0.1234
  334TMC3     H 5016   0.935   1.620  10.605  0.1779  0.7167  1.3745
  334TMC3    H1 5017   0.663   1.900  10.758 -0.3994  2.5856 -0.2621
  334TMC3    H2 5018   0.913   2.019  10.424  2.4355 -1.1278  0.6065
  334TMC3    C7 5019   0.742   2.109  10.604 -0.2144 -0.0825 -0.7558
  334TMC3    C8 5020   1.057   1.791  10.430 -0.6329 -0.3173  0.1678
  334TMC3    O1 5021   0.827   2.186  10.563 -0.2493 -0.3464 -0.4143
  334TMC3    O2 5022   1.079   1.678  10.402 -0.1754 -0.4409 -0.1710
  335TMC3    C1 5023   0.686   3.672  17.538  0.0213  0.5085  0.0495
  335TMC3    C2 5024   0.584   3.621  17.455  0.2345 -0.1900 -0.0233
  335TMC3    C3 5025   0.612   3.507  17.391  0.2746  0.6748 -0.1111
  335TMC3    C4 5026   0.807   3.615  17.550 -0.3686 -0.1541  0.1055
  335TMC3    C5 5027   0.838   3.504  17.478  0.3882  0.1128 -0.0572
  335TMC3    C6 5028   0.733   3.440  17.410  0.5088 -0.0251  0.3038
  335TMC3     C 5029   0.676   3.802  17.601 -0.1806 -0.3534 -0.3779
  335TMC3     O 5030   0.777   3.861  17.636 -0.2029 -0.3163  0.0991
  335TMC3     H 5031   0.505   3.685  17.418 -0.9423 -0.9560  1.1631
  335TMC3    H1 5032   0.876   3.674  17.609 -0.3835  1.0935 -1.1018
  335TMC3    H2 5033   0.751   3.351  17.351 -0.7751  0.6023 -1.0593
  335TMC3    C7 5034   0.976   3.460  17.475 -0.1960  0.4385  1.1551
  335TMC3    C8 5035   0.523   3.487  17.279 -0.2705 -0.4467 -0.5060
  335TMC3    O1 5036   0.995   3.355  17.414  0.5970  0.2556  0.0915
  335TMC3    O2 5037   0.466   3.582  17.221  0.2739 -0.2411  0.4099
  336MPD2     C 5038   0.449   1.249  15.618  0.0329 -0.0583 -0.6188
  336MPD2    C1 5039   0.320   1.205  15.624 -0.3704 -0.4821  0.0790
  336MPD2    C2 5040   0.295   1.072  15.664 -0.6106 -0.8107 -0.2552
  336MPD2    C3 5041   0.394   0.985  15.701 -0.3837 -0.8623  0.1135
  336MPD2    C4 5042   0.524   1.030  15.694  0.1468  1.2283 -0.3098
  336MPD2    C5 5043   0.548   1.162  15.650 -0.4609 -0.0315  0.1108
  336MPD2     H 5044   0.194   1.035  15.679 -0.4539 -0.4835  1.7122
  336MPD2    H1 5045   0.611   0.971  15.719 -0.8495 -1.2603 -2.7839
  336MPD2    H2 5046   0.465   1.353  15.594 -0.2089 -0.3237 -1.9371
  336MPD2    H3 5047   0.647   1.197  15.623  1.0239 -2.1282  2.8299
  336MPD2     N 5048   0.369   0.857  15.755  0.0531 -0.3695 -0.3818
  336MPD2    H5 5049   0.445   0.807  15.799 -0.8711 -1.4795 -0.0616
  336MPD2    N1 5050   0.220   1.302  15.601 -0.1461 -0.5885  0.4420
  336MPD2    H7 5051   0.260   1.392  15.576  1.7771 -1.6388 -0.2260
  337TMC3    C1 5052   0.000   1.388  15.558  0.2387  0.3131 -0.0641
  337TMC3    C2 5053   4.608   1.365  15.488  0.0700 -0.3759 -0.5688
  337TMC3    C3 5054   4.518   1.466  15.485  0.2524 -0.0422 -0.0462
  337TMC3    C4 5055   0.021   1.505  15.635  0.5991  0.0210  0.5198
  337TMC3    C5 5056   4.660   1.611  15.614  0.5402 -0.7314  0.0724
  337TMC3    C6 5057   4.547   1.591  15.534 -0.0755 -0.7482  0.8235
  337TMC3     C 5058   0.084   1.271  15.588  0.1508 -0.1044  0.4213
  337TMC3     O 5059   0.021   1.166  15.578 -0.1027 -0.4752  0.0722
  337TMC3     H 5060   4.587   1.275  15.432 -1.6233  0.7209 -1.6894
  337TMC3    H1 5061   0.105   1.511  15.704  0.1050 -2.7568  1.3433
  337TMC3    H2 5062   4.488   1.677  15.504 -0.8906 -1.0813  1.4661
  337TMC3    C7 5063   4.662   1.723  15.703 -0.5418 -0.1587  0.8148
  337TMC3    C8 5064   4.389   1.445  15.415 -0.0337 -0.1329  0.3304
  337TMC3    O1 5065   4.560   1.792  15.697 -0.7362  1.0327 -0.0390
  337TMC3    O2 5066   4.374   1.344  15.345 -0.0323  0.4701 -0.1834
  338MPD2     C 5067   0.433   0.265   0.964 -0.2302 -0.1603 -0.2198
  338MPD2    C1 5068   0.377   0.300   0.846 -0.4012 -0.3379 -0.1212
  338MPD2    C2 5069   0.267   0.379   0.854 -0.3182 -0.7910  0.0656
  338MPD2    C3 5070   0.208   0.417   0.965  0.6202 -0.7015 -0.3823
  338MPD2    C4 5071   0.260   0.377   1.087 -0.3013 -0.0931 -0.4983
  338MPD2    C5 5072   0.371   0.301   1.077  0.0208 -0.7731  0.4590
  338MPD2     H 5073   0.214   0.400   0.762 -0.5602  0.8004  0.5598
  338MPD2    H1 5074   0.217   0.406   1.183  0.4142  0.5476 -0.3683
  338MPD2    H2 5075   0.528   0.214   0.970  0.5857  1.2093 -1.5902
  338MPD2    H3 5076   0.418   0.268   1.169  0.6056  1.6547  1.0369
  338MPD2     N 5077   0.086   0.479   0.947 -0.0749  0.7046  0.1858
  338MPD2    H5 5078   0.060   0.504   0.853 -1.0178  3.2019  1.1013
  338MPD2    N1 5079   0.416   0.245   0.721  0.3193  0.8758 -0.1136
  338MPD2    H7 5080   0.357   0.278   0.645  0.3375  1.1415 -0.0113
  339TMC3    C1 5081   4.587   0.521   0.960  0.3362  0.5045  0.2179
  339TMC3    C2 5082   4.477   0.474   1.033 -0.2509 -0.0833 -0.3632
  339TMC3    C3 5083   4.358   0.475   0.967 -0.8398 -0.1686  0.3055
  339TMC3    C4 5084   4.583   0.582   0.843  0.0970  0.3199  0.4559
  339TMC3    C5 5085   4.458   0.579   0.784 -0.3736 -0.7284 -0.1448
  339TMC3    C6 5086   4.348   0.528   0.842 -0.9417  0.3814 -0.1085
  339TMC3     C 5087   4.710   0.498   1.034  0.1204 -0.3798  0.3072
  339TMC3     O 5088   4.699   0.463   1.151 -0.9074 -0.1141  0.4949
  339TMC3     H 5089   4.487   0.423   1.129  0.2374 -0.4967 -0.6340
  339TMC3    H1 5090   4.666   0.629   0.793  1.2211 -0.7948  1.2669
  339TMC3    H2 5091   4.250   0.520   0.796 -2.0643 -0.7326  2.5010
  339TMC3    C7 5092   4.456   0.592   0.641  0.3318  0.0937 -0.9851
  339TMC3    C8 5093   4.231   0.449   1.041 -0.2669 -0.2378  0.3073
  339TMC3    O1 5094   4.565   0.595   0.590  0.4846 -0.5173 -0.2141
  339TMC3    O2 5095   4.133   0.438   0.969  0.0071 -0.4325  0.4545
  340MPD2     C 5096   0.556   2.795  10.408  0.6300 -0.5074 -0.1267
  340MPD2    C1 5097   0.660   2.714  10.389 -0.4559  1.1905  0.8634
  340MPD2    C2 5098   0.778   2.782  10.366 -0.3603 -1.2021  0.9692
  340MPD2    C3 5099   0.799   2.925  10.377 -0.2063  0.6854 -0.1891
  340MPD2    C4 5100   0.690   2.997  10.399 -0.6209  0.4191 -0.3868
  340MPD2    C5 5101   0.569   2.935  10.421  0.7154 -1.1512 -0.2855
  340MPD2     H 5102   0.863   2.726  10.330  0.2204 -1.4816  2.7728
  340MPD2    H1 5103   0.695   3.105  10.413  2.2466  0.4925 -2.0237
  340MPD2    H2 5104   0.458   2.748  10.415 -1.0098  2.9853  0.2273
  340MPD2    H3 5105   0.481   2.997  10.431  1.7066  0.1912  0.1174
  340MPD2     N 5106   0.922   2.982  10.345  0.0160  0.7398  0.4501
  340MPD2    H5 5107   0.915   3.078  10.314  1.9084  0.6517 -0.2345
  340MPD2    N1 5108   0.642   2.574  10.383  0.1236 -0.2557 -0.0540
  340MPD2    H7 5109   0.551   2.539  10.412 -0.2638 -0.1165 -1.0732
  341TMC3    C1 5110   0.690   2.352  10.320 -0.6993 -0.3213  1.0520
  341TMC3    C2 5111   0.569   2.311  10.359  0.1542 -0.1357 -0.1631
  341TMC3    C3 5112   0.543   2.179  10.328  0.3718  0.3134  0.0154
  341TMC3    C4 5113   0.772   2.280  10.239 -0.8113  0.3049 -0.5454
  341TMC3    C5 5114   0.739   2.151  10.209  0.0606 -0.0397  0.5123
  341TMC3    C6 5115   0.627   2.096  10.259 -0.2833  0.0914  0.7193
  341TMC3     C 5116   0.743   2.482  10.361  0.2215  0.6406  0.2307
  341TMC3     O 5117   0.853   2.511  10.320 -0.1818 -0.6742 -0.4247
  341TMC3     H 5118   0.514   2.362  10.437  0.3877  0.4729 -0.3973
  341TMC3    H1 5119   0.871   2.306  10.203 -0.0794  2.4202  2.9900
  341TMC3    H2 5120   0.577   2.017  10.203  1.7496 -1.9230  1.7397
  341TMC3    C7 5121   0.806   2.087  10.099 -0.6846 -0.3347  0.2617
  341TMC3    C8 5122   0.409   2.124  10.363 -0.1531  0.4675  0.2591
  341TMC3    O1 5123   0.831   2.160  10.004 -0.1817 -0.1656  0.9583
  341TMC3    O2 5124   0.393   2.006  10.354 -0.7164 -0.1261  0.4274
  342MPD2     C 5125   3.071   1.459  17.406 -0.2475 -0.8577 -0.0105
  342MPD2    C1 5126   3.153   1.504  17.309  0.5199  0.1204 -0.2146
  342MPD2    C2 5127   3.198   1.637  17.317  0.8295 -0.5253  0.4763
  342MPD2    C3 5128   3.168   1.718  17.423 -0.3882  0.0050  0.5893
  342MPD2    C4 5129   3.075   1.673  17.516 -0.0479 -0.1509 -0.2585
  342MPD2    C5 5130   3.029   1.543  17.505  0.1447 -0.3555  0.3275
  342MPD2     H 5131   3.261   1.675  17.238  2.7868  1.0985  2.8047
  342MPD2    H1 5132   3.049   1.737  17.600  0.7084 -2.9762  2.1598
  342MPD2    H2 5133   3.043   1.354  17.407 -2.6002 -0.2123  1.0419
  342MPD2    H3 5134   2.970   1.492  17.581 -0.0568 -1.7056 -0.7266
  342MPD2     N 5135   3.215   1.851  17.448 -0.1831 -0.3639 -0.0179
  342MPD2    H5 5136   3.180   1.895  17.532 -1.4551  2.1354 -1.8206
  342MPD2    N1 5137   3.188   1.422  17.196  0.6103 -0.2128  0.2216
  342MPD2    H7 5138   3.251   1.461  17.127  1.2464 -1.6094  0.0116
  343TMC3    C1 5139   3.181   1.242  17.049  0.3186  0.4157  0.8261
  343TMC3    C2 5140   3.316   1.253  17.010 -0.3954  0.4138 -0.5777
  343TMC3    C3 5141   3.370   1.151  16.939 -0.4380  0.5965 -0.5831
  343TMC3    C4 5142   3.099   1.138  17.015  0.7461  0.0189 -0.5129
  343TMC3    C5 5143   3.159   1.047  16.933  0.4800 -0.0600 -0.1079
  343TMC3    C6 5144   3.292   1.051  16.894  0.3824 -0.6823 -0.2767
  343TMC3     C 5145   3.145   1.293  17.180  0.3909  0.2518  0.3692
  343TMC3     O 5146   3.068   1.218  17.237 -0.1481  0.5969  0.1889
  343TMC3     H 5147   3.376   1.337  17.044 -1.2029  0.2612  1.2393
  343TMC3    H1 5148   2.994   1.135  17.044  0.1386 -0.8700 -2.8085
  343TMC3    H2 5149   3.332   0.972  16.832  0.7276 -1.0587  0.4297
  343TMC3    C7 5150   3.075   0.928  16.907 -0.1741 -0.2411 -0.0796
  343TMC3    C8 5151   3.513   1.126  16.972  0.4218  0.0538  0.4631
  343TMC3    O1 5152   2.983   0.899  16.981  0.0489 -0.4825  0.1867
  343TMC3    O2 5153   3.559   1.181  17.067 -0.2605  0.0746 -0.5043
  344MPD2     C 5154   3.444   1.504  10.503 -0.4851  0.3762 -1.4304
  344MPD2    C1 5155   3.579   1.499  10.490  0.5150 -0.3175 -0.4764
  344MPD2    C2 5156   3.644   1.587  10.412  0.3333 -0.2182  0.0722
  344MPD2    C3 5157   3.574   1.692  10.346  0.1216  0.4967  0.5366
  344MPD2    C4 5158   3.437   1.700  10.354  0.1874  0.4002  0.5377
  344MPD2    C5 5159   3.370   1.602  10.435  1.1865 -0.0189  0.0501
  344MPD2     H 5160   3.751   1.578  10.395  0.3677  1.6963 -0.8214
  344MPD2    H1 5161   3.378   1.770  10.296 -0.9575 -0.3238  0.8413
  344MPD2    H2 5162   3.382   1.435  10.558 -2.1761  0.8830 -2.6859
  344MPD2    H3 5163   3.263   1.599  10.448  0.9059  0.9921 -1.9850
  344MPD2     N 5164   3.640   1.781  10.252 -0.1433 -0.3601  0.5166
  344MPD2    H5 5165   3.581   1.846  10.201  0.3468 -1.1062 -1.0172
  344MPD2    N1 5166   3.653   1.388  10.537 -0.1047  0.4768 -0.0171
  344MPD2    H7 5167   3.752   1.400  10.523 -0.0979  0.1270 -0.2845
  345TMC3    C1 5168   3.830   1.873  10.127  0.2022 -0.5062  0.4793
  345TMC3    C2 5169   3.967   1.880  10.097 -0.2144  0.5846 -0.5025
  345TMC3    C3 5170   4.010   1.960   9.998  0.6522  0.2071 -0.0244
  345TMC3    C4 5171   3.740   1.938  10.055  0.4343 -0.5056  0.0734
  345TMC3    C5 5172   3.784   2.014   9.950 -0.4295  0.4645  0.7523
  345TMC3    C6 5173   3.921   2.028   9.930  0.2852  0.6549  0.1291
  345TMC3     C 5174   3.781   1.790  10.238  0.1393  0.0665  0.1231
  345TMC3     O 5175   3.871   1.748  10.307  0.7672 -0.0434  0.7243
  345TMC3     H 5176   4.042   1.817  10.144 -1.4413 -0.1106  0.5148
  345TMC3    H1 5177   3.639   1.957  10.089  0.3402 -0.3162 -0.3067
  345TMC3    H2 5178   3.959   2.097   9.856 -1.5364  1.8098  0.2753
  345TMC3    C7 5179   3.700   2.118   9.901  0.2389 -0.3387  0.0313
  345TMC3    C8 5180   4.144   2.017  10.001 -0.2709 -0.2473  0.0585
  345TMC3    O1 5181   3.761   2.220   9.874  0.0878  0.8798  0.0004
  345TMC3    O2 5182   4.154   2.136   9.988 -0.3675  0.4933 -0.2403
  346MPD2     C 5183   4.263   2.749  14.136 -0.0411  0.1497 -0.3427
  346MPD2    C1 5184   4.200   2.854  14.075  0.0458  0.7594  0.1373
  346MPD2    C2 5185   4.177   2.959  14.163 -0.6071 -0.0669 -0.1527
  346MPD2    C3 5186   4.223   2.973  14.290 -0.7942  0.5284  0.2709
  346MPD2    C4 5187   4.294   2.867  14.345 -0.2016 -0.3097  0.9699
  346MPD2    C5 5188   4.308   2.756  14.268  0.5485 -0.8059  0.5637
  346MPD2     H 5189   4.127   3.044  14.116 -1.4550  0.0059  0.8762
  346MPD2    H1 5190   4.337   2.863  14.445 -0.5579 -0.7881  1.1054
  346MPD2    H2 5191   4.287   2.661  14.077 -2.4217 -0.8317  0.1715
  346MPD2    H3 5192   4.356   2.669  14.312  2.3622  0.7126  1.6409
  346MPD2     N 5193   4.219   3.086  14.371 -0.1991  0.2862 -0.1726
  346MPD2    H5 5194   4.265   3.079  14.461  0.0538 -0.7700 -0.3796
  346MPD2    N1 5195   4.153   2.858  13.944  0.4014  0.3703  0.0673
  346MPD2    H7 5196   4.102   2.941  13.917  1.9989  1.4695  0.3976
  347TMC3    C1 5197   4.237   3.307  14.419  0.0005 -0.2156 -1.1755
  347TMC3    C2 5198   4.316   3.409  14.377 -0.1226  0.6346  0.7000
  347TMC3    C3 5199   4.408   3.460  14.464 -0.0056  0.2774  0.0507
  347TMC3    C4 5200   4.219   3.276  14.548  0.5486  1.5711 -0.0487
  347TMC3    C5 5201   4.291   3.344  14.644  0.4508  0.3162  0.3623
  347TMC3    C6 5202   4.378   3.440  14.601 -0.0971 -0.0232  0.0929
  347TMC3     C 5203   4.199   3.213  14.318 -0.2296 -0.5549  0.2771
  347TMC3     O 5204   4.168   3.252  14.210  0.3117 -0.1541 -0.3088
  347TMC3     H 5205   4.340   3.414  14.271  1.4393 -2.4540  0.9088
  347TMC3    H1 5206   4.149   3.200  14.581  0.0686  3.0100  2.2521
  347TMC3    H2 5207   4.447   3.493  14.666 -0.7818  0.1287  0.6911
  347TMC3    C7 5208   4.257   3.326  14.783 -0.1191  0.7114 -0.0630
  347TMC3    C8 5209   4.548   3.412  14.446  0.2458  0.6199  0.4673
  347TMC3    O1 5210   4.158   3.258  14.815 -0.1347  0.4973 -0.0343
  347TMC3    O2 5211   4.597   3.335  14.531  0.2949  0.4119  0.4709
  348MPD2     C 5212   2.540   2.181  12.053 -0.5412  0.2653 -0.4435
  348MPD2    C1 5213   2.639   2.279  12.045  0.0621  0.1642  1.3596
  348MPD2    C2 5214   2.634   2.376  11.943 -0.4124 -0.2308  0.7319
  348MPD2    C3 5215   2.535   2.376  11.847  0.3600  0.1504 -0.4239
  348MPD2    C4 5216   2.443   2.274  11.863 -0.3225  0.1418  0.2311
  348MPD2    C5 5217   2.447   2.180  11.960  0.3927 -0.6172 -0.6619
  348MPD2     H 5218   2.721   2.438  11.922  1.0004 -1.7903  1.9797
  348MPD2    H1 5219   2.362   2.260  11.793 -0.1049  2.0779 -0.4028
  348MPD2    H2 5220   2.531   2.104  12.129  1.3429 -1.9890 -2.5608
  348MPD2    H3 5221   2.367   2.107  11.967  0.5061 -0.8123 -1.4329
  348MPD2     N 5222   2.536   2.475  11.746  0.2694 -0.1420 -0.8325
  348MPD2    H5 5223   2.611   2.542  11.759  0.0976 -0.0326 -0.3952
  348MPD2    N1 5224   2.755   2.280  12.129  0.0997 -0.3041 -0.0702
  348MPD2    H7 5225   2.841   2.330  12.110 -0.7731  1.7160  1.3162
  349TMC3    C1 5226   2.905   2.188  12.289 -0.0211 -0.2912 -0.0969
  349TMC3    C2 5227   2.928   2.064  12.337  0.4146 -0.3475  0.1420
  349TMC3    C3 5228   3.046   1.993  12.325 -0.1646 -0.7609  0.0309
  349TMC3    C4 5229   3.004   2.252  12.220  0.6856  0.8306  0.1963
  349TMC3    C5 5230   3.121   2.181  12.197 -0.7734 -0.1447 -0.0716
  349TMC3    C6 5231   3.147   2.049  12.244  0.6867 -0.4584  0.3718
  349TMC3     C 5232   2.768   2.209  12.247  0.7955 -0.2763  0.2218
  349TMC3     O 5233   2.681   2.151  12.309  0.1209  0.2063  0.0922
  349TMC3     H 5234   2.857   2.024  12.409  0.1049 -0.5489 -0.2738
  349TMC3    H1 5235   2.983   2.351  12.182 -0.9386  0.4981  0.2260
  349TMC3    H2 5236   3.242   1.998  12.229  0.6737  0.2466 -2.0729
  349TMC3    C7 5237   3.166   2.199  12.064 -0.7278  0.1928  0.1441
  349TMC3    C8 5238   3.056   1.862  12.383  0.3481 -0.6028  0.3685
  349TMC3    O1 5239   3.163   2.109  11.987 -0.4061 -0.1742 -0.1924
  349TMC3    O2 5240   2.972   1.825  12.466 -0.6523 -0.1064 -0.4395
  350MPD2     C 5241   2.172   0.423   9.611  0.0546 -0.4211 -0.5225
  350MPD2    C1 5242   2.112   0.317   9.669 -0.2868 -0.6088  0.3813
  350MPD2    C2 5243   2.079   0.336   9.805 -1.0285  0.3222 -0.1520
  350MPD2    C3 5244   2.112   0.452   9.883  0.3067 -0.1692 -0.8714
  350MPD2    C4 5245   2.180   0.545   9.817  0.1923 -0.4383  0.2894
  350MPD2    C5 5246   2.212   0.530   9.686  0.1704  0.1012  0.8789
  350MPD2     H 5247   2.037   0.246   9.849  0.1719  0.4283  1.1821
  350MPD2    H1 5248   2.214   0.635   9.867 -0.0030  1.0485 -2.2575
  350MPD2    H2 5249   2.202   0.419   9.507  3.2357  3.0081  0.2708
  350MPD2    H3 5250   2.258   0.616   9.639 -2.7411  0.8186 -0.6154
  350MPD2     N 5251   2.079   0.459  10.024 -0.0344 -0.5278  0.3800
  350MPD2    H5 5252   2.022   0.388  10.070 -1.6559  0.0050 -0.7987
  350MPD2    N1 5253   2.079   0.194   9.601 -0.3288  0.6553 -0.6657
  350MPD2    H7 5254   2.054   0.116   9.661 -1.1080  2.9482  1.9820
  351TMC3    C1 5255   2.012   0.054   9.420 -0.4249  0.7446 -0.1064
  351TMC3    C2 5256   2.024   4.661   9.481 -0.5645  0.1162  0.6028
  351TMC3    C3 5257   2.006   4.557   9.396 -0.3963  0.1459 -0.5558
  351TMC3    C4 5258   1.953   0.080   9.297  0.6273  0.4174  0.4100
  351TMC3    C5 5259   1.908   4.700   9.227 -0.4018  0.1099 -0.2583
  351TMC3    C6 5260   1.940   4.572   9.275  0.3219  0.5013 -0.2169
  351TMC3     C 5261   2.092   0.169   9.464 -0.5653  0.5081  0.2699
  351TMC3     O 5262   2.124   0.245   9.377 -0.1933 -0.3129 -0.0122
  351TMC3     H 5263   2.087   4.649   9.568  1.1075 -1.7889 -0.8747
  351TMC3    H1 5264   1.947   0.179   9.252 -1.0669  0.3157  0.4371
  351TMC3    H2 5265   1.914   4.487   9.213 -4.8222  0.6409  1.7307
  351TMC3    C7 5266   1.864   4.716   9.093  0.1741 -0.4474  0.0801
  351TMC3    C8 5267   2.049   4.420   9.428 -0.6412 -0.2701 -0.2081
  351TMC3    O1 5268   1.879   0.097   9.043  0.0341 -0.1616  0.3522
  351TMC3    O2 5269   2.017   4.333   9.345 -0.5208  0.1083 -0.3128
  352MPD2     C 5270   0.674   2.269   1.496 -0.5847 -0.1286 -0.2098
  352MPD2    C1 5271   0.630   2.255   1.368  0.0351 -0.1287  0.1263
  352MPD2    C2 5272   0.555   2.145   1.335  0.5412 -0.5119 -0.0942
  352MPD2    C3 5273   0.534   2.039   1.420 -0.5971  0.3037 -0.0957
  352MPD2    C4 5274   0.578   2.053   1.551  0.6143 -0.4290  1.0513
  352MPD2    C5 5275   0.650   2.166   1.589 -0.7586 -0.5867  0.7896
  352MPD2     H 5276   0.514   2.134   1.235 -2.0864  1.3041  0.7886
  352MPD2    H1 5277   0.570   1.981   1.632  1.6678 -0.7622  0.8473
  352MPD2    H2 5278   0.723   2.361   1.526 -1.7857  0.4098  0.1025
  352MPD2    H3 5279   0.689   2.176   1.690 -0.8360 -2.1789  0.9702
  352MPD2     N 5280   0.452   1.930   1.386 -0.8513 -0.1744  0.8162
  352MPD2    H5 5281   0.432   1.866   1.462  3.0972 -1.4648  0.7952
  352MPD2    N1 5282   0.660   2.362   1.281  0.5171 -0.0939 -0.3470
  352MPD2    H7 5283   0.704   2.443   1.323 -0.2842  0.3622 -0.3961
  353TMC3    C1 5284   0.328   1.774   1.259  0.7441 -0.4174  0.2483
  353TMC3    C2 5285   0.276   1.726   1.377  0.1509  0.8738 -0.0422
  353TMC3    C3 5286   0.205   1.604   1.371  0.4832  0.5548 -0.3162
  353TMC3    C4 5287   0.314   1.713   1.142  0.0133  0.1707 -0.0006
  353TMC3    C5 5288   0.243   1.599   1.137  0.6260  0.2272 -0.0274
  353TMC3    C6 5289   0.190   1.536   1.249 -0.0694 -0.4538 -0.2785
  353TMC3     C 5290   0.393   1.899   1.260 -0.0328  0.5813 -0.3229
  353TMC3     O 5291   0.412   1.953   1.153  0.1851  0.3136  0.3238
  353TMC3     H 5292   0.278   1.777   1.473 -0.4646 -0.3564  0.6127
  353TMC3    H1 5293   0.335   1.765   1.049  1.3718 -2.2616 -1.0615
  353TMC3    H2 5294   0.130   1.446   1.239 -0.0204 -0.3849 -1.2336
  353TMC3    C7 5295   0.226   1.537   1.012  0.2492  0.5921 -0.4434
  353TMC3    C8 5296   0.204   1.523   1.486  0.0400 -0.3170  0.0586
  353TMC3    O1 5297   0.281   1.600   0.922  0.9127  0.5461  0.2456
  353TMC3    O2 5298   0.196   1.586   1.589 -0.3256  0.5453  0.1816
  354TMC3    C1 5299   1.926   3.744  13.434  0.2490  0.2540 -0.3700
  354TMC3    C2 5300   1.935   3.877  13.402 -0.8727  0.9008 -0.1552
  354TMC3    C3 5301   2.006   3.895  13.281  0.5784 -0.1537  0.4226
  354TMC3    C4 5302   1.940   3.651  13.334 -0.6211 -0.9814  0.1678
  354TMC3    C5 5303   2.008   3.671  13.219 -0.2595 -0.1539 -0.4484
  354TMC3    C6 5304   2.040   3.800  13.196  0.1909  0.8617  0.2319
  354TMC3     C 5305   1.856   3.701  13.553 -0.2585  0.6376 -0.4543
  354TMC3     O 5306   1.795   3.596  13.543 -0.4892 -0.6454  0.1275
  354TMC3     H 5307   1.910   3.955  13.472 -0.8084  1.5569 -0.8656
  354TMC3    H1 5308   1.932   3.546  13.358  0.1117 -0.9899  0.3936
  354TMC3    H2 5309   2.094   3.836  13.109 -3.3591 -0.3241 -2.4458
  354TMC3    C7 5310   1.974   3.585  13.109 -0.5132  0.1558 -0.0670
  354TMC3    C8 5311   1.995   4.033  13.229  0.4373 -0.1694 -0.3632
  354TMC3    O1 5312   1.907   3.482  13.138 -0.1199 -0.2997 -0.2485
  354TMC3    O2 5313   2.052   4.054  13.126  0.7109  0.0952 -0.0330
  355MPD2     C 5314   1.703   4.620  11.626  0.1242  0.3339  0.6278
  355MPD2    C1 5315   1.748   4.688  11.515  0.0831  0.4845 -0.2431
  355MPD2    C2 5316   1.886   4.703  11.486 -0.2473  0.0473  0.3773
  355MPD2    C3 5317   1.974   4.663  11.587  0.2950  1.2706 -0.1255
  355MPD2    C4 5318   1.923   4.596  11.695 -1.2415 -0.7082 -0.4361
  355MPD2    C5 5319   1.792   4.565  11.713 -0.1443  0.3822  0.1338
  355MPD2     H 5320   1.916   0.026  11.396 -2.2258  0.4619 -0.0569
  355MPD2    H1 5321   1.991   4.567  11.774 -1.4639  0.7186  0.2688
  355MPD2    H2 5322   1.596   4.614  11.643 -0.1539  1.3035 -0.7445
  355MPD2    H3 5323   1.753   4.505  11.795  0.4283 -2.3871 -1.6085
  355MPD2     N 5324   2.116   4.688  11.585  0.3614  0.2587  0.8917
  355MPD2    H5 5325   2.162   4.660  11.672  0.9299 -1.6338  0.0010
  355MPD2    N1 5326   1.645   0.025  11.446 -0.5992  0.2322  0.5623
  355MPD2    H7 5327   1.557   4.709  11.468 -1.4790  0.4338 -2.5236
  356TMC3    C1 5328   2.310   0.084  11.517 -0.0224 -0.0081  0.1293
  356TMC3    C2 5329   2.370   0.162  11.422  0.7951 -0.1123  0.1162
  356TMC3    C3 5330   2.487   0.221  11.468  0.3617  0.2166 -0.5349
  356TMC3    C4 5331   2.367   0.062  11.636 -0.2283  0.6197  0.2808
  356TMC3    C5 5332   2.491   0.105  11.667 -0.4035 -0.4607 -0.1889
  356TMC3    C6 5333   2.553   0.191  11.586  0.1985  0.5993  0.0694
  356TMC3     C 5334   2.178   0.030  11.487 -0.4636 -0.1929 -0.5246
  356TMC3     O 5335   2.137   0.051  11.376 -0.0216 -0.2332 -0.3633
  356TMC3     H 5336   2.310   0.186  11.335 -1.4015  1.5894  2.1084
  356TMC3    H1 5337   2.315   4.723  11.702 -2.0161 -3.0414 -4.9133
  356TMC3    H2 5338   2.652   0.230  11.608 -0.1367  0.8663  1.0846
  356TMC3    C7 5339   2.522   0.088  11.807 -0.3026 -0.2777  0.5001
  356TMC3    C8 5340   2.544   0.317  11.368 -0.1466 -0.2100 -0.4600
  356TMC3    O1 5341   2.490   4.714  11.864  0.2409  0.3751 -0.6192
  356TMC3    O2 5342   2.482   0.332  11.264  0.1763 -0.1888  0.2359
  357MPD2     C 5343   2.611   4.385   1.425 -0.3243 -0.1171 -0.5345
  357MPD2    C1 5344   2.749   4.407   1.419  0.2474 -0.1476 -0.5123
  357MPD2    C2 5345   2.812   4.440   1.540  0.3331  0.1120  0.5632
  357MPD2    C3 5346   2.734   4.458   1.656 -0.3421 -0.0756  0.1712
  357MPD2    C4 5347   2.598   4.441   1.654 -0.0652  0.1514 -0.0845
  357MPD2    C5 5348   2.536   4.401   1.538  0.0861 -0.3038 -0.5562
  357MPD2     H 5349   2.915   4.473   1.531  0.5148  0.1083  2.4526
  357MPD2    H1 5350   2.539   4.470   1.740  0.4727  1.3949 -0.1241
  357MPD2    H2 5351   2.558   4.350   1.337 -2.3961 -0.0919  0.7075
  357MPD2    H3 5352   2.429   4.389   1.542  0.1410 -0.3648  0.6174
  357MPD2     N 5353   2.804   4.503   1.776 -0.2815  0.1040  0.3443
  357MPD2    H5 5354   2.757   4.551   1.853 -3.0863 -2.6953  0.3698
  357MPD2    N1 5355   2.818   4.396   1.290  0.4537 -0.1481 -0.0291
  357MPD2    H7 5356   2.765   4.353   1.215  1.3881  0.9482 -1.3223
  358TMC3    C1 5357   3.015   4.382   1.145 -0.2747 -0.6871 -0.4529
  358TMC3    C2 5358   2.964   4.270   1.093  0.6867 -0.1581  0.6143
  358TMC3    C3 5359   3.052   4.182   1.034 -1.1816 -0.4542 -0.5974
  358TMC3    C4 5360   3.150   4.416   1.127  0.4589 -0.4643 -0.1040
  358TMC3    C5 5361   3.226   4.335   1.040 -0.2684  0.4752 -0.4773
  358TMC3    C6 5362   3.188   4.208   1.007  0.9631 -0.0068 -0.2712
  358TMC3     C 5363   2.955   4.434   1.270  0.0845 -0.3904 -0.6762
  358TMC3     O 5364   3.023   4.516   1.331 -0.6032  0.0368 -0.2403
  358TMC3     H 5365   2.862   4.239   1.113  1.3980 -3.2353 -0.4997
  358TMC3    H1 5366   3.194   4.505   1.172  0.4521 -0.8561  0.6744
  358TMC3    H2 5367   3.238   4.143   0.937  0.3935 -2.3579  1.5142
  358TMC3    C7 5368   3.367   4.383   1.018  0.6587  0.9729  0.4298
  358TMC3    C8 5369   2.981   4.082   0.949  0.4977 -0.0899  0.0028
  358TMC3    O1 5370   3.419   4.443   1.109 -0.4608 -0.0418  0.2379
  358TMC3    O2 5371   2.868   4.104   0.911  0.5016  0.0916  1.0022
  359MPD2     C 5372   2.064   2.541  12.481  0.6085  0.0829 -0.4980
  359MPD2    C1 5373   2.162   2.635  12.471  0.1334 -0.3408  0.0278
  359MPD2    C2 5374   2.190   2.722  12.575  1.0404 -0.3965  0.1644
  359MPD2    C3 5375   2.124   2.704  12.695 -0.3770  0.3924 -0.0930
  359MPD2    C4 5376   2.026   2.605  12.704 -0.0374 -0.1788  0.0928
  359MPD2    C5 5377   1.999   2.522  12.600 -0.2222  0.6881 -0.3756
  359MPD2     H 5378   2.272   2.794  12.575 -0.2277  1.0645 -2.3738
  359MPD2    H1 5379   1.979   2.591  12.800  1.8299 -0.0787  1.0264
  359MPD2    H2 5380   2.027   2.474  12.404  1.2481 -0.2668 -0.5018
  359MPD2    H3 5381   1.927   2.441  12.608 -0.2660  0.9105  1.4018
  359MPD2     N 5382   2.123   2.800  12.798 -0.1020 -0.6107  0.0488
  359MPD2    H5 5383   2.097   2.761  12.888 -3.0366 -0.2258 -0.6422
  359MPD2    N1 5384   2.235   2.647  12.350  0.0342  0.6125 -0.1389
  359MPD2    H7 5385   2.305   2.719  12.354  0.4510  0.2197 -0.4168
  360TMC3    C1 5386   2.299   2.616  12.128 -0.0636 -0.4294  0.4017
  360TMC3    C2 5387   2.440   2.627  12.154  0.7955  0.3488 -0.0588
  360TMC3    C3 5388   2.508   2.702  12.073  0.3120  0.0909  0.1786
  360TMC3    C4 5389   2.237   2.661  12.010 -0.3498 -0.7627 -0.2891
  360TMC3    C5 5390   2.323   2.718  11.919 -0.1821  0.1059  0.7083
  360TMC3    C6 5391   2.453   2.735  11.956  0.4550 -0.1484 -0.3861
  360TMC3     C 5392   2.209   2.583  12.235 -0.7486  0.4039 -0.1482
  360TMC3     O 5393   2.104   2.527  12.197  0.1476 -0.6626 -0.0338
  360TMC3     H 5394   2.473   2.602  12.254  0.9594  0.2511 -0.1368
  360TMC3    H1 5395   2.129   2.659  11.998 -0.3224  2.6186 -0.9597
  360TMC3    H2 5396   2.525   2.781  11.890 -0.0839  0.7910 -0.3183
  360TMC3    C7 5397   2.286   2.812  11.819 -0.8787  0.0950 -0.1750
  360TMC3    C8 5398   2.586   2.812  12.132  0.2221 -0.3180  0.0760
  360TMC3    O1 5399   2.380   2.870  11.760 -0.7453 -0.1103  0.0002
  360TMC3    O2 5400   2.561   2.838  12.247  0.1559 -0.1146  0.6463
  361MPD2     C 5401   4.447   2.338  17.156  0.0064  0.9450  0.3525
  361MPD2    C1 5402   4.423   2.253  17.054 -0.1518  0.1872 -0.2905
  361MPD2    C2 5403   4.519   2.149  17.021  0.3504  0.3737  0.2162
  361MPD2    C3 5404   4.617   2.126  17.117 -0.2191 -0.7342  0.5528
  361MPD2    C4 5405   4.630   2.209  17.228 -0.1453  0.7059  0.7151
  361MPD2    C5 5406   4.546   2.319  17.246 -0.3028  0.5675  0.1420
  361MPD2     H 5407   4.490   2.081  16.942 -2.1994  0.6324  0.9315
  361MPD2    H1 5408   4.684   2.171  17.314 -2.9704 -2.0260  1.2951
  361MPD2    H2 5409   4.372   2.409  17.189  0.8821  2.2634 -0.4785
  361MPD2    H3 5410   4.558   2.383  17.333 -0.6833  2.2157 -1.0374
  361MPD2     N 5411   4.707   2.016  17.120 -0.0611  0.3551 -0.1450
  361MPD2    H5 5412   0.037   1.997  17.201  1.1044  0.2884 -0.9923
  361MPD2    N1 5413   4.308   2.259  16.972 -0.2149 -0.6352  0.1191
  361MPD2    H7 5414   4.314   2.201  16.889 -0.6839  0.3699 -0.6216
  362TMC3    C1 5415   4.075   2.286  16.912 -0.5856  0.1069  0.6124
  362TMC3    C2 5416   3.960   2.245  16.973 -0.0826 -0.4158 -0.4560
  362TMC3    C3 5417   3.897   2.145  16.916 -0.0383 -0.3904 -0.2512
  362TMC3    C4 5418   4.108   2.238  16.788 -0.2723  0.0953  0.7361
  362TMC3    C5 5419   4.027   2.145  16.731 -0.6135  0.4911 -0.1248
  362TMC3    C6 5420   3.931   2.082  16.804 -0.5229  0.2633  0.0927
  362TMC3     C 5421   4.187   2.326  16.996 -0.3854  0.3442  0.4630
  362TMC3     O 5422   4.166   2.399  17.091 -0.5583  0.4072 -0.1446
  362TMC3     H 5423   3.924   2.285  17.067  2.1133 -0.7716  0.5320
  362TMC3    H1 5424   4.193   2.261  16.725 -1.1582  1.2513 -0.0397
  362TMC3    H2 5425   3.869   2.003  16.763  0.1103  0.3140 -0.9634
  362TMC3    C7 5426   4.002   2.159  16.587  0.3165 -0.4362  0.3112
  362TMC3    C8 5427   3.772   2.107  16.966  0.2260 -0.6765  0.2213
  362TMC3    O1 5428   4.006   2.268  16.530  0.1528  0.4808  0.5716
  362TMC3    O2 5429   3.754   1.986  16.973 -0.3803 -0.1627  0.5649
  363TMC3    C1 5430   2.430   0.242   9.391  0.3491 -0.3561  0.2389
  363TMC3    C2 5431   2.437   0.178   9.513  0.4088 -0.2660  0.2819
  363TMC3    C3 5432   2.493   0.251   9.615 -0.0975  0.3998 -0.7204
  363TMC3    C4 5433   2.472   0.372   9.375  0.0163  0.4708 -0.6781
  363TMC3    C5 5434   2.506   0.440   9.490  0.5983  0.0590 -0.5034
  363TMC3    C6 5435   2.533   0.381   9.608  0.4496 -0.7042  0.0246
  363TMC3     C 5436   2.390   0.173   9.269 -0.9270 -0.0272 -0.1065
  363TMC3     O 5437   2.387   0.241   9.165 -0.5985 -0.2970 -0.1215
  363TMC3     H 5438   2.417   0.073   9.531 -0.0700 -0.2272 -0.0213
  363TMC3    H1 5439   2.437   0.425   9.288 -0.4059 -0.0533 -0.8255
  363TMC3    H2 5440   2.574   0.439   9.690  2.9365 -0.2958 -1.4888
  363TMC3    C7 5441   2.500   0.586   9.488 -0.2249 -0.0262 -0.5250
  363TMC3    C8 5442   2.558   0.169   9.717  0.1402 -0.1907  0.5844
  363TMC3    O1 5443   2.544   0.654   9.581 -0.0446  0.1631  0.5010
  363TMC3    O2 5444   2.512   0.059   9.742  0.2759 -0.0500 -0.4867
  364MPD2     C 5445   1.097   3.874  10.423  0.0973 -0.7648 -0.3758
  364MPD2    C1 5446   1.227   3.887  10.385 -0.1509  0.6968  0.6965
  364MPD2    C2 5447   1.297   3.766  10.382  0.1612 -0.2672 -0.4849
  364MPD2    C3 5448   1.232   3.647  10.428 -0.2714  0.5962 -0.1962
  364MPD2    C4 5449   1.103   3.647  10.477 -0.7494  0.6011 -0.3848
  364MPD2    C5 5450   1.037   3.763  10.474 -1.2138 -0.1743 -0.1132
  364MPD2     H 5451   1.405   3.755  10.372  0.3565  1.4915 -0.4260
  364MPD2    H1 5452   1.047   3.565  10.520  0.2347 -1.0291 -2.1924
  364MPD2    H2 5453   1.033   3.961  10.411  2.3533  0.9517  0.0651
  364MPD2    H3 5454   0.932   3.755  10.500 -0.2137  1.6021  4.4704
  364MPD2     N 5455   1.304   3.526  10.442  0.5855 -0.0058 -0.2699
  364MPD2    H5 5456   1.267   3.459  10.508  1.0445  0.1517  0.1503
  364MPD2    N1 5457   1.296   4.006  10.360 -1.1966  0.1141 -0.4582
  364MPD2    H7 5458   1.246   4.092  10.380 -1.5441 -0.3672  0.7535
  365TMC3    C1 5459   1.483   4.140  10.299  0.4396  0.3395 -0.2975
  365TMC3    C2 5460   1.574   4.163  10.198 -0.1441  0.3859 -0.0079
  365TMC3    C3 5461   1.627   4.284  10.197 -0.2595 -0.0504  0.0502
  365TMC3    C4 5462   1.467   4.216  10.409  0.4540 -0.2758  1.1399
  365TMC3    C5 5463   1.531   4.336  10.405 -0.4272  0.7740  0.2659
  365TMC3    C6 5464   1.617   4.371  10.303 -0.5520  0.2652 -0.4413
  365TMC3     C 5465   1.417   4.014  10.297  0.4518  0.5518  0.1792
  365TMC3     O 5466   1.474   3.931  10.225  0.1631  0.5957  0.2315
  365TMC3     H 5467   1.568   4.099  10.111  2.1201 -2.5666  2.0027
  365TMC3    H1 5468   1.407   4.174  10.489  0.3609  1.5277  2.0213
  365TMC3    H2 5469   1.637   4.477  10.292  0.5857  0.0522 -0.4222
  365TMC3    C7 5470   1.520   4.431  10.511 -0.3389  0.1727  0.0200
  365TMC3    C8 5471   1.669   4.338  10.073 -0.2183  0.1334 -0.2815
  365TMC3    O1 5472   1.582   4.539  10.504 -0.1280  0.2719  0.6361
  365TMC3    O2 5473   1.678   4.461  10.063 -0.1562  1.2906  0.2840
  366MPD2     C 5474   4.458   4.553  15.052 -0.3605  0.2500 -0.6101
  366MPD2    C1 5475   4.551   4.639  15.118 -0.3744 -0.2182 -0.8811
  366MPD2    C2 5476   4.681   4.595  15.114  0.2729 -0.0762 -0.1470
  366MPD2    C3 5477   4.728   4.518  15.013  1.0161  0.1532 -0.0313
  366MPD2    C4 5478   4.638   4.463  14.923 -0.0560 -0.7011 -0.1946
  366MPD2    C5 5479   4.504   4.460  14.956 -0.4774  0.3334 -0.8362
  366MPD2     H 5480   0.021   4.629  15.190 -2.0316  0.4401  1.7128
  366MPD2    H1 5481   4.673   4.414  14.833  2.4195 -0.8069  0.8418
  366MPD2    H2 5482   4.353   4.570  15.072  0.0319  0.8433  0.9073
  366MPD2    H3 5483   4.440   4.396  14.896 -0.2095 -1.1310  0.4459
  366MPD2     N 5484   0.140   4.519  14.990  0.0888 -0.5474 -0.2333
  366MPD2    H5 5485   0.181   4.484  14.904 -0.7001 -1.9933 -0.0366
  366MPD2    N1 5486   4.519   0.031  15.195 -0.2655 -0.2026  0.2929
  366MPD2    H7 5487   4.601   0.086  15.217 -1.0172  0.7740  0.6579
  367TMC3    C1 5488   4.398   0.218  15.270 -0.7875 -0.6590 -0.3140
  367TMC3    C2 5489   4.511   0.268  15.323  0.1370  0.2020 -0.0856
  367TMC3    C3 5490   4.533   0.405  15.312 -0.2227  0.1036  0.5651
  367TMC3    C4 5491   4.306   0.294  15.210 -0.2360 -0.4970 -0.1103
  367TMC3    C5 5492   4.325   0.430  15.213 -0.0347  0.4050  0.1204
  367TMC3    C6 5493   4.438   0.488  15.258 -0.5280  0.5634  0.6316
  367TMC3     C 5494   4.393   0.081  15.221 -0.0934  0.3603 -0.9916
  367TMC3     O 5495   4.291   0.019  15.203  0.6876 -0.1105  0.2695
  367TMC3     H 5496   4.590   0.208  15.367  0.3153 -0.8250 -1.7820
  367TMC3    H1 5497   4.214   0.254  15.170 -0.6777 -0.9324  1.3454
  367TMC3    H2 5498   4.445   0.596  15.261 -1.9554  0.6517  0.9558
  367TMC3    C7 5499   4.225   0.516  15.153 -0.1667  0.7727 -0.0945
  367TMC3    C8 5500   4.659   0.447  15.359  0.4933  0.6598  0.1354
  367TMC3    O1 5501   4.215   0.622  15.216 -0.1708  0.2536 -0.6955
  367TMC3    O2 5502   4.719   0.376  15.437 -0.0714 -0.2276  0.3133
  368MPD2     C 5503   0.568   2.059  13.356 -0.0949  0.5120  0.1117
  368MPD2    C1 5504   0.531   2.162  13.271  0.9365 -0.0028  0.1317
  368MPD2    C2 5505   0.622   2.265  13.252 -0.3365 -0.3851  0.1805
  368MPD2    C3 5506   0.749   2.257  13.303  0.2055  0.2305 -0.0514
  368MPD2    C4 5507   0.788   2.150  13.379  0.4736 -0.5001 -0.1212
  368MPD2    C5 5508   0.700   2.050  13.404  0.5335  0.5125  0.2647
  368MPD2     H 5509   0.595   2.348  13.187  0.0862 -0.6961 -0.3881
  368MPD2    H1 5510   0.885   2.156  13.426  0.4180 -0.8022  0.0287
  368MPD2    H2 5511   0.497   1.986  13.393  1.0724 -0.7389 -0.1299
  368MPD2    H3 5512   0.738   1.973  13.471 -0.1996  1.0413  1.2971
  368MPD2     N 5513   0.845   2.357  13.275 -0.1047  0.3568  0.2098
  368MPD2    H5 5514   0.934   2.345  13.322  1.0354  1.1199 -1.7715
  368MPD2    N1 5515   0.399   2.169  13.235  0.2115  0.1667 -0.5605
  368MPD2    H7 5516   0.340   2.096  13.273 -0.7788  2.2529  1.8892
  369TMC3    C1 5517   0.193   2.240  13.149 -0.0826 -0.4674 -0.2047
  369TMC3    C2 5518   0.130   2.318  13.063 -0.5848 -0.1418  0.4773
  369TMC3    C3 5519   4.727   2.347  13.088 -0.2264  0.3016 -0.5720
  369TMC3    C4 5520   0.139   2.182  13.261 -0.5952 -0.6804  0.8715
  369TMC3    C5 5521   0.007   2.216  13.285 -0.2868  0.2597 -0.0068
  369TMC3    C6 5522   4.659   2.295  13.197  0.0142  0.2072  0.2607
  369TMC3     C 5523   0.336   2.252  13.148 -0.9967  0.3631 -0.6882
  369TMC3     O 5524   0.393   2.333  13.076  0.5269  0.4296  0.1813
  369TMC3     H 5525   0.171   2.354  12.969  0.7645 -1.0567  0.6983
  369TMC3    H1 5526   0.185   2.107  13.325 -1.5301 -0.3365  1.9461
  369TMC3    H2 5527   4.560   2.330  13.224  1.2356  2.4358  1.8587
  369TMC3    C7 5528   4.678   2.167  13.409  0.3132 -0.2613  0.3726
  369TMC3    C8 5529   4.680   2.462  13.020 -0.0013 -0.0894  0.3882
  369TMC3    O1 5530   0.033   2.141  13.495 -0.4671  0.8739 -0.5654
  369TMC3    O2 5531   0.029   2.553  13.017  0.4191 -0.3466  0.0313
  370TMC3    C1 5532   0.677   3.041  16.187  0.3267 -0.2076  0.0979
  370TMC3    C2 5533   0.613   2.957  16.271 -0.2704 -0.1465  0.1446
  370TMC3    C3 5534   0.599   2.823  16.237 -0.0091  0.0880  0.2365
  370TMC3    C4 5535   0.714   2.999  16.062  0.0637  0.5371  0.4888
  370TMC3    C5 5536   0.683   2.869  16.029  0.6285 -0.6227 -0.1711
  370TMC3    C6 5537   0.624   2.775  16.113 -0.8761 -0.0505 -0.1905
  370TMC3     C 5538   0.748   3.155  16.249  0.1919 -0.4802 -0.2197
  370TMC3     O 5539   0.752   3.172  16.373 -0.0195  0.1071 -0.3427
  370TMC3     H 5540   0.585   2.998  16.367  0.0264  0.9543 -0.2389
  370TMC3    H1 5541   0.759   3.055  15.981 -0.2803  1.0952  0.6840
  370TMC3    H2 5542   0.603   2.672  16.085 -0.9757 -0.2564  0.6489
  370TMC3    C7 5543   0.712   2.829  15.895 -0.1631 -0.0323 -0.4894
  370TMC3    C8 5544   0.616   2.721  16.339  0.1073 -0.6988  0.2937
  370TMC3    O1 5545   0.689   2.906  15.802 -0.2086  0.0715 -0.3189
  370TMC3    O2 5546   0.654   2.611  16.305  0.0488 -0.1993 -0.8125
  371TMC3    C1 5547   2.087   1.184  15.404  0.1209  0.2228  0.7145
  371TMC3    C2 5548   1.970   1.193  15.481  0.0262  0.1136  0.3724
  371TMC3    C3 5549   1.909   1.315  15.483  0.2304  0.5458  0.3081
  371TMC3    C4 5550   2.143   1.294  15.345  0.0232  0.1491 -0.1191
  371TMC3    C5 5551   2.077   1.414  15.351  0.4133  0.6399  0.8729
  371TMC3    C6 5552   1.956   1.424  15.417 -0.1549  0.2781  0.0167
  371TMC3     C 5553   2.140   1.054  15.364  0.9767 -0.2783 -0.2368
  371TMC3     O 5554   2.240   1.051  15.292 -0.9855 -0.1570  0.4807
  371TMC3     H 5555   1.924   1.111  15.535 -0.8503  0.1373 -0.3291
  371TMC3    H1 5556   2.229   1.280  15.280 -0.2039 -2.6872  0.1850
  371TMC3    H2 5557   1.893   1.511  15.408 -1.6210 -0.7465  0.4196
  371TMC3    C7 5558   2.098   1.503  15.237  1.1296 -0.1949  0.9218
  371TMC3    C8 5559   1.761   1.315  15.506  0.0779 -0.6377  0.8675
  371TMC3    O1 5560   2.081   1.621  15.267  0.1399 -0.6371 -0.2026
  371TMC3    O2 5561   1.707   1.209  15.484  0.6078  0.3128  0.1285
  372MPD2     C 5562   0.543   2.666  13.421 -0.8950  0.6941  0.4895
  372MPD2    C1 5563   0.677   2.663  13.467 -0.7181  0.2710 -1.6931
  372MPD2    C2 5564   0.711   2.552  13.542  0.5637 -0.5731 -0.7895
  372MPD2    C3 5565   0.613   2.459  13.590 -0.2011 -0.1189  0.1339
  372MPD2    C4 5566   0.482   2.471  13.544 -0.0963 -0.8736  0.3697
  372MPD2    C5 5567   0.449   2.576  13.457  0.3127 -0.0669 -0.4259
  372MPD2     H 5568   0.815   2.534  13.565 -0.0619 -0.4784  2.1771
  372MPD2    H1 5569   0.406   2.406  13.587  0.1972 -0.4565  1.5132
  372MPD2    H2 5570   0.504   2.740  13.352 -1.0734 -0.9641 -1.1687
  372MPD2    H3 5571   0.347   2.586  13.423 -0.1291 -0.6548  0.7431
  372MPD2     N 5572   0.663   2.355  13.672 -0.6338 -0.5793  0.4865
  372MPD2    H5 5573   0.760   2.353  13.702 -0.0712  0.3562 -1.2880
  372MPD2    N1 5574   0.778   2.759  13.424  0.2301  0.1630 -0.2101
  372MPD2    H7 5575   0.860   2.757  13.484  0.8371 -2.3178 -1.1065
  373TMC3    C1 5576   0.681   2.159  13.798  0.0760  0.8539  0.2218
  373TMC3    C2 5577   0.630   2.130  13.920 -0.4089 -0.2427 -0.3267
  373TMC3    C3 5578   0.688   2.029  13.996  0.5819 -0.0600 -0.9799
  373TMC3    C4 5579   0.794   2.097  13.746  0.0608  0.1587 -0.5468
  373TMC3    C5 5580   0.857   2.013  13.829 -0.8046  1.6120 -1.0680
  373TMC3    C6 5581   0.804   1.977  13.952 -0.4659  0.0948 -0.0452
  373TMC3     C 5582   0.595   2.242  13.710  0.3042  0.3426 -0.2302
  373TMC3     O 5583   0.481   2.206  13.712 -0.3563  0.2764  0.4166
  373TMC3     H 5584   0.555   2.199  13.956 -0.2000 -0.4312  0.4862
  373TMC3    H1 5585   0.829   2.120  13.646  0.8942 -1.2180 -0.5714
  373TMC3    H2 5586   0.845   1.893  14.007  0.9812  1.0984  0.3971
  373TMC3    C7 5587   0.965   1.942  13.765 -0.0895 -0.4233 -0.0336
  373TMC3    C8 5588   0.675   2.064  14.136 -0.1068 -0.1675  0.1295
  373TMC3    O1 5589   0.956   1.930  13.644  0.0308 -0.4222 -0.3090
  373TMC3    O2 5590   0.597   2.009  14.212 -0.2425 -0.2358  0.4641
  374TMC3    C1 5591   2.069   2.011  10.151  0.1846 -0.0004 -0.3238
  374TMC3    C2 5592   2.139   2.097  10.069 -0.4100  0.3670  0.2243
  374TMC3    C3 5593   2.089   2.122   9.948  0.1333 -0.2965 -0.0694
  374TMC3    C4 5594   1.953   1.959  10.114  0.1223 -0.4915  0.2793
  374TMC3    C5 5595   1.910   1.980   9.986  0.2329 -0.2882 -0.2529
  374TMC3    C6 5596   1.979   2.061   9.896 -0.0996 -0.2594  0.0343
  374TMC3     C 5597   2.106   1.992  10.287  0.5528  0.3215 -0.4616
  374TMC3     O 5598   2.228   1.973  10.309  0.1555 -0.3182 -0.2254
  374TMC3     H 5599   2.229   2.147  10.104 -0.5176  0.0232  1.0011
  374TMC3    H1 5600   1.899   1.891  10.180  2.0315 -2.1140  0.1881
  374TMC3    H2 5601   1.936   2.087   9.800 -0.4152  0.9152  0.4907
  374TMC3    C7 5602   1.796   1.917   9.924 -0.1888 -0.3624 -0.0764
  374TMC3    C8 5603   2.141   2.234   9.887 -0.3107 -0.0791  0.2978
  374TMC3    O1 5604   1.732   1.987   9.844 -0.7519  0.8061 -0.0577
  374TMC3    O2 5605   2.146   2.239   9.765 -0.0016  0.4818 -0.5436
  375MPD2     C 5606   2.204   3.041  16.996  0.1387 -0.1338 -0.1727
  375MPD2    C1 5607   2.107   3.089  16.905 -0.5319 -0.2393  1.6664
  375MPD2    C2 5608   2.127   3.077  16.770  0.0497  0.1688 -0.1587
  375MPD2    C3 5609   2.234   3.002  16.725 -0.2070  0.5758 -0.0503
  375MPD2    C4 5610   2.334   2.963  16.816  0.1298 -0.4880  0.1703
  375MPD2    C5 5611   2.316   2.980  16.950 -0.1415  0.5208  0.2485
  375MPD2     H 5612   2.047   3.107  16.702  0.7732 -0.2386 -1.1897
  375MPD2    H1 5613   2.421   2.910  16.779 -0.1728 -1.1904  0.4689
  375MPD2    H2 5614   2.200   3.052  17.104  0.4249 -0.1617 -0.1591
  375MPD2    H3 5615   2.389   2.950  17.024 -0.7718  1.6583  1.3377
  375MPD2     N 5616   2.246   2.956  16.589 -0.5217  0.2491  0.2990
  375MPD2    H5 5617   2.320   2.888  16.581 -1.4135 -0.7556  0.5381
  375MPD2    N1 5618   1.984   3.141  16.952 -0.3245  0.4147 -0.3984
  375MPD2    H7 5619   1.918   3.159  16.877 -0.0360  0.3405 -0.6697
  376TMC3    C1 5620   2.218   2.931  16.363  0.2092 -0.6111 -0.7044
  376TMC3    C2 5621   2.352   2.903  16.341 -0.2878 -0.4799 -0.2787
  376TMC3    C3 5622   2.390   2.858  16.218  0.5798 -0.6326  0.3728
  376TMC3    C4 5623   2.121   2.927  16.262  0.4844 -0.5492 -0.2519
  376TMC3    C5 5624   2.167   2.882  16.143  0.7844  0.5113 -0.3773
  376TMC3    C6 5625   2.297   2.861  16.113  0.6326 -0.5289  0.4451
  376TMC3     C 5626   2.178   3.002  16.482 -0.8673 -0.2249 -0.3615
  376TMC3     O 5627   2.088   3.084  16.482 -0.2734 -0.2402  0.4292
  376TMC3     H 5628   2.430   2.929  16.411  0.5965 -1.5648 -0.8503
  376TMC3    H1 5629   2.021   2.967  16.274  1.0417  0.4724  0.9530
  376TMC3    H2 5630   2.336   2.854  16.012  0.8615 -3.6843  0.7553
  376TMC3    C7 5631   2.074   2.874  16.028  0.0246  0.1882 -0.1851
  376TMC3    C8 5632   2.523   2.893  16.187 -0.5144 -0.3399  0.1547
  376TMC3    O1 5633   1.968   2.934  16.034 -0.0061  0.0536 -0.2456
  376TMC3    O2 5634   2.543   2.948  16.080  0.1231  0.2088 -0.4622
  377MPD2     C 5635   4.177   3.131  12.209  0.1799  0.2705  0.0832
  377MPD2    C1 5636   4.249   3.049  12.296  0.2508  0.1878 -0.0626
  377MPD2    C2 5637   4.190   2.994  12.405 -0.3100 -0.5809 -0.0462
  377MPD2    C3 5638   4.066   3.037  12.431 -0.3674 -0.1462 -0.3284
  377MPD2    C4 5639   4.000   3.127  12.354 -0.0154 -1.0147  0.0731
  377MPD2    C5 5640   4.055   3.178  12.242 -0.6801 -0.0666  0.2630
  377MPD2     H 5641   4.244   2.929  12.472 -2.0968 -0.5701  1.3785
  377MPD2    H1 5642   3.908   3.174  12.388 -0.2120 -1.2649 -0.1165
  377MPD2    H2 5643   4.231   3.174  12.125  1.3747  1.2411  1.3579
  377MPD2    H3 5644   4.018   3.270  12.198 -1.2797 -1.5185 -2.2660
  377MPD2     N 5645   3.989   2.979  12.537 -0.1408  0.2261 -0.1856
  377MPD2    H5 5646   3.890   3.000  12.535 -0.1999 -0.0757 -0.5790
  377MPD2    N1 5647   4.372   3.013  12.242 -0.0009  0.2336  0.6024
  377MPD2    H7 5648   4.393   3.061  12.155  0.5143  1.3704  1.3582
  378TMC3    C1 5649   4.671   2.955  12.007  0.0078 -0.0023 -0.6208
  378TMC3    C2 5650   4.558   2.956  12.088  0.0926 -0.1679  0.4562
  378TMC3    C3 5651   4.581   2.936  12.216 -0.7173 -0.8906 -0.3163
  378TMC3    C4 5652   0.068   2.946  12.056  0.0695  0.0550 -0.0629
  378TMC3    C5 5653   0.076   2.916  12.186  0.2035 -0.0777 -0.1504
  378TMC3    C6 5654   4.699   2.907  12.271 -0.2915  0.0929  0.1775
  378TMC3     C 5655   4.647   2.974  11.864  0.0716 -0.5882  0.6973
  378TMC3     O 5656   4.540   2.923  11.827  0.6050  0.4862  0.5103
  378TMC3     H 5657   4.461   2.955  12.040  0.4445 -0.9876 -0.2465
  378TMC3    H1 5658   0.150   2.957  11.985 -0.1692 -3.7583 -0.9252
  378TMC3    H2 5659   4.712   2.902  12.378 -1.9490 -2.4647  0.2389
  378TMC3    C7 5660   0.201   2.878  12.241  0.3770  0.3594 -0.2266
  378TMC3    C8 5661   4.467   2.945  12.306 -0.0279  0.4507 -0.2459
  378TMC3    O1 5662   0.192   2.845  12.360  0.2749 -0.7424 -0.2985
  378TMC3    O2 5663   4.473   2.894  12.416 -0.4002  0.2139 -0.0087
  379MPD2     C 5664   0.568   0.506  16.184 -0.4444 -0.4647 -0.8418
  379MPD2    C1 5665   0.654   0.424  16.123  0.3009 -0.3311  0.2331
  379MPD2    C2 5666   0.743   0.341  16.198  0.2458 -0.7374 -0.1075
  379MPD2    C3 5667   0.747   0.361  16.338  0.3681  0.3053  0.0658
  379MPD2    C4 5668   0.651   0.449  16.397 -0.0244  0.1858  0.5345
  379MPD2    C5 5669   0.566   0.520  16.316  0.3686 -0.3711  0.1120
  379MPD2     H 5670   0.806   0.264  16.155  0.6731  0.1407 -1.0626
  379MPD2    H1 5671   0.642   0.465  16.503 -1.1525 -0.7887  0.5916
  379MPD2    H2 5672   0.499   0.563  16.123  0.6372  0.8962 -0.7817
  379MPD2    H3 5673   0.495   0.587  16.362  1.8273  0.2846  1.4362
  379MPD2     N 5674   0.827   0.281  16.431 -0.0391  0.0642 -0.3914
  379MPD2    H5 5675   0.804   0.277  16.529 -0.4166  2.1357 -0.3872
  379MPD2    N1 5676   0.656   0.427  15.979 -0.1152 -0.2558 -0.0136
  379MPD2    H7 5677   0.593   0.495  15.939  1.7103  1.4328 -0.0227
  380TMC3    C1 5678   0.712   0.392  15.764  0.2614 -0.6086  0.5221
  380TMC3    C2 5679   0.819   0.399  15.681 -0.1040 -0.6060 -0.1074
  380TMC3    C3 5680   0.803   0.447  15.556 -0.4042  0.0705 -0.1290
  380TMC3    C4 5681   0.591   0.421  15.715  0.2045  0.1978  0.0629
  380TMC3    C5 5682   0.582   0.461  15.577 -0.1146  0.1592  0.6262
  380TMC3    C6 5683   0.684   0.484  15.498 -0.0289  0.7235 -0.4560
  380TMC3     C 5684   0.739   0.351  15.902 -0.0842 -0.6007 -0.1236
  380TMC3     O 5685   0.821   0.266  15.923  0.4296 -0.2555  0.5642
  380TMC3     H 5686   0.916   0.378  15.726  0.3377  3.0002  0.5864
  380TMC3    H1 5687   0.503   0.402  15.775  0.9179 -1.2918  0.6332
  380TMC3    H2 5688   0.680   0.493  15.390 -0.2394 -1.0222 -0.5979
  380TMC3    C7 5689   0.448   0.475  15.532  0.1299 -0.2177 -0.1520
  380TMC3    C8 5690   0.916   0.495  15.475  0.2194  0.4447  0.6115
  380TMC3    O1 5691   0.357   0.415  15.586 -0.4684  0.4250 -0.3645
  380TMC3    O2 5692   0.888   0.553  15.373  0.1435  0.0704  0.3675
  381TMC3    C1 5693   0.528   2.353  16.122 -0.0799  0.1878 -0.0953
  381TMC3    C2 5694   0.663   2.350  16.097  0.0128  0.6112 -0.1906
  381TMC3    C3 5695   0.746   2.299  16.188  0.5283  0.2073 -0.5557
  381TMC3    C4 5696   0.476   2.296  16.241 -0.4637  0.7714 -0.4257
  381TMC3    C5 5697   0.562   2.227  16.320 -0.8362  0.1739 -0.1162
  381TMC3    C6 5698   0.698   2.234  16.301 -0.3638  0.3794 -0.1067
  381TMC3     C 5699   0.437   2.408  16.017 -0.4088 -0.2599  1.1667
  381TMC3     O 5700   0.478   2.425  15.902 -0.2340 -0.0599  0.0816
  381TMC3     H 5701   0.714   2.393  16.012  3.2910  1.7203  2.3454
  381TMC3    H1 5702   0.370   2.292  16.266 -0.5881 -0.1665 -1.1165
  381TMC3    H2 5703   0.766   2.205  16.380 -0.1339  1.2780  0.0233
  381TMC3    C7 5704   0.528   2.173  16.444 -0.1094 -0.5204  0.1618
  381TMC3    C8 5705   0.874   2.362  16.183  0.3126 -1.0783 -0.2148
  381TMC3    O1 5706   0.602   2.088  16.495 -0.0187 -1.0172 -0.3184
  381TMC3    O2 5707   0.930   2.368  16.074 -0.1533  0.2403  0.0340
  382MPD2     C 5708   4.265   0.202  16.792  0.5957  0.0582 -0.1221
  382MPD2    C1 5709   4.258   0.203  16.932  0.8700 -0.0876  0.1139
  382MPD2    C2 5710   4.220   0.083  16.995 -0.1601  0.3343 -0.1094
  382MPD2    C3 5711   4.173   4.702  16.915  0.2863  0.2160 -0.6476
  382MPD2    C4 5712   4.177   4.706  16.780  0.4854 -0.6819 -0.3222
  382MPD2    C5 5713   4.224   0.092  16.719 -0.0004  0.3075 -0.4332
  382MPD2     H 5714   4.220   0.068  17.102 -1.2669  0.3670 -0.0994
  382MPD2    H1 5715   4.146   4.625  16.715  0.5145  0.2568 -1.5098
  382MPD2    H2 5716   4.313   0.278  16.732 -0.3222  0.2722 -0.5858
  382MPD2    H3 5717   4.222   0.093  16.611 -1.3129  0.1976 -0.4189
  382MPD2     N 5718   4.116   4.590  16.985 -0.6354 -0.7128 -0.1436
  382MPD2    H5 5719   4.101   4.599  17.085 -0.5226 -2.3941  0.0308
  382MPD2    N1 5720   4.310   0.313  17.015  0.0873  0.1502 -0.1001
  382MPD2    H7 5721   4.294   0.303  17.115 -0.8833  0.1866 -0.2540
  383TMC3    C1 5722   4.039   4.371  17.043  0.1523 -0.8079 -0.7378
  383TMC3    C2 5723   3.972   4.266  16.992  0.1274 -0.3363 -0.2094
  383TMC3    C3 5724   3.994   4.142  17.053  0.7472  0.8755  0.2144
  383TMC3    C4 5725   4.138   4.359  17.141 -0.5989  0.2166  0.4101
  383TMC3    C5 5726   4.147   4.239  17.203  0.2178  0.4599  0.6897
  383TMC3    C6 5727   4.078   4.137  17.159  0.3778  0.0891 -0.1103
  383TMC3     C 5728   4.077   4.470  16.939  0.1379 -0.3706  0.2484
  383TMC3     O 5729   4.062   4.437  16.824  0.4849  0.2391 -0.5429
  383TMC3     H 5730   3.904   4.268  16.908 -1.3985 -1.6520  0.9927
  383TMC3    H1 5731   4.215   4.434  17.158 -0.9583  0.9873 -1.3040
  383TMC3    H2 5732   4.098   4.041  17.204  2.8894  1.1547  0.9924
  383TMC3    C7 5733   4.265   4.218  17.284 -0.0902 -0.7350 -0.5443
  383TMC3    C8 5734   3.937   4.026  16.990 -0.0282 -0.2304  0.0458
  383TMC3    O1 5735   4.308   4.102  17.292 -0.7553  0.3202 -0.4716
  383TMC3    O2 5736   3.856   4.050  16.902  0.6722 -0.0320 -0.4018
  384MPD2     C 5737   1.248   0.665  11.936 -0.5924 -0.2630 -0.0764
  384MPD2    C1 5738   1.267   0.617  12.064 -0.6907  0.2894 -0.5560
  384MPD2    C2 5739   1.299   0.484  12.078  0.1318 -0.5639 -0.4844
  384MPD2    C3 5740   1.319   0.407  11.963 -0.3123 -0.7848  0.0993
  384MPD2    C4 5741   1.313   0.457  11.836  0.2224 -0.3676 -0.0414
  384MPD2    C5 5742   1.272   0.589  11.828  0.0945  0.2801 -0.2722
  384MPD2     H 5743   1.295   0.451  12.181  1.0176  0.3587 -0.1546
  384MPD2    H1 5744   1.319   0.400  11.745 -2.5442 -0.3889 -0.1986
  384MPD2    H2 5745   1.226   0.769  11.912 -0.5383  0.3573  2.5642
  384MPD2    H3 5746   1.256   0.631  11.729 -0.0291  1.0650  0.0748
  384MPD2     N 5747   1.338   0.275  11.999 -0.6594 -0.8787 -0.6560
  384MPD2    H5 5748   1.335   0.252  12.097 -0.2285  1.8821  0.0186
  384MPD2    N1 5749   1.240   0.692  12.175  0.6603 -0.0539 -0.9935
  384MPD2    H7 5750   1.237   0.633  12.258 -0.6390  1.7899  0.2759
  385TMC3    C1 5751   1.316   0.050  11.974  0.1512 -0.7799 -0.3490
  385TMC3    C2 5752   1.211   4.695  11.936  0.3754  0.4542 -0.5378
  385TMC3    C3 5753   1.135   4.642  12.035 -0.2887 -0.4526 -1.2462
  385TMC3    C4 5754   1.359   0.048  12.104  0.3701 -0.4649 -0.6207
  385TMC3    C5 5755   1.279   4.716  12.198 -0.0530  0.0916 -0.2458
  385TMC3    C6 5756   1.165   4.651  12.170  0.3662  0.2271  1.1153
  385TMC3     C 5757   1.335   0.176  11.908 -0.6162  0.2774  0.7560
  385TMC3     O 5758   1.299   0.177  11.791  0.9587  0.4757  0.2115
  385TMC3     H 5759   1.168   4.715  11.838 -0.3659  2.1535  0.1310
  385TMC3    H1 5760   1.455   0.091  12.127  0.5309 -1.6593  0.9456
  385TMC3    H2 5761   1.093   4.618  12.244 -0.3427 -0.2516  0.2224
  385TMC3    C7 5762   1.262   0.091  12.297 -0.1705  0.4304 -0.2875
  385TMC3    C8 5763   1.029   4.545  12.010 -0.2910 -0.5207  0.2061
  385TMC3    O1 5764   1.283   0.202  12.254 -0.4853 -0.2638  0.4080
  385TMC3    O2 5765   0.968   4.502  12.107  0.3627  0.4205 -0.3247
  386TMC3    C1 5766   1.175   2.932  12.164 -0.4948  0.7197  0.2581
  386TMC3    C2 5767   1.156   2.921  12.030 -0.0148 -0.1611 -0.1536
  386TMC3    C3 5768   1.023   2.939  11.997 -0.7202 -0.5241  0.5277
  386TMC3    C4 5769   1.075   2.957  12.254  0.5109  0.0465 -0.5013
  386TMC3    C5 5770   0.946   2.950  12.212 -0.2441  0.2483 -0.4990
  386TMC3    C6 5771   0.914   2.954  12.080 -0.5263  0.0245  0.5968
  386TMC3     C 5772   1.299   2.893  12.224 -0.5308  0.1796 -0.9175
  386TMC3     O 5773   1.351   2.956  12.316 -0.1352  0.0198 -0.4092
  386TMC3     H 5774   1.234   2.925  11.955  0.8527 -1.2548  0.6937
  386TMC3    H1 5775   1.098   2.959  12.360 -0.5789  0.5909 -0.2699
  386TMC3    H2 5776   0.812   2.938  12.047  0.3222 -2.3210 -0.9352
  386TMC3    C7 5777   0.836   2.988  12.295  0.5595  0.3655 -0.4372
  386TMC3    C8 5778   1.003   2.954  11.855 -0.0985 -0.1530 -0.2940
  386TMC3    O1 5779   0.753   3.061  12.241  0.5700 -0.2782 -0.0243
  386TMC3    O2 5780   1.099   2.936  11.781  0.1297  0.4073  0.2327
  387MPD2     C 5781   3.146   3.356   9.118 -0.5653  0.2316  0.1640
  387MPD2    C1 5782   3.231   3.408   9.207  0.7944 -0.1741 -0.2727
  387MPD2    C2 5783   3.315   3.321   9.274  0.5613 -0.0581 -0.3592
  387MPD2    C3 5784   3.313   3.187   9.246 -0.0158 -0.2846  0.1213
  387MPD2    C4 5785   3.232   3.134   9.145 -0.7281 -0.2132  0.2055
  387MPD2    C5 5786   3.149   3.222   9.088 -0.2316 -0.0349  0.4406
  387MPD2     H 5787   3.372   3.364   9.355  1.0803  2.1264 -1.8762
  387MPD2    H1 5788   3.236   3.032   9.110 -0.4130 -0.9814  2.4578
  387MPD2    H2 5789   3.069   3.411   9.066 -1.1663  0.2020  1.0078
  387MPD2    H3 5790   3.067   3.190   9.024 -0.9780  1.2879  0.7498
  387MPD2     N 5791   3.391   3.106   9.329  0.3529 -0.6372  0.4431
  387MPD2    H5 5792   3.458   3.151   9.390 -1.2536  0.4667  1.3918
  387MPD2    N1 5793   3.223   3.543   9.260  0.5217 -0.3718  0.6983
  387MPD2    H7 5794   3.304   3.569   9.315 -0.0018  0.8945  0.8520
  388TMC3    C1 5795   3.100   3.726   9.344  0.1923 -0.0727 -0.2763
  388TMC3    C2 5796   2.974   3.774   9.359 -0.3771  0.0928 -0.2384
  388TMC3    C3 5797   2.926   3.802   9.486  0.0415  0.1003 -0.1279
  388TMC3    C4 5798   3.186   3.709   9.450 -0.2600  0.4067  0.5568
  388TMC3    C5 5799   3.141   3.747   9.573 -0.2957  0.3608  0.0064
  388TMC3    C6 5800   3.012   3.795   9.595  0.3088 -0.2548 -0.0950
  388TMC3     C 5801   3.120   3.635   9.237 -0.1939 -0.3675  0.6428
  388TMC3     O 5802   3.034   3.619   9.153 -0.0740  0.0764 -0.2425
  388TMC3     H 5803   2.904   3.781   9.276  0.2243 -0.9159 -0.8248
  388TMC3    H1 5804   3.294   3.705   9.445 -0.3503  0.8494 -1.9969
  388TMC3    H2 5805   2.980   3.813   9.696  0.7270  2.7359 -0.5046
  388TMC3    C7 5806   3.217   3.694   9.684 -0.2198 -0.0830 -0.0112
  388TMC3    C8 5807   2.819   3.896   9.494  0.4637 -0.0879 -0.1539
  388TMC3    O1 5808   3.186   3.734   9.794  0.3531 -0.1889  0.5589
  388TMC3    O2 5809   2.772   3.941   9.393  0.4128  0.7097  0.0102
  389MPD2     C 5810   3.033   1.485  11.533 -0.1242  0.3484  0.0939
  389MPD2    C1 5811   2.963   1.393  11.461 -0.5373  0.2275  0.6493
  389MPD2    C2 5812   2.889   1.300  11.525 -0.2531  0.9141  0.7760
  389MPD2    C3 5813   2.869   1.302  11.663  0.4335  0.3523  0.5820
  389MPD2    C4 5814   2.940   1.405  11.736 -0.3343  0.9705 -0.1858
  389MPD2    C5 5815   3.018   1.488  11.660  0.8474  0.1092 -0.5249
  389MPD2     H 5816   2.844   1.223  11.463 -0.4646  1.0311  0.7832
  389MPD2    H1 5817   2.951   1.416  11.844  1.4063 -1.6299 -0.1199
  389MPD2    H2 5818   3.089   1.564  11.483  0.2612  0.0394  0.0347
  389MPD2    H3 5819   3.062   1.572  11.713  0.9704  1.1278 -2.2333
  389MPD2     N 5820   2.794   1.201  11.728  0.1169  0.2573  0.3151
  389MPD2    H5 5821   2.781   1.212  11.828  0.3112 -0.8875  0.4548
  389MPD2    N1 5822   2.971   1.403  11.321 -0.1733  0.5332 -0.8376
  389MPD2    H7 5823   3.019   1.488  11.291 -1.3890  0.8839 -1.8553
  390TMC3    C1 5824   2.654   1.026  11.771  0.7841 -0.1352 -0.0604
  390TMC3    C2 5825   2.644   0.888  11.752 -0.0391  0.0623  0.1270
  390TMC3    C3 5826   2.536   0.827  11.807  0.4635  0.3086 -0.3259
  390TMC3    C4 5827   2.555   1.106  11.819 -0.6155  0.8511  0.5192
  390TMC3    C5 5828   2.440   1.041  11.862 -0.5803 -0.1244 -0.4869
  390TMC3    C6 5829   2.433   0.903  11.868  0.1737 -0.3500  0.5859
  390TMC3     C 5830   2.736   1.091  11.669 -0.1206 -0.2381  0.0012
  390TMC3     O 5831   2.754   1.039  11.559 -0.5120 -0.3540 -0.0491
  390TMC3     H 5832   2.717   0.830  11.696 -1.9513 -0.9891 -1.2921
  390TMC3    H1 5833   2.559   1.215  11.822 -0.5242  0.8340  0.9628
  390TMC3    H2 5834   2.340   0.859  11.902  1.1070 -1.6600  1.4548
  390TMC3    C7 5835   2.324   1.117  11.841 -0.0836 -0.4195  0.4915
  390TMC3    C8 5836   2.508   0.686  11.772  0.4356  0.1448  0.3064
  390TMC3    O1 5837   2.337   1.229  11.794  0.0019  0.5211  0.7138
  390TMC3    O2 5838   2.533   0.642  11.663 -0.3387 -0.0500 -0.5285
  391MPD2     C 5839   2.004   2.572  11.124  0.5306  0.9713  0.0638
  391MPD2    C1 5840   2.125   2.642  11.115 -0.2068 -0.5578  0.3778
  391MPD2    C2 5841   2.145   2.721  11.001 -0.4896 -0.1727 -0.0253
  391MPD2    C3 5842   2.058   2.723  10.899  0.1913  0.3488 -0.0920
  391MPD2    C4 5843   1.943   2.650  10.904  0.5484 -0.0857 -0.0815
  391MPD2    C5 5844   1.917   2.571  11.013 -0.0940 -0.4474  0.1670
  391MPD2     H 5845   2.233   2.784  11.005 -0.9322  0.4904 -0.5186
  391MPD2    H1 5846   1.871   2.640  10.823  2.2687 -0.4695 -1.5466
  391MPD2    H2 5847   1.991   2.510  11.212  0.1840  1.1527  0.1411
  391MPD2    H3 5848   1.837   2.497  11.016  0.9455 -1.6671 -1.9227
  391MPD2     N 5849   2.089   2.797  10.782  0.3097 -1.1502  0.7124
  391MPD2    H5 5850   2.180   2.842  10.781  0.3146 -1.1451  2.5022
  391MPD2    N1 5851   2.218   2.627  11.223  0.5150 -0.1251 -0.5743
  391MPD2    H7 5852   2.191   2.569  11.301  0.7346  1.7461  0.9062
  392TMC3    C1 5853   2.077   2.897  10.565  0.8365 -0.1253  0.2691
  392TMC3    C2 5854   2.036   2.875  10.435  0.5256  0.3246 -0.7059
  392TMC3    C3 5855   2.128   2.882  10.326 -0.1084 -0.2170  0.3862
  392TMC3    C4 5856   2.211   2.923  10.588  0.3200 -0.1255 -0.6719
  392TMC3    C5 5857   2.295   2.922  10.479 -0.2720 -0.0709  0.0816
  392TMC3    C6 5858   2.263   2.916  10.346  0.3195  0.6666 -0.3248
  392TMC3     C 5859   2.007   2.828  10.670 -0.8834 -0.3080  0.7405
  392TMC3     O 5860   1.890   2.802  10.647  0.3571  0.0759 -0.0079
  392TMC3     H 5861   1.937   2.834  10.421  0.4678  0.5474 -0.9518
  392TMC3    H1 5862   2.246   2.965  10.681 -2.3258 -0.0992  0.3085
  392TMC3    H2 5863   2.336   2.917  10.267  1.5901 -2.9523  0.8458
  392TMC3    C7 5864   2.420   2.994  10.508 -0.5106 -0.2718  0.1858
  392TMC3    C8 5865   2.104   2.777  10.238  0.0760  0.0765 -0.2400
  392TMC3    O1 5866   2.459   2.997  10.621  0.5136  0.1041  0.7322
  392TMC3    O2 5867   2.043   2.676  10.274 -0.1083  0.4939 -0.1216
  393TMC3    C1 5868   1.043   0.265  10.118  0.1588  0.7320 -0.6282
  393TMC3    C2 5869   0.914   0.220  10.124  0.5019 -0.1793 -0.0809
  393TMC3    C3 5870   0.845   0.267  10.236  0.7737  0.7415  0.1964
  393TMC3    C4 5871   1.095   0.343  10.218  0.1695 -0.6334 -0.8462
  393TMC3    C5 5872   1.023   0.388  10.324  0.0128 -0.6368  0.0566
  393TMC3    C6 5873   0.900   0.339  10.335  0.0885  0.1790 -0.3787
  393TMC3     C 5874   1.121   0.252  10.001 -0.5054  0.6379  0.4773
  393TMC3     O 5875   1.201   0.341   9.974  0.2747  0.4791 -0.7320
  393TMC3     H 5876   0.856   0.176  10.044  0.7487 -0.8688  0.1242
  393TMC3    H1 5877   1.195   0.380  10.196 -0.6393  0.3185 -2.9013
  393TMC3    H2 5878   0.841   0.369  10.421  1.1250  0.5592  0.1968
  393TMC3    C7 5879   1.095   0.460  10.430 -0.4718  0.1984  0.1785
  393TMC3    C8 5880   0.713   0.199  10.258  1.0088  0.0547 -0.4576
  393TMC3    O1 5881   1.038   0.477  10.534 -0.6479  0.1715 -0.4348
  393TMC3    O2 5882   0.688   0.102  10.190 -0.2155 -0.0135  0.2711
  394TMC3    C1 5883   2.900   1.415  11.094 -0.3179 -0.4675  0.2543
  394TMC3    C2 5884   2.786   1.417  11.025  0.1645 -0.1841 -0.0869
  394TMC3    C3 5885   2.786   1.451  10.896  0.1626  0.3480  0.3893
  394TMC3    C4 5886   3.021   1.458  11.045 -0.3157 -0.1368 -0.5757
  394TMC3    C5 5887   3.023   1.483  10.910 -0.8168 -0.6254  0.3016
  394TMC3    C6 5888   2.904   1.480  10.835  1.1742  0.0987 -0.3506
  394TMC3     C 5889   2.888   1.348  11.229 -0.6195  0.1689  0.7055
  394TMC3     O 5890   2.792   1.275  11.248  0.2253  0.2033  0.3495
  394TMC3     H 5891   2.694   1.379  11.070  0.3636 -0.5375  0.0219
  394TMC3    H1 5892   3.111   1.444  11.104 -0.2065  0.6245 -0.5546
  394TMC3    H2 5893   2.897   1.510  10.732 -1.2552 -2.4573 -0.9176
  394TMC3    C7 5894   3.139   1.549  10.846 -0.1007  0.2119  0.0012
  394TMC3    C8 5895   2.687   1.388  10.823 -0.2978 -0.0779  0.4403
  394TMC3    O1 5896   3.129   1.568  10.725  0.0836 -0.0981 -0.1167
  394TMC3    O2 5897   2.573   1.391  10.870  0.1747  0.5351 -0.2771
  395TMC3    C1 5898   2.198   3.260  14.124 -0.2787 -0.2755  0.0343
  395TMC3    C2 5899   2.088   3.274  14.207  0.3314 -0.3395 -0.1257
  395TMC3    C3 5900   2.097   3.374  14.301  0.4465  0.3091 -0.0223
  395TMC3    C4 5901   2.304   3.348  14.117  0.0310  0.6730  0.4278
  395TMC3    C5 5902   2.312   3.440  14.220 -0.2973 -0.3548  0.2467
  395TMC3    C6 5903   2.202   3.465  14.298  0.4747  0.5037  0.2880
  395TMC3     C 5904   2.269   3.136  14.147  0.1521  1.0969 -0.0021
  395TMC3     O 5905   2.220   3.067  14.233  0.2252 -0.3844 -0.0032
  395TMC3     H 5906   2.005   3.206  14.196 -0.0332  0.3376 -1.5422
  395TMC3    H1 5907   2.372   3.349  14.033 -1.9090  0.5437 -1.1269
  395TMC3    H2 5908   2.212   3.527  14.386  2.8115  0.0353  0.3446
  395TMC3    C7 5909   2.442   3.458  14.290  0.1712 -0.2435  0.9536
  395TMC3    C8 5910   2.076   3.328  14.437 -0.7056 -0.1259  0.2638
  395TMC3    O1 5911   2.439   3.505  14.400  0.4459  0.0251 -0.1733
  395TMC3    O2 5912   2.070   3.408  14.527 -0.4000 -0.3258 -0.2979
  396MPD2     C 5913   2.745   4.275  17.182 -0.4018  0.2292 -0.6347
  396MPD2    C1 5914   2.822   4.194  17.103  0.4561  0.0312 -0.1948
  396MPD2    C2 5915   2.896   4.254  17.005  0.1024 -0.2161  0.1458
  396MPD2    C3 5916   2.890   4.393  16.983  0.0822 -1.1059  0.6457
  396MPD2    C4 5917   2.811   4.473  17.071 -0.0968  0.1002  0.6726
  396MPD2    C5 5918   2.737   4.408  17.162  1.0347 -0.2902 -0.2669
  396MPD2     H 5919   2.955   4.192  16.940 -0.2283 -0.2054 -0.1663
  396MPD2    H1 5920   2.801   4.580  17.056 -0.4647  0.0075  0.2387
  396MPD2    H2 5921   2.698   4.226  17.267  3.7721 -0.2301  1.4177
  396MPD2    H3 5922   2.677   4.466  17.231  1.6940 -0.7819  0.7239
  396MPD2     N 5923   2.963   4.450  16.876 -0.0136  0.2543  0.0672
  396MPD2    H5 5924   3.024   4.387  16.824 -0.2125  1.2275 -1.3269
  396MPD2    N1 5925   2.814   4.054  17.132 -0.4440  0.1567 -0.1970
  396MPD2    H7 5926   2.742   4.022  17.196  0.5698  1.4728  1.6151
  397TMC3    C1 5927   2.857   3.824  17.135  0.8104  1.1045 -0.1634
  397TMC3    C2 5928   2.817   3.733  17.037 -0.4589  0.3667  0.6432
  397TMC3    C3 5929   2.701   3.658  17.064  0.3722 -0.7102 -0.0730
  397TMC3    C4 5930   2.792   3.832  17.258  0.2940 -0.2492  0.3242
  397TMC3    C5 5931   2.695   3.739  17.287 -1.0815  0.0175 -0.4086
  397TMC3    C6 5932   2.647   3.653  17.192  0.0169 -0.1970 -0.3224
  397TMC3     C 5933   2.887   3.955  17.073 -0.1233 -0.3918  0.2697
  397TMC3     O 5934   2.970   3.959  16.979  0.4106  0.0252  0.4131
  397TMC3     H 5935   2.843   3.754  16.934 -0.8809 -0.1401  0.4347
  397TMC3    H1 5936   2.827   3.900  17.334 -0.8463  1.2566 -0.4883
  397TMC3    H2 5937   2.560   3.602  17.230  0.8503  0.2778  2.2467
  397TMC3    C7 5938   2.711   3.671  17.412  0.8539 -0.3567 -0.3666
  397TMC3    C8 5939   2.607   3.638  16.949 -0.2285 -0.0721 -0.0158
  397TMC3    O1 5940   2.672   3.555  17.413  0.4228 -0.4382  0.2119
  397TMC3    O2 5941   2.643   3.684  16.846  0.5073  0.0398 -0.2468
  398MPD2     C 5942   0.926   4.550   0.259  0.2247  0.1950 -0.6512
  398MPD2    C1 5943   0.893   4.481   0.378  0.0559  0.0675  0.5010
  398MPD2    C2 5944   0.888   4.559   0.493 -0.2525  0.1344  0.1498
  398MPD2    C3 5945   0.911   4.691   0.496 -0.4132  0.2442  0.8886
  398MPD2    C4 5946   0.940   0.030   0.379 -0.1460  0.3261  0.1479
  398MPD2    C5 5947   0.946   4.691   0.257 -0.7469 -0.2180  0.1135
  398MPD2     H 5948   0.859   4.500   0.579  1.0059  0.2262  0.6315
  398MPD2    H1 5949   0.958   0.137   0.376 -0.6055  0.3733 -1.0846
  398MPD2    H2 5950   0.948   4.502   0.164  1.1080 -1.0474  0.1911
  398MPD2    H3 5951   0.979   0.018   0.170 -0.3223 -0.8727 -0.1510
  398MPD2     N 5952   0.903   0.034   0.619 -0.0994 -0.0436  0.2663
  398MPD2    H5 5953   0.859   4.713   0.696  0.0246 -0.4509  0.0722
  398MPD2    N1 5954   0.888   4.339   0.382 -0.1388  0.0208 -0.0831
  398MPD2    H7 5955   0.888   4.300   0.476  2.6407 -0.5822 -0.3471
  399TMC3    C1 5956   0.886   4.120   0.328 -0.0254 -0.2899  0.5833
  399TMC3    C2 5957   1.009   4.097   0.395 -0.2665  0.5907  0.6716
  399TMC3    C3 5958   1.040   3.967   0.429 -0.1447 -0.5327 -0.4453
  399TMC3    C4 5959   0.791   4.020   0.317 -0.4549  1.0008 -0.4905
  399TMC3    C5 5960   0.824   3.894   0.364  0.1063  0.2274 -0.3316
  399TMC3    C6 5961   0.950   3.862   0.408 -0.2140  0.0524  1.0648
  399TMC3     C 5962   0.865   4.253   0.283  0.3145 -0.3954  0.3360
  399TMC3     O 5963   0.862   4.272   0.163 -0.4163  0.3653  1.2395
  399TMC3     H 5964   1.089   4.168   0.373  1.5419 -1.4135  0.7543
  399TMC3    H1 5965   0.696   4.035   0.268 -1.6163 -0.8320  1.1787
  399TMC3    H2 5966   0.969   3.767   0.457  0.6644 -0.2840  0.0723
  399TMC3    C7 5967   0.715   3.810   0.416 -0.1294  0.7361  0.6168
  399TMC3    C8 5968   1.178   3.943   0.456 -0.1380 -0.8443  0.2986
  399TMC3    O1 5969   0.758   3.738   0.507  0.2692  0.0388  0.3166
  399TMC3    O2 5970   1.259   4.017   0.406 -0.0299 -0.5697  0.5462
  400TMC3    C1 5971   4.125   3.564  16.730  0.6722 -0.5087  0.4647
  400TMC3    C2 5972   4.095   3.430  16.760  0.3577  0.3109  0.4477
  400TMC3    C3 5973   3.980   3.379  16.699 -0.4457  0.0238 -0.9678
  400TMC3    C4 5974   4.060   3.636  16.634  0.5117 -0.7922 -0.6007
  400TMC3    C5 5975   3.945   3.578  16.580  0.3114 -0.0576  0.0214
  400TMC3    C6 5976   3.897   3.453  16.616 -0.2245  0.3215  0.1026
  400TMC3     C 5977   4.217   3.631  16.822 -0.3869  0.5302  0.3681
  400TMC3     O 5978   4.285   3.558  16.894  0.2357  0.4055 -0.0285
  400TMC3     H 5979   4.163   3.371  16.822  0.2582  1.4718  1.6723
  400TMC3    H1 5980   4.093   3.735  16.606  1.8121 -1.5137 -1.6007
  400TMC3    H2 5981   3.811   3.407  16.571 -0.2637  0.0272  0.4738
  400TMC3    C7 5982   3.879   3.632  16.463  0.2821  0.5053  0.2155
  400TMC3    C8 5983   3.951   3.244  16.735 -0.2051 -0.3973  0.1336
  400TMC3    O1 5984   3.816   3.554  16.392 -0.4823 -0.0669 -0.0474
  400TMC3    O2 5985   4.005   3.204  16.842  0.3415  0.6933 -0.0549
  401MPD2     C 5986   2.463   2.337   0.550 -0.0548 -0.1197  0.8116
  401MPD2    C1 5987   2.585   2.286   0.589  0.1410 -0.0547 -0.0737
  401MPD2    C2 5988   2.627   2.161   0.551 -0.0381  0.4666  0.1271
  401MPD2    C3 5989   2.544   2.079   0.478 -0.4529 -0.3943 -0.4029
  401MPD2    C4 5990   2.416   2.125   0.449  0.1321  0.4549  0.0914
  401MPD2    C5 5991   2.379   2.251   0.485  0.5438  0.3548 -0.8400
  401MPD2     H 5992   2.722   2.122   0.584 -1.1351 -1.1421  1.3729
  401MPD2    H1 5993   2.344   2.066   0.392  0.9368  0.1953 -0.6536
  401MPD2    H2 5994   2.422   2.436   0.567  3.5395  1.4482  0.4719
  401MPD2    H3 5995   2.279   2.285   0.461 -0.0817  0.2039  1.5635
  401MPD2     N 5996   2.591   1.947   0.443 -0.6605 -0.7889 -0.0478
  401MPD2    H5 5997   2.673   1.913   0.492  0.3918 -0.3574 -1.5104
  401MPD2    N1 5998   2.685   2.360   0.662 -0.5041  0.5044 -0.0529
  401MPD2    H7 5999   2.774   2.313   0.676 -0.3831  0.3891 -1.1993
  402TMC3    C1 6000   2.582   1.732   0.349 -0.7648 -1.1076 -0.2556
  402TMC3    C2 6001   2.643   1.676   0.462  0.4786 -0.0580  0.0349
  402TMC3    C3 6002   2.726   1.568   0.456  0.4533 -0.1907  0.1172
  402TMC3    C4 6003   2.603   1.679   0.229  0.2519  0.4357  0.9629
  402TMC3    C5 6004   2.684   1.571   0.226  0.1663  0.0766  0.1748
  402TMC3    C6 6005   2.748   1.507   0.334 -0.3028 -0.4939  0.7067
  402TMC3     C 6006   2.521   1.864   0.361  0.3416  0.0051  0.5111
  402TMC3     O 6007   2.437   1.893   0.278  0.2092  0.1634 -0.0952
  402TMC3     H 6008   2.637   1.731   0.555 -1.9633 -0.5453  0.1620
  402TMC3    H1 6009   2.571   1.737   0.143  2.1170 -2.3947 -1.6193
  402TMC3    H2 6010   2.809   1.418   0.328 -1.8463 -1.3900 -1.6084
  402TMC3    C7 6011   2.680   1.507   0.099 -0.2384  0.6923 -0.3616
  402TMC3    C8 6012   2.788   1.496   0.569 -0.3172  0.6416 -0.2757
  402TMC3    O1 6013   2.600   1.550   0.016 -0.3804 -0.2817  0.0627
  402TMC3    O2 6014   2.911   1.470   0.557  0.1312 -0.7107 -0.1177
  403MPD2     C 6015   0.596   0.963  12.902  0.1793 -0.4577  0.3721
  403MPD2    C1 6016   0.640   0.832  12.938 -0.2934  0.4822  0.4882
  403MPD2    C2 6017   0.738   0.827  13.040  0.3805 -0.0478 -0.1483
  403MPD2    C3 6018   0.776   0.936  13.105 -0.0403  0.2285 -0.4971
  403MPD2    C4 6019   0.729   1.066  13.073 -0.1619  0.6424 -0.3429
  403MPD2    C5 6020   0.636   1.073  12.973 -0.5605  0.4232  0.9753
  403MPD2     H 6021   0.778   0.730  13.067  1.7432  0.6121  0.1859
  403MPD2    H1 6022   0.768   1.150  13.129  1.3766  0.2388 -0.8148
  403MPD2    H2 6023   0.515   0.969  12.830 -0.3886 -3.8724  0.7400
  403MPD2    H3 6024   0.609   1.175  12.949  1.2542  0.9662  1.2427
  403MPD2     N 6025   0.871   0.919  13.210 -0.0109 -0.4300  0.2968
  403MPD2    H5 6026   0.911   0.826  13.215  1.5237  0.2300  0.3468
  403MPD2    N1 6027   0.585   0.725  12.861 -0.2214  0.5845  0.1178
  403MPD2    H7 6028   0.520   0.746  12.786 -2.8958 -1.5917  1.8260
  404TMC3    C1 6029   0.510   0.513  12.810 -0.9370  1.2102  0.4998
  404TMC3    C2 6030   0.425   0.453  12.893  0.1644 -0.3424  0.4926
  404TMC3    C3 6031   0.324   0.375  12.843 -0.1482 -0.0636 -0.0635
  404TMC3    C4 6032   0.483   0.516  12.678 -0.2081  0.9485 -0.0132
  404TMC3    C5 6033   0.378   0.442  12.630 -0.2706 -0.2700  0.0894
  404TMC3    C6 6034   0.300   0.362  12.708 -0.0663  0.2393  0.3119
  404TMC3     C 6035   0.614   0.595  12.874 -0.0582 -0.0578 -0.0179
  404TMC3     O 6036   0.681   0.542  12.962  0.4861  0.8704 -0.0953
  404TMC3     H 6037   0.453   0.470  12.996 -1.6383 -0.7739  1.0599
  404TMC3    H1 6038   0.551   0.577  12.621  1.9553 -1.3768  0.0957
  404TMC3    H2 6039   0.246   0.279  12.664  0.9882  0.0565 -0.6585
  404TMC3    C7 6040   0.351   0.483  12.499  1.3301  0.2668 -0.4156
  404TMC3    C8 6041   0.283   0.273  12.934 -0.6607 -0.0807  0.2341
  404TMC3    O1 6042   0.435   0.547  12.443  0.2950 -0.4442  0.0230
  404TMC3    O2 6043   0.210   0.183  12.891 -0.3073  0.6152 -0.8477
  405MPD2     C 6044   0.691   1.070  14.427 -0.1811 -0.3358  0.6851
  405MPD2    C1 6045   0.781   0.996  14.358  0.0324 -0.4081 -0.3752
  405MPD2    C2 6046   0.820   1.042  14.232  0.3775  0.1354 -0.4750
  405MPD2    C3 6047   0.750   1.151  14.173 -0.0643 -0.3205  0.9188
  405MPD2    C4 6048   0.647   1.210  14.242 -0.0952  0.3651 -0.9330
  405MPD2    C5 6049   0.621   1.169  14.368  0.1883  0.3900 -0.0247
  405MPD2     H 6050   0.893   0.981  14.181  1.8131  0.8505  0.7389
  405MPD2    H1 6051   0.602   1.302  14.207 -1.1172  0.4954  0.7291
  405MPD2    H2 6052   0.659   1.050  14.528  1.0453  1.6061  1.4600
  405MPD2    H3 6053   0.548   1.216  14.433 -1.4840 -1.5181 -0.5461
  405MPD2     N 6054   0.792   1.190  14.046  0.1942 -0.0705 -0.0648
  405MPD2    H5 6055   0.873   1.146  14.003  0.2848 -1.0139  1.0501
  405MPD2    N1 6056   0.832   0.876  14.418 -0.5652 -0.2295 -0.0827
  405MPD2    H7 6057   0.815   0.854  14.515 -0.6347  0.5704  0.0835
  406TMC3    C1 6058   0.573   1.228  13.644  0.4505  0.3686  0.1665
  406TMC3    C2 6059   0.627   1.109  13.604 -0.3838  1.4525 -0.0234
  406TMC3    C3 6060   0.736   1.061  13.675 -0.1959 -0.3919 -0.5201
  406TMC3    C4 6061   0.633   1.295  13.742  0.1732  0.2610  0.7532
  406TMC3    C5 6062   0.733   1.240  13.817  0.0954 -0.0374 -0.5432
  406TMC3    C6 6063   0.787   1.123  13.780  0.8396  0.1728  0.1418
  406TMC3     C 6064   0.435   1.228  13.649 -0.4161  0.1253 -0.3099
  406TMC3     O 6065   0.378   1.191  13.544 -0.0478  0.7271 -0.1517
  406TMC3     H 6066   0.571   1.042  13.539  1.2829 -0.8145  0.8975
  406TMC3    H1 6067   0.588   1.389  13.773  1.4217  0.8952  0.6088
  406TMC3    H2 6068   0.868   1.083  13.840  1.2986  1.0577  0.1051
  406TMC3    C7 6069   0.717   1.267  13.957 -0.6658 -0.3695  0.2075
  406TMC3    C8 6070   0.773   0.922  13.664  0.8278  0.0206 -0.1207
  406TMC3    O1 6071   0.618   1.335  13.984 -0.6199  0.1715  0.9418
  406TMC3    O2 6072   0.758   0.862  13.556  0.8384 -0.4784 -0.1753
  407MPD2     C 6073   2.928   3.271   9.389 -0.0523 -0.1192  0.2262
  407MPD2    C1 6074   2.958   3.147   9.441 -0.1767 -0.1065  0.1582
  407MPD2    C2 6075   3.000   3.137   9.576  0.1626  0.4771  0.0025
  407MPD2    C3 6076   2.999   3.244   9.668 -0.1387 -0.4854  0.1221
  407MPD2    C4 6077   2.974   3.363   9.606 -0.2082  0.3630  0.4612
  407MPD2    C5 6078   2.936   3.379   9.475  0.0212  0.6318  0.4756
  407MPD2     H 6079   3.032   3.038   9.609 -0.1470 -0.1796 -1.6982
  407MPD2    H1 6080   2.962   3.445   9.675  2.2494  1.0937 -0.0029
  407MPD2    H2 6081   2.888   3.293   9.291  0.4364  0.5614  0.1817
  407MPD2    H3 6082   2.895   3.476   9.448  0.2932 -0.0076 -2.2436
  407MPD2     N 6083   3.032   3.238   9.807  0.0642  0.5563  0.8230
  407MPD2    H5 6084   3.013   3.321   9.862  1.0564 -0.0435  2.0713
  407MPD2    N1 6085   2.952   3.028   9.362  0.2842  0.6322 -0.2421
  407MPD2    H7 6086   2.981   2.941   9.406  0.1962  0.8667  0.2747
  408TMC3    C1 6087   2.900   2.890   9.168  0.6161 -0.5565  0.1196
  408TMC3    C2 6088   3.007   2.805   9.188 -1.2699 -0.1260  0.5009
  408TMC3    C3 6089   3.022   2.705   9.094  0.1331 -0.3501  0.6242
  408TMC3    C4 6090   2.803   2.875   9.069  0.1834  0.2234  0.3022
  408TMC3    C5 6091   2.817   2.767   8.989 -0.3374 -1.0159  0.0300
  408TMC3    C6 6092   2.924   2.681   9.005  1.1747  0.1952 -0.2434
  408TMC3     C 6093   2.899   3.019   9.231  0.1636  0.0774 -0.1915
  408TMC3     O 6094   2.845   3.107   9.164 -0.1725  0.4313 -0.1033
  408TMC3     H 6095   3.075   2.834   9.268 -0.7812  0.3722 -0.0954
  408TMC3    H1 6096   2.726   2.950   9.059 -1.0744 -1.0625  0.2831
  408TMC3    H2 6097   2.939   2.602   8.932  2.1832  0.5473 -0.4150
  408TMC3    C7 6098   2.725   2.754   8.875  0.4605  0.4708  0.2808
  408TMC3    C8 6099   3.106   2.592   9.123  0.3518 -0.0718 -1.0251
  408TMC3    O1 6100   2.736   2.654   8.804 -0.1462  0.2046  0.1986
  408TMC3    O2 6101   3.057   2.480   9.104 -0.0986 -0.2832  0.1339
  409MPD2     C 6102   2.933   2.982  16.704  0.1640 -0.1938 -0.0256
  409MPD2    C1 6103   3.023   3.030  16.793 -0.2208  1.0069 -0.3327
  409MPD2    C2 6104   3.091   3.150  16.775  1.0723 -0.7650  0.7290
  409MPD2    C3 6105   3.092   3.206  16.651  0.2593 -0.2820 -0.8220
  409MPD2    C4 6106   3.006   3.156  16.561 -0.3139 -0.0908  0.4336
  409MPD2    C5 6107   2.922   3.051  16.583  0.1744 -0.4513  0.2389
  409MPD2     H 6108   3.148   3.193  16.856 -2.8898  3.3141  1.3642
  409MPD2    H1 6109   2.999   3.210  16.467  0.8453 -1.7208 -0.5822
  409MPD2    H2 6110   2.878   2.889  16.710  3.7122 -2.3112 -0.7047
  409MPD2    H3 6111   2.854   3.014  16.507  0.0328 -1.9789  1.1167
  409MPD2     N 6112   3.162   3.329  16.623  0.4105 -0.3837  0.4270
  409MPD2    H5 6113   3.157   3.366  16.529 -0.0838  0.0638  0.6324
  409MPD2    N1 6114   3.057   2.966  16.918  0.4095  0.6723 -0.3064
  409MPD2    H7 6115   3.115   3.019  16.983  1.2494  0.7663 -1.1276
  410TMC3    C1 6116   3.340   3.486  16.641  0.2602 -0.5255  0.0400
  410TMC3    C2 6117   3.394   3.594  16.709  0.0751  0.5171  0.5119
  410TMC3    C3 6118   3.457   3.699  16.644  0.1894 -0.4677  1.0896
  410TMC3    C4 6119   3.361   3.480  16.509 -0.3772  0.0158 -0.2013
  410TMC3    C5 6120   3.427   3.584  16.451 -0.3686 -0.4696 -0.3834
  410TMC3    C6 6121   3.476   3.692  16.511 -0.4993 -0.1500  0.3495
  410TMC3     C 6122   3.261   3.387  16.705  0.0573 -0.7957  0.2726
  410TMC3     O 6123   3.290   3.365  16.824  0.0218  0.1698 -0.0626
  410TMC3     H 6124   3.381   3.606  16.816  2.3232  0.6451  0.7643
  410TMC3    H1 6125   3.351   3.385  16.458 -0.3651 -1.6357  2.8545
  410TMC3    H2 6126   3.551   3.754  16.464 -1.0525 -0.0218 -0.3579
  410TMC3    C7 6127   3.461   3.565  16.312 -0.2462  0.4722 -0.4924
  410TMC3    C8 6128   3.582   3.734  16.704 -0.6052  0.0665 -0.0356
  410TMC3    O1 6129   3.509   3.457  16.278 -0.6266  0.0361  0.5090
  410TMC3    O2 6130   3.652   3.827  16.666  0.1905 -0.0994  0.2494
  411MPD2     C 6131   3.404   4.177  14.207 -0.2394  1.2038 -0.0941
  411MPD2    C1 6132   3.271   4.205  14.229 -0.4844  0.0617  0.1501
  411MPD2    C2 6133   3.183   4.109  14.272 -0.0028 -0.6797 -0.7302
  411MPD2    C3 6134   3.223   3.978  14.290  1.0004 -0.1629 -0.0182
  411MPD2    C4 6135   3.351   3.944  14.257  0.1360 -0.1762 -0.0440
  411MPD2    C5 6136   3.439   4.043  14.222  0.7256 -0.1636 -0.5071
  411MPD2     H 6137   3.080   4.136  14.292  0.4815  0.2496  0.5349
  411MPD2    H1 6138   3.389   3.845  14.281 -0.2437 -0.3895 -0.3199
  411MPD2    H2 6139   3.474   4.249  14.165 -0.8371  1.5584 -0.4915
  411MPD2    H3 6140   3.542   4.021  14.194  1.2589  0.5218  0.9122
  411MPD2     N 6141   3.135   3.874  14.318  0.1666  0.8674 -0.3399
  411MPD2    H5 6142   3.172   3.781  14.305 -0.4772  0.2636  2.2355
  411MPD2    N1 6143   3.229   4.338  14.212  0.3778  0.3784 -0.0518
  411MPD2    H7 6144   3.300   4.409  14.192  0.1511  1.5859  3.3597
  412TMC3    C1 6145   2.917   3.775  14.341 -0.1177  0.1224  0.0297
  412TMC3    C2 6146   2.786   3.780  14.391 -0.1579 -0.5352  0.2775
  412TMC3    C3 6147   2.681   3.715  14.317 -0.1680  0.3326 -0.2184
  412TMC3    C4 6148   2.940   3.691  14.237  0.5722  0.7091  0.8443
  412TMC3    C5 6149   2.835   3.633  14.165  0.4080  0.5610 -0.1974
  412TMC3    C6 6150   2.710   3.651  14.206  0.5000 -0.0053 -1.2854
  412TMC3     C 6151   3.007   3.891  14.369 -0.3686  0.5452  0.2685
  412TMC3     O 6152   2.962   3.984  14.431 -0.4922  0.4457  0.0778
  412TMC3     H 6153   2.763   3.850  14.470  0.3996  0.6886 -0.6505
  412TMC3    H1 6154   3.037   3.682  14.190  0.1304 -1.2747  0.3265
  412TMC3    H2 6155   2.627   3.601  14.157  1.0513 -1.1858 -1.0282
  412TMC3    C7 6156   2.837   3.670  14.023  0.8878 -0.0763 -0.8078
  412TMC3    C8 6157   2.559   3.789  14.303  0.0045 -0.6430  0.4133
  412TMC3    O1 6158   2.755   3.762  13.999  0.1173  0.7273  0.4380
  412TMC3    O2 6159   2.488   3.815  14.396 -0.6334 -0.8773  0.0219
  413MPD2     C 6160   0.120   2.040  15.566 -0.2342  0.3935 -0.9820
  413MPD2    C1 6161   0.066   1.988  15.455  0.9641 -0.2880  0.5486
  413MPD2    C2 6162   0.148   1.928  15.357 -0.1194 -0.2478 -0.0176
  413MPD2    C3 6163   0.282   1.935  15.383  0.5400 -0.3683 -0.4056
  413MPD2    C4 6164   0.332   1.990  15.501 -0.0245  0.1307  0.0027
  413MPD2    C5 6165   0.248   2.044  15.596  0.4776 -0.2776 -1.1492
  413MPD2     H 6166   0.105   1.873  15.274  0.7400  0.3254 -0.8419
  413MPD2    H1 6167   0.438   1.998  15.523  0.1586 -1.3893 -0.3493
  413MPD2    H2 6168   0.062   2.081  15.648 -0.0712  1.1281 -1.2309
  413MPD2    H3 6169   0.289   2.099  15.680  1.2249 -1.1971 -0.9089
  413MPD2     N 6170   0.363   1.877  15.284 -0.2748  0.6061 -0.0224
  413MPD2    H5 6171   0.317   1.831  15.206  0.2030  0.8304 -0.4421
  413MPD2    N1 6172   4.654   1.977  15.444 -0.2547  0.5304 -0.7093
  413MPD2    H7 6173   4.606   2.041  15.506  0.0358 -0.0771  0.1512
  414TMC3    C1 6174   0.556   1.825  15.154 -0.8147 -0.4966  0.6835
  414TMC3    C2 6175   0.671   1.756  15.169  0.8212  0.4002  0.3459
  414TMC3    C3 6176   0.709   1.676  15.069 -0.6155  0.4344 -0.4701
  414TMC3    C4 6177   0.482   1.817  15.041  0.2223  0.4180 -0.4145
  414TMC3    C5 6178   0.518   1.731  14.943  0.5517 -0.1323 -0.9266
  414TMC3    C6 6179   0.633   1.659  14.959  0.2761  0.0365 -0.3688
  414TMC3     C 6180   0.500   1.889  15.270 -0.3350 -0.6536 -0.2575
  414TMC3     O 6181   0.580   1.940  15.350 -1.0285 -0.4590 -0.5327
  414TMC3     H 6182   0.718   1.757  15.267 -0.4044  0.6255  0.9386
  414TMC3    H1 6183   0.383   1.862  15.034 -0.8003 -1.5519  1.4944
  414TMC3    H2 6184   0.673   1.594  14.882 -1.7456  0.1820 -1.5586
  414TMC3    C7 6185   0.436   1.744  14.828 -0.1380  0.0876  0.1713
  414TMC3    C8 6186   0.842   1.627  15.067  0.3709 -0.3336 -0.3888
  414TMC3    O1 6187   0.320   1.715  14.856 -0.1813 -0.0629  0.1547
  414TMC3    O2 6188   0.862   1.544  14.983  0.0342  0.0894  0.0102
  415TMC3    C1 6189   1.261   4.426   9.976 -0.3868 -0.2470  0.4026
  415TMC3    C2 6190   1.316   4.479   9.862 -0.4524 -0.6820 -0.5720
  415TMC3    C3 6191   1.330   4.386   9.765  0.1328  0.4749 -0.2059
  415TMC3    C4 6192   1.242   4.295   9.997  0.7941  0.0449  0.3246
  415TMC3    C5 6193   1.271   4.207   9.896 -0.1680  0.1946 -0.4001
  415TMC3    C6 6194   1.306   4.252   9.775  0.0103  0.0449  0.3858
  415TMC3     C 6195   1.225   4.512  10.082 -0.3287  0.7246  0.0978
  415TMC3     O 6196   1.145   4.467  10.163 -0.4061 -0.4696 -0.0438
  415TMC3     H 6197   1.312   4.586   9.846  0.6036 -0.5519  0.0472
  415TMC3    H1 6198   1.204   4.259  10.092  0.6012  0.1373  0.2833
  415TMC3    H2 6199   1.329   4.186   9.692  1.1361  0.1152  0.6475
  415TMC3    C7 6200   1.216   4.074   9.911 -0.2253  0.5578  0.0957
  415TMC3    C8 6201   1.386   4.430   9.632  0.6463  0.0437  0.4084
  415TMC3    O1 6202   1.270   3.977   9.860  0.4308  0.0113 -0.0993
  415TMC3    O2 6203   1.358   4.379   9.522  0.5126 -0.2778 -0.3218
  416MPD2     C 6204   2.372   4.032  11.106  0.7511  0.4369  0.0869
  416MPD2    C1 6205   2.339   3.971  11.224 -0.1254 -0.0981 -1.0162
  416MPD2    C2 6206   2.371   3.835  11.237  0.5500 -0.1386  0.1412
  416MPD2    C3 6207   2.431   3.765  11.129 -0.3068 -0.5914  0.3245
  416MPD2    C4 6208   2.468   3.832  11.017 -0.2476 -0.1077  0.1312
  416MPD2    C5 6209   2.430   3.965  11.004  1.2494  0.3277 -0.0750
  416MPD2     H 6210   2.333   3.776  11.319 -2.5503  1.7096  0.0228
  416MPD2    H1 6211   2.488   3.774  10.927 -0.6166 -1.8356  1.1738
  416MPD2    H2 6212   2.329   4.129  11.085 -0.5939 -0.3272 -0.6943
  416MPD2    H3 6213   2.443   4.008  10.906  1.3047  2.7076  0.9707
  416MPD2     N 6214   2.452   3.623  11.129 -0.0817  0.4069  0.7386
  416MPD2    H5 6215   2.494   3.582  11.046 -1.9566 -0.6364  0.3001
  416MPD2    N1 6216   2.257   4.045  11.317  0.2772  0.6726 -0.1030
  416MPD2    H7 6217   2.250   4.145  11.305 -0.8523  0.6214  0.1607
  417TMC3    C1 6218   2.111   4.092  11.487 -0.1762  0.1818  0.1304
  417TMC3    C2 6219   2.082   4.069  11.619 -0.7700  0.2463  0.3749
  417TMC3    C3 6220   1.980   4.134  11.676  0.4033  0.2553 -0.6301
  417TMC3    C4 6221   2.034   4.178  11.410 -1.3516  0.3884 -0.1671
  417TMC3    C5 6222   1.918   4.235  11.469 -0.1173  0.1241  1.0619
  417TMC3    C6 6223   1.903   4.218  11.610  0.4778  0.6428  0.9871
  417TMC3     C 6224   2.196   3.990  11.426 -0.2222 -0.0938 -0.7205
  417TMC3     O 6225   2.208   3.884  11.484 -0.6542 -0.5865  0.2088
  417TMC3     H 6226   2.147   4.002  11.674  0.4546  0.7068 -0.5257
  417TMC3    H1 6227   2.062   4.191  11.306  0.9833  0.2476  0.4393
  417TMC3    H2 6228   1.823   4.271  11.660 -3.2275 -3.2027 -0.8640
  417TMC3    C7 6229   1.840   4.324  11.387  0.1721 -0.4044 -0.1218
  417TMC3    C8 6230   1.967   4.127  11.820  0.6510 -0.5666  0.1388
  417TMC3    O1 6231   1.900   4.354  11.284  0.1200 -0.2566  0.2032
  417TMC3    O2 6232   1.923   4.222  11.879  0.0260 -0.2237  0.0561
  418TMC3    C1 6233   1.099   0.205   0.978  0.0251 -0.6346  0.0426
  418TMC3    C2 6234   1.076   0.247   0.849  0.3474  0.2709  0.0549
  418TMC3    C3 6235   0.966   0.193   0.791 -0.4643 -0.5771 -0.0966
  418TMC3    C4 6236   1.005   0.138   1.058 -0.2646 -0.5251 -0.3085
  418TMC3    C5 6237   0.883   0.104   0.992  0.3530 -0.4044  0.9375
  418TMC3    C6 6238   0.866   0.128   0.856  0.1845 -0.3817  0.4007
  418TMC3     C 6239   1.244   0.199   1.008 -0.0870 -0.9758  0.1630
  418TMC3     O 6240   1.313   0.290   0.960  0.0895  0.0738 -0.3563
  418TMC3     H 6241   1.155   0.301   0.798 -1.4112  2.6290 -0.1937
  418TMC3    H1 6242   1.040   0.101   1.154 -1.9785 -0.2303  0.4322
  418TMC3    H2 6243   0.780   0.093   0.799  1.1457 -1.0136 -0.6429
  418TMC3    C7 6244   0.819   4.712   1.034 -0.0096 -0.5072  0.0005
  418TMC3    C8 6245   0.959   0.163   0.647  0.1374  0.0494  0.1611
  418TMC3    O1 6246   0.776   4.638   0.941  1.3829  0.0978  0.4503
  418TMC3    O2 6247   1.035   0.223   0.572 -0.2854  0.8480  0.0416
  419MPD2     C 6248   4.602   3.674  12.136 -0.2303 -0.9051 -1.2549
  419MPD2    C1 6249   4.501   3.755  12.136  0.1703  0.1019 -0.2418
  419MPD2    C2 6250   4.431   3.793  12.251 -0.4466 -0.0870  0.8529
  419MPD2    C3 6251   4.459   3.739  12.378  0.4898  0.3824 -0.1882
  419MPD2    C4 6252   4.570   3.655  12.377  0.0299  0.2252 -0.0913
  419MPD2    C5 6253   4.638   3.628  12.262  0.1330  0.3405  0.3679
  419MPD2     H 6254   4.338   3.849  12.247  0.3875  1.1614 -1.2581
  419MPD2    H1 6255   4.605   3.607  12.468  0.3767  3.3108  1.4294
  419MPD2    H2 6256   4.665   3.655  12.049 -0.5586 -1.2679 -1.4146
  419MPD2    H3 6257   4.722   3.560  12.262 -2.4263 -2.7967 -1.9191
  419MPD2     N 6258   4.376   3.771  12.485  0.1193  0.1355  0.0493
  419MPD2    H5 6259   4.306   3.844  12.473  1.0362  1.2084  1.2146
  419MPD2    N1 6260   4.451   3.812  12.020 -0.2127  0.0597 -0.6113
  419MPD2    H7 6261   4.376   3.879  12.034 -1.9305 -2.1178  0.5829
  420TMC3    C1 6262   4.276   3.753  12.698 -0.1287  0.0402 -0.1772
  420TMC3    C2 6263   4.180   3.835  12.638  0.5139 -0.5050 -0.0022
  420TMC3    C3 6264   4.125   3.935  12.714 -0.2214  0.2391  0.4843
  420TMC3    C4 6265   4.341   3.783  12.820 -0.2542 -0.3984  0.5915
  420TMC3    C5 6266   4.288   3.889  12.885 -0.1795 -0.0136 -0.8581
  420TMC3    C6 6267   4.184   3.961  12.839  0.1612  0.2676  0.2548
  420TMC3     C 6268   4.379   3.703  12.606  0.1156  0.6883 -0.5698
  420TMC3     O 6269   4.457   3.623  12.653  0.3494  0.2251  0.4409
  420TMC3     H 6270   4.131   3.805  12.546 -1.8209  0.2163  1.0089
  420TMC3    H1 6271   4.424   3.725  12.856  0.2326  0.6770  1.2188
  420TMC3    H2 6272   4.140   4.034  12.906 -1.0707  1.1928 -1.5915
  420TMC3    C7 6273   4.303   3.898  13.029  0.0058 -0.2381  0.0198
  420TMC3    C8 6274   4.028   4.024  12.661  0.5575 -0.7758  0.4432
  420TMC3    O1 6275   4.333   3.794  13.088 -0.1516  0.3739 -0.0708
  420TMC3    O2 6276   3.986   3.988  12.552 -0.2485  0.2524 -0.5238
  421TMC3    C1 6277   1.026   1.000  13.367 -0.9639 -0.6093  0.4188
  421TMC3    C2 6278   1.092   1.114  13.393  0.4228 -0.6786 -0.1022
  421TMC3    C3 6279   1.225   1.111  13.424 -0.7644 -0.5486 -0.0204
  421TMC3    C4 6280   1.071   0.880  13.403 -1.4571 -0.2466  0.7007
  421TMC3    C5 6281   1.197   0.884  13.453 -0.0798  0.9657 -0.3554
  421TMC3    C6 6282   1.274   0.989  13.464  0.2655 -0.3460 -0.1808
  421TMC3     C 6283   0.900   1.013  13.305  0.7157 -0.9290 -0.3601
  421TMC3     O 6284   0.839   1.114  13.334  0.1627  0.5216  0.2015
  421TMC3     H 6285   1.048   1.207  13.358  0.9905 -0.1464  0.5731
  421TMC3    H1 6286   1.019   0.788  13.381  0.7726 -0.6823 -2.7085
  421TMC3    H2 6287   1.371   0.980  13.512  0.5552  1.3053 -0.4545
  421TMC3    C7 6288   1.273   0.757  13.454  0.1598  0.0498 -0.4575
  421TMC3    C8 6289   1.286   1.234  13.456  0.3996  0.5499 -0.3842
  421TMC3    O1 6290   1.397   0.766  13.471 -0.3681 -0.0336  0.1604
  421TMC3    O2 6291   1.212   1.333  13.457  0.1264  0.5982  0.3858
  422TMC3    C1 6292   3.278   1.889  12.640 -0.2790  0.2845  0.2594
  422TMC3    C2 6293   3.227   2.011  12.640  0.2559  0.0973  0.9357
  422TMC3    C3 6294   3.130   2.038  12.728  0.4377 -0.3587 -0.2199
  422TMC3    C4 6295   3.227   1.782  12.711  0.4603  0.2393 -0.0786
  422TMC3    C5 6296   3.117   1.803  12.784 -0.0038 -0.0469  0.3379
  422TMC3    C6 6297   3.066   1.932  12.800 -0.7509  0.5984 -0.3811
  422TMC3     C 6298   3.389   1.857  12.553  0.0311  0.4160 -0.2922
  422TMC3     O 6299   3.409   1.942  12.464  0.4842 -0.2098  0.3448
  422TMC3     H 6300   3.265   2.093  12.580  0.6265 -0.9389 -0.2352
  422TMC3    H1 6301   3.272   1.684  12.719  0.0583 -0.1666 -2.8201
  422TMC3    H2 6302   2.985   1.939  12.872 -0.2894  2.1014 -0.0064
  422TMC3    C7 6303   3.025   1.690  12.797  0.1860  0.9693  0.0234
  422TMC3    C8 6304   3.105   2.179  12.758 -0.1341 -0.2598 -0.3336
  422TMC3    O1 6305   3.079   1.583  12.821  0.0666  0.6493  0.0853
  422TMC3    O2 6306   3.192   2.261  12.723 -0.8877 -0.1073 -0.2863
  423MPD2     C 6307   0.874   2.913   0.564  0.2721 -0.2899  0.3067
  423MPD2    C1 6308   0.831   2.790   0.592  0.1354  0.2770 -0.2227
  423MPD2    C2 6309   0.819   2.693   0.489 -0.2283  0.3198  0.0265
  423MPD2    C3 6310   0.820   2.734   0.359 -0.6200  0.4816 -0.2439
  423MPD2    C4 6311   0.861   2.859   0.327 -0.4241  0.0451  0.7932
  423MPD2    C5 6312   0.890   2.942   0.431 -0.4279 -0.0376 -0.7630
  423MPD2     H 6313   0.804   2.590   0.520 -0.9106  1.7810  4.5609
  423MPD2    H1 6314   0.876   2.889   0.224  1.8647 -0.1952  1.0436
  423MPD2    H2 6315   0.895   2.993   0.633  0.5824 -1.1546  1.2118
  423MPD2    H3 6316   0.917   3.045   0.410  1.2409 -0.4088 -0.4553
  423MPD2     N 6317   0.795   2.652   0.249 -0.5193  0.8882 -0.4184
  423MPD2    H5 6318   0.816   2.687   0.156 -0.3383  1.6178 -0.1051
  423MPD2    N1 6319   0.805   2.754   0.729 -0.0629 -0.4904  0.4098
  423MPD2    H7 6320   0.822   2.825   0.800  1.1401  0.4126 -0.7681
  424TMC3    C1 6321   0.727   2.632   0.918  0.3010  0.3244 -0.2745
  424TMC3    C2 6322   0.690   2.506   0.964 -0.1511  0.2366  0.7141
  424TMC3    C3 6323   0.659   2.504   1.094  0.4334  0.2526 -0.8573
  424TMC3    C4 6324   0.734   2.748   0.992  0.0520  0.2034 -0.4835
  424TMC3    C5 6325   0.689   2.740   1.114 -0.2813  0.7848  0.2740
  424TMC3    C6 6326   0.662   2.619   1.172  0.0842 -0.0085 -0.0326
  424TMC3     C 6327   0.755   2.631   0.776  0.7156  0.1617  0.3621
  424TMC3     O 6328   0.726   2.534   0.709 -0.1845  0.4257  0.1770
  424TMC3     H 6329   0.665   2.420   0.903  1.3541  0.4708 -0.2393
  424TMC3    H1 6330   0.748   2.846   0.948  3.0630  0.2037  0.4290
  424TMC3    H2 6331   0.621   2.601   1.271  0.5016  2.4579  0.5844
  424TMC3    C7 6332   0.628   2.860   1.172 -0.1172  0.1757 -0.4675
  424TMC3    C8 6333   0.623   2.371   1.148 -0.7667 -1.0870 -0.9150
  424TMC3    O1 6334   0.625   2.958   1.102  0.0656 -0.0617  0.9086
  424TMC3    O2 6335   0.579   2.284   1.076 -0.0750 -0.3798  0.5703
  425MPD2     C 6336   4.122   2.274  17.452  1.0612  0.1476  0.2760
  425MPD2    C1 6337   4.074   2.173  17.378 -0.6617  0.0275 -0.0898
  425MPD2    C2 6338   3.940   2.153  17.373  0.7180 -0.8249 -0.2409
  425MPD2    C3 6339   3.847   2.233  17.439 -0.5784  0.2776 -0.3179
  425MPD2    C4 6340   3.899   2.338  17.506 -0.5233  0.3664 -0.2188
  425MPD2    C5 6341   4.032   2.356  17.514 -0.6515  0.0337 -0.3883
  425MPD2     H 6342   3.905   2.062  17.327 -0.5087 -1.7385  2.4951
  425MPD2    H1 6343   3.849   2.413  17.565  0.2892  0.9573 -0.2752
  425MPD2    H2 6344   4.229   2.282  17.470  0.8876  0.5256  1.1306
  425MPD2    H3 6345   4.063   2.440  17.575 -0.8967  0.7360 -1.2316
  425MPD2     N 6346   3.705   2.208  17.416  0.0633 -0.3465  0.0654
  425MPD2    H5 6347   3.680   2.115  17.383 -0.2180 -0.1758 -0.2024
  425MPD2    N1 6348   4.178   2.095  17.308  0.2836  0.8109  0.2624
  425MPD2    H7 6349   4.273   2.110  17.342 -0.3468  0.4211  2.2042
  426TMC3    C1 6350   4.244   1.918  17.157 -0.5804  0.2071  0.7797
  426TMC3    C2 6351   4.197   1.845  17.049 -0.4314 -0.0582  0.0725
  426TMC3    C3 6352   4.271   1.733  17.015 -0.1541  0.7381  0.0454
  426TMC3    C4 6353   4.350   1.885  17.239 -0.9141  0.1106  0.7792
  426TMC3    C5 6354   4.412   1.773  17.197 -0.5984  0.4212 -0.0517
  426TMC3    C6 6355   4.375   1.702  17.091  0.5063 -0.6868 -0.2230
  426TMC3     C 6356   4.145   2.009  17.206 -0.2897  0.6574  0.0983
  426TMC3     O 6357   4.035   2.005  17.152 -0.2487 -0.0488 -0.1515
  426TMC3     H 6358   4.105   1.869  16.997  0.0763  0.5469 -0.5255
  426TMC3    H1 6359   4.362   1.941  17.332 -2.1470  1.8687 -0.1169
  426TMC3    H2 6360   4.417   1.602  17.089  4.1309  0.7819  1.2933
  426TMC3    C7 6361   4.478   1.695  17.294  0.0362 -0.5560 -0.0890
  426TMC3    C8 6362   4.218   1.629  16.928 -0.1825 -0.1019  0.2254
  426TMC3    O1 6363   4.548   1.598  17.262  0.3394  0.2629 -0.5711
  426TMC3    O2 6364   4.299   1.588  16.848 -0.2402 -0.1333  0.1758
  427MPD2     C 6365   2.288   4.185  14.416  0.1034  0.3834  0.2837
  427MPD2    C1 6366   2.309   4.183  14.552  0.2150 -0.1578 -0.5765
  427MPD2    C2 6367   2.208   4.220  14.636  0.1113 -1.3640 -0.0134
  427MPD2    C3 6368   2.099   4.278  14.590  0.3723 -0.0469 -0.4842
  427MPD2    C4 6369   2.073   4.290  14.454 -0.3349  0.3269  0.1948
  427MPD2    C5 6370   2.170   4.236  14.372 -0.2382  0.3870 -0.9478
  427MPD2     H 6371   2.216   4.199  14.743  0.3539  0.9447  0.4146
  427MPD2    H1 6372   1.984   4.339  14.419  0.4322  2.4753  1.2689
  427MPD2    H2 6373   2.356   4.145  14.342  0.4344  1.2769  0.1074
  427MPD2    H3 6374   2.155   4.249  14.265  0.3408  0.9094 -0.9681
  427MPD2     N 6375   1.998   4.325  14.679 -0.1988  0.1027  0.3567
  427MPD2    H5 6376   1.909   4.357  14.642 -1.1968 -0.0379  2.6475
  427MPD2    N1 6377   2.419   4.123  14.608  0.3147 -0.2653  0.6212
  427MPD2    H7 6378   2.400   4.095  14.704 -0.0775  1.7058  1.1315
  428TMC3    C1 6379   2.617   4.009  14.643  0.6841 -0.5939  0.5457
  428TMC3    C2 6380   2.568   3.887  14.680  0.3111 -0.6217  0.5495
  428TMC3    C3 6381   2.642   3.799  14.754 -0.4778  0.2482  0.6240
  428TMC3    C4 6382   2.748   4.045  14.675 -0.4080  0.0888 -0.0244
  428TMC3    C5 6383   2.817   3.956  14.752 -0.3053 -0.1966  0.2210
  428TMC3    C6 6384   2.763   3.838  14.799  0.4455  0.1648  0.1454
  428TMC3     C 6385   2.538   4.083  14.552  0.3148 -0.0173  0.7459
  428TMC3     O 6386   2.581   4.111  14.444 -0.2416  0.3438 -0.4061
  428TMC3     H 6387   2.472   3.856  14.641  0.4833 -0.3064 -0.1223
  428TMC3    H1 6388   2.787   4.142  14.649  0.1342 -0.1193  0.0104
  428TMC3    H2 6389   2.817   3.774  14.867 -2.6251 -1.2224  1.2873
  428TMC3    C7 6390   2.937   4.010  14.806 -0.1499  0.0367 -0.3045
  428TMC3    C8 6391   2.616   3.655  14.767 -0.4248 -0.4653 -0.2723
  428TMC3    O1 6392   2.960   3.990  14.921  0.3461 -0.2159 -0.2056
  428TMC3    O2 6393   2.706   3.577  14.738  0.5298  0.2625 -0.6355
  429MPD2     C 6394   3.389   4.218  16.938  0.3395 -0.2299  0.1639
  429MPD2    C1 6395   3.517   4.165  16.918 -0.0704 -0.5309  0.4833
  429MPD2    C2 6396   3.602   4.234  16.834 -0.1665  0.2452 -0.2749
  429MPD2    C3 6397   3.566   4.344  16.765 -0.0798 -0.0924  0.3217
  429MPD2    C4 6398   3.438   4.386  16.784 -0.0492  0.3252  0.4879
  429MPD2    C5 6399   3.353   4.330  16.869  0.4386  0.1436  0.0465
  429MPD2     H 6400   3.699   4.194  16.810 -0.9275 -1.9687  0.3431
  429MPD2    H1 6401   3.405   4.484  16.753 -0.1562  0.1815  0.1452
  429MPD2    H2 6402   3.315   4.170  17.001  0.7541 -0.6272  0.3501
  429MPD2    H3 6403   3.264   4.390  16.882  1.2406  1.1277  1.0931
  429MPD2     N 6404   3.659   4.390  16.669  0.5864 -0.9198  0.2543
  429MPD2    H5 6405   3.748   4.341  16.670  1.8492  1.3890  1.3954
  429MPD2    N1 6406   3.569   4.045  16.981  0.3553 -0.9968 -0.1283
  429MPD2    H7 6407   3.668   4.022  16.974  0.4863 -0.0571 -1.4749
  430TMC3    C1 6408   3.741   4.491  16.472  0.3185 -0.8134  0.6315
  430TMC3    C2 6409   3.716   4.577  16.364 -0.5101  0.1346 -0.0350
  430TMC3    C3 6410   3.798   4.564  16.253  0.1228 -0.4868 -0.4872
  430TMC3    C4 6411   3.841   4.406  16.472  0.0293  0.4389  0.6727
  430TMC3    C5 6412   3.922   4.398  16.361 -0.0224  0.8791 -0.2730
  430TMC3    C6 6413   3.897   4.477  16.252  0.1212  0.1790 -0.3793
  430TMC3     C 6414   3.632   4.473  16.562  0.3547  0.7316 -0.4441
  430TMC3     O 6415   3.526   4.533  16.537 -0.4828 -0.9791  0.2604
  430TMC3     H 6416   3.635   4.648  16.351  0.1178  0.5799 -1.5056
  430TMC3    H1 6417   3.866   4.337  16.552 -2.4523 -1.4082 -0.1624
  430TMC3    H2 6418   3.953   4.451  16.162  0.7817  0.7725 -0.1405
  430TMC3    C7 6419   3.970   4.267  16.335 -1.0099 -0.5531 -0.4727
  430TMC3    C8 6420   3.717   4.532  16.141  0.8884  0.7094  0.5563
  430TMC3    O1 6421   4.048   4.218  16.415 -0.1681 -0.1222 -0.2768
  430TMC3    O2 6422   3.620   4.455  16.154  0.0342 -0.3138  0.2235
  431MPD2     C 6423   4.066   4.461  12.129  0.1580  0.6368 -0.7447
  431MPD2    C1 6424   4.145   4.514  12.029 -0.0891 -0.1833 -0.4430
  431MPD2    C2 6425   4.197   4.426  11.941 -0.0432  0.1500  0.0341
  431MPD2    C3 6426   4.171   4.294  11.952 -0.6000  0.1062  0.3001
  431MPD2    C4 6427   4.093   4.244  12.053  0.0350  0.4409  0.3682
  431MPD2    C5 6428   4.035   4.331  12.145  0.2696  0.2259 -0.2677
  431MPD2     H 6429   4.258   4.452  11.855 -3.7964 -0.3771 -2.8254
  431MPD2    H1 6430   4.062   4.141  12.066 -1.1163  0.7534  0.0952
  431MPD2    H2 6431   4.017   4.524  12.203  3.3850 -1.1219  2.8948
  431MPD2    H3 6432   3.966   4.297  12.221  1.1499 -0.5195  0.1900
  431MPD2     N 6433   4.217   4.190  11.872  0.5716  0.1009  0.2865
  431MPD2    H5 6434   4.182   4.098  11.897  1.2020 -0.5104 -1.1122
  431MPD2    N1 6435   4.180   4.656  12.029  0.8140 -0.5506  0.4068
  431MPD2    H7 6436   4.145   4.702  12.112 -0.8147 -0.4473 -0.3452
  432TMC3    C1 6437   4.361   4.085  11.728  0.1700  0.4677 -0.7844
  432TMC3    C2 6438   4.415   4.079  11.602 -0.1640 -0.2409 -0.1918
  432TMC3    C3 6439   4.498   3.972  11.569 -0.2238  0.6384 -0.8544
  432TMC3    C4 6440   4.377   3.990  11.827  0.4621  0.5526  0.0299
  432TMC3    C5 6441   4.449   3.878  11.786 -0.2185 -0.1856 -0.2376
  432TMC3    C6 6442   4.504   3.864  11.658 -0.5520 -0.8241  0.4928
  432TMC3     C 6443   4.304   4.207  11.770 -0.0092 -0.0575 -0.1866
  432TMC3     O 6444   4.329   4.303  11.699  0.5653 -0.1917 -0.5310
  432TMC3     H 6445   4.424   4.170  11.544 -0.1666 -0.4830 -0.5688
  432TMC3    H1 6446   4.330   4.000  11.924 -2.3707  2.7102 -1.5586
  432TMC3    H2 6447   4.552   3.774  11.623 -2.0219 -1.6144  0.4836
  432TMC3    C7 6448   4.500   3.794  11.887 -0.9101 -0.1047  0.1924
  432TMC3    C8 6449   4.586   3.975  11.455 -0.2278 -0.4706 -0.3198
  432TMC3    O1 6450   4.587   3.717  11.844  0.0816  0.0652 -0.1389
  432TMC3    O2 6451   4.553   4.036  11.354 -0.7704  0.6906 -0.0637
  433MPD2     C 6452   3.187   3.313  10.825  0.2081  0.0634  0.9526
  433MPD2    C1 6453   3.150   3.185  10.879  0.3516  0.0431 -0.0136
  433MPD2    C2 6454   3.149   3.173  11.019 -0.1043 -0.0887  0.1121
  433MPD2    C3 6455   3.167   3.282  11.101 -0.0135 -0.3790 -0.1870
  433MPD2    C4 6456   3.193   3.407  11.049  0.6574 -0.0943  0.0860
  433MPD2    C5 6457   3.215   3.419  10.908 -0.4120 -0.1471  0.0700
  433MPD2     H 6458   3.132   3.076  11.063 -1.1601 -0.6685 -1.5598
  433MPD2    H1 6459   3.196   3.496  11.110  1.9317  0.1798 -0.3820
  433MPD2    H2 6460   3.202   3.324  10.718  2.8815  0.2555  1.3292
  433MPD2    H3 6461   3.240   3.519  10.873 -1.4691  0.2091  0.3466
  433MPD2     N 6462   3.158   3.262  11.240 -0.0493 -1.0283  0.5152
  433MPD2    H5 6463   3.155   3.169  11.281 -1.4291 -0.6893  1.1679
  433MPD2    N1 6464   3.125   3.077  10.792 -0.1580  0.0369  0.2814
  433MPD2    H7 6465   3.151   3.095  10.695  2.3416  0.8558  1.0999
  434TMC3    C1 6466   3.125   2.844  10.725  0.2835  0.7265 -0.2119
  434TMC3    C2 6467   3.204   2.757  10.796  0.0673 -0.2957  0.0347
  434TMC3    C3 6468   3.331   2.729  10.736  0.3136  0.4690  0.3737
  434TMC3    C4 6469   3.159   2.894  10.601  0.1659  0.1632  0.8512
  434TMC3    C5 6470   3.280   2.860  10.547  0.2151 -0.5998  0.7966
  434TMC3    C6 6471   3.370   2.786  10.616  0.2070 -0.7425  0.9231
  434TMC3     C 6472   3.089   2.948  10.820  0.7943  0.4938  0.3361
  434TMC3     O 6473   3.042   2.913  10.930 -0.8339 -0.3898  0.0168
  434TMC3     H 6474   3.181   2.714  10.893 -1.4679  1.6015  0.5063
  434TMC3    H1 6475   3.091   2.958  10.547 -0.1783 -0.8884  0.0470
  434TMC3    H2 6476   3.467   2.754  10.579  1.5241  2.5412  1.4522
  434TMC3    C7 6477   3.264   2.773  10.440  0.3881 -0.1035 -0.2858
  434TMC3    C8 6478   3.435   2.677  10.824 -0.7191 -0.1271  0.2188
  434TMC3    O1 6479   3.349   2.693  10.414 -0.9803  0.3216 -0.3270
  434TMC3    O2 6480   3.406   2.614  10.929  0.1675 -0.3173 -0.5515
  435MPD2     C 6481   0.933   3.051  15.374  0.0857  0.0516  0.2584
  435MPD2    C1 6482   0.889   3.009  15.493  0.2188  0.0431 -0.3042
  435MPD2    C2 6483   0.974   2.945  15.586  0.2165  0.1660 -0.3024
  435MPD2    C3 6484   1.103   2.912  15.548  0.3993 -0.2179 -0.2153
  435MPD2    C4 6485   1.148   2.963  15.431 -0.3015  0.3577 -0.5816
  435MPD2    C5 6486   1.064   3.033  15.345  0.3294  0.2538 -0.1056
  435MPD2     H 6487   0.931   2.923  15.684 -0.7040 -0.2403 -0.8007
  435MPD2    H1 6488   1.249   2.958  15.391 -0.3255 -0.9382 -0.5021
  435MPD2    H2 6489   0.878   3.106  15.298  1.1263  2.5919  1.3803
  435MPD2    H3 6490   1.104   3.071  15.252  1.8784 -1.7397 -0.2453
  435MPD2     N 6491   1.174   2.824  15.628  0.0596  0.1945  0.3842
  435MPD2    H5 6492   1.147   2.819  15.726 -1.3988  0.8160  0.0103
  435MPD2    N1 6493   0.758   3.027  15.542 -0.2481 -0.4572  0.1934
  435MPD2    H7 6494   0.742   3.018  15.642  1.6381 -1.1982  0.4386
  436TMC3    C1 6495   0.464   3.201  15.750  0.1098  0.4343  0.2144
  436TMC3    C2 6496   0.572   3.161  15.681 -0.4022 -0.5247 -0.0110
  436TMC3    C3 6497   0.543   3.112  15.558  0.9385  0.3833 -0.0615
  436TMC3    C4 6498   0.342   3.201  15.694  0.2155 -0.2438 -0.1551
  436TMC3    C5 6499   0.326   3.173  15.563  0.3592  0.3959 -0.2810
  436TMC3    C6 6500   0.428   3.121  15.487  0.0387 -0.0156 -0.3963
  436TMC3     C 6501   0.496   3.252  15.887  0.2066  0.3739  1.1984
  436TMC3     O 6502   0.613   3.283  15.901 -0.1451 -0.2173 -0.2583
  436TMC3     H 6503   0.676   3.169  15.712 -0.5398 -1.8835  0.8432
  436TMC3    H1 6504   0.260   3.246  15.749 -0.1636 -1.6245  0.4045
  436TMC3    H2 6505   0.411   3.091  15.384 -1.0345 -0.9488  0.0357
  436TMC3    C7 6506   0.194   3.165  15.506 -0.0906 -0.2919  0.1591
  436TMC3    C8 6507   0.657   3.078  15.467 -0.3444  0.6665 -0.0258
  436TMC3    O1 6508   0.192   3.135  15.387 -0.2275 -0.6581  0.1793
  436TMC3    O2 6509   0.651   3.106  15.346 -0.4952  0.0165 -0.0484
  437TMC3    C1 6510   3.751   0.630  12.607 -0.1552  0.2417  0.1377
  437TMC3    C2 6511   3.672   0.714  12.681 -0.9801 -0.0081 -0.0807
  437TMC3    C3 6512   3.678   0.845  12.649  0.0027 -0.2887  0.4216
  437TMC3    C4 6513   3.845   0.671  12.515 -0.9346 -0.6711 -0.4329
  437TMC3    C5 6514   3.859   0.805  12.499 -0.6042 -0.5647  0.0387
  437TMC3    C6 6515   3.770   0.895  12.553  0.0519  0.2077 -0.1698
  437TMC3     C 6516   3.699   0.494  12.600 -0.5013  0.0389  0.0106
  437TMC3     O 6517   3.589   0.481  12.655 -0.1794  0.1263  0.1049
  437TMC3     H 6518   3.625   0.678  12.772 -1.9278  1.8643  0.1634
  437TMC3    H1 6519   3.907   0.600  12.461  1.6825  0.9882  0.3565
  437TMC3    H2 6520   3.800   1.000  12.556  1.1141 -0.1390  1.4124
  437TMC3    C7 6521   3.961   0.851  12.405  0.9144  0.0793 -0.1353
  437TMC3    C8 6522   3.628   0.932  12.755  0.1919  0.4287 -0.0009
  437TMC3    O1 6523   3.926   0.926  12.316 -0.2092  0.0196 -0.3296
  437TMC3    O2 6524   3.616   0.882  12.865  0.6360  0.0063  0.1997
  438MPD2     C 6525   1.287   0.398  16.528 -0.6873  0.4389  0.9229
  438MPD2    C1 6526   1.365   0.327  16.618  0.0465 -0.4297  0.5753
  438MPD2    C2 6527   1.314   0.306  16.739 -0.5428 -0.0130 -0.4409
  438MPD2    C3 6528   1.193   0.353  16.779 -0.6456  0.2176 -0.2111
  438MPD2    C4 6529   1.123   0.432  16.690  0.0558  0.0177  0.3184
  438MPD2    C5 6530   1.161   0.443  16.558 -0.7466 -0.2768  0.0363
  438MPD2     H 6531   1.381   0.261  16.812 -0.3105 -0.1114 -0.7121
  438MPD2    H1 6532   1.028   0.477  16.717 -0.3128 -0.4386 -0.2076
  438MPD2    H2 6533   1.325   0.432  16.433 -0.9614  0.5350  0.8481
  438MPD2    H3 6534   1.096   0.487  16.484  1.7522 -0.2977 -2.1723
  438MPD2     N 6535   1.146   0.329  16.914  0.1584  0.1319  0.3439
  438MPD2    H5 6536   1.054   0.367  16.935  0.3417 -0.1516  1.7017
  438MPD2    N1 6537   1.498   0.282  16.585  1.0962  0.5901  0.0930
  438MPD2    H7 6538   1.544   0.244  16.667 -0.7116 -0.6777  0.5243
  439TMC3    C1 6539   1.675   0.197  16.457  0.4171  0.2460 -0.5653
  439TMC3    C2 6540   1.740   0.217  16.340 -0.0094  0.6929 -0.3798
  439TMC3    C3 6541   1.857   0.142  16.329  0.2576 -0.5604  0.1872
  439TMC3    C4 6542   1.714   0.134  16.568 -0.5745 -0.7576 -0.7820
  439TMC3    C5 6543   1.838   0.075  16.555 -0.3665 -0.5200 -0.6304
  439TMC3    C6 6544   1.910   0.075  16.442 -0.2068 -0.1205  0.0902
  439TMC3     C 6545   1.541   0.261  16.458  0.2410  0.7958 -0.5997
  439TMC3     O 6546   1.497   0.309  16.359 -0.4967 -0.1257 -0.0987
  439TMC3     H 6547   1.687   0.262  16.257 -1.5838 -1.2787 -0.4458
  439TMC3    H1 6548   1.646   0.093  16.642  0.2431 -0.1666  0.2912
  439TMC3    H2 6549   1.997   0.013  16.423 -0.9338 -1.4529  1.1013
  439TMC3    C7 6550   1.911   0.026  16.669  0.4029  0.1839 -0.0213
  439TMC3    C8 6551   1.949   0.164  16.229  0.2670 -0.1645  0.8066
  439TMC3    O1 6552   2.009   4.688  16.648  0.2477 -0.1184 -0.1708
  439TMC3    O2 6553   2.043   0.083  16.231 -0.2126  0.0463 -0.0380
  440MPD2     C 6554   0.794   1.386  14.557 -0.2933 -0.2748 -0.0475
  440MPD2    C1 6555   0.765   1.303  14.660  0.5443 -0.1160 -0.1590
  440MPD2    C2 6556   0.865   1.219  14.703 -0.1720  0.8909  0.4032
  440MPD2    C3 6557   0.998   1.230  14.665  0.1226  0.3059  0.0746
  440MPD2    C4 6558   1.026   1.326  14.569 -0.1341 -0.7451 -0.2321
  440MPD2    C5 6559   0.923   1.398  14.505 -0.2236 -0.2782 -0.4602
  440MPD2     H 6560   0.847   1.150  14.785  0.0449  0.4519  0.0827
  440MPD2    H1 6561   1.128   1.338  14.535 -0.1225  3.0622  1.1300
  440MPD2    H2 6562   0.721   1.447  14.505 -0.8676 -0.2634  0.7786
  440MPD2    H3 6563   0.953   1.475  14.434 -0.5919 -0.3817 -0.7237
  440MPD2     N 6564   1.106   1.171  14.728 -0.3407 -0.0474  0.3380
  440MPD2    H5 6565   1.202   1.196  14.706 -0.2110 -0.5556  0.3289
  440MPD2    N1 6566   0.636   1.297  14.716  0.1711 -0.2416 -0.3219
  440MPD2    H7 6567   0.635   1.219  14.781 -0.1173 -0.9634 -1.1925
  441TMC3    C1 6568   1.222   1.049  14.886  0.2490  0.6747  0.3569
  441TMC3    C2 6569   1.293   1.163  14.924 -0.0693 -0.1495 -0.1075
  441TMC3    C3 6570   1.361   1.156  15.041  0.2873 -0.2651  0.0542
  441TMC3    C4 6571   1.216   0.937  14.960  0.0991 -0.3322  0.2188
  441TMC3    C5 6572   1.279   0.940  15.079  0.5329  0.1907  0.1393
  441TMC3    C6 6573   1.360   1.037  15.116  0.0338  0.9002  0.6589
  441TMC3     C 6574   1.099   1.069  14.813 -0.0236  0.0901  0.5997
  441TMC3     O 6575   1.000   1.004  14.842  0.1970  0.4035  0.5384
  441TMC3     H 6576   1.291   1.251  14.861 -2.7118 -0.5831 -0.6299
  441TMC3    H1 6577   1.144   0.862  14.930 -0.4131  0.4018 -0.3793
  441TMC3    H2 6578   1.398   1.043  15.218 -0.1344  1.2989  0.6976
  441TMC3    C7 6579   1.220   0.855  15.186 -0.4572 -0.1872 -0.8272
  441TMC3    C8 6580   1.385   1.287  15.115 -0.0620 -0.8655 -0.1394
  441TMC3    O1 6581   1.108   0.808  15.165 -0.0222 -0.8169  0.1288
  441TMC3    O2 6582   1.491   1.309  15.170 -0.1626 -0.3094  0.0749
  442MPD2     C 6583   3.786   1.713  16.663 -1.2212 -0.5877  0.2007
  442MPD2    C1 6584   3.672   1.683  16.594  0.8468 -0.1338  0.1068
  442MPD2    C2 6585   3.673   1.584  16.500 -0.1083 -0.3033 -0.7515
  442MPD2    C3 6586   3.777   1.500  16.490  0.1401 -0.2328  0.7301
  442MPD2    C4 6587   3.890   1.535  16.557 -0.7824 -0.4328  0.4607
  442MPD2    C5 6588   3.903   1.643  16.634 -1.3378  0.8120 -0.2874
  442MPD2     H 6589   3.579   1.551  16.456  0.4362 -1.5691 -0.9760
  442MPD2    H1 6590   3.985   1.485  16.542 -0.0661  1.1157 -0.2181
  442MPD2    H2 6591   3.788   1.783  16.746 -0.0669 -0.8122  0.3682
  442MPD2    H3 6592   3.995   1.656  16.689 -1.8188 -2.4074  1.2594
  442MPD2     N 6593   3.777   1.380  16.408  0.5219  0.3426 -0.0227
  442MPD2    H5 6594   3.867   1.333  16.404  0.5321  0.4735 -1.1361
  442MPD2    N1 6595   3.550   1.748  16.620 -0.6921 -0.1717 -0.1423
  442MPD2    H7 6596   3.473   1.743  16.554  0.4365 -1.5757 -1.3717
  443TMC3    C1 6597   3.373   1.852  16.724 -0.8430 -0.1889  0.2101
  443TMC3    C2 6598   3.328   1.856  16.594 -0.1114  0.0421 -0.4333
  443TMC3    C3 6599   3.194   1.818  16.581  0.5518  0.0857  0.8365
  443TMC3    C4 6600   3.307   1.806  16.832 -0.3135  0.6393  0.5330
  443TMC3    C5 6601   3.188   1.742  16.812 -0.2114 -0.0900  0.3233
  443TMC3    C6 6602   3.130   1.750  16.689  0.0910  0.6779  0.3760
  443TMC3     C 6603   3.512   1.819  16.733  0.1527  0.2160  0.5716
  443TMC3     O 6604   3.554   1.799  16.847 -0.2978 -0.4783 -0.1758
  443TMC3     H 6605   3.382   1.894  16.508  0.4673  1.5403  0.5965
  443TMC3    H1 6606   3.358   1.794  16.927 -0.6917  0.0832  0.6658
  443TMC3    H2 6607   3.034   1.702  16.672  0.1087  1.1737 -1.0946
  443TMC3    C7 6608   3.118   1.687  16.928  0.6702  0.6160  0.3450
  443TMC3    C8 6609   3.148   1.800  16.445  0.1000 -0.8000 -0.0701
  443TMC3    O1 6610   3.118   1.755  17.030 -0.0990  0.4460 -0.1396
  443TMC3    O2 6611   3.098   1.692  16.422 -0.1537 -0.0809 -1.1756
  444MPD2     C 6612   3.782   0.998  17.014  0.3343  0.2707  0.6172
  444MPD2    C1 6613   3.699   0.970  16.906  0.5647  0.2889 -0.0771
  444MPD2    C2 6614   3.727   0.863  16.830  0.7919 -0.9178 -0.0782
  444MPD2    C3 6615   3.848   0.795  16.847  0.0151  0.0190  0.4792
  444MPD2    C4 6616   3.928   0.832  16.953  0.6190  0.9537 -0.3503
  444MPD2    C5 6617   3.887   0.926  17.038 -0.4807 -0.5698  0.8206
  444MPD2     H 6618   3.659   0.830  16.753 -1.8844  2.3802  0.8883
  444MPD2    H1 6619   4.026   0.790  16.975 -0.7744 -0.5941  2.7457
  444MPD2    H2 6620   3.751   1.068  17.091 -1.6477 -1.3283  1.2671
  444MPD2    H3 6621   3.943   0.936  17.130  0.9937  1.5304 -0.3078
  444MPD2     N 6622   3.882   0.693  16.757  0.2063 -0.0978  0.1233
  444MPD2    H5 6623   3.833   0.697  16.668 -0.7915  0.2182  0.6790
  444MPD2    N1 6624   3.574   1.037  16.887 -0.0181 -0.4198  0.8652
  444MPD2    H7 6625   3.534   1.032  16.794  3.1620 -4.3835 -0.3053
  445TMC3    C1 6626   4.028   0.550  16.644 -0.4502  0.4108  0.5561
  445TMC3    C2 6627   3.934   0.478  16.574  0.3265 -0.2093 -0.5079
  445TMC3    C3 6628   3.976   0.399  16.469 -0.1875  0.4035 -0.2668
  445TMC3    C4 6629   4.163   0.526  16.619  0.8477  0.4416 -0.1986
  445TMC3    C5 6630   4.202   0.442  16.509 -0.2692 -0.6361  0.4906
  445TMC3    C6 6631   4.105   0.389  16.429 -0.0258  1.0202 -0.4122
  445TMC3     C 6632   3.998   0.629  16.764 -0.4472 -0.2822 -0.8249
  445TMC3     O 6633   4.084   0.638  16.850  0.2566 -0.4604 -0.5101
  445TMC3     H 6634   3.832   0.478  16.609  0.9317 -0.0003  1.2643
  445TMC3    H1 6635   4.235   0.566  16.689 -0.5271  1.2715  0.7404
  445TMC3    H2 6636   4.136   0.330  16.343  0.4524  0.1455  0.3623
  445TMC3    C7 6637   4.335   0.460  16.452  0.5642  0.7194  0.4192
  445TMC3    C8 6638   3.886   0.315  16.391 -0.2579 -0.4490  0.0200
  445TMC3    O1 6639   4.372   0.386  16.365 -0.2112  0.2102  0.4709
  445TMC3    O2 6640   3.925   0.259  16.288  0.7587  0.3964  0.5844
  446MPD2     C 6641   3.184   2.329  11.302  0.1327  0.1348  0.3195
  446MPD2    C1 6642   3.135   2.401  11.199 -0.8272  0.1918  0.6058
  446MPD2    C2 6643   3.206   2.521  11.167  0.2058  0.0317 -0.6555
  446MPD2    C3 6644   3.315   2.560  11.245  0.7313  0.6903  0.1255
  446MPD2    C4 6645   3.368   2.481  11.341 -0.3101  0.2363 -0.3291
  446MPD2    C5 6646   3.301   2.363  11.364 -0.0685  0.8354 -0.8835
  446MPD2     H 6647   3.172   2.589  11.090 -3.0246  0.1202  0.8537
  446MPD2    H1 6648   3.457   2.506  11.398  1.1547 -2.0358 -1.5946
  446MPD2    H2 6649   3.128   2.240  11.329 -0.9259 -0.0344 -2.3901
  446MPD2    H3 6650   3.336   2.296  11.441  0.1065  0.4212 -1.3211
  446MPD2     N 6651   3.381   2.686  11.220 -0.6282 -0.3934  0.0326
  446MPD2    H5 6652   3.349   2.734  11.136  0.3754 -0.4605 -0.3884
  446MPD2    N1 6653   3.022   2.363  11.119  1.0469 -0.1289 -0.1460
  446MPD2    H7 6654   2.976   2.433  11.061 -2.0933  0.2464  2.7351
  447TMC3    C1 6655   3.531   2.869  11.219  0.2223 -0.6522 -0.1147
  447TMC3    C2 6656   3.488   2.920  11.098  0.0409 -0.2117 -0.2490
  447TMC3    C3 6657   3.555   3.023  11.031  0.7664  0.5177  1.1517
  447TMC3    C4 6658   3.647   2.918  11.273 -0.3112  0.2070 -0.1891
  447TMC3    C5 6659   3.714   3.014  11.200 -0.3251 -0.2426 -0.1220
  447TMC3    C6 6660   3.677   3.059  11.078  0.1481  0.4747  0.3297
  447TMC3     C 6661   3.485   2.748  11.283 -0.3350 -0.5667  0.4244
  447TMC3     O 6662   3.545   2.716  11.383 -0.4596  0.3318 -0.1045
  447TMC3     H 6663   3.396   2.889  11.051  0.6597 -2.6059  0.1286
  447TMC3    H1 6664   3.664   2.907  11.379 -0.0640 -2.0136 -0.4584
  447TMC3    H2 6665   3.723   3.148  11.036 -0.2473  0.8227  0.6319
  447TMC3    C7 6666   3.855   3.012  11.211 -0.2911 -0.4597 -0.3830
  447TMC3    C8 6667   3.523   3.042  10.895 -0.0708 -0.6192  0.2630
  447TMC3    O1 6668   3.926   3.054  11.120  0.7400  0.2221  0.5291
  447TMC3    O2 6669   3.410   3.010  10.862 -0.3353 -0.4522 -0.2454
  448TMC3    C1 6670   1.708   1.773  16.526 -0.1541 -0.5946  0.0149
  448TMC3    C2 6671   1.658   1.656  16.478 -0.2055 -0.0374 -0.8293
  448TMC3    C3 6672   1.718   1.539  16.521 -0.7404 -0.9897  0.1714
  448TMC3    C4 6673   1.816   1.780  16.609  0.0202  0.0807 -0.1118
  448TMC3    C5 6674   1.862   1.659  16.649  0.5823 -0.3001 -0.2697
  448TMC3    C6 6675   1.817   1.535  16.617 -0.5937 -0.3929 -0.0694
  448TMC3     C 6676   1.666   1.890  16.455 -0.2669  0.4594 -0.1532
  448TMC3     O 6677   1.629   1.876  16.342 -0.1285  0.5716 -0.2236
  448TMC3     H 6678   1.580   1.661  16.402 -2.1233 -2.0827  1.0279
  448TMC3    H1 6679   1.873   1.868  16.637  1.1797 -0.6258 -0.2367
  448TMC3    H2 6680   1.860   1.443  16.656  0.9684  0.6231  0.5789
  448TMC3    C7 6681   1.992   1.672  16.706  0.0932  0.0540 -0.0605
  448TMC3    C8 6682   1.685   1.416  16.453  0.2877  0.4453 -0.2420
  448TMC3    O1 6683   2.062   1.770  16.680  0.3463  0.0719  0.5124
  448TMC3    O2 6684   1.702   1.312  16.512  0.2166 -0.4070  0.1878
  449MPD2     C 6685   3.131   0.647  13.531 -0.2609 -0.2025  0.2423
  449MPD2    C1 6686   3.036   0.578  13.456 -0.2394  0.4955  0.0677
  449MPD2    C2 6687   2.909   0.557  13.511 -0.2821  0.7635 -0.0426
  449MPD2    C3 6688   2.881   0.591  13.641 -0.3067 -0.6641  0.0606
  449MPD2    C4 6689   2.982   0.635  13.724  0.3075 -0.1395  0.1945
  449MPD2    C5 6690   3.106   0.664  13.669 -0.1894  0.5618  0.7286
  449MPD2     H 6691   2.826   0.508  13.462  0.2641 -2.6481  2.4052
  449MPD2    H1 6692   2.965   0.644  13.830  0.0865 -1.9629  0.3059
  449MPD2    H2 6693   3.227   0.670  13.487  0.8623 -0.5879  2.4868
  449MPD2    H3 6694   3.184   0.710  13.729  0.2561  1.5268 -0.5931
  449MPD2     N 6695   2.751   0.558  13.683 -0.3235  0.2275  0.2542
  449MPD2    H5 6696   2.690   0.541  13.604 -1.5137 -0.6788  1.3659
  449MPD2    N1 6697   3.062   0.543  13.324  0.4894 -0.3527 -0.0017
  449MPD2    H7 6698   2.977   0.504  13.285 -0.0703  1.4523 -0.5796
  450TMC3    C1 6699   3.147   0.507  13.110  0.4905  0.0782  0.9984
  450TMC3    C2 6700   3.225   0.402  13.077 -0.0054 -0.7802  0.0088
  450TMC3    C3 6701   3.167   0.298  13.015 -0.5545  0.6773  0.2053
  450TMC3    C4 6702   3.006   0.504  13.089 -0.1033 -0.6755  0.1047
  450TMC3    C5 6703   2.950   0.396  13.026 -0.7419 -0.0792  0.2093
  450TMC3    C6 6704   3.030   0.289  12.991  0.5664 -0.0433  0.0537
  450TMC3     C 6705   3.176   0.552  13.245  0.2642  0.2939 -0.1130
  450TMC3     O 6706   3.293   0.573  13.284  0.6892 -0.0274 -0.1672
  450TMC3     H 6707   3.331   0.406  13.099  0.2467  2.1525 -1.5992
  450TMC3    H1 6708   2.942   0.587  13.117 -0.6925 -0.9084 -0.5383
  450TMC3    H2 6709   2.985   0.195  12.960 -0.7725  0.0263  1.7761
  450TMC3    C7 6710   2.841   0.359  13.112 -0.1510 -0.7032  1.1756
  450TMC3    C8 6711   3.262   0.192  12.964 -0.4717 -0.0525  0.2099
  450TMC3    O1 6712   2.850   0.399  13.227  0.3995 -0.1402 -0.0249
  450TMC3    O2 6713   3.227   0.073  12.962  0.4270 -0.1486 -0.2446
  451MPD2     C 6714   0.230   4.495   1.235  0.2326 -0.0466  0.4672
  451MPD2    C1 6715   0.129   4.482   1.327 -0.1956  0.1009  0.3003
  451MPD2    C2 6716   0.130   4.386   1.424  0.3409 -0.0059  0.2790
  451MPD2    C3 6717   0.242   4.304   1.438  0.2801 -0.1568 -0.0978
  451MPD2    C4 6718   0.342   4.312   1.344 -0.7803  0.0793  0.3434
  451MPD2    C5 6719   0.334   4.406   1.248 -0.9441 -0.1704  0.0233
  451MPD2     H 6720   0.047   4.370   1.492  0.1433 -1.3918 -0.2964
  451MPD2    H1 6721   0.422   4.240   1.334 -1.4762 -0.7979  1.0487
  451MPD2    H2 6722   0.223   4.563   1.151 -0.1848 -2.6721 -1.6251
  451MPD2    H3 6723   0.406   4.397   1.168  0.7541  0.1311  1.4984
  451MPD2     N 6724   0.244   4.194   1.525 -0.4284  0.3835 -0.4705
  451MPD2    H5 6725   0.319   4.129   1.505 -1.1847 -0.6492  0.0898
  451MPD2    N1 6726   0.019   4.575   1.327 -0.1996 -0.2039  0.6357
  451MPD2    H7 6727   0.018   4.629   1.241  1.5797 -0.6222  0.3644
  452TMC3    C1 6728   0.140   4.020   1.648 -0.1932  0.5216 -0.2469
  452TMC3    C2 6729   0.092   4.003   1.774 -0.2503  0.3982  0.4968
  452TMC3    C3 6730   0.077   3.879   1.824  0.1183 -0.1407  0.0797
  452TMC3    C4 6731   0.176   3.913   1.571 -0.4942 -0.1882 -0.6632
  452TMC3    C5 6732   0.145   3.790   1.622  0.1683  0.2794 -0.4379
  452TMC3    C6 6733   0.090   3.775   1.746 -0.0239  0.4100  0.1196
  452TMC3     C 6734   0.140   4.158   1.607 -0.6401  0.3692  0.0061
  452TMC3     O 6735   0.075   4.237   1.675  0.0413  0.0346 -0.5046
  452TMC3     H 6736   0.059   4.090   1.831 -1.0744 -0.4853  1.3791
  452TMC3    H1 6737   0.201   3.925   1.466  1.7451  2.9890  0.2425
  452TMC3    H2 6738   0.054   3.681   1.786 -1.4868  0.0860 -1.9178
  452TMC3    C7 6739   0.160   3.680   1.524  0.2885  0.1642  0.4749
  452TMC3    C8 6740   0.018   3.862   1.953  0.5536  0.3130 -0.1897
  452TMC3    O1 6741   0.181   3.709   1.401  0.3752 -0.0289 -0.5465
  452TMC3    O2 6742   4.686   3.760   1.973  0.3690  0.2996  0.8057
  453TMC3    C1 6743   0.934   1.226  11.576 -0.2490  0.3193  0.7532
  453TMC3    C2 6744   0.826   1.185  11.647  0.0941 -1.0231  0.2511
  453TMC3    C3 6745   0.722   1.125  11.579 -0.3162  0.7045  0.4505
  453TMC3    C4 6746   0.924   1.237  11.436  0.0082 -0.6513 -0.7331
  453TMC3    C5 6747   0.817   1.184  11.371  0.5149 -0.5959 -0.9093
  453TMC3    C6 6748   0.713   1.128  11.443 -0.1691 -0.1328 -0.1505
  453TMC3     C 6749   1.015   1.311  11.656 -0.7449  1.1298 -0.1716
  453TMC3     O 6750   0.965   1.342  11.766 -0.0039 -0.2844  0.4967
  453TMC3     H 6751   0.828   1.180  11.755 -0.2807  1.0679  0.3577
  453TMC3    H1 6752   0.977   1.314  11.381  0.4699 -0.2103  0.3173
  453TMC3    H2 6753   0.625   1.084  11.397 -0.8149  2.0440 -1.0255
  453TMC3    C7 6754   0.803   1.208  11.232  0.0744  0.1555 -1.0380
  453TMC3    C8 6755   0.622   1.053  11.652 -0.5236  0.2648 -0.5670
  453TMC3    O1 6756   0.692   1.219  11.186  0.1557 -0.6019 -0.8261
  453TMC3    O2 6757   0.506   1.049  11.608  0.2227  0.5979  0.5260
  454MPD2     C 6758   0.062   0.991  15.956 -0.8408 -0.5212 -0.2708
  454MPD2    C1 6759   4.685   0.900  15.955  0.2888 -0.5068 -0.2458
  454MPD2    C2 6760   4.596   0.884  16.062 -0.5484  0.2601 -0.6717
  454MPD2    C3 6761   4.600   0.962  16.164  0.1884 -0.3506 -0.4233
  454MPD2    C4 6762   4.708   1.049  16.173 -0.2426 -0.1236 -0.9768
  454MPD2    C5 6763   0.081   1.056  16.073 -1.3375 -0.5514  0.2048
  454MPD2     H 6764   4.511   0.818  16.060 -0.3832  0.0383 -0.2371
  454MPD2    H1 6765   4.724   1.107  16.263 -0.8258 -2.5657  0.7191
  454MPD2    H2 6766   0.131   0.993  15.872  1.8992 -0.2511  1.9979
  454MPD2    H3 6767   0.162   1.127  16.079 -1.2444 -0.8835  3.0708
  454MPD2     N 6768   4.495   0.945  16.254  0.0896 -0.5941 -0.2717
  454MPD2    H5 6769   4.429   0.874  16.226  0.4112 -1.3030  0.7357
  454MPD2    N1 6770   4.660   0.828  15.837 -0.3746  0.0673  0.1730
  454MPD2    H7 6771   4.708   0.857  15.753  0.7681  1.9983  1.4846
  455TMC3    C1 6772   4.366   0.965  16.445 -0.0661  0.2497 -0.4660
  455TMC3    C2 6773   4.341   1.029  16.567  0.4590 -0.4376  0.0361
  455TMC3    C3 6774   4.208   1.043  16.604  0.2052  0.7432  0.6184
  455TMC3    C4 6775   4.262   0.900  16.379 -0.3063 -0.0696  0.2097
  455TMC3    C5 6776   4.136   0.905  16.427 -0.2961  0.1806 -0.3038
  455TMC3    C6 6777   4.106   0.981  16.538 -0.2128 -0.1180  0.0921
  455TMC3     C 6778   4.472   1.023  16.371  0.5611 -0.4726 -0.1664
  455TMC3     O 6779   4.544   1.108  16.421  0.1377  0.2839 -0.3413
  455TMC3     H 6780   4.423   1.082  16.614 -0.3887  0.0179  0.9823
  455TMC3    H1 6781   4.287   0.839  16.293  2.2915  0.4618  0.5965
  455TMC3    H2 6782   4.001   0.986  16.563  0.1383 -1.1486  1.7816
  455TMC3    C7 6783   4.026   0.832  16.370 -0.1236  0.0045 -0.4038
  455TMC3    C8 6784   4.180   1.157  16.693  0.6506 -0.3944  0.2733
  455TMC3    O1 6785   3.941   0.789  16.451  0.0455 -0.5253 -0.2753
  455TMC3    O2 6786   4.277   1.233  16.698 -0.1105  0.7179 -0.0183
  456MPD2     C 6787   2.548   0.544  15.741 -0.3505 -0.3942 -0.9350
  456MPD2    C1 6788   2.578   0.520  15.873  0.8367 -0.1404 -0.5393
  456MPD2    C2 6789   2.490   0.551  15.973 -0.1719 -0.1532 -0.1810
  456MPD2    C3 6790   2.378   0.623  15.946 -0.0956  0.1788  0.0696
  456MPD2    C4 6791   2.349   0.632  15.811  0.0333 -0.3124 -0.3808
  456MPD2    C5 6792   2.437   0.603  15.710 -0.0475  0.3102  0.2560
  456MPD2     H 6793   2.517   0.540  16.077  0.1247  1.1942 -0.1123
  456MPD2    H1 6794   2.250   0.660  15.779 -0.0842 -0.0683  0.1852
  456MPD2    H2 6795   2.614   0.525  15.657 -0.7988 -0.2814 -1.3073
  456MPD2    H3 6796   2.410   0.624  15.607 -1.4718 -0.2782  0.4996
  456MPD2     N 6797   2.287   0.649  16.056  0.3875  0.0717  0.0253
  456MPD2    H5 6798   2.317   0.626  16.150  3.7361 -1.1647 -1.3727
  456MPD2    N1 6799   2.702   0.461  15.908  0.3712  0.3086 -0.0694
  456MPD2    H7 6800   2.773   0.468  15.835 -0.4436 -1.9796 -1.0727
  457TMC3    C1 6801   2.100   0.742  16.161 -0.4882  0.7768  0.1932
  457TMC3    C2 6802   1.973   0.796  16.152 -0.2962  0.0557  0.5248
  457TMC3    C3 6803   1.907   0.841  16.269  0.1634 -0.8722 -0.4359
  457TMC3    C4 6804   2.162   0.734  16.282  0.1146 -1.0456  0.5072
  457TMC3    C5 6805   2.085   0.777  16.387 -0.6317  0.3498 -0.0630
  457TMC3    C6 6806   1.967   0.828  16.390 -0.1979 -0.1517  0.4143
  457TMC3     C 6807   2.164   0.717  16.033 -0.8119  0.1826 -0.5796
  457TMC3     O 6808   2.127   0.773  15.934  0.5065  0.3561 -0.0214
  457TMC3     H 6809   1.926   0.806  16.055 -2.8005  1.1605  1.8458
  457TMC3    H1 6810   2.260   0.695  16.307  0.4929 -1.5781 -1.8018
  457TMC3    H2 6811   1.916   0.867  16.477  0.6365 -0.8685  1.2296
  457TMC3    C7 6812   2.165   0.809  16.506  0.4401  0.7220 -0.1014
  457TMC3    C8 6813   1.814   0.957  16.264  0.1618  0.0667  0.5934
  457TMC3    O1 6814   2.224   0.716  16.556  0.3430  0.3302 -0.1351
  457TMC3    O2 6815   1.771   0.986  16.376 -0.0071 -0.2561  0.6720
  458MPD2     C 6816   4.460   0.847  12.259 -0.4494 -0.3323 -0.1103
  458MPD2    C1 6817   4.450   0.777  12.377 -0.6832  0.6159 -0.2194
  458MPD2    C2 6818   4.321   0.746  12.421  0.3130  0.0732  0.4536
  458MPD2    C3 6819   4.205   0.801  12.376 -0.7589  0.6304  0.9670
  458MPD2    C4 6820   4.217   0.882  12.262  0.4544 -0.2115  0.4515
  458MPD2    C5 6821   4.343   0.898  12.204  1.1482 -0.3079 -0.1092
  458MPD2     H 6822   4.307   0.682  12.508  3.7049 -2.3152 -0.7877
  458MPD2    H1 6823   4.132   0.934  12.219 -1.1370 -1.5779  1.9675
  458MPD2    H2 6824   4.556   0.859  12.211  0.5047  3.1023  2.6828
  458MPD2    H3 6825   4.355   0.969  12.123  0.0052  1.2381  1.0748
  458MPD2     N 6826   4.081   0.785  12.443  0.3645 -0.2407 -0.4883
  458MPD2    H5 6827   4.087   0.745  12.535  1.5960 -0.9825 -0.8957
  458MPD2    N1 6828   4.568   0.745  12.443 -0.1488  1.2069  0.7249
  458MPD2    H7 6829   4.663   0.766  12.413 -0.9730  1.2802 -1.8590
  459TMC3    C1 6830   4.714   0.663  12.609  0.1045  1.2206 -0.0220
  459TMC3    C2 6831   0.088   0.745  12.558  0.4851 -0.3317 -0.1928
  459TMC3    C3 6832   0.185   0.773  12.652 -0.2962  1.0389  0.1177
  459TMC3    C4 6833   4.712   0.625  12.740 -0.3865  0.1429 -0.3513
  459TMC3    C5 6834   0.081   0.652  12.834  0.1188 -0.3616  0.7323
  459TMC3    C6 6835   0.181   0.734  12.785  0.3320 -0.1956 -0.2722
  459TMC3     C 6836   4.580   0.659  12.548 -0.6339  0.5210  0.3576
  459TMC3     O 6837   4.495   0.582  12.597 -0.3913  0.0037 -1.1709
  459TMC3     H 6838   0.102   0.758  12.452  1.6267 -0.8237 -0.1033
  459TMC3    H1 6839   4.628   0.560  12.764 -0.1665  0.4361  1.2003
  459TMC3    H2 6840   0.263   0.766  12.849  1.3436  0.6953 -2.0312
  459TMC3    C7 6841   0.066   0.587  12.966  0.2296 -0.4375  0.6134
  459TMC3    C8 6842   0.313   0.817  12.602 -0.2124 -0.3404  0.0154
  459TMC3    O1 6843   4.699   0.511  12.976  0.2432 -0.3527 -0.1091
  459TMC3    O2 6844   0.407   0.808  12.678 -0.4995 -0.4125 -0.1157
  460MPD2     C 6845   3.758   3.069  10.607 -0.6598  0.7256 -0.1417
  460MPD2    C1 6846   3.636   3.074  10.674 -0.0848  0.1959 -0.6883
  460MPD2    C2 6847   3.528   3.082  10.593 -0.1767  0.8192  0.6145
  460MPD2    C3 6848   3.541   3.074  10.459  0.1154  0.3733  0.1827
  460MPD2    C4 6849   3.663   3.062  10.396  0.0428 -0.5858  0.1478
  460MPD2    C5 6850   3.775   3.063  10.475 -0.1751  0.8239  0.8178
  460MPD2     H 6851   3.428   3.097  10.633  0.5811  1.0027  2.4566
  460MPD2    H1 6852   3.682   3.084  10.292 -0.2398 -0.5628  0.1019
  460MPD2    H2 6853   3.844   3.057  10.672 -1.5998 -1.9249  0.6161
  460MPD2    H3 6854   3.877   3.061  10.438 -0.5444  1.3681 -0.2425
  460MPD2     N 6855   3.418   3.090  10.380 -0.2068  0.0361  0.6585
  460MPD2    H5 6856   3.335   3.117  10.432 -1.3974  0.1301 -1.3013
  460MPD2    N1 6857   3.632   3.082  10.817 -0.2672 -0.0508 -0.1419
  460MPD2    H7 6858   3.718   3.105  10.866 -0.4490 -1.4752  0.8617
  461TMC3    C1 6859   3.306   3.163  10.187  0.3222 -0.1687  0.3059
  461TMC3    C2 6860   3.257   3.107  10.066 -0.4741  0.2544 -0.2023
  461TMC3    C3 6861   3.152   3.176  10.010 -0.1638 -0.7223  0.1984
  461TMC3    C4 6862   3.264   3.278  10.243  0.4676 -0.9658 -0.3846
  461TMC3    C5 6863   3.153   3.328  10.184 -0.0725  0.9248 -0.2331
  461TMC3    C6 6864   3.105   3.289  10.064  0.7583 -0.8272  0.6116
  461TMC3     C 6865   3.415   3.088  10.245  0.1026 -0.3613  0.2049
  461TMC3     O 6866   3.483   3.021  10.168 -1.0110 -0.1210  0.5330
  461TMC3     H 6867   3.323   3.044  10.008  2.5898  2.3633  1.0104
  461TMC3    H1 6868   3.306   3.326  10.331  0.1951 -2.4429  0.5583
  461TMC3    H2 6869   3.018   3.337  10.021  0.5945 -2.5004 -0.9561
  461TMC3    C7 6870   3.144   3.472  10.193 -0.4833 -0.2250 -1.0364
  461TMC3    C8 6871   3.115   3.145   9.870 -0.0980 -0.0779  0.0142
  461TMC3    O1 6872   3.028   3.510  10.189 -0.1991  0.0805  0.4070
  461TMC3    O2 6873   3.154   3.039   9.818  0.1824  0.0982 -0.2502
  462TMC3    C1 6874   3.713   4.255  17.499  0.2617 -0.7524  0.4361
  462TMC3    C2 6875   3.818   4.224  17.577 -0.8828 -0.2089  1.1424
  462TMC3    C3 6876   3.797   4.131  17.674  0.9400  0.1894 -0.1703
  462TMC3    C4 6877   3.587   4.199  17.521  0.4464 -0.2924 -0.3691
  462TMC3    C5 6878   3.573   4.113  17.632 -0.3697  0.1620 -0.4984
  462TMC3    C6 6879   3.680   4.090   0.006  0.0564  0.4837  0.6754
  462TMC3     C 6880   3.744   4.347  17.384 -0.4645 -0.3951 -0.1900
  462TMC3     O 6881   3.859   4.382  17.374 -0.1438 -0.8773 -0.4823
  462TMC3     H 6882   3.920   4.252  17.553 -1.2763  0.4529  0.2285
  462TMC3    H1 6883   3.499   4.233  17.466 -0.8428 -0.5926  1.4888
  462TMC3    H2 6884   3.680   4.008   0.076  1.5331 -0.7612 -0.7541
  462TMC3    C7 6885   3.468   4.016  17.629 -0.2824  0.3200  0.6754
  462TMC3    C8 6886   3.913   4.077   0.041 -1.1031  0.4096 -0.1126
  462TMC3    O1 6887   3.457   3.938   0.006 -0.4981 -0.1065  0.1024
  462TMC3    O2 6888   3.892   4.027   0.149 -0.4535 -0.6616  0.7034
  463MPD2     C 6889   4.625   2.611   2.636 -0.5022 -0.1696  0.2603
  463MPD2    C1 6890   4.641   2.542   2.518  0.3763  0.1160 -0.0221
  463MPD2    C2 6891   4.717   2.605   2.415 -0.9254 -0.2955  0.5774
  463MPD2    C3 6892   0.022   2.743   2.428 -0.5884 -0.0997  0.2499
  463MPD2    C4 6893   4.716   2.810   2.538 -0.5082 -0.1923 -0.1955
  463MPD2    C5 6894   4.658   2.741   2.641  0.1865 -0.4755  0.1635
  463MPD2     H 6895   0.029   2.543   2.336  0.8088  2.3457 -0.6066
  463MPD2    H1 6896   0.013   2.914   2.555  0.4765 -0.5970  0.7681
  463MPD2    H2 6897   4.589   2.557   2.722  2.4729 -0.9033  1.0503
  463MPD2    H3 6898   4.645   2.800   2.731 -0.7455 -0.0489 -0.2470
  463MPD2     N 6899   0.113   2.806   2.337 -0.0552 -0.5946  0.4484
  463MPD2    H5 6900   0.129   2.905   2.353 -1.5036 -0.5231  1.4450
  463MPD2    N1 6901   4.613   2.402   2.500  0.2227  0.0224  0.0498
  463MPD2    H7 6902   4.643   2.359   2.413 -1.1631  1.0631 -0.9442
  464TMC3    C1 6903   4.572   2.183   2.564  0.0367 -0.1940  0.0506
  464TMC3    C2 6904   4.658   2.161   2.463  0.2022 -0.0258  0.1809
  464TMC3    C3 6905   4.649   2.037   2.407  0.3333 -0.8338  0.2050
  464TMC3    C4 6906   4.469   2.101   2.603 -0.0607 -0.1690 -0.3113
  464TMC3    C5 6907   4.451   1.988   2.528 -0.4781  0.2323 -0.2658
  464TMC3    C6 6908   4.548   1.952   2.434  0.7249  0.2764  0.1488
  464TMC3     C 6909   4.554   2.324   2.600 -0.0010  0.2979  0.5529
  464TMC3     O 6910   4.480   2.353   2.693  0.7097  0.1036 -0.3903
  464TMC3     H 6911   0.021   2.219   2.455 -0.6801  1.1244 -1.7070
  464TMC3    H1 6912   4.408   2.132   2.688  2.4794 -0.8871  1.7622
  464TMC3    H2 6913   4.546   1.866   2.368 -1.2782 -0.3275  1.0202
  464TMC3    C7 6914   4.317   1.928   2.539  0.5907 -0.6059 -0.5744
  464TMC3    C8 6915   4.719   2.031   2.279  0.0877  0.3372 -0.0262
  464TMC3    O1 6916   4.250   1.965   2.629  0.3533  0.1536 -0.4482
  464TMC3    O2 6917   0.031   2.143   2.249  0.2299  0.5490 -0.0025
  465MPD2     C 6918   1.439   0.960  15.778  0.1561  0.0038  0.2093
  465MPD2    C1 6919   1.348   0.929  15.879 -0.3138  0.7467 -0.4605
  465MPD2    C2 6920   1.214   0.965  15.868  0.1223  0.7992  0.1105
  465MPD2    C3 6921   1.175   1.043  15.764  0.2643  0.5793  0.1871
  465MPD2    C4 6922   1.264   1.083  15.669  0.1928 -0.5445  0.1474
  465MPD2    C5 6923   1.396   1.039  15.680  0.3059 -0.3415  1.0722
  465MPD2     H 6924   1.142   0.936  15.942  0.3565  0.3017  0.1421
  465MPD2    H1 6925   1.237   1.148  15.587 -0.7758 -0.4193  0.5788
  465MPD2    H2 6926   1.544   0.931  15.782  0.7487  1.9924 -0.9541
  465MPD2    H3 6927   1.458   1.063  15.595  0.0286 -2.5435  0.2518
  465MPD2     N 6928   1.050   1.090  15.760  0.5850  0.2644  0.4538
  465MPD2    H5 6929   1.031   1.135  15.671  1.6264 -0.3783 -0.0874
  465MPD2    N1 6930   1.375   0.861  15.995 -0.2881 -0.6256  0.3667
  465MPD2    H7 6931   1.298   0.853  16.061 -0.4692  0.5358  0.2972
  466TMC3    C1 6932   0.679   1.283  15.964 -0.3317  0.9675 -0.0224
  466TMC3    C2 6933   0.726   1.411  15.949 -0.1272 -0.4594  0.5465
  466TMC3    C3 6934   0.839   1.430  15.873  0.5752  0.3641 -0.1515
  466TMC3    C4 6935   0.738   1.169  15.914 -0.1244  0.3956 -0.6383
  466TMC3    C5 6936   0.857   1.197  15.845 -0.1030 -0.0215 -0.1979
  466TMC3    C6 6937   0.906   1.321  15.823  0.1323 -0.0593  0.6758
  466TMC3     C 6938   0.564   1.272  16.044  0.0331  0.2836  0.4084
  466TMC3     O 6939   0.557   1.178  16.116 -0.0080 -0.3689  0.0886
  466TMC3     H 6940   0.677   1.494  15.999 -0.1959  0.5920 -1.2781
  466TMC3    H1 6941   0.700   1.068  15.921  1.4486 -0.0195  1.5836
  466TMC3    H2 6942   1.008   1.330  15.785 -0.4789  1.0898 -0.6879
  466TMC3    C7 6943   0.948   1.086  15.852  0.2940  1.0452  0.8401
  466TMC3    C8 6944   0.908   1.564  15.887 -0.4260 -0.5885  0.0268
  466TMC3    O1 6945   0.934   1.036  15.961  0.6011  0.0078 -0.1233
  466TMC3    O2 6946   0.960   1.616  15.787  0.0463 -1.2036 -0.3278
  467TMC3    C1 6947   2.110   4.499  13.311 -0.2714 -1.1180 -0.5492
  467TMC3    C2 6948   2.066   4.602  13.235  0.5963  0.3313  0.2590
  467TMC3    C3 6949   1.930   4.636  13.238  0.4211  0.9967  0.2549
  467TMC3    C4 6950   2.025   4.444  13.411 -0.7230  0.0219  0.2649
  467TMC3    C5 6951   1.890   4.483  13.415  0.1762  0.5385 -0.0048
  467TMC3    C6 6952   1.844   4.575  13.327  0.1671 -0.1853  0.5716
  467TMC3     C 6953   2.251   4.486  13.330 -0.1456 -0.0841 -0.1774
  467TMC3     O 6954   2.293   4.487  13.442  0.2018  0.2566  0.0740
  467TMC3     H 6955   2.128   4.645  13.157  0.6527 -0.6745 -0.2481
  467TMC3    H1 6956   2.056   4.380  13.493 -2.3284 -2.1881 -0.8529
  467TMC3    H2 6957   1.739   4.605  13.332  0.7996  1.8873  1.3544
  467TMC3    C7 6958   1.838   4.484  13.546 -0.6328  0.5734 -0.0255
  467TMC3    C8 6959   1.908   0.050  13.193 -0.3877  0.1520 -0.0634
  467TMC3    O1 6960   1.915   4.520  13.629  0.7681  0.1797  0.5080
  467TMC3    O2 6961   2.010   0.111  13.159 -0.1815 -0.3053 -1.0460
  468MPD2     C 6962   0.512   2.528  10.737 -1.2379  0.0045  0.1726
  468MPD2    C1 6963   0.642   2.496  10.766 -1.2707 -0.7213 -0.2196
  468MPD2    C2 6964   0.676   2.366  10.737 -0.7014 -0.0301 -0.6851
  468MPD2    C3 6965   0.589   2.271  10.691  0.1824 -0.2797 -0.5114
  468MPD2    C4 6966   0.457   2.304  10.679 -0.6507  0.0038  0.2782
  468MPD2    C5 6967   0.416   2.428  10.709  0.1048 -0.3676 -0.8826
  468MPD2     H 6968   0.778   2.340  10.763 -0.4857  1.8774  0.3594
  468MPD2    H1 6969   0.385   2.226  10.658  0.7733 -1.0990 -0.4927
  468MPD2    H2 6970   0.472   2.628  10.748 -0.6129  0.4977 -2.1868
  468MPD2    H3 6971   0.309   2.445  10.699 -0.1669 -2.2590 -1.1056
  468MPD2     N 6972   0.628   2.139  10.668  0.2959 -0.0146 -0.3112
  468MPD2    H5 6973   0.558   2.065  10.667 -2.8859  3.0063 -0.5688
  468MPD2    N1 6974   0.725   2.589  10.835  0.0325 -0.2870  0.2954
  468MPD2    H7 6975   0.689   2.684  10.843  3.6305  1.0811  0.1475
  469TMC3    C1 6976   0.914   2.681  10.942 -0.4589  0.0216 -0.1070
  469TMC3    C2 6977   0.835   2.735  11.036  0.3356 -0.4995 -0.4328
  469TMC3    C3 6978   0.906   2.799  11.137 -0.0940 -0.4159 -0.1277
  469TMC3    C4 6979   1.043   2.681  10.948 -0.1345 -0.2930  0.1180
  469TMC3    C5 6980   1.107   2.762  11.036  0.2003 -0.4018  0.5076
  469TMC3    C6 6981   1.038   2.809  11.142  0.2725  0.4379  0.2087
  469TMC3     C 6982   0.859   2.570  10.867 -0.3795 -0.2877  0.2404
  469TMC3     O 6983   0.936   2.478  10.842 -0.1379  0.5727  0.1164
  469TMC3     H 6984   0.728   2.724  11.049  0.4589 -1.0396  0.1267
  469TMC3    H1 6985   1.095   2.614  10.880 -2.0015 -1.1812 -0.4556
  469TMC3    H2 6986   1.084   2.887  11.201 -0.6678  1.8429 -0.9052
  469TMC3    C7 6987   1.251   2.778  11.020 -0.3761 -0.5235  0.0683
  469TMC3    C8 6988   0.829   2.878  11.234 -0.0097 -0.2005 -0.4616
  469TMC3    O1 6989   1.300   2.749  10.912  0.7770  0.1803 -0.4820
  469TMC3    O2 6990   0.710   2.883  11.214  0.6181  0.4323 -0.5356
  470TMC3    C1 6991   3.540   4.534   0.058 -0.0207  0.4134  0.2977
  470TMC3    C2 6992   3.487   4.565   0.175 -0.0362 -0.7750 -0.3475
  470TMC3    C3 6993   3.569   4.567   0.288  0.1924 -0.4707  0.0152
  470TMC3    C4 6994   3.679   4.529   0.044  0.1212  0.1864 -0.7789
  470TMC3    C5 6995   3.757   4.538   0.154 -0.0326 -0.4724 -0.5499
  470TMC3    C6 6996   3.701   4.556   0.277 -0.9329 -0.2410  0.0496
  470TMC3     C 6997   3.462   4.497  17.657  0.2385 -0.3657 -0.6904
  470TMC3     O 6998   3.491   4.558  17.553 -0.3133  0.3835 -0.1452
  470TMC3     H 6999   3.379   4.573   0.172  0.0274  0.2413 -0.1319
  470TMC3    H1 7000   3.713   4.521  17.656 -0.9215 -1.4687 -0.9917
  470TMC3    H2 7001   3.767   4.546   0.363  0.2173  1.6854 -0.5917
  470TMC3    C7 7002   3.897   4.503   0.136 -0.7791 -0.0144  0.0226
  470TMC3    C8 7003   3.511   4.581   0.420 -0.5367 -0.3902  0.3067
  470TMC3    O1 7004   3.932   4.481   0.019 -0.8659  0.1519 -0.3523
  470TMC3    O2 7005   3.587   4.597   0.518  0.2872 -0.5617 -0.2970
  471MPD2     C 7006   3.600   4.564  15.650 -0.9892  0.4469 -0.0295
  471MPD2    C1 7007   3.564   4.472  15.745  0.5432  0.1891  0.5641
  471MPD2    C2 7008   3.631   4.474  15.865 -0.0655 -0.7622 -0.1908
  471MPD2    C3 7009   3.714   4.585  15.891  0.0340  0.0359  0.5339
  471MPD2    C4 7010   3.750   4.675  15.796 -0.5513  0.4798  1.0158
  471MPD2    C5 7011   3.689   4.660  15.672 -0.1002 -0.4458 -0.0294
  471MPD2     H 7012   3.613   4.396  15.938  0.1433  0.0184  0.6829
  471MPD2    H1 7013   3.827   0.022  15.811 -0.5712  0.9230 -1.2618
  471MPD2    H2 7014   3.556   4.555  15.552 -0.5702 -0.3842 -0.1416
  471MPD2    H3 7015   3.709   0.002  15.593  0.6474 -0.9561 -0.3010
  471MPD2     N 7016   3.760   4.593  16.021 -0.5252 -0.8582 -0.0134
  471MPD2    H5 7017   3.836   4.659  16.036 -1.0615 -0.0387 -0.9200
  471MPD2    N1 7018   3.460   4.379  15.726 -0.4988  0.1510  0.8914
  471MPD2    H7 7019   3.444   4.310  15.799 -0.4628  1.3440  2.0329
  472TMC3    C1 7020   3.251   4.299  15.679 -0.4232  0.2516 -0.3859
  472TMC3    C2 7021   3.139   4.357  15.705  0.4490  0.1925  0.2759
  472TMC3    C3 7022   3.052   4.305  15.794  0.5844 -0.2847  0.0945
  472TMC3    C4 7023   3.286   4.186  15.736  0.0168  0.0919  0.6734
  472TMC3    C5 7024   3.194   4.127  15.813 -0.6309 -0.3260 -0.6769
  472TMC3    C6 7025   3.082   4.196  15.859 -0.0844  0.3235  0.8024
  472TMC3     C 7026   3.355   4.392  15.640  0.6548 -0.7722 -0.5582
  472TMC3     O 7027   3.322   4.487  15.566  0.1746  0.3312  0.5382
  472TMC3     H 7028   3.106   4.443  15.648 -1.5498 -1.2682 -0.7481
  472TMC3    H1 7029   3.385   4.142  15.725  0.5212  1.2585  0.4864
  472TMC3    H2 7030   3.013   4.148  15.927  1.2748 -3.0353 -0.2138
  472TMC3    C7 7031   3.239   4.021  15.902 -0.1288 -0.4347  0.7128
  472TMC3    C8 7032   2.930   4.377  15.825  0.0415 -0.9726 -0.4819
  472TMC3    O1 7033   3.184   4.012  16.011 -0.0824  0.3024 -0.9325
  472TMC3    O2 7034   2.897   4.459  15.739  0.4942 -0.3178  0.0091
  473MPD2     C 7035   3.398   2.090  13.767  0.1634  0.1350 -0.1421
  473MPD2    C1 7036   3.437   2.184  13.673 -0.3628  0.4857  0.2175
  473MPD2    C2 7037   3.520   2.288  13.706  0.3072 -0.4701 -0.0496
  473MPD2    C3 7038   3.590   2.277  13.824  0.0813 -0.2814 -0.1798
  473MPD2    C4 7039   3.563   2.180  13.917 -0.1452  0.0107 -0.2954
  473MPD2    C5 7040   3.456   2.095  13.895  0.0758 -0.6986 -0.3336
  473MPD2     H 7041   3.547   2.354  13.625 -0.3641 -0.7916 -0.5339
  473MPD2    H1 7042   3.604   2.164  14.017  1.3598  1.5935 -0.6734
  473MPD2    H2 7043   3.334   2.006  13.741 -1.3171  1.3718 -0.5281
  473MPD2    H3 7044   3.425   2.019  13.966  2.0012 -1.8212 -0.7105
  473MPD2     N 7045   3.684   2.375  13.861 -0.1095  0.5431  0.2857
  473MPD2    H5 7046   3.730   2.357  13.950  0.7647  1.7427  0.0696
  473MPD2    N1 7047   3.377   2.177  13.546 -0.4024  0.0246  0.4550
  473MPD2    H7 7048   3.410   2.254  13.489 -3.5286  2.0748  1.4113
  474TMC3    C1 7049   3.793   2.585  13.870  0.3849  0.2709  0.3337
  474TMC3    C2 7050   3.745   2.709  13.841  0.4850 -0.4791  0.6212
  474TMC3    C3 7051   3.766   2.804  13.942 -0.6495  0.8884 -0.3158
  474TMC3    C4 7052   3.851   2.543  13.990  0.7915 -0.6701 -0.1988
  474TMC3    C5 7053   3.882   2.641  14.082 -0.2732  0.2216  0.8798
  474TMC3    C6 7054   3.838   2.774  14.054 -0.0541  0.3801 -0.3656
  474TMC3     C 7055   3.735   2.480  13.786 -0.6516 -0.1789 -0.2366
  474TMC3     O 7056   3.719   2.505  13.673  0.0680 -0.3630 -0.0100
  474TMC3     H 7057   3.682   2.731  13.755  2.1703  2.0891  0.0453
  474TMC3    H1 7058   3.886   2.442  14.008  1.9424  0.3418  3.2317
  474TMC3    H2 7059   3.865   2.853  14.123  1.4477  1.6397 -2.3982
  474TMC3    C7 7060   3.966   2.616  14.190 -0.0418  0.2068 -0.0883
  474TMC3    C8 7061   3.739   2.940  13.914 -0.6494  0.7637 -0.2174
  474TMC3    O1 7062   4.035   2.517  14.179  0.0147  0.5857  0.2811
  474TMC3    O2 7063   3.816   3.028  13.948 -0.3151 -0.0345 -0.0351
  475MPD2     C 7064   1.522   0.580  10.701 -0.5138  0.2629  0.1330
  475MPD2    C1 7065   1.551   0.577  10.566 -0.2862 -0.2035 -1.0401
  475MPD2    C2 7066   1.456   0.542  10.470 -0.1047 -0.4013  0.0188
  475MPD2    C3 7067   1.330   0.510  10.514 -0.4668 -0.3363  0.4933
  475MPD2    C4 7068   1.295   0.537  10.648  0.1500  0.1729  0.7199
  475MPD2    C5 7069   1.391   0.570  10.741  0.0138 -0.1299  0.8679
  475MPD2     H 7070   1.475   0.527  10.364  2.6784 -0.4660  0.5170
  475MPD2    H1 7071   1.195   0.524  10.687 -0.2436  4.9742  1.3353
  475MPD2    H2 7072   1.596   0.604  10.777 -0.0276  2.3090 -0.9610
  475MPD2    H3 7073   1.356   0.566  10.844  1.5232 -0.9132  1.3532
  475MPD2     N 7074   1.231   0.491  10.412 -0.3634 -0.0733  0.2791
  475MPD2    H5 7075   1.264   0.494  10.316 -0.8835 -1.9478  0.0547
  475MPD2    N1 7076   1.686   0.575  10.542 -0.3478 -0.0974 -0.2338
  475MPD2    H7 7077   1.748   0.603  10.617  1.0737 -0.2197 -1.3651
  476TMC3    C1 7078   1.889   0.573  10.394  0.1994  0.4587 -0.4493
  476TMC3    C2 7079   1.945   0.534  10.274  0.7786 -0.0138 -0.1364
  476TMC3    C3 7080   2.072   0.554  10.247  0.3958 -0.3875  0.7203
  476TMC3    C4 7081   1.960   0.649  10.484  0.1160 -0.1153  0.3191
  476TMC3    C5 7082   2.090   0.688  10.445 -0.1109  0.2030 -0.2050
  476TMC3    C6 7083   2.142   0.638  10.326 -0.3452  0.1768 -0.6364
  476TMC3     C 7084   1.747   0.535  10.421  0.0474  0.8386  0.5072
  476TMC3     O 7085   1.688   0.478  10.332  0.0879  0.4314  0.4664
  476TMC3     H 7086   1.877   0.489  10.203 -0.4344 -1.4329  1.9495
  476TMC3    H1 7087   1.922   0.663  10.584  0.4650  1.3196  0.2580
  476TMC3    H2 7088   2.236   0.674  10.288 -0.0206  0.6901  0.6445
  476TMC3    C7 7089   2.163   0.787  10.518 -0.5588  0.0047 -0.0869
  476TMC3    C8 7090   2.115   0.573  10.105  0.6211 -0.3456  0.8447
  476TMC3    O1 7091   2.265   0.819  10.456 -0.2460  0.1800 -0.3609
  476TMC3    O2 7092   2.151   0.683  10.069  0.1800  0.1772 -0.4487
  477MPD2     C 7093   4.167   1.910  11.344  0.2989 -0.1421  0.3438
  477MPD2    C1 7094   4.090   1.955  11.443 -0.6718  0.2273 -0.0424
  477MPD2    C2 7095   4.090   1.897  11.569  0.2316 -0.2600  0.2030
  477MPD2    C3 7096   4.158   1.780  11.590 -0.4406  0.2265  0.1985
  477MPD2    C4 7097   4.224   1.726  11.481  0.5787  0.5090  0.3387
  477MPD2    C5 7098   4.225   1.793  11.360 -0.1602  0.7885  0.0696
  477MPD2     H 7099   4.057   1.952  11.656 -0.3771 -0.2544 -0.0341
  477MPD2    H1 7100   4.289   1.640  11.492  0.6032  0.2542 -1.6903
  477MPD2    H2 7101   4.176   1.956  11.247  0.1801 -1.1063 -0.1250
  477MPD2    H3 7102   4.283   1.746  11.281  0.9166 -0.2321  1.4520
  477MPD2     N 7103   4.176   1.734  11.727 -0.2641  0.5168  0.3277
  477MPD2    H5 7104   4.126   1.787  11.797 -1.0244 -1.3854  1.2269
  477MPD2    N1 7105   4.019   2.079  11.425 -0.3269 -0.3741 -0.2207
  477MPD2    H7 7106   4.034   2.125  11.336  0.8682 -1.8102 -0.7658
  478TMC3    C1 7107   3.881   2.258  11.470 -0.4668  0.6861 -0.7461
  478TMC3    C2 7108   3.859   2.342  11.572 -0.7138 -0.0557 -0.2907
  478TMC3    C3 7109   3.814   2.471  11.544 -0.0571 -0.2019  0.5555
  478TMC3    C4 7110   3.844   2.285  11.346  0.2993  0.5716 -0.6428
  478TMC3    C5 7111   3.803   2.413  11.318  0.0381  0.0710  0.6717
  478TMC3    C6 7112   3.800   2.511  11.416  0.1605 -0.4856 -0.4779
  478TMC3     C 7113   3.918   2.125  11.511  0.3050 -0.3547 -0.3826
  478TMC3     O 7114   3.860   2.081  11.610  0.3520 -0.3674 -0.3337
  478TMC3     H 7115   3.883   2.314  11.674  0.0445 -2.2874 -1.0727
  478TMC3    H1 7116   3.858   2.227  11.255 -0.1873  1.3454 -1.2073
  478TMC3    H2 7117   3.786   2.614  11.387  1.8561 -0.4777 -1.2453
  478TMC3    C7 7118   3.767   2.444  11.185  0.3685 -0.7479  0.0922
  478TMC3    C8 7119   3.793   2.564  11.653 -0.7328 -0.2491  0.2806
  478TMC3    O1 7120   3.713   2.363  11.112 -0.0653 -0.2753 -0.2825
  478TMC3    O2 7121   3.851   2.541  11.755  0.0771 -0.2901  0.3011
  479MPD2     C 7122   3.140   4.243  14.616 -0.4847 -0.5124 -0.1498
  479MPD2    C1 7123   3.113   4.168  14.726  0.5217  0.5000 -0.3567
  479MPD2    C2 7124   3.178   4.179  14.846 -0.1952 -0.4346  0.2515
  479MPD2    C3 7125   3.266   4.286  14.856  0.0620  0.3855 -0.0973
  479MPD2    C4 7126   3.301   4.367  14.748 -0.0959 -0.3624  0.5741
  479MPD2    C5 7127   3.237   4.345  14.628  0.0498 -0.1600  0.2284
  479MPD2     H 7128   3.160   4.106  14.924 -1.0673  0.8785  1.2600
  479MPD2    H1 7129   3.362   4.456  14.756 -0.2951  0.0271 -2.1733
  479MPD2    H2 7130   3.095   4.227  14.519 -0.8561  1.0257 -0.2350
  479MPD2    H3 7131   3.253   4.408  14.542  2.4028 -1.4658 -0.2939
  479MPD2     N 7132   3.343   4.314  14.975 -0.2973 -0.1159  0.0858
  479MPD2    H5 7133   3.427   4.368  14.957  0.3657 -1.0142  0.5041
  479MPD2    N1 7134   3.004   4.081  14.714  1.0078 -0.3171  0.1920
  479MPD2    H7 7135   2.975   4.061  14.619  2.6790  0.4223 -0.4675
  480TMC3    C1 7136   3.052   4.146  15.311  0.4132 -0.6335  0.0766
  480TMC3    C2 7137   2.945   4.221  15.271 -0.1383  0.3890  0.0259
  480TMC3    C3 7138   2.959   4.306  15.168  0.0572 -0.0588  0.1676
  480TMC3    C4 7139   3.177   4.163  15.259  0.2602 -0.1228  0.2987
  480TMC3    C5 7140   3.186   4.245  15.155  0.1893 -0.4483  0.1354
  480TMC3    C6 7141   3.083   4.326  15.113  0.7811 -0.6220  0.6186
  480TMC3     C 7142   3.040   4.061  15.429 -0.9068 -0.1360 -0.6212
  480TMC3     O 7143   3.141   4.001  15.453 -0.3048  0.1885 -0.5374
  480TMC3     H 7144   2.847   4.201  15.312  0.0304 -0.4462  0.0265
  480TMC3    H1 7145   3.262   4.098  15.278  1.1537  0.8270 -0.4681
  480TMC3    H2 7146   3.103   4.404  15.041 -0.2031 -2.0330 -1.1876
  480TMC3    C7 7147   3.328   4.260  15.098  0.1890 -0.2217  0.0452
  480TMC3    C8 7148   2.845   4.356  15.107 -0.3397  0.1638 -0.0945
  480TMC3    O1 7149   3.419   4.244  15.177  0.2183  0.7149 -1.0428
  480TMC3    O2 7150   2.736   4.347  15.161  0.1226  0.2464 -0.2700
  481MPD2     C 7151   0.098   3.906  14.211 -0.3281 -0.4473  0.5312
  481MPD2    C1 7152   4.706   3.842  14.230  0.2755  0.7082 -1.1888
  481MPD2    C2 7153   4.650   3.805  14.355 -0.7004  0.0454 -0.2779
  481MPD2    C3 7154   0.001   3.842  14.466  0.9076  0.3082 -0.2584
  481MPD2    C4 7155   0.127   3.897  14.447 -0.0670  0.3147 -0.4890
  481MPD2    C5 7156   0.173   3.926  14.322 -0.0440  0.4388  0.2891
  481MPD2     H 7157   4.551   3.762  14.364 -1.7265  2.2038 -1.0664
  481MPD2    H1 7158   0.193   3.916  14.532  2.4403 -3.9988 -1.4972
  481MPD2    H2 7159   0.137   3.925  14.112  1.9144 -0.5224  1.4058
  481MPD2    H3 7160   0.277   3.957  14.311  0.0367 -0.1370 -0.6100
  481MPD2     N 7161   4.684   3.821  14.596  0.3398  0.6894 -0.5420
  481MPD2    H5 7162   0.018   3.851  14.671  0.8892 -2.5075  0.3008
  481MPD2    N1 7163   4.641   3.813  14.108  0.2051 -0.4606  0.0542
  481MPD2    H7 7164   4.689   3.858  14.031  1.7836 -2.9373 -0.4016
  482TMC3    C1 7165   4.460   3.756  13.967 -0.3472 -0.2373  0.1094
  482TMC3    C2 7166   4.362   3.666  13.937  0.0839 -0.0649  0.1998
  482TMC3    C3 7167   4.274   3.690  13.835 -0.2804  0.0877  0.6312
  482TMC3    C4 7168   4.478   3.869  13.890  0.4973 -0.0314 -0.3599
  482TMC3    C5 7169   4.388   3.889  13.782  0.7152  0.1276 -0.3898
  482TMC3    C6 7170   4.280   3.806  13.764  0.1501 -0.5609 -0.2388
  482TMC3     C 7171   4.519   3.744  14.096  0.3511  0.3199 -0.6108
  482TMC3     O 7172   4.478   3.655  14.169  0.2732 -0.1262 -0.2261
  482TMC3     H 7173   4.358   3.573  13.991 -1.8691  0.0302  0.2238
  482TMC3    H1 7174   4.558   3.939  13.910  0.7729 -0.1878 -0.9054
  482TMC3    H2 7175   4.203   3.830  13.691 -0.5813  0.5873  0.9124
  482TMC3    C7 7176   4.422   3.984  13.677 -0.0401 -0.1079  0.7648
  482TMC3    C8 7177   4.177   3.577  13.805  0.0287  0.0011  0.3427
  482TMC3    O1 7178   4.488   4.081  13.711  0.0472 -0.0411  0.2322
  482TMC3    O2 7179   4.192   3.468  13.865 -0.0425 -0.4741  0.0190
  483TMC3    C1 7180   2.790   2.537   0.769 -0.4517 -0.7361 -1.0132
  483TMC3    C2 7181   2.801   2.677   0.758  0.3206  0.8261 -0.5284
  483TMC3    C3 7182   2.918   2.737   0.778  0.1769 -0.1381 -0.5193
  483TMC3    C4 7183   2.898   2.457   0.795  0.5822  0.1469 -0.4449
  483TMC3    C5 7184   3.015   2.521   0.820  0.6706  0.6084 -0.1483
  483TMC3    C6 7185   3.029   2.663   0.812 -0.1458  0.6601 -0.1557
  483TMC3     C 7186   2.669   2.492   0.699 -0.1582 -0.1243 -0.1942
  483TMC3     O 7187   2.572   2.566   0.688 -0.6237  0.5456  0.0916
  483TMC3     H 7188   2.716   2.735   0.724 -1.2667 -0.6352  0.9479
  483TMC3    H1 7189   2.880   2.359   0.838 -0.9648 -0.0282 -1.4726
  483TMC3    H2 7190   3.125   2.709   0.833  0.8824 -1.7655  0.4822
  483TMC3    C7 7191   3.130   2.446   0.865  0.3610  0.8588  0.5126
  483TMC3    C8 7192   2.941   2.865   0.710  0.2176  0.5109 -0.0480
  483TMC3    O1 7193   3.203   2.504   0.944 -0.0800  0.3209  0.8178
  483TMC3    O2 7194   2.856   2.898   0.626  0.3301  0.1310 -0.5464
  484MPD2     C 7195   0.391   1.007  12.297 -0.3562  0.3912 -0.4354
  484MPD2    C1 7196   0.422   0.920  12.403  0.6020 -0.3017 -0.9204
  484MPD2    C2 7197   0.553   0.897  12.433  0.0675  0.2329  0.5043
  484MPD2    C3 7198   0.650   0.965  12.354  0.3382  0.1424 -0.3463
  484MPD2    C4 7199   0.621   1.040  12.242  0.5236  0.8339  0.5121
  484MPD2    C5 7200   0.491   1.050  12.209  0.7833  0.1022 -0.2437
  484MPD2     H 7201   0.583   0.832  12.514 -1.9349 -1.2581  0.0558
  484MPD2    H1 7202   0.705   1.089  12.195  0.9637  0.0269  0.4641
  484MPD2    H2 7203   0.290   1.039  12.275 -0.0687  1.5345 -0.0547
  484MPD2    H3 7204   0.457   1.103  12.121  0.0895  2.4594  1.4680
  484MPD2     N 7205   0.789   0.958  12.380  0.2677 -0.4501 -0.2563
  484MPD2    H5 7206   0.849   0.997  12.308 -1.2966  1.3717 -0.5363
  484MPD2    N1 7207   0.307   0.881  12.479  0.1614 -0.5177 -0.2384
  484MPD2    H7 7208   0.212   0.895  12.447 -0.0565  0.9943  1.0601
  485TMC3    C1 7209   0.987   0.848  12.457  0.3001 -0.5925 -0.7487
  485TMC3    C2 7210   1.045   0.751  12.534  0.4723  0.4007 -0.4359
  485TMC3    C3 7211   1.171   0.710  12.506 -0.4287 -0.6289  0.0270
  485TMC3    C4 7212   1.061   0.903  12.351 -0.3317  0.4553  0.1316
  485TMC3    C5 7213   1.189   0.858  12.331  0.4662 -0.1984 -0.2531
  485TMC3    C6 7214   1.247   0.769  12.413  0.5876 -0.9834  0.2447
  485TMC3     C 7215   0.847   0.885  12.480 -0.3386  0.9186 -0.1041
  485TMC3     O 7216   0.797   0.824  12.572  0.7054 -0.0679  0.3596
  485TMC3     H 7217   0.990   0.689  12.604 -1.9214  0.6122 -2.1203
  485TMC3    H1 7218   1.011   0.972  12.285 -0.2870 -0.1526 -0.5433
  485TMC3    H2 7219   1.354   0.752  12.407  0.6023 -0.2789 -1.5020
  485TMC3    C7 7220   1.210   0.830  12.189 -0.3859 -0.8428 -0.1761
  485TMC3    C8 7221   1.195   0.567  12.503  0.0587 -0.6393 -0.3449
  485TMC3    O1 7222   1.206   0.918  12.101  0.2290 -0.2464 -0.7251
  485TMC3    O2 7223   1.236   0.534  12.393  0.1012 -0.4000 -0.7725
  486MPD2     C 7224   2.766   4.298  12.685 -0.4806  0.3999 -0.2058
  486MPD2    C1 7225   2.641   4.274  12.637 -0.8956 -1.2186  0.7136
  486MPD2    C2 7226   2.558   4.380  12.596 -0.1830  0.0935 -0.1268
  486MPD2    C3 7227   2.611   4.507  12.597 -0.7514  0.3672 -0.8234
  486MPD2    C4 7228   2.742   4.529  12.621 -0.2348  0.5166  0.5062
  486MPD2    C5 7229   2.819   4.426  12.679  0.0816 -0.6392 -0.0457
  486MPD2     H 7230   2.460   4.367  12.552  0.3859  0.4814 -1.5317
  486MPD2    H1 7231   2.798   4.621  12.609  0.6639  0.1517  1.9089
  486MPD2    H2 7232   2.828   4.223  12.732  0.5509  1.0270 -0.5553
  486MPD2    H3 7233   2.918   4.451  12.715 -0.0951 -0.8755  0.6067
  486MPD2     N 7234   2.521   4.606  12.560 -0.1629  0.3904 -0.8738
  486MPD2    H5 7235   2.429   4.573  12.533 -0.2252  0.9853 -1.3812
  486MPD2    N1 7236   2.614   4.134  12.614 -0.2009 -0.4824  0.9944
  486MPD2    H7 7237   2.683   4.068  12.648 -1.3269 -1.2405  1.7791
  487TMC3    C1 7238   2.496   3.944  12.537  0.0523 -0.1165  0.5679
  487TMC3    C2 7239   2.393   3.900  12.459 -0.1184  0.2418  0.3031
  487TMC3    C3 7240   2.370   3.763  12.474  0.3150 -0.1921 -0.4932
  487TMC3    C4 7241   2.580   3.863  12.603  0.5292  0.0668  0.9775
  487TMC3    C5 7242   2.558   3.727  12.614 -0.3035  0.5733 -0.1022
  487TMC3    C6 7243   2.460   3.680  12.533  0.2852 -0.6000  0.0031
  487TMC3     C 7244   2.497   4.091  12.557 -0.0184 -0.0513  0.7347
  487TMC3     O 7245   2.412   4.152  12.500  0.5963  0.5577 -0.1697
  487TMC3     H 7246   2.312   3.958  12.416 -0.6558 -2.7628 -2.7022
  487TMC3    H1 7247   2.653   3.905  12.671  0.2842 -1.9531  2.4757
  487TMC3    H2 7248   2.429   3.576  12.522 -0.5533 -0.4067  0.5826
  487TMC3    C7 7249   2.576   3.666  12.745  0.5038  0.8521  0.1303
  487TMC3    C8 7250   2.245   3.746  12.543  0.2201 -0.6090  0.0473
  487TMC3    O1 7251   2.594   3.749  12.833 -0.2780 -0.6508  0.5492
  487TMC3    O2 7252   2.199   3.844  12.603 -0.3477  0.0564 -0.0245
  488MPD2     C 7253   2.921   0.869  15.996  0.1918 -0.0337 -0.9175
  488MPD2    C1 7254   2.875   0.995  16.026 -0.2283  0.3343  0.2752
  488MPD2    C2 7255   2.805   1.005  16.145 -0.2000  0.6368 -0.6424
  488MPD2    C3 7256   2.786   0.894  16.227 -0.2734 -0.0016 -1.0021
  488MPD2    C4 7257   2.822   0.769  16.184  0.6071 -0.5935  0.2189
  488MPD2    C5 7258   2.894   0.757  16.071  0.6876  0.5430 -0.0541
  488MPD2     H 7259   2.775   1.100  16.187  1.4079  0.2972  1.2474
  488MPD2    H1 7260   2.816   0.685  16.252 -4.8007 -1.6854 -1.6596
  488MPD2    H2 7261   2.981   0.849  15.907  0.4983 -0.6566 -0.5710
  488MPD2    H3 7262   2.926   0.658  16.039  0.4255  0.4992 -0.1796
  488MPD2     N 7263   2.744   0.916  16.359 -0.4383 -0.3995  0.3987
  488MPD2    H5 7264   2.735   1.014  16.383 -3.0049  0.1404 -2.7677
  488MPD2    N1 7265   2.900   1.110  15.945 -0.1631 -0.7973  0.2870
  488MPD2    H7 7266   2.859   1.193  15.987 -1.1974 -1.5144  0.6814
  489TMC3    C1 7267   2.668   0.872  16.576 -0.3894 -0.6140  0.1918
  489TMC3    C2 7268   2.696   1.000  16.610 -0.7399 -0.0750  0.1780
  489TMC3    C3 7269   2.713   1.028  16.742  0.7219  0.7926 -0.4386
  489TMC3    C4 7270   2.643   0.771  16.668  0.2826  0.2342 -0.2566
  489TMC3    C5 7271   2.665   0.809  16.795  0.5653 -0.1158 -0.8671
  489TMC3    C6 7272   2.699   0.930  16.835 -0.4866  0.0056  0.1985
  489TMC3     C 7273   2.701   0.821  16.447 -0.5303  0.0795  0.6922
  489TMC3     O 7274   2.684   0.700  16.428  0.0431  0.2078  0.6099
  489TMC3     H 7275   2.699   1.077  16.534 -2.8049 -1.4108 -1.2614
  489TMC3    H1 7276   2.623   0.669  16.636  2.6538  0.1464 -1.4553
  489TMC3    H2 7277   2.696   0.957  16.940  0.5046 -2.1701  0.7881
  489TMC3    C7 7278   2.648   0.715  16.913  0.7240 -0.0491 -0.5341
  489TMC3    C8 7279   2.775   1.156  16.774  0.5279  0.0533 -0.0459
  489TMC3    O1 7280   2.701   0.733  17.022  0.1271  0.3306  0.1040
  489TMC3    O2 7281   2.844   1.201  16.687  0.0551 -0.1395  0.5092
  490MPD2     C 7282   3.464   1.140  17.367  0.1800 -0.2405  0.6991
  490MPD2    C1 7283   3.593   1.093  17.372  0.5721  0.1917 -0.2339
  490MPD2    C2 7284   3.692   1.167  17.425  1.0918 -0.2578  0.2124
  490MPD2    C3 7285   3.676   1.282  17.490  0.1894 -0.0921 -0.4537
  490MPD2    C4 7286   3.543   1.327  17.507 -0.3169 -0.1766  0.8146
  490MPD2    C5 7287   3.440   1.258  17.442 -0.1982  0.7200 -0.0269
  490MPD2     H 7288   3.793   1.127  17.424  1.3582  0.4041  1.2487
  490MPD2    H1 7289   3.518   1.420  17.558  1.4864 -0.1634  1.6809
  490MPD2    H2 7290   3.385   1.089  17.312  0.3185  0.1324  0.1551
  490MPD2    H3 7291   3.339   1.297  17.437 -0.7549 -0.9066 -1.7497
  490MPD2     N 7292   3.785   1.340  17.544 -0.3889 -0.3989 -0.3454
  490MPD2    H5 7293   3.875   1.301  17.518 -0.3864 -0.3966 -0.3400
  490MPD2    N1 7294   3.635   0.975  17.307 -0.5312  0.3514  0.1571
  490MPD2    H7 7295   3.733   0.954  17.320 -0.1466  2.5995  1.0255
  491TMC3    C1 7296   3.634   0.761  17.218  0.0760 -0.0188 -0.2444
  491TMC3    C2 7297   3.707   0.713  17.322  0.5426 -0.0706 -0.6832
  491TMC3    C3 7298   3.756   0.584  17.316 -0.1829  1.0898  0.6094
  491TMC3    C4 7299   3.599   0.679  17.116  0.4834 -0.3653  0.8592
  491TMC3    C5 7300   3.666   0.561  17.106 -0.1755 -0.3659  0.1804
  491TMC3    C6 7301   3.728   0.507  17.206  0.6286 -0.3508  0.7301
  491TMC3     C 7302   3.551   0.883  17.247  0.2537 -0.4884  0.1783
  491TMC3     O 7303   3.431   0.878  17.211 -0.2555  0.0830 -0.3500
  491TMC3     H 7304   3.722   0.776  17.409 -2.8580  1.0289 -0.8997
  491TMC3    H1 7305   3.544   0.723  17.034  1.6816  0.9267  0.7541
  491TMC3    H2 7306   3.744   0.400  17.200 -2.3679 -0.7360 -0.6005
  491TMC3    C7 7307   3.609   0.459  17.015  0.3298 -0.5084 -0.2458
  491TMC3    C8 7308   3.774   0.524  17.448 -0.0601 -1.0260  0.1930
  491TMC3    O1 7309   3.499   0.475  16.967 -0.1849 -0.5004  0.2544
  491TMC3    O2 7310   3.753   0.594  17.549 -0.2303  0.1880  0.7669
  492MPD2     C 7311   3.830   1.143  11.327  0.5840 -0.5889 -0.1534
  492MPD2    C1 7312   3.742   1.088  11.236  0.3008  0.0313  0.0240
  492MPD2    C2 7313   3.642   1.007  11.289 -0.1447  0.1914  0.0179
  492MPD2    C3 7314   3.623   0.985  11.428  0.0406  0.4667  0.1713
  492MPD2    C4 7315   3.707   1.047  11.511 -0.1483 -0.4438 -0.2979
  492MPD2    C5 7316   3.810   1.120  11.460 -0.7831  0.1001 -0.3055
  492MPD2     H 7317   3.568   0.968  11.220  0.5965 -2.0754  0.4926
  492MPD2    H1 7318   3.710   1.037  11.619 -0.5034  0.2734 -0.2191
  492MPD2    H2 7319   3.918   1.192  11.288  1.6122 -2.5513 -0.2583
  492MPD2    H3 7320   3.886   1.157  11.528 -0.9429 -0.7054  0.3155
  492MPD2     N 7321   3.522   0.909  11.489 -0.3063 -0.3324  0.1381
  492MPD2    H5 7322   3.524   0.909  11.590  2.6983  1.6317  0.0928
  492MPD2    N1 7323   3.773   1.101  11.104 -0.2437  0.3484  0.3918
  492MPD2    H7 7324   3.843   1.170  11.078 -0.0046  0.7653  2.0865
  493TMC3    C1 7325   3.769   1.079  10.868 -0.4087 -0.2086  0.3692
  493TMC3    C2 7326   3.730   1.199  10.824 -0.0465 -0.3215  0.0594
  493TMC3    C3 7327   3.716   1.218  10.685  0.2940 -0.3763  0.4595
  493TMC3    C4 7328   3.782   0.973  10.786 -0.0862 -0.3268 -0.4585
  493TMC3    C5 7329   3.771   0.989  10.650 -0.2790 -0.0114 -0.0014
  493TMC3    C6 7330   3.747   1.119  10.601 -0.1626  0.3051  0.2647
  493TMC3     C 7331   3.713   1.039  11.002 -0.2900  0.4902 -0.3515
  493TMC3     O 7332   3.682   0.921  11.010  0.4301  0.7623 -0.1038
  493TMC3     H 7333   3.716   1.287  10.886  3.3359 -0.2307  0.6830
  493TMC3    H1 7334   3.814   0.879  10.830  2.0126 -0.0626 -1.4464
  493TMC3    H2 7335   3.724   1.134  10.496 -0.0758  1.6981  0.4485
  493TMC3    C7 7336   3.686   0.887  10.588 -0.4670 -0.2071  0.0147
  493TMC3    C8 7337   3.612   1.300  10.635  0.2471 -0.4178  0.2639
  493TMC3    O1 7338   3.596   0.923  10.513  0.1409  0.1732  0.1354
  493TMC3    O2 7339   3.498   1.271  10.663  0.3340 -0.3498  0.2842
  494TMC3    C1 7340   0.408   2.269   0.630  0.8211  0.5273 -0.0958
  494TMC3    C2 7341   0.455   2.141   0.610  0.4353  0.4189 -0.7524
  494TMC3    C3 7342   0.473   2.081   0.490  0.3862 -0.8488 -0.5388
  494TMC3    C4 7343   0.376   2.343   0.514  0.2426  0.7359  0.1855
  494TMC3    C5 7344   0.408   2.279   0.396  0.2829 -0.5099 -0.1622
  494TMC3    C6 7345   0.458   2.154   0.378  0.0101  0.0688 -0.2519
  494TMC3     C 7346   0.373   2.321   0.761 -0.5283  0.7338 -0.0632
  494TMC3     O 7347   0.356   2.240   0.852 -0.2749 -0.4526 -0.4895
  494TMC3     H 7348   0.483   2.081   0.696 -2.9000  2.4163  1.7368
  494TMC3    H1 7349   0.327   2.439   0.525 -1.5619 -0.0489 -1.0006
  494TMC3    H2 7350   0.468   2.103   0.283 -0.0128 -0.7302  0.1767
  494TMC3    C7 7351   0.389   2.351   0.276 -0.9645 -0.4049  0.0708
  494TMC3    C8 7352   0.529   1.946   0.492  0.3538 -0.2789 -0.2847
  494TMC3    O1 7353   0.411   2.285   0.176 -0.3575 -0.2755  0.3218
  494TMC3    O2 7354   0.528   1.881   0.595 -0.2237  0.2007  0.6822
  495TMC3    C1 7355   3.073   4.511  14.182 -0.1234  0.0768 -0.1332
  495TMC3    C2 7356   2.973   4.538  14.100 -1.0575  0.2002 -0.3175
  495TMC3    C3 7357   2.852   4.584  14.136 -0.5175 -0.2641 -0.1103
  495TMC3    C4 7358   3.058   4.546  14.312 -0.7392  0.3373  0.9734
  495TMC3    C5 7359   2.929   4.577  14.354  0.3170 -0.2258 -0.0039
  495TMC3    C6 7360   2.823   4.594  14.271 -0.7619 -0.1602 -1.0156
  495TMC3     C 7361   3.099   4.370  14.177  0.2035  0.1236 -0.3571
  495TMC3     O 7362   3.005   4.297  14.143 -0.2566  0.5542  0.2583
  495TMC3     H 7363   2.986   4.482  14.008 -2.5138  0.2101 -0.5342
  495TMC3    H1 7364   3.135   4.524  14.385 -1.4675 -0.1440  1.5995
  495TMC3    H2 7365   2.722   4.619  14.301 -0.9453 -1.0132 -0.9401
  495TMC3    C7 7366   2.913   4.557  14.497  0.0419  0.1493  0.6335
  495TMC3    C8 7367   2.746   4.585  14.036  0.5473 -0.2758  0.0075
  495TMC3    O1 7368   3.012   4.557  14.574 -0.5088 -0.3271 -0.6778
  495TMC3    O2 7369   2.634   4.568  14.082  0.2995  0.3962  0.1149
  496MPD2     C 7370   0.758   4.200  15.281 -0.4708 -0.1215  0.3630
  496MPD2    C1 7371   0.634   4.176  15.232  0.9369  0.6648  0.4942
  496MPD2    C2 7372   0.525   4.174  15.326 -0.5692 -0.3673 -0.2738
  496MPD2    C3 7373   0.557   4.201  15.458 -0.8912 -0.2156 -0.0162
  496MPD2    C4 7374   0.684   4.220  15.508  0.4352  0.2889 -0.2332
  496MPD2    C5 7375   0.780   4.226  15.414  0.0773 -0.0773  0.4241
  496MPD2     H 7376   0.423   4.159  15.294 -0.5496  0.9612 -0.9432
  496MPD2    H1 7377   0.707   4.222  15.614 -0.4821 -0.6896 -0.0128
  496MPD2    H2 7378   0.837   4.199  15.207 -1.7630  0.4877 -1.0154
  496MPD2    H3 7379   0.875   4.248  15.462  1.2350 -0.4891 -1.6485
  496MPD2     N 7380   0.444   4.188  15.543  0.5548 -0.0125  0.1546
  496MPD2    H5 7381   0.354   4.193  15.495  0.7644 -1.6746 -0.4297
  496MPD2    N1 7382   0.626   4.148  15.098 -0.2858  0.1941 -0.2723
  496MPD2    H7 7383   0.708   4.165  15.041  1.5481 -0.5478  2.1505
  497TMC3    C1 7384   0.318   4.122  15.727  0.2559 -0.6364 -0.2602
  497TMC3    C2 7385   0.213   4.105  15.641 -0.0964  0.1506 -0.9972
  497TMC3    C3 7386   0.101   4.054  15.702  0.0613  0.9425  0.2491
  497TMC3    C4 7387   0.318   4.104  15.867  0.2360  0.1378 -0.6233
  497TMC3    C5 7388   0.194   4.070  15.919  0.0037  0.3861 -0.5499
  497TMC3    C6 7389   0.093   4.039  15.834 -0.0134 -0.9117 -0.1774
  497TMC3     C 7390   0.450   4.165  15.679 -0.4556  0.5323  0.6001
  497TMC3     O 7391   0.549   4.168  15.752 -0.3844  0.5556 -0.4235
  497TMC3     H 7392   0.215   4.097  15.533  2.4844 -0.0668 -0.9370
  497TMC3    H1 7393   0.403   4.126  15.930 -0.0996  1.1614 -0.5363
  497TMC3    H2 7394   0.008   3.998  15.887 -2.1535  2.1096 -1.2506
  497TMC3    C7 7395   0.194   4.022  16.055  0.4443 -0.3902 -0.5193
  497TMC3    C8 7396   4.718   4.025  15.614  0.8355 -0.6468  0.0857
  497TMC3    O1 7397   0.119   3.931  16.082  0.0474  0.1855 -0.4608
  497TMC3    O2 7398   4.721   4.057  15.497  0.7177 -0.0383 -0.2804
  498MPD2     C 7399   1.603   0.094   9.360 -0.9812  0.3030 -0.3028
  498MPD2    C1 7400   1.629   0.105   9.498  0.7348  0.1410 -0.2473
  498MPD2    C2 7401   1.589   0.020   9.587 -0.5352 -0.2395  0.4120
  498MPD2    C3 7402   1.520   4.632   9.549 -0.0410 -0.2868 -0.7971
  498MPD2    C4 7403   1.491   4.617   9.416 -0.3904 -0.1700 -0.3929
  498MPD2    C5 7404   1.538   4.706   9.329 -0.0629 -0.0948  0.4283
  498MPD2     H 7405   1.596   0.040   9.694 -2.3753 -2.2355  0.9006
  498MPD2    H1 7406   1.434   4.536   9.371 -0.0203  0.9754 -2.9546
  498MPD2    H2 7407   1.642   0.157   9.280 -0.4169  1.3011  0.7541
  498MPD2    H3 7408   1.515   4.685   9.225 -1.1202 -0.3081  0.7060
  498MPD2     N 7409   1.462   4.545   9.649  0.0723  0.7368 -0.4153
  498MPD2    H5 7410   1.474   4.583   9.742 -2.2868 -0.6104  0.4298
  498MPD2    N1 7411   1.715   0.213   9.550  0.0465  0.7378  0.4038
  498MPD2    H7 7412   1.735   0.226   9.649  1.9877  3.4209 -0.3231
  499TMC3    C1 7413   1.800   0.429   9.548  0.1373 -0.6493 -0.0230
  499TMC3    C2 7414   1.741   0.458   9.668  0.2356  0.1850 -0.2209
  499TMC3    C3 7415   1.769   0.580   9.724  0.1509 -0.3265 -0.4952
  499TMC3    C4 7416   1.859   0.527   9.475 -0.3231  0.0293  0.1085
  499TMC3    C5 7417   1.880   0.650   9.531  0.4048 -0.2874  0.1863
  499TMC3    C6 7418   1.848   0.679   9.659  0.0345 -0.1874  0.0155
  499TMC3     C 7419   1.764   0.313   9.471  0.0711 -0.4635 -0.3712
  499TMC3     O 7420   1.771   0.315   9.349  0.3272  0.2173  0.8515
  499TMC3     H 7421   1.679   0.387   9.722  0.9423 -1.0012 -0.9559
  499TMC3    H1 7422   1.903   0.503   9.378  0.3825  0.8265  0.2329
  499TMC3    H2 7423   1.850   0.784   9.686 -3.6257 -0.3347  0.8221
  499TMC3    C7 7424   1.890   0.764   9.446 -0.0529  0.1558 -0.1450
  499TMC3    C8 7425   1.729   0.602   9.861  0.2824  0.1135  0.4370
  499TMC3    O1 7426   1.911   0.874   9.500  0.5321 -0.5178 -0.4836
  499TMC3    O2 7427   1.650   0.519   9.910 -0.2585  0.4300  0.0418
  500MPD2     C 7428   2.676   1.755  10.768  0.3155  0.2206 -0.2105
  500MPD2    C1 7429   2.745   1.816  10.665  0.6339  0.5908  0.4601
  500MPD2    C2 7430   2.687   1.817  10.531 -0.0724  0.6847 -0.8849
  500MPD2    C3 7431   2.571   1.740  10.509  0.2390 -0.6109 -0.7332
  500MPD2    C4 7432   2.503   1.682  10.621 -0.6906  0.2858 -0.1898
  500MPD2    C5 7433   2.563   1.680  10.740  0.3469 -0.9217  0.6098
  500MPD2     H 7434   2.735   1.872  10.452 -0.5674  0.2519 -1.4857
  500MPD2    H1 7435   2.406   1.636  10.611 -1.4771  1.5184  1.5833
  500MPD2    H2 7436   2.714   1.762  10.869 -0.0940  0.5455 -0.0790
  500MPD2    H3 7437   2.508   1.640  10.824 -3.6755 -0.1692 -1.6927
  500MPD2     N 7438   2.501   1.719  10.386  0.0314  0.3905 -0.8667
  500MPD2    H5 7439   2.408   1.678  10.393 -1.1092  3.1492  0.3308
  500MPD2    N1 7440   2.866   1.888  10.686  0.0967 -0.3883 -0.1436
  500MPD2    H7 7441   2.913   1.920  10.602 -0.1355 -1.7381 -0.7803
  501TMC3    C1 7442   3.052   1.989  10.791  0.0814 -0.0125  0.5276
  501TMC3    C2 7443   3.062   2.100  10.707 -0.4310  0.2798 -0.6777
  501TMC3    C3 7444   3.168   2.174  10.704 -0.2277 -0.0882  0.3165
  501TMC3    C4 7445   3.148   1.971  10.887  0.0134 -0.0835  0.1589
  501TMC3    C5 7446   3.247   2.063  10.894 -0.7830 -0.6401 -0.0524
  501TMC3    C6 7447   3.262   2.164  10.801 -0.0610 -0.1182 -0.2537
  501TMC3     C 7448   2.932   1.904  10.804  0.1068  0.7846  0.6862
  501TMC3     O 7449   2.906   1.853  10.910  0.3763  0.2652  0.2694
  501TMC3     H 7450   2.981   2.127  10.640 -0.3362  0.1452 -0.8470
  501TMC3    H1 7451   3.145   1.881  10.947 -1.9215 -0.6983 -0.8704
  501TMC3    H2 7452   3.351   2.226  10.793 -0.5307  0.2244 -2.6177
  501TMC3    C7 7453   3.334   2.055  10.997 -0.8065  0.2528  0.3119
  501TMC3    C8 7454   3.160   2.301  10.622  0.2394  0.2296 -0.1097
  501TMC3    O1 7455   3.446   2.094  10.973 -0.2643  0.0254 -0.0431
  501TMC3    O2 7456   3.247   2.385  10.647  0.1259 -0.0832 -0.4957
  502TMC3    C1 7457   2.709   0.357  14.843 -0.0328 -0.4619 -0.3958
  502TMC3    C2 7458   2.693   0.461  14.759  0.3230 -0.5542  0.1540
  502TMC3    C3 7459   2.560   0.481  14.721 -0.0583  0.4410  0.1608
  502TMC3    C4 7460   2.615   0.282  14.895 -0.7489 -0.0335 -0.1426
  502TMC3    C5 7461   2.489   0.312  14.861  0.1459  0.2588 -0.8919
  502TMC3    C6 7462   2.455   0.411  14.771  0.2332 -0.2465  0.2177
  502TMC3     C 7463   2.823   0.385  14.936 -0.0543 -0.5199  0.0842
  502TMC3     O 7464   2.923   0.442  14.891 -0.4884  0.4635 -0.3808
  502TMC3     H 7465   2.774   0.526  14.729  1.2386 -2.2728 -1.1089
  502TMC3    H1 7466   2.637   0.190  14.948 -0.5515  0.6888  1.0357
  502TMC3    H2 7467   2.357   0.457  14.763  1.2658  1.4555 -2.7946
  502TMC3    C7 7468   2.407   0.297  14.974 -0.8458  0.9775 -0.3423
  502TMC3    C8 7469   2.543   0.575  14.614 -0.3674 -0.7245  0.6232
  502TMC3    O1 7470   2.457   0.245  15.078 -0.8497  0.4227 -0.5802
  502TMC3    O2 7471   2.618   0.673  14.618 -0.3548  0.2273 -0.2460
  503MPD2     C 7472   4.663   1.190  16.839  0.2532 -0.2973 -0.4160
  503MPD2    C1 7473   4.712   1.207  16.967  0.4864 -0.3920 -0.7497
  503MPD2    C2 7474   0.013   1.095  17.051 -0.4181  0.2543  0.2768
  503MPD2    C3 7475   0.006   0.971  17.000  0.0680 -0.0414 -0.0274
  503MPD2    C4 7476   4.697   0.957  16.866 -0.6477 -0.4249  0.2263
  503MPD2    C5 7477   4.653   1.060  16.796 -1.0222 -0.1717  0.6409
  503MPD2     H 7478   0.036   1.115  17.155  3.3204 -1.3415 -0.2205
  503MPD2    H1 7479   4.689   0.860  16.818 -0.3792  1.0830 -2.8303
  503MPD2    H2 7480   4.639   1.262  16.762  0.8038  0.0192 -0.2918
  503MPD2    H3 7481   4.618   1.032  16.697 -2.0438 -0.2815  1.0356
  503MPD2     N 7482   0.053   0.863  17.081 -0.1542 -0.7955  0.1444
  503MPD2    H5 7483   0.062   0.879  17.181  1.0784  1.0752 -0.2536
  503MPD2    N1 7484   0.010   1.334  17.023 -0.3397 -0.1754 -0.0383
  503MPD2    H7 7485   0.013   1.337  17.124 -0.5749 -0.8638 -0.0050
  504TMC3    C1 7486   0.166   0.646  17.108  0.1430  0.0454  1.1234
  504TMC3    C2 7487   0.133   0.657  17.246 -0.0990  0.7637  0.6666
  504TMC3    C3 7488   0.220   0.595  17.335  0.2698 -0.3378 -0.0318
  504TMC3    C4 7489   0.274   0.586  17.053  0.8392  0.0968 -0.1610
  504TMC3    C5 7490   0.351   0.521  17.143  0.7959 -0.2764 -0.1744
  504TMC3    C6 7491   0.332   0.527  17.281  0.4646 -0.1025  0.1959
  504TMC3     C 7492   0.110   0.750  17.022  0.0910 -0.7948  0.1801
  504TMC3     O 7493   0.108   0.722  16.906 -0.1805  0.2352 -0.4432
  504TMC3     H 7494   0.048   0.713  17.285  1.6209  3.8113  0.0384
  504TMC3    H1 7495   0.281   0.564  16.948 -1.2449 -1.2752 -0.0095
  504TMC3    H2 7496   0.405   0.482  17.347  1.8770 -1.4240 -2.2629
  504TMC3    C7 7497   0.453   0.429  17.096 -0.4167 -0.5310 -0.5722
  504TMC3    C8 7498   0.201   0.619  17.473 -0.0873 -0.2847  0.3827
  504TMC3    O1 7499   0.505   0.453  16.988  0.0683 -0.1417  0.4823
  504TMC3    O2 7500   0.114   0.700  17.501 -0.1121  0.3106  0.4372
  505MPD2     C 7501   0.102   4.363  10.627 -0.3022  0.5254 -0.0085
  505MPD2    C1 7502   0.229   4.333  10.582 -0.1834  0.0207  0.1674
  505MPD2    C2 7503   0.330   4.432  10.596 -0.0724  0.2947  0.6269
  505MPD2    C3 7504   0.299   4.564  10.641  0.0777 -0.6559  0.3456
  505MPD2    C4 7505   0.168   4.583  10.675 -0.7677  0.0560 -0.0837
  505MPD2    C5 7506   0.072   4.487  10.673  0.3815  0.5865 -0.4340
  505MPD2     H 7507   0.433   4.407  10.574 -0.1771  0.5393 -0.1333
  505MPD2    H1 7508   0.139   4.679  10.717  1.5112  0.4331  0.6291
  505MPD2    H2 7509   0.027   4.286  10.638  0.6510 -0.1623  1.5211
  505MPD2    H3 7510   4.711   4.501  10.732 -1.2474  0.0023 -2.7550
  505MPD2     N 7511   0.399   4.663  10.664  0.3720  0.4644 -0.5691
  505MPD2    H5 7512   0.379   0.002  10.737 -0.5086 -1.3929  0.9387
  505MPD2    N1 7513   0.257   4.209  10.525 -0.1372  0.6156 -0.3750
  505MPD2    H7 7514   0.199   4.129  10.549  0.0377  0.1759 -1.3802
  506TMC3    C1 7515   0.411   4.046  10.459  0.0264 -0.0760  0.7393
  506TMC3    C2 7516   0.510   3.993  10.376 -0.3964  0.8027  0.6104
  506TMC3    C3 7517   0.597   3.901  10.424  0.0562 -0.1444 -0.3769
  506TMC3    C4 7518   0.391   3.987  10.583  0.1371 -0.4918 -0.2608
  506TMC3    C5 7519   0.482   3.902  10.627  0.5803  0.0424  0.1268
  506TMC3    C6 7520   0.590   3.855  10.555  0.0257 -0.0884 -0.2580
  506TMC3     C 7521   0.370   4.185  10.447  0.0306 -0.6162 -0.7002
  506TMC3     O 7522   0.449   4.254  10.386  0.2074 -0.0630 -0.4606
  506TMC3     H 7523   0.539   4.040  10.283  1.8510  0.6220  1.2097
  506TMC3    H1 7524   0.322   4.036  10.651  1.0145  0.5600 -0.1369
  506TMC3    H2 7525   0.671   3.804  10.606 -0.5866  1.5866  2.4131
  506TMC3    C7 7526   0.521   3.940  10.763  0.1723  0.6288 -0.0239
  506TMC3    C8 7527   0.686   3.829  10.344  0.3574  0.9520  0.0320
  506TMC3    O1 7528   0.455   3.888  10.849  0.0703  0.4964 -0.1091
  506TMC3    O2 7529   0.733   3.729  10.392  0.0575 -0.2107  0.3260
  507TMC3    C1 7530   0.763   0.489  14.443  0.0749 -0.3872 -0.2738
  507TMC3    C2 7531   0.827   0.414  14.355  0.2989 -0.2229 -0.4126
  507TMC3    C3 7532   0.947   0.458  14.301  0.1195  0.4635 -0.0980
  507TMC3    C4 7533   0.808   0.615  14.478  0.8645  0.1578 -0.0625
  507TMC3    C5 7534   0.931   0.658  14.422 -0.7329 -0.1067 -0.6275
  507TMC3    C6 7535   1.006   0.578  14.343 -0.2515 -0.2609  0.5777
  507TMC3     C 7536   0.645   0.446  14.508  0.0570  0.4248 -0.6293
  507TMC3     O 7537   0.595   0.531  14.583  0.2456  0.6831  0.0397
  507TMC3     H 7538   0.784   0.326  14.311  0.7493  0.7431 -2.7776
  507TMC3    H1 7539   0.744   0.675  14.542  0.8744  1.5906 -1.3899
  507TMC3    H2 7540   1.102   0.613  14.306 -0.3672  0.7581  1.2478
  507TMC3    C7 7541   0.919   0.790  14.360 -0.6721 -0.2561  1.2012
  507TMC3    C8 7542   0.964   0.445  14.158  0.0058 -0.0526  0.2965
  507TMC3    O1 7543   0.988   0.803  14.260 -0.3538  0.2830  0.3836
  507TMC3    O2 7544   0.923   0.346  14.103 -0.4963  0.4361 -0.0772
  508MPD2     C 7545   2.103   2.717  15.701 -0.7586 -0.3892 -0.1984
  508MPD2    C1 7546   2.064   2.809  15.788  0.7189 -0.2377  0.1096
  508MPD2    C2 7547   1.995   2.917  15.744 -0.2159  0.7271 -0.2485
  508MPD2    C3 7548   1.940   2.931  15.615  0.1437 -0.1669 -0.0384
  508MPD2    C4 7549   1.966   2.822  15.529  0.6299  0.0665  0.2483
  508MPD2    C5 7550   2.059   2.724  15.567 -0.2800 -0.5670 -0.1173
  508MPD2     H 7551   1.962   2.993  15.813 -3.0175 -1.0434  0.3411
  508MPD2    H1 7552   1.924   2.814  15.429  3.0164 -0.2853 -0.7233
  508MPD2    H2 7553   2.163   2.633  15.733 -1.4947 -1.5662 -1.8981
  508MPD2    H3 7554   2.085   2.645  15.497 -2.0572 -1.2674  0.0017
  508MPD2     N 7555   1.902   3.059  15.578  0.6232 -0.5603 -0.0004
  508MPD2    H5 7556   1.899   3.139  15.640 -0.6897 -0.5939 -0.0394
  508MPD2    N1 7557   2.122   2.804  15.918  0.4341  0.1591  0.1730
  508MPD2    H7 7558   2.190   2.730  15.936 -0.9605 -1.1312  0.1025
  509TMC3    C1 7559   1.805   3.396  15.292  0.6175  0.0773  0.1426
  509TMC3    C2 7560   1.916   3.469  15.326 -0.0330  0.4875  0.1879
  509TMC3    C3 7561   2.004   3.424  15.420  0.1640 -0.0326  0.9774
  509TMC3    C4 7562   1.777   3.282  15.352 -1.1736 -0.0712  0.2212
  509TMC3    C5 7563   1.870   3.234  15.440 -0.4434 -0.8359  0.4197
  509TMC3    C6 7564   1.986   3.302  15.474  0.8199 -0.5772 -0.1196
  509TMC3     C 7565   1.704   3.440  15.191 -0.9434 -0.6539 -0.4227
  509TMC3     O 7566   1.598   3.385  15.185  0.2656  0.4617  0.3017
  509TMC3     H 7567   1.951   3.533  15.246  1.2144 -1.4224 -0.7845
  509TMC3    H1 7568   1.702   3.216  15.309 -0.6997  0.0556 -0.8165
  509TMC3    H2 7569   2.066   3.260  15.535  1.1098  0.7921  0.4392
  509TMC3    C7 7570   1.876   3.093  15.454  0.8699 -0.5779 -0.5909
  509TMC3    C8 7571   2.138   3.466  15.392 -0.2429 -0.0018 -0.1113
  509TMC3    O1 7572   1.862   3.025  15.351 -0.5274  0.4639 -0.2759
  509TMC3    O2 7573   2.224   3.375  15.384  0.1565  0.7026  0.5565
  510MPD2     C 7574   4.626   0.335  14.428  1.4494 -0.1253 -0.1392
  510MPD2    C1 7575   4.635   0.199  14.401  0.0668  0.5558 -0.6793
  510MPD2    C2 7576   4.724   0.159  14.303 -0.7372  0.1424 -1.0303
  510MPD2    C3 7577   0.059   0.251  14.222 -0.5796  0.6605  0.7477
  510MPD2    C4 7578   0.060   0.389  14.259  0.0330  0.0544 -0.0650
  510MPD2    C5 7579   4.704   0.427  14.360 -0.0913 -0.0296  0.0064
  510MPD2     H 7580   0.004   0.055  14.271  0.5018  0.0548 -0.4372
  510MPD2    H1 7581   0.110   0.473  14.213 -3.1103  2.2493  0.5442
  510MPD2    H2 7582   4.540   0.367  14.487  1.8325  1.2888 -0.3419
  510MPD2    H3 7583   4.693   0.535  14.366  0.0337  0.0277 -0.8003
  510MPD2     N 7584   0.145   0.204  14.115  0.3093 -0.2938  0.3594
  510MPD2    H5 7585   0.167   0.105  14.117 -2.5561 -0.9422 -0.3644
  510MPD2    N1 7586   4.557   0.113  14.486  0.0743 -0.1876 -0.4072
  510MPD2    H7 7587   4.493   0.154  14.552 -0.5720 -1.6471 -0.1249
  511TMC3    C1 7588   4.458   4.646  14.573  0.5004  0.0248 -0.5208
  511TMC3    C2 7589   4.385   4.725  14.660 -0.0829  0.6332 -0.1355
  511TMC3    C3 7590   4.279   4.666  14.720 -0.2946  0.0819 -0.0384
  511TMC3    C4 7591   4.412   4.517  14.545 -0.4638  0.0479  0.0659
  511TMC3    C5 7592   4.316   4.462  14.620  0.0352 -0.0086  0.7744
  511TMC3    C6 7593   4.241   4.531  14.718 -0.0169 -0.1365 -0.4303
  511TMC3     C 7594   4.555   4.704  14.475 -0.6840 -0.3680 -0.3133
  511TMC3     O 7595   4.630   4.626  14.414  0.1581 -0.0140  0.0722
  511TMC3     H 7596   4.409   0.098  14.687 -2.4327  1.1815 -0.1240
  511TMC3    H1 7597   4.456   4.463  14.462  0.3562  1.6832 -0.5659
  511TMC3    H2 7598   4.169   4.480  14.781  1.0627 -0.4077  0.5831
  511TMC3    C7 7599   4.290   4.321  14.588  0.2880 -0.1169 -0.4244
  511TMC3    C8 7600   4.208   0.023  14.822  0.4293 -0.0626 -0.3714
  511TMC3    O1 7601   4.341   4.269  14.485 -0.4838 -0.3059  0.4106
  511TMC3    O2 7602   4.254   0.129  14.862 -0.1488  0.1298 -0.2049
  512TMC3    C1 7603   3.415   4.081  13.273  0.6840 -0.5570  0.8470
  512TMC3    C2 7604   3.531   4.105  13.343  0.8342 -0.3974  0.0207
  512TMC3    C3 7605   3.625   4.004  13.340 -0.1686  0.0150 -0.0262
  512TMC3    C4 7606   3.391   3.970  13.203 -0.5799  0.0184 -0.2968
  512TMC3    C5 7607   3.489   3.870  13.206 -0.0325  0.1413 -0.0378
  512TMC3    C6 7608   3.597   3.876  13.283 -0.1744 -0.0431  0.6021
  512TMC3     C 7609   3.299   4.173  13.287 -1.1314 -0.1280 -0.3075
  512TMC3     O 7610   3.323   4.290  13.306  0.4275 -0.0919  0.0200
  512TMC3     H 7611   3.540   4.198  13.398 -2.3011  0.3971 -0.8124
  512TMC3    H1 7612   3.304   3.959  13.139 -0.1052  1.3397 -1.1762
  512TMC3    H2 7613   3.669   3.797  13.268 -0.3624 -0.1830  0.4373
  512TMC3    C7 7614   3.474   3.750  13.126 -0.4703  0.5279 -0.5583
  512TMC3    C8 7615   3.723   4.010  13.449  0.1098  0.3559 -0.3514
  512TMC3    O1 7616   3.496   3.643  13.175  1.0348  0.3116  0.4545
  512TMC3    O2 7617   3.747   3.905  13.507  0.3124  0.8961  0.2075
  513MPD2     C 7618   0.000   3.954  13.237  0.1997  1.4800 -0.9176
  513MPD2    C1 7619   0.125   3.910  13.200 -0.3553 -0.6365  0.1001
  513MPD2    C2 7620   0.235   3.962  13.256 -0.0296  0.2861 -0.6812
  513MPD2    C3 7621   0.226   4.080  13.327 -0.4245  0.5487  0.5403
  513MPD2    C4 7622   0.103   4.124  13.362 -0.5195  0.0981 -0.1778
  513MPD2    C5 7623   4.723   4.053  13.329 -0.0785  0.4710  0.1728
  513MPD2     H 7624   0.333   3.925  13.226 -0.0527 -1.2247  1.1014
  513MPD2    H1 7625   0.092   4.204  13.436 -2.1280  0.4425 -0.7733
  513MPD2    H2 7626   4.639   3.908  13.196  0.1983 -2.7277  3.8007
  513MPD2    H3 7627   4.626   4.080  13.370 -0.3919  0.6227 -0.6900
  513MPD2     N 7628   0.349   4.148  13.364  0.3680 -0.4814  0.3728
  513MPD2    H5 7629   0.437   4.104  13.342 -1.2486 -3.3749 -0.3389
  513MPD2    N1 7630   0.150   3.824  13.090  0.0419 -0.2732 -0.2408
  513MPD2    H7 7631   0.244   3.820  13.052 -0.1701  0.6008 -0.8512
  514TMC3    C1 7632   0.126   3.718  12.890 -0.3748 -0.6556 -0.1557
  514TMC3    C2 7633   0.082   3.770  12.778  0.2552  0.0216 -0.4552
  514TMC3    C3 7634   0.179   3.799  12.685  0.0625  0.4204 -0.0796
  514TMC3    C4 7635   0.258   3.707  12.915  0.5598 -0.5261  1.0231
  514TMC3    C5 7636   0.350   3.738  12.820 -0.1441  0.0482  0.7223
  514TMC3    C6 7637   0.314   3.789  12.703 -0.6648  0.2872 -0.0950
  514TMC3     C 7638   0.055   3.780  13.000  0.0724 -0.2735  0.0198
  514TMC3     O 7639   4.663   3.796  12.997  0.2642 -0.4370 -0.2101
  514TMC3     H 7640   4.704   3.787  12.766  0.1908 -2.0764 -2.7447
  514TMC3    H1 7641   0.287   3.652  13.003  0.5554 -2.9249 -0.4602
  514TMC3    H2 7642   0.390   3.830  12.636  0.5780 -0.0725  1.0962
  514TMC3    C7 7643   0.446   3.824  12.888  0.8743 -0.1081 -0.6775
  514TMC3    C8 7644   0.126   3.853  12.560 -0.9468 -0.2855 -0.0290
  514TMC3    O1 7645   0.405   3.881  12.992  0.1670  0.1011  0.1096
  514TMC3    O2 7646   0.014   3.905  12.555 -0.1521 -0.0384 -0.5291
  515MPD2     C 7647   3.297   1.384  14.424 -0.5599 -0.0507  0.0309
  515MPD2    C1 7648   3.301   1.248  14.451  0.4060  0.5929  0.0541
  515MPD2    C2 7649   3.350   1.214  14.574 -0.7728 -0.4165 -0.5031
  515MPD2    C3 7650   3.389   1.305  14.672 -0.1335 -0.5560  0.7299
  515MPD2    C4 7651   3.367   1.438  14.646 -0.2807 -0.2979  0.9794
  515MPD2    C5 7652   3.331   1.474  14.516  0.3948 -0.0304  1.0847
  515MPD2     H 7653   3.363   1.108  14.589 -1.2824 -0.1664  1.7570
  515MPD2    H1 7654   3.393   1.515  14.717  1.6500 -2.0574  2.1677
  515MPD2    H2 7655   3.261   1.411  14.325  1.6203 -2.5269 -1.4364
  515MPD2    H3 7656   3.311   1.577  14.488 -0.6410 -0.3294  0.7412
  515MPD2     N 7657   3.466   1.267  14.783  0.1907  0.0366 -0.0460
  515MPD2    H5 7658   3.510   1.340  14.838 -0.9389  0.1108  0.7724
  515MPD2    N1 7659   3.250   1.150  14.364 -0.5433  0.8298 -0.0121
  515MPD2    H7 7660   3.241   1.053  14.393  0.2598  0.8953  0.4533
  516TMC3    C1 7661   3.180   1.041  14.178  0.0150 -0.2178 -0.0507
  516TMC3    C2 7662   3.176   1.033  14.039 -0.9515 -0.7503 -0.3726
  516TMC3    C3 7663   3.078   0.954  13.985  0.0827 -0.4666  0.3010
  516TMC3    C4 7664   3.094   0.963  14.252  0.8432 -0.8058  0.2416
  516TMC3    C5 7665   2.999   0.884  14.197 -0.9941  0.2542 -0.4881
  516TMC3    C6 7666   2.993   0.876  14.059  0.5390 -0.5229  0.2693
  516TMC3     C 7667   3.236   1.161  14.229  0.5169 -0.2929  0.5631
  516TMC3     O 7668   3.247   1.262  14.158  0.3449  0.0738 -0.1713
  516TMC3     H 7669   3.247   1.094  13.983 -1.0377  1.5010  1.9953
  516TMC3    H1 7670   3.069   0.983  14.356  1.9356 -0.2592  0.4033
  516TMC3    H2 7671   2.933   0.802  14.006  0.6221 -1.8429  2.0095
  516TMC3    C7 7672   2.974   0.762  14.278 -0.4976  0.1707  0.0169
  516TMC3    C8 7673   3.043   0.957  13.844  0.3858  0.3279  0.3920
  516TMC3    O1 7674   3.037   0.742  14.383 -0.2925 -0.4442 -0.4702
  516TMC3    O2 7675   2.931   0.923  13.810 -0.2139 -0.0889 -0.0804
  517MPD2     C 7676   2.949   2.585  17.336  0.7358  0.6384 -0.1214
  517MPD2    C1 7677   3.052   2.586  17.428 -0.5870  0.0829  0.2429
  517MPD2    C2 7678   3.075   2.706  17.495 -0.0762  0.2531  0.2781
  517MPD2    C3 7679   3.009   2.825  17.459 -0.3610  0.0226 -0.0608
  517MPD2    C4 7680   2.906   2.821  17.365 -0.3864  0.4013  0.1393
  517MPD2    C5 7681   2.872   2.700  17.311  0.0601  0.5759  0.5220
  517MPD2     H 7682   3.161   2.706  17.561 -1.3438  1.8360  1.9489
  517MPD2    H1 7683   2.833   2.894  17.332 -1.5398 -1.9983 -2.5139
  517MPD2    H2 7684   2.930   2.496  17.276 -0.8757  1.6587 -1.1170
  517MPD2    H3 7685   2.784   2.685  17.249  0.4589  0.0100  0.0886
  517MPD2     N 7686   3.032   2.953  17.517  0.2498 -0.4285 -0.5343
  517MPD2    H5 7687   2.974   3.027  17.479  0.0275 -0.3734 -0.0879
  517MPD2    N1 7688   3.151   2.482  17.450  0.6971  0.6878  0.1994
  517MPD2    H7 7689   3.233   2.502  17.506  2.1658 -1.0572 -1.3254
  518TMC3    C1 7690   3.253   2.272  17.443 -0.5505 -0.0495 -0.0465
  518TMC3    C2 7691   3.226   2.137  17.441 -0.0002 -0.7084  0.3625
  518TMC3    C3 7692   3.330   2.052  17.458  0.0394  0.7130 -0.1264
  518TMC3    C4 7693   3.374   2.328  17.451  0.7313 -0.5823  0.3555
  518TMC3    C5 7694   3.480   2.241  17.452  0.5281  0.1149  0.7904
  518TMC3    C6 7695   3.462   2.106  17.450 -0.7964 -0.9322  0.7096
  518TMC3     C 7696   3.131   2.348  17.419 -0.0876 -0.3351  0.5134
  518TMC3     O 7697   3.028   2.292  17.385  0.5464 -0.2506 -1.2436
  518TMC3     H 7698   3.124   2.100  17.447 -0.4878  0.1020 -2.8740
  518TMC3    H1 7699   3.393   2.435  17.457  2.1666 -0.9388  2.2751
  518TMC3    H2 7700   3.546   2.039  17.463 -0.2688 -0.4648 -0.3257
  518TMC3    C7 7701   3.610   2.301  17.452 -0.5739 -0.0223  0.0993
  518TMC3    C8 7702   3.323   1.919  17.404  0.2665 -0.2003  0.3496
  518TMC3    O1 7703   3.616   2.419  17.475 -0.1385  0.3063 -0.2693
  518TMC3    O2 7704   3.426   1.877  17.348 -0.0283 -0.2945  0.1171
  519MPD2     C 7705   4.677   0.819  14.492 -0.4695 -0.3715 -0.3580
  519MPD2    C1 7706   4.636   0.870  14.371  1.0730 -0.5683 -0.3846
  519MPD2    C2 7707   4.713   0.841  14.257  0.7040  0.2302 -0.0238
  519MPD2    C3 7708   0.106   0.784  14.259  1.3813 -0.7967  0.6447
  519MPD2    C4 7709   0.151   0.747  14.382  0.2596 -0.2961  0.5376
  519MPD2    C5 7710   0.072   0.756  14.495 -0.2674 -0.4335  0.2810
  519MPD2     H 7711   4.665   0.861  14.162  0.0363  0.7217  0.4208
  519MPD2    H1 7712   0.250   0.709  14.400  1.7236  1.8391 -3.1367
  519MPD2    H2 7713   4.618   0.820  14.583 -0.1760  1.8917 -0.1923
  519MPD2    H3 7714   0.098   0.703  14.586  1.4394 -0.3217 -0.1387
  519MPD2     N 7715   0.184   0.753  14.147 -0.4217 -0.3920  0.3555
  519MPD2    H5 7716   0.284   0.748  14.163 -0.0896  1.2000 -1.1875
  519MPD2    N1 7717   4.513   0.937  14.379  0.2493 -0.5561  0.0843
  519MPD2    H7 7718   4.452   0.914  14.457 -0.0350  2.0114  0.6106
  520TMC3    C1 7719   0.240   0.786  13.926  1.1153  0.5992  0.3770
  520TMC3    C2 7720   0.213   0.847  13.808 -0.1759  0.3171  0.1576
  520TMC3    C3 7721   0.305   0.840  13.706  0.3164  0.5528 -0.2760
  520TMC3    C4 7722   0.358   0.711  13.939  0.0172 -0.1086 -0.7362
  520TMC3    C5 7723   0.451   0.711  13.832  0.2632 -0.3529  0.3570
  520TMC3    C6 7724   0.422   0.774  13.716  0.3567 -0.6198  0.2026
  520TMC3     C 7725   0.133   0.773  14.024 -0.0407  0.1968 -0.0713
  520TMC3     O 7726   0.019   0.781  13.983 -0.1014  0.0084  0.1224
  520TMC3     H 7727   0.119   0.902  13.802 -0.8876 -0.4913  3.8156
  520TMC3    H1 7728   0.375   0.675  14.040 -2.6783 -0.8413 -0.5473
  520TMC3    H2 7729   0.499   0.794  13.642 -1.4683  0.6642 -1.3612
  520TMC3    C7 7730   0.551   0.611  13.846  0.3386 -0.4098  0.0893
  520TMC3    C8 7731   0.255   0.877  13.572 -0.8405  0.1164 -0.2500
  520TMC3    O1 7732   0.568   0.570  13.960 -0.1457 -0.0775  0.0280
  520TMC3    O2 7733   0.340   0.870  13.486 -0.0974  0.0129 -0.1410
  521MPD2     C 7734   1.259   3.671  17.543 -0.2285 -0.3587  0.9040
  521MPD2    C1 7735   1.197   3.551  17.509 -0.6645  0.5761  0.4112
  521MPD2    C2 7736   1.270   3.443  17.454  0.6229  0.1093 -0.4688
  521MPD2    C3 7737   1.408   3.452  17.436 -0.1940 -0.1867 -1.0069
  521MPD2    C4 7738   1.467   3.572  17.478 -0.2705 -1.0874  0.6174
  521MPD2    C5 7739   1.393   3.681  17.530 -0.1188  0.8409  0.1558
  521MPD2     H 7740   1.227   3.348  17.427  0.3544 -0.2835  1.3665
  521MPD2    H1 7741   1.574   3.589  17.475 -0.4742  0.6166  2.6907
  521MPD2    H2 7742   1.212   3.763  17.574 -0.5525  0.2231 -1.3443
  521MPD2    H3 7743   1.445   3.775  17.546  0.9541  0.0729  1.2028
  521MPD2     N 7744   1.482   3.345  17.377 -0.5675  0.1776  0.0689
  521MPD2    H5 7745   1.431   3.267  17.335  0.5730  0.0966 -1.1615
  521MPD2    N1 7746   1.057   3.548  17.528  0.0246  0.0406 -0.4669
  521MPD2    H7 7747   1.020   3.632  17.571 -3.4162 -1.5167 -0.3858
  522TMC3    C1 7748   1.640   3.251  17.241  0.2215  0.2322  0.3574
  522TMC3    C2 7749   1.773   3.228  17.213  0.4414 -0.0103  0.3575
  522TMC3    C3 7750   1.811   3.180  17.094  0.2188 -0.2901  0.2927
  522TMC3    C4 7751   1.541   3.226  17.150 -0.1535  0.0990 -0.5884
  522TMC3    C5 7752   1.586   3.173  17.028 -0.2043 -0.0095 -0.0303
  522TMC3    C6 7753   1.721   3.133  17.006  0.2540 -0.3554 -0.5755
  522TMC3     C 7754   1.619   3.347  17.349 -0.4227  0.0384 -0.3874
  522TMC3     O 7755   1.703   3.430  17.387  0.0304  0.4675  0.1725
  522TMC3     H 7756   1.853   3.269  17.274  1.3065 -2.3930  0.8128
  522TMC3    H1 7757   1.434   3.237  17.167  0.4583  1.8982  1.9420
  522TMC3    H2 7758   1.745   3.080  16.915 -0.1569  0.3372 -1.0873
  522TMC3    C7 7759   1.492   3.134  16.926 -0.2388 -0.5187 -0.1423
  522TMC3    C8 7760   1.947   3.148  17.083  0.0503  1.0595  0.2587
  522TMC3    O1 7761   1.520   3.041  16.854  0.1188  0.1357 -0.5064
  522TMC3    O2 7762   2.018   3.143  17.186 -0.4667  0.2537  0.0819
  523MPD2     C 7763   3.401   3.726  10.154  0.5669  0.1313  0.3220
  523MPD2    C1 7764   3.275   3.680  10.171 -0.2613  0.2969  0.0161
  523MPD2    C2 7765   3.173   3.772  10.145 -0.2336 -0.0050 -0.5365
  523MPD2    C3 7766   3.197   3.904  10.115 -0.8691 -0.3297  0.4739
  523MPD2    C4 7767   3.325   3.948  10.113 -0.3118 -0.0051 -0.0618
  523MPD2    C5 7768   3.427   3.863  10.129  0.2349  0.8001 -0.5818
  523MPD2     H 7769   3.071   3.734  10.147  0.3645 -1.5915  0.4072
  523MPD2    H1 7770   3.355   4.050  10.093 -0.0830  0.2713  1.6901
  523MPD2    H2 7771   3.487   3.661  10.168  0.8637  0.9104  2.0885
  523MPD2    H3 7772   3.531   3.893  10.122  0.4129 -0.1591 -2.2106
  523MPD2     N 7773   3.090   3.997  10.088  0.3835 -0.3700  0.8607
  523MPD2    H5 7774   3.109   4.095  10.067  3.3787 -0.7946  1.4837
  523MPD2    N1 7775   3.263   3.538  10.186 -0.6418 -0.3060 -0.0912
  523MPD2    H7 7776   3.346   3.481  10.193  0.3197  1.0258 -0.6268
  524TMC3    C1 7777   2.870   4.079  10.055 -0.2389 -0.6012 -0.2264
  524TMC3    C2 7778   2.738   4.053  10.077 -0.5900  0.2267 -0.1486
  524TMC3    C3 7779   2.656   4.165  10.081 -0.7242 -0.0809 -0.0588
  524TMC3    C4 7780   2.920   4.208  10.071  0.4276  1.0158 -0.1807
  524TMC3    C5 7781   2.831   4.310  10.066 -0.3693 -1.0654 -0.5910
  524TMC3    C6 7782   2.701   4.294  10.069  0.4407 -0.1920  0.4205
  524TMC3     C 7783   2.952   3.963  10.080  0.2310 -0.0467  0.4363
  524TMC3     O 7784   2.897   3.854  10.094  0.2993 -0.1138 -0.2048
  524TMC3     H 7785   2.697   3.956  10.055 -1.2901  0.0641  1.8683
  524TMC3    H1 7786   3.023   4.236  10.057  0.5373  0.7151  0.0202
  524TMC3    H2 7787   2.627   4.372  10.074  0.2704 -0.2726 -1.0472
  524TMC3    C7 7788   2.884   4.442  10.054  0.5122  0.2953  0.2806
  524TMC3    C8 7789   2.518   4.132  10.112 -0.3300  0.1624 -0.4075
  524TMC3    O1 7790   3.001   4.453  10.086  0.1620 -0.6717  0.1444
  524TMC3    O2 7791   2.494   4.017  10.153 -0.3690 -0.3281 -0.9263
  525MPD2     C 7792   1.303   0.189  14.194  0.7357  0.2917  0.4976
  525MPD2    C1 7793   1.371   0.261  14.290  0.5412 -0.3565  0.7049
  525MPD2    C2 7794   1.401   0.392  14.263  0.6533  0.4877  0.0528
  525MPD2    C3 7795   1.366   0.448  14.140  0.0694  0.4662  0.3870
  525MPD2    C4 7796   1.297   0.373  14.048  0.5810 -0.1985  0.2207
  525MPD2    C5 7797   1.262   0.247  14.073  0.0072 -0.3543  0.6222
  525MPD2     H 7798   1.451   0.443  14.344  0.4100 -0.6485  0.9187
  525MPD2    H1 7799   1.259   0.410  13.953  1.0451 -0.1296  0.0648
  525MPD2    H2 7800   1.289   0.082  14.201  0.5871  0.2063 -1.1206
  525MPD2    H3 7801   1.212   0.192  13.995  1.5671 -0.8432 -0.0369
  525MPD2     N 7802   1.405   0.584  14.111 -0.3405  0.2727  0.2825
  525MPD2    H5 7803   1.382   0.617  14.018 -1.4222  0.0767  0.4856
  525MPD2    N1 7804   1.424   0.204  14.412 -0.3854 -0.3754 -0.5778
  525MPD2    H7 7805   1.497   0.248  14.468  0.6915 -1.7133 -0.9227
  526TMC3    C1 7806   1.442   0.060  14.582  0.2031  0.2965 -0.0465
  526TMC3    C2 7807   1.381   0.028  14.699 -0.5064  0.7745 -0.4783
  526TMC3    C3 7808   1.457   4.717  14.797  0.3216 -0.3864 -0.0332
  526TMC3    C4 7809   1.580   0.065  14.575  0.4828 -0.2177  0.3849
  526TMC3    C5 7810   1.650   0.004  14.672  0.3448 -0.3948  0.9596
  526TMC3    C6 7811   1.592   4.699  14.788  0.8277 -0.3596  0.7433
  526TMC3     C 7812   1.369   0.087  14.461 -0.5275 -0.1021  0.7775
  526TMC3     O 7813   1.264   0.031  14.434  0.3443 -0.3567 -0.1944
  526TMC3     H 7814   1.273   0.033  14.703 -0.5291 -3.4491  4.0204
  526TMC3    H1 7815   1.623   0.087  14.478  2.0390 -0.7186  0.9503
  526TMC3    H2 7816   1.650   4.676  14.877  1.1732 -1.1637  0.3099
  526TMC3    C7 7817   1.795   4.717  14.665  0.7059 -0.0608  0.5744
  526TMC3    C8 7818   1.408   4.699  14.933 -0.0585 -0.8184 -0.4464
  526TMC3    O1 7819   1.852   4.701  14.767 -0.1360 -0.0370 -0.0245
  526TMC3    O2 7820   1.483   4.660  15.021  1.0378 -0.5883 -0.1304
  527MPD2     C 7821   0.378   3.134   1.532  0.5206 -0.2321 -0.3887
  527MPD2    C1 7822   0.373   3.001   1.575 -0.0866  0.1776 -0.2488
  527MPD2    C2 7823   0.438   2.909   1.490  0.1400  0.0014  0.8792
  527MPD2    C3 7824   0.512   2.944   1.376 -0.1240 -0.8790 -0.7296
  527MPD2    C4 7825   0.504   3.077   1.334  0.0376  1.1993 -0.4986
  527MPD2    C5 7826   0.433   3.163   1.411 -0.1275 -0.1355  0.0684
  527MPD2     H 7827   0.465   2.811   1.527  0.9326 -0.1662 -0.1507
  527MPD2    H1 7828   0.535   3.114   1.238  1.5785  1.8559  0.2521
  527MPD2    H2 7829   0.316   3.212   1.574  0.4249  0.0677 -1.0860
  527MPD2    H3 7830   0.420   3.263   1.373  1.0019  0.0675  0.2158
  527MPD2     N 7831   0.575   2.847   1.297 -0.2713 -0.0369  0.6036
  527MPD2    H5 7832   0.586   2.755   1.337 -3.3778 -1.1609 -1.2130
  527MPD2    N1 7833   0.295   2.958   1.684 -0.0616  0.1656  0.2360
  527MPD2    H7 7834   0.285   2.858   1.690 -4.0985  0.5657  0.1089
  528TMC3    C1 7835   0.099   2.979   1.829  0.4485  0.1912  0.3166
  528TMC3    C2 7836   0.036   3.032   1.940 -0.4781  0.0179  0.2529
  528TMC3    C3 7837   4.654   2.963   1.984  0.4628 -1.0293 -0.3205
  528TMC3    C4 7838   0.048   2.861   1.770 -0.2106  0.5980  0.6398
  528TMC3    C5 7839   4.659   2.811   1.816  0.0122 -0.4040 -0.3678
  528TMC3    C6 7840   4.591   2.857   1.924 -0.2762 -0.4487  0.0918
  528TMC3     C 7841   0.221   3.040   1.772  0.1414 -0.2796 -0.1000
  528TMC3     O 7842   0.233   3.161   1.793  0.3745 -0.1549 -0.0189
  528TMC3     H 7843   0.065   3.123   1.992 -0.5181 -0.6455  1.4300
  528TMC3    H1 7844   0.101   2.810   1.691 -0.4120 -0.6158  1.2928
  528TMC3    H2 7845   4.492   2.820   1.946 -0.7398  0.0166 -1.1971
  528TMC3    C7 7846   4.619   2.680   1.768 -0.9029 -0.1616 -0.5744
  528TMC3    C8 7847   4.598   3.007   2.112 -0.3644 -0.3251  0.0748
  528TMC3    O1 7848   4.569   2.605   1.851 -0.1431  0.4376 -0.2054
  528TMC3    O2 7849   4.645   3.107   2.162 -0.0333  0.5693  0.9619
  529MPD2     C 7850   2.567   1.176   0.409 -0.1725 -0.3286  0.0016
  529MPD2    C1 7851   2.431   1.203   0.395 -0.4329 -0.6947 -0.3851
  529MPD2    C2 7852   2.381   1.207   0.269  0.1637 -0.0975 -0.6967
  529MPD2    C3 7853   2.455   1.165   0.157  0.0844 -0.1196  0.5425
  529MPD2    C4 7854   2.590   1.138   0.181  0.6168  0.2910  0.4719
  529MPD2    C5 7855   2.645   1.136   0.305 -0.3656 -0.6820 -0.0281
  529MPD2     H 7856   2.276   1.232   0.263  0.5160  1.5208 -0.1987
  529MPD2    H1 7857   2.656   1.118   0.097 -0.6671  1.1816 -0.7395
  529MPD2    H2 7858   2.621   1.167   0.503  2.4022  0.2449 -1.4400
  529MPD2    H3 7859   2.747   1.105   0.323 -0.2807 -0.0798  0.5336
  529MPD2     N 7860   2.417   1.162   0.023 -0.3006  0.4568 -0.5664
  529MPD2    H5 7861   2.489   1.119  17.681  1.1246  1.2430  0.6768
  529MPD2    N1 7862   2.344   1.208   0.504  0.3949 -0.3403  0.1663
  529MPD2    H7 7863   2.247   1.211   0.474  1.3084  0.1222 -2.7976
  530TMC3    C1 7864   2.270   1.231   0.728 -0.8034 -0.3935  1.3170
  530TMC3    C2 7865   2.309   1.271   0.858  0.1941 -0.3015 -0.1767
  530TMC3    C3 7866   2.203   1.305   0.941  0.0037 -0.6677  0.0588
  530TMC3    C4 7867   2.139   1.222   0.690 -0.8323 -0.0255  0.0122
  530TMC3    C5 7868   2.043   1.257   0.781  0.3958 -0.3812 -0.2563
  530TMC3    C6 7869   2.072   1.307   0.904 -0.6305 -0.8760 -0.3204
  530TMC3     C 7870   2.377   1.218   0.634  0.5064  0.0637  0.2004
  530TMC3     O 7871   2.492   1.233   0.673 -0.5636  0.0725  0.7725
  530TMC3     H 7872   2.414   1.276   0.885 -0.1140  1.3744  0.7001
  530TMC3    H1 7873   2.114   1.167   0.600 -0.8793  0.3879 -0.2298
  530TMC3    H2 7874   1.999   1.361   0.963  1.7636  2.1008 -0.0228
  530TMC3    C7 7875   1.923   1.183   0.778  0.3373  0.1469 -0.6460
  530TMC3    C8 7876   2.227   1.351   1.078 -0.7979  0.3357  0.7616
  530TMC3    O1 7877   1.874   1.161   0.668  1.0267 -0.7731 -0.4573
  530TMC3    O2 7878   2.161   1.438   1.129 -0.5821 -0.1140  0.2680
  531MPD2     C 7879   0.894   4.001  13.022  0.6434  0.5604  0.2290
  531MPD2    C1 7880   0.772   4.062  13.033  0.5451 -0.7306 -0.0496
  531MPD2    C2 7881   0.664   3.998  12.966 -0.5527  0.5086  0.3275
  531MPD2    C3 7882   0.682   3.877  12.902 -0.2457  0.1897  0.2820
  531MPD2    C4 7883   0.808   3.819  12.893 -0.2066 -0.5185  0.0811
  531MPD2    C5 7884   0.908   3.874  12.965 -0.8482 -0.0239 -0.7602
  531MPD2     H 7885   0.561   4.030  12.971 -0.4208  1.1624 -1.0081
  531MPD2    H1 7886   0.814   3.721  12.846  0.0368 -0.9168  0.9355
  531MPD2    H2 7887   0.982   4.044  13.068 -0.7579  3.8734 -0.2075
  531MPD2    H3 7888   1.003   3.823  12.962 -0.3196  0.9384 -0.2860
  531MPD2     N 7889   0.575   3.810  12.837  0.5257 -0.0745 -0.0609
  531MPD2    H5 7890   0.601   3.739  12.770 -0.4043 -0.8686  0.4175
  531MPD2    N1 7891   0.759   4.183  13.097  0.4419  0.0644 -0.3361
  531MPD2    H7 7892   0.841   4.219  13.145  0.0520 -0.4767  0.7315
  532TMC3    C1 7893   0.654   4.348  13.207 -0.5229 -0.1866 -0.0347
  532TMC3    C2 7894   0.526   4.373  13.257 -0.2201  0.1526 -0.3371
  532TMC3    C3 7895   0.491   4.335  13.390  0.3971  0.3210 -0.0025
  532TMC3    C4 7896   0.749   4.310  13.294  0.2401  0.1585 -0.4724
  532TMC3    C5 7897   0.706   4.269  13.417 -0.5717  0.6879  0.7106
  532TMC3    C6 7898   0.581   4.272  13.470 -0.1370  0.2126  0.5652
  532TMC3     C 7899   0.650   4.264  13.088 -0.0651 -0.2285 -0.5359
  532TMC3     O 7900   0.541   4.235  13.040  0.3315 -0.4901  0.1764
  532TMC3     H 7901   0.449   4.411  13.191  2.0164  1.7446 -2.0029
  532TMC3    H1 7902   0.854   4.321  13.272 -0.2881  1.1403 -2.4401
  532TMC3    H2 7903   0.567   4.248  13.575  0.0399  0.3007  0.6091
  532TMC3    C7 7904   0.808   4.200  13.490 -0.4495  0.2028 -0.1678
  532TMC3    C8 7905   0.350   4.285  13.400  0.3174  0.6984 -0.1711
  532TMC3    O1 7906   0.921   4.203  13.446 -0.1182  0.2204  0.1212
  532TMC3    O2 7907   0.266   4.374  13.386  0.6479 -0.1461 -0.0066
  533TMC3    C1 7908   1.406   0.811  14.147 -0.1791  0.4155 -0.5299
  533TMC3    C2 7909   1.497   0.898  14.104  0.0997 -0.2543  0.2405
  533TMC3    C3 7910   1.486   1.030  14.133  0.2921 -0.4151  0.4316
  533TMC3    C4 7911   1.296   0.861  14.223  0.1157  0.4685 -0.4980
  533TMC3    C5 7912   1.279   0.992  14.246  1.0480  0.1160  0.4838
  533TMC3    C6 7913   1.366   1.076  14.187 -0.3276  0.4294 -0.0209
  533TMC3     C 7914   1.445   0.682  14.200 -0.5817 -0.5804  0.2010
  533TMC3     O 7915   1.483   0.681  14.314 -0.1301 -0.1096  1.0641
  533TMC3     H 7916   1.599   0.865  14.090 -0.3453 -1.9779  1.0867
  533TMC3    H1 7917   1.234   0.788  14.274 -0.7333  0.8850 -0.9470
  533TMC3    H2 7918   1.342   1.181  14.195  0.0996  0.6617 -1.7498
  533TMC3    C7 7919   1.268   1.009  14.390 -0.2017  0.0615 -0.6657
  533TMC3    C8 7920   1.597   1.119  14.119  0.7091 -0.0819  0.1973
  533TMC3    O1 7921   1.212   0.917  14.448 -0.0323 -0.2764  0.2052
  533TMC3    O2 7922   1.704   1.063  14.102  0.1616 -0.3474 -0.5475
  534MPD2     C 7923   4.057   1.766   2.492 -0.3414 -0.2968 -0.0574
  534MPD2    C1 7924   4.173   1.772   2.410  0.0838  0.2691 -0.4941
  534MPD2    C2 7925   4.156   1.725   2.284 -0.4352 -0.4395 -0.0089
  534MPD2    C3 7926   4.045   1.662   2.230  1.1312  0.1550 -0.2440
  534MPD2    C4 7927   3.939   1.657   2.312  0.0645 -0.3721 -0.4404
  534MPD2    C5 7928   3.942   1.711   2.437 -0.5608  0.9047  0.7242
  534MPD2     H 7929   4.231   1.752   2.212 -1.0601  1.3665  0.0245
  534MPD2    H1 7930   3.845   1.620   2.274 -1.1853  2.0027  0.2719
  534MPD2    H2 7931   4.046   1.834   2.576  0.3998 -0.6473  0.3199
  534MPD2    H3 7932   3.849   1.700   2.492  0.5634  1.9051  2.8009
  534MPD2     N 7933   4.042   1.607   2.099  0.5655 -0.2110 -0.0428
  534MPD2    H5 7934   3.950   1.584   2.063  0.1114  0.6653  0.5534
  534MPD2    N1 7935   4.294   1.841   2.438 -0.3778 -0.7005 -0.5010
  534MPD2    H7 7936   4.361   1.833   2.362  0.0772 -0.7950 -0.0891
  535TMC3    C1 7937   4.114   1.565   1.877  1.2830  0.4704  0.4870
  535TMC3    C2 7938   3.985   1.532   1.842  0.0107  0.2963  0.0746
  535TMC3    C3 7939   3.956   1.508   1.709 -0.0482  0.2892 -0.1069
  535TMC3    C4 7940   4.209   1.583   1.779 -0.2150  0.3661 -0.0247
  535TMC3    C5 7941   4.182   1.550   1.648 -0.7347  0.3432  0.1235
  535TMC3    C6 7942   4.058   1.507   1.611 -0.0595  0.1798 -0.0983
  535TMC3     C 7943   4.151   1.593   2.017 -0.2058 -0.1955  0.4812
  535TMC3     O 7944   4.269   1.606   2.052  0.0174  0.2874  0.1536
  535TMC3     H 7945   3.917   1.497   1.919 -0.3531  2.6040  0.7983
  535TMC3    H1 7946   4.306   1.625   1.805  0.6065 -1.0831 -0.7350
  535TMC3    H2 7947   4.036   1.480   1.508  0.9409 -2.3172  0.3585
  535TMC3    C7 7948   4.280   1.595   1.543 -0.4372 -0.4596 -0.2562
  535TMC3    C8 7949   3.817   1.487   1.664  0.1007  0.3797  0.9011
  535TMC3    O1 7950   4.241   1.575   1.428  0.1848 -0.2875  0.1875
  535TMC3    O2 7951   3.797   1.475   1.545 -0.5369  0.4132  0.0389
  536MPD2     C 7952   3.295   4.563  16.106 -0.1914  0.1325 -0.4236
  536MPD2    C1 7953   3.186   4.590  16.188  0.6911  0.4748  0.6502
  536MPD2    C2 7954   3.070   4.641  16.134  0.6566  0.0410  0.6081
  536MPD2    C3 7955   3.064   4.658  15.989  0.2031 -0.6408  0.7523
  536MPD2    C4 7956   3.175   4.638  15.909 -0.2797  0.0430  0.4379
  536MPD2    C5 7957   3.291   4.583  15.971  0.6408 -0.3816 -0.0501
  536MPD2     H 7958   2.979   4.650  16.191  0.8780  0.8890  0.8158
  536MPD2    H1 7959   3.186   4.657  15.803 -0.8441 -0.4606  0.2882
  536MPD2    H2 7960   3.387   4.516  16.139  0.6596  1.5698 -0.7003
  536MPD2    H3 7961   3.384   4.567  15.919  0.5486 -3.0143  0.6227
  536MPD2     N 7962   2.949   4.706  15.919 -0.0787 -0.3012 -0.4131
  536MPD2    H5 7963   2.948   4.696  15.818 -0.0404 -3.3922 -0.1094
  536MPD2    N1 7964   3.195   4.579  16.326 -0.4470 -0.2533  0.0113
  536MPD2    H7 7965   3.279   4.536  16.364 -0.7260 -0.6069  0.2275
  537TMC3    C1 7966   3.165   4.564  16.546  0.3436  0.7011 -0.2106
  537TMC3    C2 7967   3.266   4.655  16.570 -0.3940 -0.1901 -0.1658
  537TMC3    C3 7968   3.252   0.005  16.679 -0.1762 -0.0444 -0.3509
  537TMC3    C4 7969   3.066   4.534  16.639  0.0969 -0.0077  0.4950
  537TMC3    C5 7970   3.058   4.621  16.743  0.2915 -0.0079  0.3847
  537TMC3    C6 7971   3.146   4.728  16.765 -0.7880  0.5127  0.2953
  537TMC3     C 7972   3.098   4.584  16.416 -0.9370  0.0514 -0.8808
  537TMC3     O 7973   2.978   4.603  16.417 -0.1837 -0.0752 -0.4720
  537TMC3     H 7974   3.340   4.679  16.495 -0.3218  0.7738  0.2127
  537TMC3    H1 7975   2.978   4.477  16.613 -0.6688  0.7469  1.4198
  537TMC3    H2 7976   3.143   0.069  16.848 -2.1423  1.1336 -0.2617
  537TMC3    C7 7977   2.974   4.585  16.852  0.1677 -0.3575 -0.1312
  537TMC3    C8 7978   3.354   0.104  16.723 -0.2617  0.6195  0.6382
  537TMC3    O1 7979   2.942   4.681  16.925  0.5632  0.3028  0.1045
  537TMC3    O2 7980   3.308   0.206  16.776 -0.3364 -0.1228  0.6140
  538TMC3    C1 7981   3.898   3.704  10.535  0.0396 -0.2242 -0.0048
  538TMC3    C2 7982   3.909   3.741  10.403 -0.0362 -0.0666 -0.1027
  538TMC3    C3 7983   3.792   3.736  10.329 -0.1633 -0.1637 -0.3129
  538TMC3    C4 7984   3.784   3.695  10.612  0.0575  0.4644  0.2963
  538TMC3    C5 7985   3.673   3.701  10.534 -0.2437  0.8119 -0.1464
  538TMC3    C6 7986   3.674   3.723  10.399 -0.5381 -0.7346 -0.4728
  538TMC3     C 7987   4.007   3.616  10.572  0.1860 -0.0613 -0.7458
  538TMC3     O 7988   4.076   3.574  10.479 -0.0319  0.1901 -0.3235
  538TMC3     H 7989   4.006   3.759  10.359  0.6488 -1.3019  0.9018
  538TMC3    H1 7990   3.780   3.670  10.718  2.4134  1.2157  0.5719
  538TMC3    H2 7991   3.587   3.711  10.335 -0.5333 -1.3832 -0.3531
  538TMC3    C7 7992   3.551   3.722  10.609  0.2517  0.4093  0.6755
  538TMC3    C8 7993   3.793   3.643  10.219  0.2425  0.7597 -0.7282
  538TMC3    O1 7994   3.448   3.700  10.555 -0.7075 -0.0493 -0.0447
  538TMC3    O2 7995   3.706   3.656  10.132 -0.3403  0.3293  0.1709
  539MPD2     C 7996   3.717   2.788  11.836  0.2445  0.6558 -0.8378
  539MPD2    C1 7997   3.653   2.762  11.715 -0.1166  0.3577 -0.0086
  539MPD2    C2 7998   3.542   2.825  11.673 -0.3925  0.2270  0.8718
  539MPD2    C3 7999   3.491   2.921  11.763  0.3500  0.1991 -0.1944
  539MPD2    C4 8000   3.542   2.935  11.895 -0.4426 -0.4104  0.3036
  539MPD2    C5 8001   3.659   2.869  11.934  0.1630 -0.5120  0.0089
  539MPD2     H 8002   3.507   2.814  11.571  1.1129 -0.2244  0.4023
  539MPD2    H1 8003   3.503   3.001  11.971  1.3284 -0.0210  0.8643
  539MPD2    H2 8004   3.816   2.747  11.856  0.2910  2.0220  1.7931
  539MPD2    H3 8005   3.698   2.872  12.035  0.3710  2.1000 -0.1703
  539MPD2     N 8006   3.386   3.007  11.732  0.1513  0.2033  0.2449
  539MPD2    H5 8007   3.360   3.077  11.800 -1.8118  0.8413 -1.1601
  539MPD2    N1 8008   3.696   2.658  11.633 -0.3516  0.2257 -0.3225
  539MPD2    H7 8009   3.635   2.651  11.552 -0.8759 -1.3355  0.2090
  540TMC3    C1 8010   3.238   3.128  11.602 -1.3080  0.0298  0.1165
  540TMC3    C2 8011   3.243   3.189  11.481 -0.0454  0.2099 -0.5409
  540TMC3    C3 8012   3.167   3.304  11.467  0.4517  0.3438 -0.5797
  540TMC3    C4 8013   3.182   3.187  11.712 -0.2831 -0.8162  0.0561
  540TMC3    C5 8014   3.118   3.303  11.697 -0.0676  0.1851  0.0674
  540TMC3    C6 8015   3.102   3.363  11.574 -0.5611  0.6065  0.1221
  540TMC3     C 8016   3.307   3.003  11.615 -0.5992  0.2936  0.1879
  540TMC3     O 8017   3.316   2.935  11.515 -0.5157  0.1962 -0.5221
  540TMC3     H 8018   3.295   3.144  11.396 -0.4844  0.8232 -1.1356
  540TMC3    H1 8019   3.201   3.144  11.810 -0.3908 -1.8699 -0.3829
  540TMC3    H2 8020   3.026   3.440  11.566 -1.2096 -0.0808 -0.3096
  540TMC3    C7 8021   3.013   3.320  11.795  0.1550  0.6354 -0.7113
  540TMC3    C8 8022   3.155   3.359  11.336  0.4988 -0.0979 -0.1654
  540TMC3    O1 8023   2.981   3.433  11.832 -0.3231 -0.1667  0.0251
  540TMC3    O2 8024   3.149   3.481  11.327 -0.4566  0.3508  0.5017
  541MPD2     C 8025   1.708   4.259  13.295  0.5641 -0.8085  0.1632
  541MPD2    C1 8026   1.825   4.215  13.232 -0.0933  0.0043 -0.7209
  541MPD2    C2 8027   1.847   4.263  13.104 -0.5302  0.3928 -0.4066
  541MPD2    C3 8028   1.757   4.345  13.037  0.0044 -0.4459 -0.6827
  541MPD2    C4 8029   1.645   4.388  13.100 -0.1355  0.1527 -0.3515
  541MPD2    C5 8030   1.615   4.341  13.231  0.5643  0.1662  0.1685
  541MPD2     H 8031   1.937   4.231  13.054 -1.2806 -0.9118 -0.8973
  541MPD2    H1 8032   1.565   4.444  13.051 -0.5399 -0.0971  0.0265
  541MPD2    H2 8033   1.684   4.209  13.388 -0.6479  2.1326  1.4210
  541MPD2    H3 8034   1.524   4.383  13.271  0.5021 -2.4107  2.7394
  541MPD2     N 8035   1.773   4.389  12.905  0.8148 -0.9082  0.3165
  541MPD2    H5 8036   1.704   4.449  12.862  1.2558 -2.1247 -2.0757
  541MPD2    N1 8037   1.894   4.106  13.291 -0.1498  0.4811 -0.1222
  541MPD2    H7 8038   1.859   4.073  13.381  0.5504  0.3388  0.1018
  542TMC3    C1 8039   1.828   4.377  12.679 -0.2588 -0.8865 -0.2911
  542TMC3    C2 8040   1.881   4.302  12.583 -0.4877 -0.3050 -0.3328
  542TMC3    C3 8041   1.881   4.349  12.456 -0.6197 -0.2530  0.4492
  542TMC3    C4 8042   1.787   4.506  12.660 -0.0912 -0.4227  0.4915
  542TMC3    C5 8043   1.799   4.552  12.535  0.2600  0.5774  0.1529
  542TMC3    C6 8044   1.845   4.477  12.431 -0.4290  0.2891  0.5998
  542TMC3     C 8045   1.858   4.327  12.814  0.6066  0.6187 -0.5313
  542TMC3     O 8046   1.938   4.236  12.824 -0.0278  0.4540 -0.3499
  542TMC3     H 8047   1.911   4.200  12.603  0.0773 -0.0615  0.0502
  542TMC3    H1 8048   1.750   4.571  12.737 -0.9504  1.6706 -1.6975
  542TMC3    H2 8049   1.846   4.520  12.332 -2.3222 -0.8258  0.0843
  542TMC3    C7 8050   1.722   4.668  12.498  0.3210  0.0168  0.5358
  542TMC3    C8 8051   1.906   4.266  12.339 -0.6332 -0.3622  0.8817
  542TMC3    O1 8052   1.651   4.655  12.402 -0.3011  0.2242 -0.2428
  542TMC3    O2 8053   1.876   4.324  12.238  0.4352 -0.1020 -0.2064
  543TMC3    C1 8054   1.135   0.242  17.137  0.1707 -0.1564  0.5382
  543TMC3    C2 8055   1.162   0.149  17.227 -0.7166  0.1054 -0.5068
  543TMC3    C3 8056   1.112   0.174  17.348 -0.6211  0.0441  0.8876
  543TMC3    C4 8057   1.059   0.352  17.160  0.2366  1.0260  0.1170
  543TMC3    C5 8058   1.001   0.355  17.280 -0.5862 -0.0213 -0.7262
  543TMC3    C6 8059   1.019   0.272  17.378  0.7780  0.4644  0.4608
  543TMC3     C 8060   1.203   0.242  17.006 -0.0707  0.1613 -0.2928
  543TMC3     O 8061   1.288   0.157  16.990  0.0451 -0.4524  0.2506
  543TMC3     H 8062   1.230   0.066  17.211  0.3191  0.6450  1.1021
  543TMC3    H1 8063   1.055   0.444  17.103 -2.3076 -0.8357 -2.6726
  543TMC3    H2 8064   0.957   0.262  17.466  2.6924 -0.4472  1.7118
  543TMC3    C7 8065   0.896   0.456  17.297 -0.0368 -1.2434  0.0780
  543TMC3    C8 8066   1.181   0.111  17.459 -0.0252  0.2521  0.6369
  543TMC3    O1 8067   0.839   0.488  17.196 -0.5080  0.3618  0.1221
  543TMC3    O2 8068   1.282   0.048  17.430 -0.0140 -0.3896  0.0285
  544MPD2     C 8069   1.373   0.142   0.227 -0.0556  0.0579 -0.2646
  544MPD2    C1 8070   1.420   0.083   0.108 -0.7146 -0.3194 -0.5845
  544MPD2    C2 8071   1.352   0.104  17.705 -1.3329 -0.1531  0.3545
  544MPD2    C3 8072   1.223   0.163  17.707 -0.3636 -0.3199  0.0706
  544MPD2    C4 8073   1.175   0.216   0.108  0.0810 -0.3605  0.1236
  544MPD2    C5 8074   1.252   0.205   0.219  0.5559  0.0766 -0.4010
  544MPD2     H 8075   1.393   0.067  17.612  2.0000  1.9703  0.9710
  544MPD2    H1 8076   1.084   0.274   0.112  0.0856 -0.3905  0.6243
  544MPD2    H2 8077   1.429   0.133   0.319  0.1385  1.1471 -0.2719
  544MPD2    H3 8078   1.216   0.235   0.317 -2.3744 -0.2005 -1.3827
  544MPD2     N 8079   1.144   0.171  17.586  0.2656  0.0390  0.4221
  544MPD2    H5 8080   1.074   0.244  17.582  0.7643  0.5043  0.1342
  544MPD2    N1 8081   1.548   0.026   0.130 -0.2394  0.0926  0.4146
  544MPD2    H7 8082   1.566   0.006   0.228  0.9460  0.9005  0.3564
  545TMC3    C1 8083   1.752   4.646   0.069  0.3690  0.0376 -0.3648
  545TMC3    C2 8084   1.857   4.643  17.701 -0.1804 -0.1891  0.0823
  545TMC3    C3 8085   1.964   4.564   0.022  0.5555  0.7125  0.4487
  545TMC3    C4 8086   1.752   4.566   0.183  0.3511  0.7195  0.1275
  545TMC3    C5 8087   1.867   4.496   0.221  0.4088 -0.0992 -0.2413
  545TMC3    C6 8088   1.979   4.501   0.144 -0.4268  0.2503  0.6215
  545TMC3     C 8089   1.634   0.000   0.030  0.1524 -0.1523 -0.4696
  545TMC3     O 8090   1.630   0.033  17.628 -0.5602 -0.1424  0.4472
  545TMC3     H 8091   1.858   4.696  17.606 -1.9233  0.6506  0.5331
  545TMC3    H1 8092   1.657   4.551   0.232 -0.3490  0.3264 -1.3216
  545TMC3    H2 8093   2.069   4.447   0.167  0.8628  1.4868 -1.5800
  545TMC3    C7 8094   1.843   4.387   0.315 -0.4705  0.0435  0.4111
  545TMC3    C8 8095   2.089   4.572  17.657 -0.3477  0.1877  0.0643
  545TMC3    O1 8096   1.737   4.379   0.374 -0.1391 -0.0357  0.2184
  545TMC3    O2 8097   2.191   4.548   0.001  0.6601  0.0832  0.1298
  546MPD2     C 8098   2.922   0.549  16.613  0.5410  0.3003 -0.4132
  546MPD2    C1 8099   2.908   0.553  16.748 -0.1147  0.4015 -0.1709
  546MPD2    C2 8100   2.975   0.665  16.811  0.0522  0.1376 -0.5586
  546MPD2    C3 8101   3.041   0.760  16.736  0.4323  0.3634 -0.4882
  546MPD2    C4 8102   3.049   0.744  16.603 -0.0177  0.5739 -0.1945
  546MPD2    C5 8103   2.989   0.643  16.539 -1.0562 -0.9134 -0.4329
  546MPD2     H 8104   2.994   0.661  16.917  2.0061  1.5228 -0.8431
  546MPD2    H1 8105   3.086   0.829  16.548 -1.3289  1.0918 -0.2825
  546MPD2    H2 8106   2.889   0.465  16.552 -0.6275  0.7237 -0.3482
  546MPD2    H3 8107   2.993   0.631  16.431 -0.2112 -1.3299 -0.3550
  546MPD2     N 8108   3.106   0.874  16.789 -0.9387  0.3726 -0.2387
  546MPD2    H5 8109   3.170   0.919  16.723 -0.1898 -0.1997  0.0966
  546MPD2    N1 8110   2.840   0.449  16.817 -0.0727  0.5382 -0.2052
  546MPD2    H7 8111   2.868   0.427  16.912  1.2559  0.8162 -0.5251
  547TMC3    C1 8112   2.702   0.257  16.835  1.0449 -0.2259  0.1264
  547TMC3    C2 8113   2.588   0.200  16.793 -0.7621 -0.0600 -0.1972
  547TMC3    C3 8114   2.528   0.110  16.878  0.4988  0.1211 -0.1794
  547TMC3    C4 8115   2.762   0.231  16.953 -0.1309 -0.1729  0.1179
  547TMC3    C5 8116   2.704   0.138  17.035 -0.1487 -0.5740  0.8846
  547TMC3    C6 8117   2.595   0.069  16.992  0.0781  0.5036  0.4661
  547TMC3     C 8118   2.752   0.368  16.757 -0.8737 -0.5965  0.0471
  547TMC3     O 8119   2.703   0.378  16.648 -0.0217  0.5075  0.1927
  547TMC3     H 8120   2.542   0.227  16.699 -3.3418 -1.1880  0.7582
  547TMC3    H1 8121   2.851   0.283  16.985  0.7266 -0.9653 -0.9856
  547TMC3    H2 8122   2.552   4.716  17.050 -0.1214  0.0907 -0.2561
  547TMC3    C7 8123   2.722   0.132  17.175 -0.0098  0.4074  0.3751
  547TMC3    C8 8124   2.390   0.093  16.863 -0.3226 -0.3481 -0.0386
  547TMC3    O1 8125   2.664   0.042  17.237  0.3904 -0.4289  0.5823
  547TMC3    O2 8126   2.350   0.129  16.753 -0.3156  0.1729  0.3274
  548MPD2     C 8127   2.710   1.475  12.458 -0.0131  0.3270  0.1675
  548MPD2    C1 8128   2.638   1.360  12.451 -0.8013 -0.3112 -0.4313
  548MPD2    C2 8129   2.705   1.247  12.405 -0.4593 -0.1575 -0.2744
  548MPD2    C3 8130   2.838   1.244  12.376 -0.5680 -0.5428  0.1376
  548MPD2    C4 8131   2.909   1.363  12.398 -0.5473  0.1057 -0.4453
  548MPD2    C5 8132   2.848   1.481  12.439  0.0107  0.0483  0.4317
  548MPD2     H 8133   2.655   1.151  12.393  1.1905 -1.2160  1.2946
  548MPD2    H1 8134   3.015   1.364  12.375 -0.5688 -0.6091 -0.5645
  548MPD2    H2 8135   2.660   1.559  12.504 -0.5452 -0.5671  1.2119
  548MPD2    H3 8136   2.902   1.573  12.451  0.4300 -0.0373 -0.7215
  548MPD2     N 8137   2.898   1.125  12.332  0.6132 -0.5719  0.1700
  548MPD2    H5 8138   2.993   1.111  12.364  1.1372 -1.1770 -1.6786
  548MPD2    N1 8139   2.498   1.360  12.474 -1.0518 -0.0104  1.0798
  548MPD2    H7 8140   2.458   1.447  12.508 -2.1105 -0.2990  0.5624
  549TMC3    C1 8141   2.289   1.263  12.528 -0.2713  0.3903 -0.4322
  549TMC3    C2 8142   2.215   1.362  12.468 -0.0174 -0.1017 -0.7839
  549TMC3    C3 8143   2.081   1.348  12.460  0.2793  0.7194  0.1042
  549TMC3    C4 8144   2.225   1.151  12.582  0.7116  0.1399  0.5225
  549TMC3    C5 8145   2.091   1.145  12.573  0.0281  0.4225  0.1664
  549TMC3    C6 8146   2.011   1.242  12.519  0.2464  0.4660  0.4247
  549TMC3     C 8147   2.429   1.243  12.501  0.1267  0.2815 -0.2555
  549TMC3     O 8148   2.470   1.133  12.535  0.2109 -0.8270  0.6291
  549TMC3     H 8149   2.278   1.432  12.413 -0.8329  0.6727 -0.7390
  549TMC3    H1 8150   2.281   1.071  12.631 -1.0203 -2.2572 -1.3801
  549TMC3    H2 8151   1.903   1.235  12.526  0.2520 -0.6231 -0.7660
  549TMC3    C7 8152   2.027   1.018  12.600  0.2452  0.0006 -1.0325
  549TMC3    C8 8153   1.993   1.459  12.422 -0.2608 -0.1118  0.3182
  549TMC3    O1 8154   1.909   1.013  12.615  0.1068  0.1497 -0.1589
  549TMC3    O2 8155   1.874   1.429  12.424  0.0000 -0.3607  0.0265
  550TMC3    C1 8156   1.221   3.840  12.738  0.1710 -0.0217  0.3415
  550TMC3    C2 8157   1.188   3.944  12.820  0.3829  0.2342  0.4531
  550TMC3    C3 8158   1.192   4.071  12.759  0.5714 -0.2415  0.0471
  550TMC3    C4 8159   1.269   3.860  12.614  0.1713  0.3584  0.5867
  550TMC3    C5 8160   1.282   3.986  12.556 -0.1451  0.3983  0.3204
  550TMC3    C6 8161   1.242   4.091  12.635 -0.0749 -0.6199  0.6693
  550TMC3     C 8162   1.144   3.715  12.764  0.3078  0.0721 -0.4697
  550TMC3     O 8163   1.148   3.672  12.879  0.5389 -0.0869 -0.1640
  550TMC3     H 8164   1.147   3.928  12.918 -1.1625  0.2359 -0.1907
  550TMC3    H1 8165   1.304   3.778  12.552 -2.9547  0.2599 -1.0915
  550TMC3    H2 8166   1.244   4.188  12.586  1.1569 -1.3928 -0.8482
  550TMC3    C7 8167   1.218   3.976  12.424 -0.0800  0.0502  0.1806
  550TMC3    C8 8168   1.129   4.177  12.833  0.5876  0.1366  0.0842
  550TMC3    O1 8169   1.160   3.871  12.394  0.1254  0.4433 -0.2705
  550TMC3    O2 8170   1.143   4.183  12.954  0.8742  0.3223 -0.0985
  551TMC3    C1 8171   3.559   1.817  13.305 -0.1824 -0.0035 -0.1304
  551TMC3    C2 8172   3.638   1.862  13.202  0.1072  0.3839 -0.1813
  551TMC3    C3 8173   3.732   1.952  13.227 -0.4456 -0.4167  0.5860
  551TMC3    C4 8174   3.575   1.858  13.439  0.3618  0.0080  0.2354
  551TMC3    C5 8175   3.685   1.942  13.458  0.0834  0.4261 -0.3238
  551TMC3    C6 8176   3.764   1.982  13.354 -0.1473  0.0395  0.5921
  551TMC3     C 8177   3.438   1.744  13.268  0.7703  0.1551 -0.0173
  551TMC3     O 8178   3.428   1.729  13.149  0.1904  0.3955 -0.1023
  551TMC3     H 8179   3.634   1.829  13.099  1.4217 -1.3080  0.3029
  551TMC3    H1 8180   3.516   1.839  13.528 -2.1941  1.8816 -1.0368
  551TMC3    H2 8181   3.866   2.012  13.375 -0.2859  1.4048 -0.6482
  551TMC3    C7 8182   3.738   1.968  13.590 -0.2885 -0.0675 -0.2884
  551TMC3    C8 8183   3.839   1.970  13.125 -0.3097  1.4128 -0.4725
  551TMC3    O1 8184   3.703   1.905  13.691  0.2394 -0.6584 -0.2426
  551TMC3    O2 8185   3.916   1.878  13.097  0.2515  0.0048  0.3817
  552MPD2     C 8186   0.493   3.839  14.177 -0.3669 -0.0849 -0.0661
  552MPD2    C1 8187   0.567   3.760  14.095  0.3815 -0.1922  0.8660
  552MPD2    C2 8188   0.695   3.729  14.131  0.1253 -0.2990  0.1450
  552MPD2    C3 8189   0.753   3.769  14.252 -0.1495  0.4382  0.6233
  552MPD2    C4 8190   0.674   3.842  14.341 -0.3461 -0.1590 -0.4135
  552MPD2    C5 8191   0.546   3.872  14.299  0.6345 -0.4378 -0.4905
  552MPD2     H 8192   0.749   3.667  14.060  1.3834  2.0724 -0.9490
  552MPD2    H1 8193   0.720   3.875  14.433 -2.9857 -1.7961  1.5149
  552MPD2    H2 8194   0.391   3.868  14.157 -0.3455  0.3115  0.3922
  552MPD2    H3 8195   0.489   3.935  14.367  0.4055 -0.7085 -0.4314
  552MPD2     N 8196   0.888   3.767  14.281 -0.1009  0.2065 -0.9397
  552MPD2    H5 8197   0.923   3.812  14.366 -0.2036  0.7444 -1.1811
  552MPD2    N1 8198   0.525   3.708  13.973 -0.2916 -0.1610  0.6004
  552MPD2    H7 8199   0.582   3.646  13.916 -0.7237  1.0025 -1.1028
  553TMC3    C1 8200   0.373   3.640  13.809 -0.3701 -0.6828 -0.5150
  553TMC3    C2 8201   0.314   3.683  13.696  0.0744 -0.1882 -0.0605
  553TMC3    C3 8202   0.276   3.592  13.599 -0.0871  0.1663 -0.5829
  553TMC3    C4 8203   0.384   3.510  13.844 -0.8776  0.3589 -0.3001
  553TMC3    C5 8204   0.359   3.425  13.744 -1.1021 -0.4045 -0.5932
  553TMC3    C6 8205   0.293   3.460  13.621 -0.0530  0.4159  0.4758
  553TMC3     C 8206   0.411   3.743  13.908 -0.9717  0.2924  0.1144
  553TMC3     O 8207   0.330   3.826  13.932  0.2528 -0.4368  0.1631
  553TMC3     H 8208   0.293   3.789  13.688 -1.4210 -0.5653 -1.0481
  553TMC3    H1 8209   0.441   3.479  13.930 -0.2240  0.9172 -0.5336
  553TMC3    H2 8210   0.269   3.387  13.545  1.4615  0.6789 -0.2547
  553TMC3    C7 8211   0.406   3.297  13.763 -0.2338  0.2087 -0.0503
  553TMC3    C8 8212   0.343   3.634  13.479  0.1903 -0.1447 -0.5774
  553TMC3    O1 8213   0.315   3.217  13.794 -0.1082 -0.3010  0.0892
  553TMC3    O2 8214   0.426   3.721  13.495 -0.5045 -0.3010 -0.3211
  554TMC3    C1 8215   2.461   2.599  11.550  0.0560 -0.6230  0.1035
  554TMC3    C2 8216   2.382   2.586  11.440 -0.2411  0.5508  0.0855
  554TMC3    C3 8217   2.405   2.693  11.357 -0.8817  0.0495  0.7464
  554TMC3    C4 8218   2.549   2.701  11.578 -0.1404  0.4908  0.5278
  554TMC3    C5 8219   2.566   2.804  11.490 -0.6643  1.0367  0.9988
  554TMC3    C6 8220   2.483   2.807  11.375  0.7996 -0.4527  0.1361
  554TMC3     C 8221   2.438   2.490  11.650  0.1224  0.5205  0.3929
  554TMC3     O 8222   2.341   2.414  11.638 -0.1719  0.9350  0.2474
  554TMC3     H 8223   2.312   2.505  11.425 -2.7454  2.2265  2.6112
  554TMC3    H1 8224   2.602   2.705  11.672  0.1586 -1.0156  0.4356
  554TMC3    H2 8225   2.485   2.892  11.308  1.0188 -1.7912 -1.5609
  554TMC3    C7 8226   2.667   2.907  11.528 -0.3211 -0.2883  0.8330
  554TMC3    C8 8227   2.339   2.699  11.234 -0.5670 -0.0725 -0.2418
  554TMC3    O1 8228   2.733   2.895  11.636 -0.4721 -0.0913 -0.4228
  554TMC3    O2 8229   2.384   2.774  11.149  0.2161 -0.0573 -0.4227
  555TMC3    C1 8230   2.246   2.218  14.779  0.4505 -0.1078  0.4045
  555TMC3    C2 8231   2.267   2.310  14.882 -0.1702 -0.2506  0.0897
  555TMC3    C3 8232   2.319   2.260  15.000  0.9465  0.2894  0.3623
  555TMC3    C4 8233   2.264   2.075  14.787 -0.1967  0.1644  0.0544
  555TMC3    C5 8234   2.316   2.032  14.906  0.0465  0.6183 -0.5156
  555TMC3    C6 8235   2.334   2.121  15.010 -0.1316 -0.2274 -0.2432
  555TMC3     C 8236   2.173   2.263  14.659  0.3342 -0.1459  0.1218
  555TMC3     O 8237   2.176   2.182  14.566 -0.0843  0.1729  0.4092
  555TMC3     H 8238   2.261   2.416  14.859  0.5441 -0.4046 -0.8311
  555TMC3    H1 8239   2.252   2.003  14.707  1.8977  0.4980 -0.5773
  555TMC3    H2 8240   2.385   2.084  15.099 -0.8580  2.5208  1.3475
  555TMC3    C7 8241   2.310   1.891  14.944  0.0880 -0.5396 -0.4500
  555TMC3    C8 8242   2.323   2.348  15.118 -0.6524  0.0441 -0.0697
  555TMC3    O1 8243   2.332   1.857  15.059  0.5413 -0.8350 -0.1291
  555TMC3    O2 8244   2.310   2.470  15.100 -0.6644 -0.3728  0.0773
  556MPD2     C 8245   0.162   3.729  10.517  0.0400 -0.1152  0.7143
  556MPD2    C1 8246   0.035   3.700  10.566  0.9907  0.1790 -0.6577
  556MPD2    C2 8247   4.691   3.595  10.499  0.0436 -0.2089 -0.2266
  556MPD2    C3 8248   0.018   3.531  10.386 -0.3433 -0.1813  0.1351
  556MPD2    C4 8249   0.144   3.570  10.341 -0.1278  0.5683 -0.7871
  556MPD2    C5 8250   0.213   3.665  10.407 -0.3407 -0.1434  0.5560
  556MPD2     H 8251   4.593   3.565  10.534  0.2617  0.5360  1.0504
  556MPD2    H1 8252   0.186   3.521  10.254 -0.4391 -0.0732 -0.5839
  556MPD2    H2 8253   0.234   3.796  10.561 -0.0659 -0.2401  1.0749
  556MPD2    H3 8254   0.310   3.692  10.366 -0.0282  1.1010  2.1458
  556MPD2     N 8255   4.679   3.420  10.336 -0.0937  0.0077  0.0291
  556MPD2    H5 8256   4.610   3.377  10.396  1.3009 -1.1413  0.8205
  556MPD2    N1 8257   4.715   3.754  10.682  0.0430  0.2982 -0.5431
  556MPD2    H7 8258   4.637   3.705  10.726  0.2461  0.3016 -0.1842
  557TMC3    C1 8259   4.618   3.241  10.205 -0.3002 -0.8698  0.2090
  557TMC3    C2 8260   4.650   3.153  10.104 -0.1737 -0.1728 -0.6971
  557TMC3    C3 8261   4.549   3.063  10.075  0.1643 -0.3891  0.1033
  557TMC3    C4 8262   4.497   3.240  10.267  1.0622  0.3091  0.0378
  557TMC3    C5 8263   4.399   3.146  10.228  0.2111  0.1385  0.5441
  557TMC3    C6 8264   4.427   3.056  10.126  0.5488  0.2915 -0.1645
  557TMC3     C 8265   4.709   3.345  10.225  0.3969 -0.5089 -0.0894
  557TMC3     O 8266   0.069   3.369  10.141  0.0797 -0.1607  0.0474
  557TMC3     H 8267   0.022   3.131  10.069  1.0012  3.0779  0.6010
  557TMC3    H1 8268   4.465   3.307  10.346  1.7170  0.3569  0.2547
  557TMC3    H2 8269   4.362   2.973  10.100 -0.1731  1.1381 -1.0321
  557TMC3    C7 8270   4.268   3.209  10.242 -0.1699 -0.2299 -0.1818
  557TMC3    C8 8271   4.597   2.941  10.012 -0.1560 -0.4320  0.0075
  557TMC3    O1 8272   4.247   3.268  10.347  0.0130  0.2461 -0.4137
  557TMC3    O2 8273   4.716   2.911  10.018  0.4148 -0.1931  0.1496
  558TMC3    C1 8274   2.434   1.724  10.162  0.5069 -0.5282 -0.0667
  558TMC3    C2 8275   2.305   1.698  10.200  0.1825 -0.1137  0.5440
  558TMC3    C3 8276   2.215   1.646  10.106  0.3621  0.5102  0.0899
  558TMC3    C4 8277   2.472   1.715  10.029  0.0339 -0.1676  0.5032
  558TMC3    C5 8278   2.381   1.681   9.935 -0.3846 -0.3861 -0.0661
  558TMC3    C6 8279   2.256   1.648   9.977 -0.1666 -0.0591 -0.1937
  558TMC3     C 8280   2.531   1.765  10.262  0.4436 -0.1125  1.2447
  558TMC3     O 8281   2.622   1.836  10.229 -0.0127  0.2807  0.1921
  558TMC3     H 8282   2.279   1.715  10.304 -1.1156  1.5653 -0.0449
  558TMC3    H1 8283   2.576   1.730  10.002  0.1163 -0.2447  0.7845
  558TMC3    H2 8284   2.193   1.612   9.896  0.7491 -0.2311 -0.8247
  558TMC3    C7 8285   2.415   1.714   9.802  0.2922  0.4176 -0.3661
  558TMC3    C8 8286   2.074   1.632  10.133 -0.0883  0.2545 -0.1769
  558TMC3    O1 8287   2.507   1.795   9.791 -0.0502 -0.0771 -0.0010
  558TMC3    O2 8288   1.993   1.644  10.042  0.3305 -0.0695 -0.2944
  559MPD2     C 8289   2.368   2.590  10.405 -0.0637 -0.2651 -0.3240
  559MPD2    C1 8290   2.294   2.491  10.476 -0.0250 -0.0283  0.3832
  559MPD2    C2 8291   2.369   2.422  10.572  0.0364 -0.1510  0.4575
  559MPD2    C3 8292   2.500   2.429  10.605 -0.2879  0.3918  0.3017
  559MPD2    C4 8293   2.561   2.525  10.520 -0.0325 -0.1404  0.2174
  559MPD2    C5 8294   2.499   2.608  10.427  0.5318 -0.1422 -0.0596
  559MPD2     H 8295   2.306   2.353  10.627  3.8267 -1.7249  2.7929
  559MPD2    H1 8296   2.667   2.537  10.544 -0.7009  0.8265  2.7445
  559MPD2    H2 8297   2.313   2.652  10.336  1.5057  1.9555  0.4496
  559MPD2    H3 8298   2.546   2.687  10.370  0.3312  0.6753  0.9172
  559MPD2     N 8299   2.553   2.342  10.702 -0.1084 -0.1731  0.0652
  559MPD2    H5 8300   2.480   2.291  10.750  0.2161 -2.3783 -1.7890
  559MPD2    N1 8301   2.156   2.468  10.446  0.0254 -0.4375 -0.1215
  559MPD2    H7 8302   2.115   2.529  10.376 -0.4778 -1.4790 -0.7424
  560TMC3    C1 8303   2.722   2.246  10.845 -0.1449  0.5012  0.1947
  560TMC3    C2 8304   2.634   2.154  10.885  0.5135  0.2656 -0.0232
  560TMC3    C3 8305   2.647   2.095  11.008  0.4314 -0.1234  0.2936
  560TMC3    C4 8306   2.827   2.285  10.920  0.1803  0.0474  0.3583
  560TMC3    C5 8307   2.851   2.213  11.038  0.6485  0.3003 -0.4542
  560TMC3    C6 8308   2.764   2.112  11.081  0.0096  0.7496  0.8115
  560TMC3     C 8309   2.689   2.324  10.722 -0.0957  0.2698 -0.3567
  560TMC3     O 8310   2.787   2.390  10.685  0.2881 -0.5093  0.8256
  560TMC3     H 8311   2.543   2.142  10.828  0.5030 -2.0131  0.4690
  560TMC3    H1 8312   2.894   2.363  10.887  1.1196 -1.3259 -0.9601
  560TMC3    H2 8313   2.774   2.061  11.177 -2.6870  2.0295  1.7634
  560TMC3    C7 8314   2.968   2.236  11.121 -0.0775 -0.2892  0.1334
  560TMC3    C8 8315   2.561   1.982  11.038  0.4319 -0.3034  0.2306
  560TMC3    O1 8316   3.023   2.132  11.156 -0.6703 -0.2021 -0.0072
  560TMC3    O2 8317   2.451   1.986  10.984  0.6477  0.3577  0.1230
  561TMC3    C1 8318   0.411   1.318  11.427 -0.4864  0.2548 -0.0655
  561TMC3    C2 8319   0.372   1.307  11.563  0.6784  0.0559 -0.2838
  561TMC3    C3 8320   0.458   1.363  11.643  0.5586  0.1111 -0.1836
  561TMC3    C4 8321   0.517   1.386  11.384 -0.0175  0.3353 -0.3804
  561TMC3    C5 8322   0.589   1.448  11.473  0.0464  0.3432  0.5709
  561TMC3    C6 8323   0.565   1.431  11.608 -0.0390 -0.1121  0.4820
  561TMC3     C 8324   0.323   1.250  11.336 -1.0268  0.4842 -0.2450
  561TMC3     O 8325   0.211   1.211  11.387 -0.0763  0.0051  0.1625
  561TMC3     H 8326   0.287   1.255  11.606  0.7215 -0.5856 -0.9684
  561TMC3    H1 8327   0.536   1.398  11.277  1.7819 -1.1267 -0.2358
  561TMC3    H2 8328   0.623   1.490  11.678  1.1510 -0.9601  0.1968
  561TMC3    C7 8329   0.721   1.503  11.422  0.6381  0.0233  0.1765
  561TMC3    C8 8330   0.423   1.370  11.778 -0.0321 -1.0298 -0.4655
  561TMC3    O1 8331   0.806   1.508  11.513 -0.0858  0.2432 -0.3420
  561TMC3    O2 8332   0.518   1.383  11.851  0.4296 -0.4757 -0.8300
  562TMC3    C1 8333   1.871   2.554  16.053  0.2820 -0.6455  0.1784
  562TMC3    C2 8334   1.794   2.656  16.010  0.7169  0.8989 -0.4894
  562TMC3    C3 8335   1.768   2.667  15.877  0.4549 -0.4221  0.2170
  562TMC3    C4 8336   1.915   2.449  15.970  0.0044 -0.3124  0.1308
  562TMC3    C5 8337   1.868   2.459  15.844  0.9998  0.6107  0.6505
  562TMC3    C6 8338   1.809   2.569  15.793  0.0523  0.8005 -0.2120
  562TMC3     C 8339   1.938   2.553  16.183 -0.2459 -0.5012 -0.0520
  562TMC3     O 8340   2.032   2.472  16.191 -0.3835 -1.1892 -0.1929
  562TMC3     H 8341   1.750   2.727  16.080 -1.4409 -0.4193 -0.4931
  562TMC3    H1 8342   1.959   2.359  16.011 -0.8003 -0.5884  0.3748
  562TMC3    H2 8343   1.808   2.584  15.685  0.3084  0.3016 -0.2830
  562TMC3    C7 8344   1.925   2.365  15.749 -0.4369 -0.0916 -0.0235
  562TMC3    C8 8345   1.670   2.768  15.838  0.9923 -0.4372 -1.0858
  562TMC3    O1 8346   1.937   2.391  15.627  0.4270  0.4458  0.4579
  562TMC3    O2 8347   1.605   2.819  15.929 -0.0443  0.3505  0.6725
  563MPD2     C 8348   4.300   3.551  15.602  0.5292 -1.1198 -0.1513
  563MPD2    C1 8349   4.285   3.535  15.738 -0.8452  0.1147 -0.1171
  563MPD2    C2 8350   4.395   3.505  15.810  0.3036 -0.2915  0.3352
  563MPD2    C3 8351   4.518   3.492  15.765  0.0902  0.4212 -0.0875
  563MPD2    C4 8352   4.540   3.496  15.632 -0.0079 -0.3283  0.0134
  563MPD2    C5 8353   4.426   3.535  15.559  0.6178 -0.0169 -0.0736
  563MPD2     H 8354   4.386   3.483  15.916 -0.1855 -0.0611  0.3406
  563MPD2    H1 8355   4.637   3.484  15.585  0.3001 -0.3323  0.6492
  563MPD2    H2 8356   4.227   3.580  15.527  0.1918 -0.9955  0.2267
  563MPD2    H3 8357   4.440   3.545  15.452  1.4873 -0.1521  0.0216
  563MPD2     N 8358   4.618   3.486  15.859  0.3776 -0.5935  0.6462
  563MPD2    H5 8359   4.594   3.501  15.957  0.3603  0.2217  0.5174
  563MPD2    N1 8360   4.163   3.559  15.805  0.3455  0.0711 -0.0047
  563MPD2    H7 8361   4.160   3.544  15.905  0.3702  1.9599  0.2685
  564TMC3    C1 8362   3.934   3.598  15.829  0.6152  0.4617 -0.3969
  564TMC3    C2 8363   3.837   3.505  15.804  0.1427  0.1616  0.0346
  564TMC3    C3 8364   3.763   3.463  15.911  0.4511  0.4112 -0.3265
  564TMC3    C4 8365   3.962   3.641  15.957 -0.0929 -0.6727 -0.1764
  564TMC3    C5 8366   3.900   3.576  16.061  0.5463  0.0780  0.0525
  564TMC3    C6 8367   3.797   3.496  16.036 -0.4499 -0.3199 -0.7299
  564TMC3     C 8368   4.046   3.590  15.741 -0.4876 -0.2483 -0.4046
  564TMC3     O 8369   4.017   3.591  15.625  0.7305  0.3673  0.1386
  564TMC3     H 8370   3.838   3.470  15.702 -0.2525  2.4289 -0.7662
  564TMC3    H1 8371   4.027   3.725  15.974  0.7835 -1.1543 -1.1815
  564TMC3    H2 8372   3.728   3.471  16.116  3.1839 -1.0146  2.1441
  564TMC3    C7 8373   3.994   3.517  16.154 -0.3998  0.3903 -0.0126
  564TMC3    C8 8374   3.710   3.328  15.902  1.1585 -0.3023 -0.4291
  564TMC3    O1 8375   4.099   3.581  16.174  0.1923 -0.5100  1.0407
  564TMC3    O2 8376   3.696   3.276  16.014 -0.0481 -1.0434 -0.0820
  565TMC3    C1 8377   4.158   0.644  10.105 -0.6842 -0.7945  0.8950
  565TMC3    C2 8378   4.221   0.534  10.153  0.6740 -0.7165 -0.3458
  565TMC3    C3 8379   4.162   0.416  10.134  0.8333 -0.0756 -0.3662
  565TMC3    C4 8380   4.040   0.644  10.038 -1.1440  0.0128 -0.0086
  565TMC3    C5 8381   3.984   0.527  10.024  0.9643  0.0127 -0.0912
  565TMC3    C6 8382   4.043   0.405  10.067  0.0820 -0.3145  0.0541
  565TMC3     C 8383   4.197   0.777  10.145 -0.0982 -0.4578  0.2795
  565TMC3     O 8384   4.166   0.870  10.078  0.3975 -0.1313  0.0777
  565TMC3     H 8385   4.316   0.532  10.206 -0.6544 -0.2310  2.0538
  565TMC3    H1 8386   3.993   0.738  10.010 -0.7151  0.2479  0.0606
  565TMC3    H2 8387   3.980   0.317  10.070 -0.4638  0.0650 -0.2421
  565TMC3    C7 8388   3.852   0.519   9.967  0.5548 -0.0767  0.6100
  565TMC3    C8 8389   4.219   0.303  10.200  0.4494 -0.0398  0.4051
  565TMC3    O1 8390   3.804   0.408   9.963  0.3716  0.0753  1.0275
  565TMC3    O2 8391   4.322   0.319  10.265  0.2472  0.5887 -0.1988
  566MPD2     C 8392   0.786   2.385  14.507 -0.4471  0.2286  0.0414
  566MPD2    C1 8393   0.850   2.428  14.397  0.0081 -0.0945 -0.1994
  566MPD2    C2 8394   0.839   2.358  14.283 -0.6080  0.0331 -0.6095
  566MPD2    C3 8395   0.769   2.240  14.284  0.0238  0.9201  0.0881
  566MPD2    C4 8396   0.720   2.189  14.398 -0.1407  0.5078  0.0285
  566MPD2    C5 8397   0.721   2.263  14.509 -0.3520 -0.5718 -0.5020
  566MPD2     H 8398   0.885   2.386  14.189  0.6275 -1.9989 -0.5936
  566MPD2    H1 8399   0.676   2.090  14.406  0.3536  0.2550 -0.4055
  566MPD2    H2 8400   0.807   2.441  14.597  0.5881 -0.8126  0.4605
  566MPD2    H3 8401   0.685   2.220  14.602  0.2877  0.8277  0.3890
  566MPD2     N 8402   0.764   2.170  14.160 -0.4009  0.8650 -0.4880
  566MPD2    H5 8403   0.822   2.201  14.083  1.2093  1.6756  1.0665
  566MPD2    N1 8404   0.928   2.548  14.403 -0.1481  0.6862 -0.3064
  566MPD2    H7 8405   0.942   2.599  14.490  0.9915 -0.1406 -0.0124
  567TMC3    C1 8406   1.076   2.711  14.322  0.2062 -0.0410  0.2521
  567TMC3    C2 8407   1.100   2.817  14.238 -0.7418 -0.2994  0.5449
  567TMC3    C3 8408   1.225   2.853  14.212 -0.7387 -0.6106  0.3812
  567TMC3    C4 8409   1.177   2.646  14.396  0.0263  0.5176 -0.8215
  567TMC3    C5 8410   1.308   2.683  14.365  0.5410  0.1593 -0.8686
  567TMC3    C6 8411   1.329   2.788  14.269 -0.3211 -0.2782  0.3603
  567TMC3     C 8412   0.958   2.627  14.293  0.5630 -0.8087  0.3839
  567TMC3     O 8413   0.906   2.632  14.183  0.0837  0.6561  0.0668
  567TMC3     H 8414   1.010   2.846  14.186  0.4004  1.2609 -0.5824
  567TMC3    H1 8415   1.160   2.577  14.478  0.4945  2.1596  0.6392
  567TMC3    H2 8416   1.427   2.835  14.275 -1.0887  1.1115  1.8401
  567TMC3    C7 8417   1.428   2.624  14.423  0.1600  0.1379  0.8455
  567TMC3    C8 8418   1.245   2.902  14.078  0.0567 -0.0006 -0.2129
  567TMC3    O1 8419   1.533   2.686  14.432 -0.3030 -0.9122  0.2901
  567TMC3    O2 8420   1.149   2.954  14.023  0.3013 -1.1100 -0.0521
  568MPD2     C 8421   3.825   1.917  16.375  0.0734 -0.0398  0.1289
  568MPD2    C1 8422   3.863   2.039  16.426 -0.4725  0.3403 -0.6082
  568MPD2    C2 8423   3.797   2.158  16.387  0.5051 -0.5158 -0.0374
  568MPD2    C3 8424   3.694   2.150  16.294  0.4953  0.2559  0.5951
  568MPD2    C4 8425   3.668   2.029  16.236  0.1425  0.0533  0.9570
  568MPD2    C5 8426   3.730   1.911  16.272  0.5130 -0.0517 -0.4273
  568MPD2     H 8427   3.806   2.256  16.432 -2.2712 -0.8550  1.2973
  568MPD2    H1 8428   3.597   2.022  16.154  0.7806 -0.1242  0.4173
  568MPD2    H2 8429   3.872   1.828  16.415  1.8159  0.7844 -0.0831
  568MPD2    H3 8430   3.690   1.812  16.251  0.1719 -0.8680  4.1317
  568MPD2     N 8431   3.628   2.270  16.262 -0.2575 -0.2662 -0.2393
  568MPD2    H5 8432   3.653   2.350  16.319 -1.3331  0.1394 -0.3415
  568MPD2    N1 8433   3.939   2.042  16.546  0.2309  0.0371  0.6740
  568MPD2    H7 8434   3.961   1.957  16.597  2.7966 -0.2322 -0.8729
  569TMC3    C1 8435   3.509   2.440  16.173 -0.5647  0.1284  0.3741
  569TMC3    C2 8436   3.547   2.498  16.289 -0.3652  0.5025  0.3030
  569TMC3    C3 8437   3.598   2.622  16.291 -1.1604  0.8159 -0.2863
  569TMC3    C4 8438   3.508   2.510  16.059  0.5186  0.3621  0.1630
  569TMC3    C5 8439   3.563   2.641  16.060  0.3785 -0.2753  0.1293
  569TMC3    C6 8440   3.611   2.694  16.172 -0.2054 -0.2747  0.2392
  569TMC3     C 8441   3.527   2.295  16.175  0.4179 -0.0444 -0.3879
  569TMC3     O 8442   3.463   2.240  16.084  0.1401 -0.2358  0.7208
  569TMC3     H 8443   3.515   2.452  16.383  0.2230 -0.9320 -0.1959
  569TMC3    H1 8444   3.465   2.461  15.973 -0.1113  0.1799  0.5808
  569TMC3    H2 8445   3.654   2.794  16.174 -1.3522  0.2428 -1.4233
  569TMC3    C7 8446   3.575   2.687  15.929 -0.0432  0.0099 -0.1405
  569TMC3    C8 8447   3.667   2.662  16.412 -0.1483 -0.5886  0.3043
  569TMC3    O1 8448   3.568   2.606  15.838 -0.1190 -0.6914  0.4147
  569TMC3    O2 8449   3.696   2.559  16.473  0.0039  0.0632  0.0437
  570TMC3    C1 8450   3.012   1.257  15.806 -0.0399 -0.6473  0.3923
  570TMC3    C2 8451   3.094   1.275  15.695  0.5454 -0.8710  0.3298
  570TMC3    C3 8452   3.150   1.401  15.688 -0.2490  0.2342 -0.4645
  570TMC3    C4 8453   2.989   1.356  15.901  0.0804  1.0873 -0.4514
  570TMC3    C5 8454   3.052   1.472  15.885  0.1449  1.0265 -0.3765
  570TMC3    C6 8455   3.132   1.502  15.776  0.3475 -0.4893 -0.1669
  570TMC3     C 8456   2.979   1.119  15.837  0.4038  0.3028 -0.5125
  570TMC3     O 8457   3.042   1.030  15.782  0.3755 -0.3798  0.1296
  570TMC3     H 8458   3.130   1.192  15.635  1.1782  0.0649 -0.5867
  570TMC3    H1 8459   2.929   1.339  15.989  0.0992  1.7480 -0.3107
  570TMC3    H2 8460   3.183   1.595  15.753  0.4575 -0.6519 -0.5857
  570TMC3    C7 8461   3.043   1.569  15.995 -0.6824  0.0374 -0.1098
  570TMC3    C8 8462   3.219   1.438  15.562  0.2435  0.0070 -0.5350
  570TMC3    O1 8463   3.005   1.530  16.104 -0.0536  0.1294 -0.5180
  570TMC3    O2 8464   3.298   1.533  15.574  0.3307  0.5684  0.0442
  571MPD2     C 8465   1.387   2.892  17.562  0.7074  0.3860 -0.6391
  571MPD2    C1 8466   1.255   2.864  17.528 -0.0837  0.3148  0.8106
  571MPD2    C2 8467   1.155   2.945  17.577  0.3230 -0.2579 -0.4105
  571MPD2    C3 8468   1.178   3.043  17.660 -0.4197 -0.4549  1.2901
  571MPD2    C4 8469   1.309   3.073  17.697 -0.1344 -0.2299  0.7542
  571MPD2    C5 8470   1.413   3.005  17.642 -1.2169  0.2694 -0.6716
  571MPD2     H 8471   1.058   2.934  17.530  0.6821  0.8403 -1.3809
  571MPD2    H1 8472   1.336   3.152   0.051  0.0762  0.5318 -0.2064
  571MPD2    H2 8473   1.470   2.834  17.523  0.3061 -0.7609  0.2293
  571MPD2    H3 8474   1.514   3.033  17.672 -1.5898  1.4428 -0.5095
  571MPD2     N 8475   1.070   3.121   0.002  0.6882 -0.1682  0.1417
  571MPD2    H5 8476   1.108   3.191   0.066 -0.7146  0.4202  0.3219
  571MPD2    N1 8477   1.239   2.753  17.446 -0.4335  0.2862 -0.0870
  571MPD2    H7 8478   1.317   2.694  17.421 -1.2032 -0.7804  0.0294
  572TMC3    C1 8479   0.862   3.201   0.077  0.5568  1.3517 -0.1387
  572TMC3    C2 8480   0.728   3.177   0.118  0.4036 -0.1318  0.5663
  572TMC3    C3 8481   0.672   3.263   0.207 -0.5685  0.8087 -0.3334
  572TMC3    C4 8482   0.933   3.309   0.121 -0.1978  0.4010 -0.1041
  572TMC3    C5 8483   0.865   3.395   0.214 -0.3620 -0.9574  0.6070
  572TMC3    C6 8484   0.737   3.372   0.249  0.3049 -0.7566 -0.3462
  572TMC3     C 8485   0.930   3.098   0.004  0.0946 -0.5275 -0.7384
  572TMC3     O 8486   0.855   3.008  17.678 -0.1246 -0.2406  0.1757
  572TMC3     H 8487   0.711   3.071   0.135  0.4447 -0.0957  0.8237
  572TMC3    H1 8488   1.029   3.332   0.077  0.7778  0.7584  2.2103
  572TMC3    H2 8489   0.676   3.457   0.276 -1.8873 -0.5249 -5.9380
  572TMC3    C7 8490   0.917   3.533   0.218  0.8375 -0.4511 -0.4082
  572TMC3    C8 8491   0.599   3.191   0.306  0.4448  0.0128  0.4714
  572TMC3    O1 8492   0.828   3.615   0.210  0.5552 -0.0501 -0.6912
  572TMC3    O2 8493   0.511   3.118   0.266 -0.3160 -0.1481 -0.0568
  573MPD2     C 8494   3.124   3.762   0.810 -0.2647 -0.2971  0.5926
  573MPD2    C1 8495   3.039   3.870   0.820 -0.0320 -0.0467 -0.1681
  573MPD2    C2 8496   2.914   3.855   0.754 -0.0702  0.1400  0.3576
  573MPD2    C3 8497   2.882   3.738   0.687  0.9689  0.1907 -0.1504
  573MPD2    C4 8498   2.971   3.637   0.680  0.6295  0.0232 -0.0913
  573MPD2    C5 8499   3.097   3.654   0.733 -0.2483  0.0493  0.1823
  573MPD2     H 8500   2.837   3.931   0.755  0.1109  0.3354 -0.9577
  573MPD2    H1 8501   2.961   3.551   0.614 -2.6276  0.8179 -0.6453
  573MPD2    H2 8502   3.228   3.767   0.841 -0.0723  1.6379 -0.3308
  573MPD2    H3 8503   3.174   3.581   0.711 -0.4809 -0.6421  1.6395
  573MPD2     N 8504   2.767   3.714   0.611  0.6762  0.3920 -0.4519
  573MPD2    H5 8505   2.756   3.616   0.589  1.0932  0.6823 -1.9711
  573MPD2    N1 8506   3.068   3.982   0.898 -0.0480  0.1475 -0.0901
  573MPD2    H7 8507   3.156   3.973   0.949  1.0011 -2.4580 -2.3973
  574TMC3    C1 8508   2.564   3.742   0.498  0.1115 -0.0049  1.0050
  574TMC3    C2 8509   2.435   3.789   0.511  0.3314 -0.3528 -0.0982
  574TMC3    C3 8510   2.335   3.717   0.453  0.0542  0.2063 -0.4319
  574TMC3    C4 8511   2.584   3.636   0.421  0.1177 -0.2647 -0.2887
  574TMC3    C5 8512   2.482   3.564   0.362 -0.5728 -0.3002 -0.0345
  574TMC3    C6 8513   2.358   3.604   0.378 -0.5732 -0.2151 -0.2116
  574TMC3     C 8514   2.665   3.802   0.585  0.3440 -0.7134  0.0359
  574TMC3     O 8515   2.648   3.916   0.620 -0.1863 -0.6466 -0.1566
  574TMC3     H 8516   2.411   3.884   0.558 -0.2630 -1.1850  1.2744
  574TMC3    H1 8517   2.687   3.610   0.398  0.5038  1.1761 -0.1891
  574TMC3    H2 8518   2.275   3.548   0.336 -0.6511 -0.2196 -0.0536
  574TMC3    C7 8519   2.513   3.475   0.259 -0.7912 -0.2746  0.1901
  574TMC3    C8 8520   2.203   3.764   0.466  0.3635 -0.2200 -0.1155
  574TMC3    O1 8521   2.443   3.469   0.161 -0.0183  0.2256 -0.0215
  574TMC3    O2 8522   2.115   3.677   0.464 -0.0305 -0.1661  0.4233
  575TMC3    C1 8523   4.442   4.600  10.950  0.3859 -0.1988  0.1027
  575TMC3    C2 8524   4.402   4.471  10.955 -0.3560 -0.5929 -1.0285
  575TMC3    C3 8525   4.372   4.402  10.840 -0.3800 -0.0381 -0.1715
  575TMC3    C4 8526   4.457   4.669  10.831 -0.9484 -0.1261 -0.2949
  575TMC3    C5 8527   4.416   4.597  10.718 -0.1979  0.6095  0.8151
  575TMC3    C6 8528   4.379   4.462  10.719  0.9424 -0.2675 -0.1516
  575TMC3     C 8529   4.474   4.664  11.083  0.7046 -0.4841  0.2194
  575TMC3     O 8530   4.532   0.039  11.067 -0.0916  0.3712  0.5368
  575TMC3     H 8531   4.401   4.409  11.044 -1.9263 -0.1581 -0.7367
  575TMC3    H1 8532   4.489   0.043  10.822  0.0936 -0.1744  2.7981
  575TMC3    H2 8533   4.338   4.407  10.635 -0.6921 -0.2524  0.6308
  575TMC3    C7 8534   4.381   4.682  10.607 -0.9073 -0.0207  0.6199
  575TMC3    C8 8535   4.339   4.267  10.851  0.0723  0.5681  0.6978
  575TMC3    O1 8536   4.365   0.077  10.610  0.5275 -0.2448 -0.5548
  575TMC3    O2 8537   4.287   4.237  10.957 -0.1756  0.4043  0.2191
  576MPD2     C 8538   4.122   1.611  12.605 -0.3956 -0.3133 -0.3346
  576MPD2    C1 8539   4.089   1.675  12.489  0.3838  0.1605 -0.3093
  576MPD2    C2 8540   3.994   1.776  12.497  0.4215  0.5461  0.1081
  576MPD2    C3 8541   3.927   1.811  12.614  0.2420 -0.2214  0.2075
  576MPD2    C4 8542   3.967   1.738  12.733 -0.0793  0.2335  0.7385
  576MPD2    C5 8543   4.068   1.644  12.728  0.4620  0.3438 -0.0820
  576MPD2     H 8544   3.973   1.830  12.405 -3.8739  0.1182  0.8190
  576MPD2    H1 8545   3.927   1.768  12.829  0.0766 -0.1479  0.9226
  576MPD2    H2 8546   4.191   1.528  12.612  2.0596  1.8119  0.4517
  576MPD2    H3 8547   4.108   1.595  12.815 -0.6689 -0.6218 -0.1105
  576MPD2     N 8548   3.832   1.918  12.620  0.4384  0.3317  0.2516
  576MPD2    H5 8549   3.821   1.975  12.536  2.9246 -2.2809 -1.8380
  576MPD2    N1 8550   4.149   1.631  12.367 -0.6067  0.4214  0.0439
  576MPD2    H7 8551   4.216   1.556  12.369 -1.0008  0.0704  0.0628
  577TMC3    C1 8552   4.205   1.615  12.139 -0.5465  0.5598  0.0660
  577TMC3    C2 8553   4.304   1.528  12.184 -0.0219  0.2874 -0.4567
  577TMC3    C3 8554   4.379   1.481  12.079 -0.5553 -0.1078 -0.0902
  577TMC3    C4 8555   4.185   1.651  12.010  0.1049 -0.4564 -0.4536
  577TMC3    C5 8556   4.256   1.591  11.913 -0.8880  0.1751 -0.8667
  577TMC3    C6 8557   4.352   1.504  11.945  0.1143  0.0652 -0.2184
  577TMC3     C 8558   4.117   1.668  12.243  0.5522  1.0337  0.9512
  577TMC3     O 8559   4.032   1.746  12.204 -0.1712  0.3731 -0.0466
  577TMC3     H 8560   4.325   1.499  12.286 -0.1124  1.4250 -0.1112
  577TMC3    H1 8561   4.111   1.725  11.982 -2.1689 -2.0841  1.1934
  577TMC3    H2 8562   4.408   1.450  11.869  0.1988  0.5783 -0.5247
  577TMC3    C7 8563   4.247   1.618  11.770 -0.1814  0.0261 -0.7204
  577TMC3    C8 8564   4.499   1.412  12.116 -1.0527  0.9282  0.2385
  577TMC3    O1 8565   4.307   1.545  11.696  0.1598  0.1295 -0.0764
  577TMC3    O2 8566   4.507   1.372  12.231  0.0595 -0.3575 -0.0277
  578MPD2     C 8567   2.643   1.481   0.897 -0.1128 -0.4757 -0.4206
  578MPD2    C1 8568   2.749   1.461   0.805 -0.3317 -0.3934  0.3956
  578MPD2    C2 8569   2.871   1.402   0.848  0.0526  0.0355 -0.4146
  578MPD2    C3 8570   2.889   1.362   0.976 -0.0432  0.4403 -0.3905
  578MPD2    C4 8571   2.783   1.378   1.065  0.5020  0.1095  0.1787
  578MPD2    C5 8572   2.661   1.432   1.023 -0.3715  0.0571 -0.1044
  578MPD2     H 8573   2.945   1.391   0.770  1.5260  0.9051  0.8748
  578MPD2    H1 8574   2.791   1.348   1.169  0.9047 -0.5382 -0.0417
  578MPD2    H2 8575   2.560   1.541   0.863  0.9655  0.2953 -1.7110
  578MPD2    H3 8576   2.589   1.453   1.101  0.7253  0.7184  0.7320
  578MPD2     N 8577   3.019   1.315   1.013  0.2297 -0.5113 -0.2201
  578MPD2    H5 8578   3.089   1.301   0.940  1.2937  2.2914  0.2923
  578MPD2    N1 8579   2.709   1.504   0.678 -0.1663  0.1949  0.8277
  578MPD2    H7 8580   2.609   1.519   0.673  0.2230  2.3434 -0.5302
  579TMC3    C1 8581   3.187   1.228   1.151  0.1473 -0.0723  0.2061
  579TMC3    C2 8582   3.259   1.274   1.259 -0.0483  0.2223 -0.0770
  579TMC3    C3 8583   3.353   1.183   1.302  0.9082 -0.1663 -0.1722
  579TMC3    C4 8584   3.206   1.109   1.086  0.2882 -0.2943  0.4474
  579TMC3    C5 8585   3.307   1.029   1.126  0.4277  0.2368 -0.3712
  579TMC3    C6 8586   3.373   1.067   1.236  0.7251 -0.2623 -0.3706
  579TMC3     C 8587   3.055   1.286   1.141  0.1114 -0.1115  0.4142
  579TMC3     O 8588   3.004   1.327   1.243 -0.2887  0.1848  0.2247
  579TMC3     H 8589   3.229   1.369   1.300 -3.0405  0.4876 -2.8092
  579TMC3    H1 8590   3.145   1.075   1.003 -0.8773  2.8497  0.0245
  579TMC3    H2 8591   3.440   0.994   1.279 -0.5228 -0.6453  0.9258
  579TMC3    C7 8592   3.345   0.916   1.042  0.0210  0.2193  0.2938
  579TMC3    C8 8593   3.434   1.228   1.414 -0.3231  0.7076  0.6728
  579TMC3    O1 8594   3.462   0.882   1.051 -0.2144 -0.3752 -0.2153
  579TMC3    O2 8595   3.544   1.182   1.436 -0.7208 -0.1265 -0.1678
  580TMC3    C1 8596   1.536   0.847  12.117 -0.2304  0.3157  0.2720
  580TMC3    C2 8597   1.513   0.872  11.984  0.3283 -0.2706  0.1443
  580TMC3    C3 8598   1.557   0.788  11.892  0.0357  0.7334 -0.0754
  580TMC3    C4 8599   1.582   0.722  12.152  0.5183 -0.0698 -0.0514
  580TMC3    C5 8600   1.610   0.632  12.055  0.1861  0.1599 -0.5015
  580TMC3    C6 8601   1.615   0.672  11.927 -0.1671  0.6176 -0.6352
  580TMC3     C 8602   1.606   0.969  12.177  0.1079 -0.2504 -0.0567
  580TMC3     O 8603   1.559   1.076  12.145  0.4204 -0.0547  0.3806
  580TMC3     H 8604   1.484   0.974  11.960 -0.6549 -0.7151 -0.5296
  580TMC3    H1 8605   1.596   0.695  12.256  2.4781  1.2639  0.0337
  580TMC3    H2 8606   1.666   0.614  11.851  0.4934  1.3896 -0.7787
  580TMC3    C7 8607   1.710   0.534  12.103 -0.5860  0.1914  0.0364
  580TMC3    C8 8608   1.643   0.861  11.800 -0.0753 -0.3833 -0.4459
  580TMC3    O1 8609   1.787   0.583  12.188 -0.1923 -0.4789 -0.1604
  580TMC3    O2 8610   1.601   0.895  11.688  0.3747  0.3692 -0.3515
  581MPD2     C 8611   0.254   0.575  14.901  0.1978 -0.7493  0.0988
  581MPD2    C1 8612   0.181   0.459  14.901 -0.1120  0.4856  0.4348
  581MPD2    C2 8613   0.045   0.458  14.913  1.0044 -0.3858  0.0429
  581MPD2    C3 8614   4.709   0.579  14.904 -0.2632 -0.3405 -0.3329
  581MPD2    C4 8615   0.054   0.696  14.904  0.2933  0.3727  0.7449
  581MPD2    C5 8616   0.192   0.697  14.895 -0.6306 -0.2306  0.5885
  581MPD2     H 8617   4.728   0.361  14.930 -0.1846  0.3362  0.8957
  581MPD2    H1 8618   0.014   0.796  14.898 -0.5768 -0.1660 -2.5037
  581MPD2    H2 8619   0.362   0.566  14.898  0.2999 -0.2679  1.9867
  581MPD2    H3 8620   0.253   0.786  14.886 -1.3376  0.1053 -0.9124
  581MPD2     N 8621   4.567   0.576  14.902  0.3147 -0.5356 -0.3547
  581MPD2    H5 8622   4.524   0.485  14.913 -2.9379  1.2964  2.0083
  581MPD2    N1 8623   0.260   0.344  14.927  0.2234  0.0083 -0.2454
  581MPD2    H7 8624   0.357   0.371  14.936 -0.2448  0.9354  2.0532
  582TMC3    C1 8625   0.322   0.121  14.959 -0.0860 -0.0602  0.1893
  582TMC3    C2 8626   0.387   0.161  15.074  0.0099  0.0920  0.0999
  582TMC3    C3 8627   0.433   0.068  15.165  0.1777  0.1950 -0.2863
  582TMC3    C4 8628   0.302   4.717  14.936 -0.1296  0.3014 -0.1823
  582TMC3    C5 8629   0.341   4.624  15.027 -0.2584  0.0005  0.2223
  582TMC3    C6 8630   0.409   4.660  15.136  0.6132 -0.0645  0.4911
  582TMC3     C 8631   0.227   0.215  14.905  0.7930  0.4206 -0.7703
  582TMC3     O 8632   0.122   0.174  14.856  0.0223 -0.0721 -0.0889
  582TMC3     H 8633   0.397   0.265  15.103  0.0928 -0.1786  1.0197
  582TMC3    H1 8634   0.243   4.681  14.853  1.9087 -1.5889 -0.8014
  582TMC3    H2 8635   0.447   4.588  15.208 -2.9094  0.0593  2.5073
  582TMC3    C7 8636   0.235   4.549  15.079  1.0018 -0.4892 -0.5487
  582TMC3    C8 8637   0.398   0.103  15.304 -0.5643 -0.2703  0.0513
  582TMC3    O1 8638   0.234   4.540  15.201  0.8335 -0.6790  0.3474
  582TMC3    O2 8639   0.437   0.215  15.337 -0.2296  0.6818  0.0951
  583MPD2     C 8640   0.371   2.070  16.675 -0.0264  1.0932  0.4983
  583MPD2    C1 8641   0.374   2.200  16.633  0.4679  0.1901 -0.0372
  583MPD2    C2 8642   0.331   2.296  16.724 -0.0257  0.4819 -0.0987
  583MPD2    C3 8643   0.292   2.269  16.852 -0.1212  0.2785 -0.4557
  583MPD2    C4 8644   0.283   2.134  16.891 -0.6322  0.1009 -0.4786
  583MPD2    C5 8645   0.325   2.041  16.799 -0.2631 -0.4711 -0.3841
  583MPD2     H 8646   0.331   2.397  16.687 -1.9999 -1.5024 -5.5037
  583MPD2    H1 8647   0.247   2.096  16.986  0.7619  4.4476  1.7832
  583MPD2    H2 8648   0.403   1.992  16.607  1.3556  0.6821  1.6278
  583MPD2    H3 8649   0.313   1.941  16.838 -0.4798 -0.4095 -0.2922
  583MPD2     N 8650   0.271   2.373  16.939  0.2786  0.3489  0.2358
  583MPD2    H5 8651   0.261   2.468  16.903  1.0118  0.5609  0.5777
  583MPD2    N1 8652   0.430   2.242  16.505  0.6384 -0.6583 -0.2507
  583MPD2    H7 8653   0.399   2.331  16.469 -1.3884 -1.4222 -0.3764
  584TMC3    C1 8654   0.222   2.482  17.147  0.1558 -0.7106  0.1538
  584TMC3    C2 8655   0.242   2.599  17.083  0.4558  0.3472  0.1650
  584TMC3    C3 8656   0.226   2.704  17.169 -0.9145 -0.5937  0.2302
  584TMC3    C4 8657   0.201   2.460  17.285  0.4815 -0.6053 -0.0563
  584TMC3    C5 8658   0.185   2.569  17.369  0.0773 -0.0524 -0.1929
  584TMC3    C6 8659   0.199   2.692  17.307  0.3863  0.7288 -0.4943
  584TMC3     C 8660   0.249   2.361  17.070 -0.5108 -0.8243  0.0470
  584TMC3     O 8661   0.261   2.257  17.141 -0.0802  0.7529 -0.3026
  584TMC3     H 8662   0.252   2.617  16.977  0.6389  2.3193  0.5195
  584TMC3    H1 8663   0.207   2.359  17.324 -1.0342 -0.9940 -0.8161
  584TMC3    H2 8664   0.182   2.783  17.364 -0.6027  1.7965 -2.4852
  584TMC3    C7 8665   0.217   2.550  17.509 -0.5098 -0.6679  0.1831
  584TMC3    C8 8666   0.224   2.836  17.114 -0.1954 -0.4089  0.1140
  584TMC3    O1 8667   0.229   2.432  17.538 -0.0667 -0.4961 -1.0299
  584TMC3    O2 8668   0.168   2.846  17.003 -0.0510 -0.2836  0.5553
  585MPD2     C 8669   4.066   1.809   0.684  0.5160  0.4761 -0.0981
  585MPD2    C1 8670   4.164   1.721   0.643  0.1290  0.3491  0.6837
  585MPD2    C2 8671   4.159   1.672   0.518  1.2466  0.1899  0.2735
  585MPD2    C3 8672   4.059   1.707   0.426  0.2959 -0.1378  0.8138
  585MPD2    C4 8673   3.964   1.805   0.468  0.2057  0.0053  0.7860
  585MPD2    C5 8674   3.969   1.847   0.594 -0.3738  0.3737  0.8168
  585MPD2     H 8675   4.228   1.594   0.488 -0.4874 -1.1606 -0.1535
  585MPD2    H1 8676   3.889   1.849   0.403  0.1837 -0.0068  0.8031
  585MPD2    H2 8677   4.068   1.847   0.785 -1.0218 -0.1792  0.1786
  585MPD2    H3 8678   3.891   1.917   0.625  0.5526  2.0736 -0.7083
  585MPD2     N 8679   4.057   1.665   0.288 -0.2249 -0.3171  0.1910
  585MPD2    H5 8680   3.985   1.706   0.230 -1.3523  1.2759  2.7310
  585MPD2    N1 8681   4.265   1.692   0.743  0.1717 -0.5846  0.0264
  585MPD2    H7 8682   4.264   1.748   0.827  3.6743 -1.9446  0.9428
  586TMC3    C1 8683   4.100   1.530   0.094  0.5154  0.2497 -0.5561
  586TMC3    C2 8684   4.196   1.468   0.018  0.4056 -0.1487  0.0217
  586TMC3    C3 8685   4.159   1.428  17.607 -0.9017 -0.8362  0.0191
  586TMC3    C4 8686   3.971   1.539   0.051  0.3761 -0.5011 -0.3842
  586TMC3    C5 8687   3.929   1.467  17.654  0.1648 -0.1820  0.1664
  586TMC3    C6 8688   4.028   1.427  17.560  0.1803 -0.5680 -0.9355
  586TMC3     C 8689   4.140   1.569   0.230 -1.0542  0.0826 -0.2327
  586TMC3     O 8690   4.245   1.523   0.270 -0.4608 -0.2846 -0.3186
  586TMC3     H 8691   4.299   1.458   0.050  0.0855 -2.6821  0.2961
  586TMC3    H1 8692   3.899   1.565   0.128  2.6154  1.9702  0.8616
  586TMC3    H2 8693   4.007   1.395  17.459 -0.5638  2.4032 -1.7143
  586TMC3    C7 8694   3.786   1.450  17.624  0.6684  1.0497 -0.5931
  586TMC3    C8 8695   4.242   1.332  17.546  0.3483  0.8558  0.1218
  586TMC3    O1 8696   3.698   1.515  17.682 -0.1819  0.2524  0.2467
  586TMC3    O2 8697   4.291   1.239  17.609 -0.3646 -0.2637 -0.2828
  587TMC3    C1 8698   1.859   4.095  16.735  0.7956 -0.1079 -0.0220
  587TMC3    C2 8699   1.822   4.215  16.667 -0.2010  0.2000  0.3827
  587TMC3    C3 8700   1.920   4.272  16.594 -0.4900 -0.0071  0.1235
  587TMC3    C4 8701   1.985   4.051  16.746 -0.3475 -0.7798 -0.2195
  587TMC3    C5 8702   2.081   4.119  16.677  0.0909 -0.5244  0.2188
  587TMC3    C6 8703   2.050   4.226  16.596  0.3589 -0.1354 -0.4707
  587TMC3     C 8704   1.758   4.016  16.798 -0.3228 -0.0404 -0.8913
  587TMC3     O 8705   1.782   3.898  16.805  0.0672 -0.0559 -0.0519
  587TMC3     H 8706   1.720   4.224  16.631  0.0773  1.1536 -0.1811
  587TMC3    H1 8707   2.010   3.958  16.797  2.4174  0.0878  0.0117
  587TMC3    H2 8708   2.121   4.283  16.537 -0.9387  2.0048  0.0515
  587TMC3    C7 8709   2.218   4.095  16.716 -0.1131 -0.8028 -0.4351
  587TMC3    C8 8710   1.888   4.382  16.503 -0.8596  0.0026  0.1710
  587TMC3    O1 8711   2.230   4.000  16.793 -0.3726 -0.0286  0.5415
  587TMC3    O2 8712   1.979   4.417  16.425  0.3404 -0.3536 -0.1100
  588TMC3    C1 8713   3.441   2.907   9.449 -0.1242 -0.5259  0.5195
  588TMC3    C2 8714   3.396   2.785   9.483 -0.2353 -0.5953 -0.7384
  588TMC3    C3 8715   3.420   2.717   9.603 -0.2958  0.7760 -0.6472
  588TMC3    C4 8716   3.525   2.968   9.538 -0.3896  0.3090  0.4132
  588TMC3    C5 8717   3.527   2.917   9.668  1.1775 -0.8178 -0.3842
  588TMC3    C6 8718   3.484   2.795   9.703  0.4490 -0.0276 -0.3979
  588TMC3     C 8719   3.389   2.970   9.324 -0.7662  0.3476 -0.1522
  588TMC3     O 8720   3.340   2.888   9.251 -1.1012 -0.7284  0.0509
  588TMC3     H 8721   3.341   2.734   9.404 -0.2101 -1.8221  0.0422
  588TMC3    H1 8722   3.574   3.061   9.510 -1.2787  0.3645 -0.9967
  588TMC3    H2 8723   3.485   2.774   9.810  1.3298 -2.1653 -0.8271
  588TMC3    C7 8724   3.520   3.033   9.757  0.2895  0.3115  0.3810
  588TMC3    C8 8725   3.348   2.600   9.635 -0.3681  0.4607 -0.9135
  588TMC3    O1 8726   3.557   3.025   9.875 -0.4949  0.0687 -0.3259
  588TMC3    O2 8727   3.241   2.570   9.589 -0.3050  0.0529 -0.4271
  589TMC3    C1 8728   3.192   0.181   1.200 -0.0721 -0.7721 -0.1341
  589TMC3    C2 8729   3.282   0.173   1.299  0.0580  0.0925 -0.5382
  589TMC3    C3 8730   3.402   0.105   1.274  1.3010  0.1774 -0.0124
  589TMC3    C4 8731   3.206   0.126   1.081 -0.2577  0.1404 -0.4117
  589TMC3    C5 8732   3.333   0.091   1.047  0.3644  0.3450 -0.4553
  589TMC3    C6 8733   3.426   0.064   1.142 -0.1555  0.2164 -0.0129
  589TMC3     C 8734   3.075   0.271   1.216  0.1964 -0.7335 -0.6756
  589TMC3     O 8735   2.992   0.276   1.129 -0.1789 -0.1365  0.3659
  589TMC3     H 8736   3.257   0.202   1.401  1.0164 -2.0149  0.3143
  589TMC3    H1 8737   3.143   0.156   0.999 -1.6885 -0.2635  0.5436
  589TMC3    H2 8738   3.528   0.045   1.109  0.4062 -0.2372  1.9666
  589TMC3    C7 8739   3.352   0.015   0.927 -0.2589 -0.1230  0.5733
  589TMC3    C8 8740   3.496   0.121   1.382  0.0194  0.0443  0.2258
  589TMC3    O1 8741   3.464   0.022   0.877  0.7665 -0.4183 -0.0427
  589TMC3    O2 8742   3.453   0.159   1.490 -0.3518 -0.4024 -0.3335
  590MPD2     C 8743   2.844   2.769  16.332  0.3445 -0.2017  0.1303
  590MPD2    C1 8744   2.757   2.865  16.275 -0.5983 -0.6790  0.3217
  590MPD2    C2 8745   2.802   2.985  16.221  0.1372  0.0161 -0.1412
  590MPD2    C3 8746   2.936   3.015  16.231  0.3220  0.5951 -0.6186
  590MPD2    C4 8747   3.021   2.921  16.292 -0.1508  1.0563  0.0377
  590MPD2    C5 8748   2.980   2.790  16.331 -0.1323  0.2868  0.3613
  590MPD2     H 8749   2.727   3.059  16.195 -2.6799 -2.4939  0.8426
  590MPD2    H1 8750   3.128   2.939  16.282  0.4246 -0.6544  3.4521
  590MPD2    H2 8751   2.802   2.678  16.374  1.5174 -0.6441  0.3328
  590MPD2    H3 8752   3.049   2.719  16.375  1.7927  0.7288 -1.9224
  590MPD2     N 8753   3.001   3.129  16.186  0.1781 -0.0317  0.3054
  590MPD2    H5 8754   3.100   3.134  16.208  0.2025 -0.0210  0.1921
  590MPD2    N1 8755   2.620   2.830  16.268 -0.4202  0.2397 -0.7509
  590MPD2    H7 8756   2.580   2.749  16.314  3.8455 -1.5809 -0.1997
  591TMC3    C1 8757   3.017   3.339  16.077  0.6425 -0.6266 -0.5300
  591TMC3    C2 8758   3.119   3.299  15.992  0.1035  0.2906  1.0093
  591TMC3    C3 8759   3.157   3.384  15.890  0.0094  0.2974 -0.2159
  591TMC3    C4 8760   2.976   3.471  16.067  1.0690 -0.2310 -0.2184
  591TMC3    C5 8761   3.032   3.559  15.977  0.1273  0.4576 -0.7388
  591TMC3    C6 8762   3.124   3.518  15.879  0.5938 -0.9379 -0.6127
  591TMC3     C 8763   2.934   3.240  16.136  0.8200 -0.4158 -0.0329
  591TMC3     O 8764   2.818   3.267  16.154  0.2830 -0.3565 -0.3794
  591TMC3     H 8765   3.169   3.204  16.002 -1.1362 -0.4826  0.0044
  591TMC3    H1 8766   2.890   3.500  16.126  1.0750 -0.1476 -0.2503
  591TMC3    H2 8767   3.157   3.592  15.807  0.0578  0.6492  0.7862
  591TMC3    C7 8768   2.961   3.685  15.963 -0.6379 -0.3902 -0.1042
  591TMC3    C8 8769   3.242   3.317  15.788  0.2774 -0.2659 -0.1533
  591TMC3    O1 8770   2.869   3.713  16.039 -0.0263 -0.2496 -0.4705
  591TMC3    O2 8771   3.266   3.197  15.808 -0.1042 -0.4012  0.4201
  592MPD2     C 8772   2.814   0.724  11.213  0.4439  0.0371  0.7324
  592MPD2    C1 8773   2.836   0.710  11.348 -0.0708  0.2359  0.2315
  592MPD2    C2 8774   2.766   0.612  11.419  0.2743 -0.6647 -0.1293
  592MPD2    C3 8775   2.697   0.518  11.347 -0.0292  0.8362 -0.6168
  592MPD2    C4 8776   2.682   0.531  11.213  0.6696  0.2134 -0.4326
  592MPD2    C5 8777   2.729   0.639  11.146  0.2344  0.5825 -0.0697
  592MPD2     H 8778   2.774   0.622  11.527  0.2655 -1.3296 -0.0719
  592MPD2    H1 8779   2.631   0.454  11.156  1.8330  0.1628 -1.3903
  592MPD2    H2 8780   2.860   0.799  11.150  2.9803 -1.1008  1.2459
  592MPD2    H3 8781   2.709   0.657  11.041 -1.0297 -1.0179 -0.0972
  592MPD2     N 8782   2.635   0.412  11.425  0.5345 -0.0538 -0.7319
  592MPD2    H5 8783   2.671   0.402  11.520 -2.0441 -1.0896  0.1334
  592MPD2    N1 8784   2.915   0.802  11.408  0.2827  0.6262 -0.3521
  592MPD2    H7 8785   2.948   0.882  11.354  3.0508 -0.1251  0.2035
  593TMC3    C1 8786   3.029   0.931  11.578  0.2980  0.0195  0.7042
  593TMC3    C2 8787   3.029   0.974  11.710 -0.2814 -0.0629  0.0536
  593TMC3    C3 8788   3.092   1.086  11.740 -0.5362 -0.0525 -0.2204
  593TMC3    C4 8789   3.101   1.000  11.492 -0.4997 -0.1993  0.6535
  593TMC3    C5 8790   3.179   1.107  11.529 -0.4213  0.2466  0.2464
  593TMC3    C6 8791   3.179   1.150  11.659 -0.8260 -0.3037 -0.8924
  593TMC3     C 8792   2.950   0.814  11.544 -0.3623  0.5783 -0.5851
  593TMC3     O 8793   2.916   0.749  11.644 -0.3185  0.3994  0.0159
  593TMC3     H 8794   2.957   0.921  11.773  1.3171 -2.4555 -0.1223
  593TMC3    H1 8795   3.117   0.956  11.394  0.9182 -0.6007  1.0722
  593TMC3    H2 8796   3.231   1.241  11.686 -0.3633 -0.7932 -0.1444
  593TMC3    C7 8797   3.270   1.173  11.439 -0.5457  0.7754 -0.4161
  593TMC3    C8 8798   3.106   1.105  11.884 -0.6023  0.7803 -0.1918
  593TMC3    O1 8799   3.331   1.261  11.496 -0.1169  0.0252  0.1962
  593TMC3    O2 8800   3.006   1.082  11.955 -0.1141  0.6491 -0.2569
  594MPD2     C 8801   1.427   3.968  13.756  0.4373 -0.3204 -0.8574
  594MPD2    C1 8802   1.488   3.954  13.883  0.3013  0.6527 -0.0652
  594MPD2    C2 8803   1.609   4.020  13.905  0.4680 -0.8028 -1.0027
  594MPD2    C3 8804   1.679   4.081  13.807 -0.4761  0.1582  0.0178
  594MPD2    C4 8805   1.609   4.104  13.690 -0.2467 -0.4918 -0.3874
  594MPD2    C5 8806   1.491   4.047  13.667 -0.7863 -0.0523  0.7145
  594MPD2     H 8807   1.652   4.023  14.004 -0.9947  1.5558 -0.4453
  594MPD2    H1 8808   1.653   4.157  13.607  0.5490 -0.3061  0.1512
  594MPD2    H2 8809   1.325   3.938  13.736  0.3898 -1.1046  0.5154
  594MPD2    H3 8810   1.455   4.056  13.565  2.4725  1.4472 -0.3309
  594MPD2     N 8811   1.808   4.133  13.832  0.0585  0.1866 -0.1732
  594MPD2    H5 8812   1.844   4.134  13.927  1.9802 -1.1575 -0.8765
  594MPD2    N1 8813   1.413   3.891  13.982  0.3727  0.3596  0.2281
  594MPD2    H7 8814   1.318   3.866  13.959  0.5801 -0.9673  0.8316
  595TMC3    C1 8815   2.198   4.377  13.806 -0.0482  0.2240 -0.2434
  595TMC3    C2 8816   2.115   4.283  13.743 -0.4354  0.5718  0.4865
  595TMC3    C3 8817   1.989   4.284  13.795  0.1876  0.4031  0.2714
  595TMC3    C4 8818   2.159   4.441  13.921 -0.0709 -0.6920  0.1874
  595TMC3    C5 8819   2.034   4.429  13.972  0.4403 -0.2002 -0.0834
  595TMC3    C6 8820   1.951   4.344  13.915 -0.2490  0.6916  0.1289
  595TMC3     C 8821   2.335   4.360  13.815  0.3112 -0.7703  0.3923
  595TMC3     O 8822   2.388   4.333  13.926  0.2972  0.9221  0.0954
  595TMC3     H 8823   2.135   4.219  13.658 -0.3312  1.4060 -0.1139
  595TMC3    H1 8824   2.233   4.509  13.962  1.7543 -2.1564 -0.7343
  595TMC3    H2 8825   1.851   4.329  13.954 -0.7067 -1.4938 -1.9145
  595TMC3    C7 8826   2.008   4.474  14.105 -0.2472 -0.5968 -0.4572
  595TMC3    C8 8827   1.890   4.192  13.736  0.2998 -0.8998 -1.3807
  595TMC3    O1 8828   1.900   4.440  14.153 -0.2864 -0.3771 -0.1047
  595TMC3    O2 8829   1.891   4.175  13.613  0.5335 -0.0640 -0.2326
  596MPD2     C 8830   1.242   1.882  16.544 -0.1642  0.3489 -0.2531
  596MPD2    C1 8831   1.277   2.004  16.501  0.4100  0.2744  0.1085
  596MPD2    C2 8832   1.298   2.035  16.367 -0.2445  0.6346 -0.4512
  596MPD2    C3 8833   1.295   1.934  16.269 -0.1359  0.0145 -0.1770
  596MPD2    C4 8834   1.273   1.803  16.318  0.1448  0.0749 -0.1838
  596MPD2    C5 8835   1.238   1.784  16.453  0.0403  0.8510 -0.0607
  596MPD2     H 8836   1.324   2.137  16.342  1.0700  0.3648 -0.1971
  596MPD2    H1 8837   1.263   1.727  16.241  1.6096 -0.0122 -0.2883
  596MPD2    H2 8838   1.218   1.861  16.648 -0.4703 -0.2276 -0.4368
  596MPD2    H3 8839   1.203   1.686  16.484  1.2392 -0.2214 -2.1175
  596MPD2     N 8840   1.302   1.960  16.128  0.4716 -0.1289  0.0836
  596MPD2    H5 8841   1.278   1.883  16.067  2.0051 -0.2045 -0.4426
  596MPD2    N1 8842   1.280   2.118  16.579 -0.0277 -0.0125 -0.1441
  596MPD2    H7 8843   1.291   2.207  16.532  1.3469 -0.5375 -0.8365
  597TMC3    C1 8844   1.229   2.253  16.774 -0.1755 -0.8116  0.3934
  597TMC3    C2 8845   1.273   2.364  16.693  0.2276  0.2079  0.1334
  597TMC3    C3 8846   1.219   2.485  16.722 -0.1021  0.6694  0.9441
  597TMC3    C4 8847   1.140   2.264  16.873 -0.0872 -0.3266  0.0207
  597TMC3    C5 8848   1.072   2.377  16.889 -0.0593  0.2819  0.5291
  597TMC3    C6 8849   1.118   2.488  16.811 -0.4806  0.1354  0.3466
  597TMC3     C 8850   1.261   2.122  16.714  0.1403 -0.6080 -0.0174
  597TMC3     O 8851   1.251   2.025  16.788 -0.0157 -0.0074  0.2376
  597TMC3     H 8852   1.346   2.349  16.614  2.7869 -1.9777  2.8801
  597TMC3    H1 8853   1.115   2.169  16.917  0.4424 -0.5562 -0.1719
  597TMC3    H2 8854   1.063   2.581  16.807  1.0413  1.0809  1.4097
  597TMC3    C7 8855   0.962   2.380  16.984  0.3247  0.5059 -0.2382
  597TMC3    C8 8856   1.256   2.607  16.655  0.2367 -0.0272 -0.0491
  597TMC3    O1 8857   0.955   2.291  17.063 -0.3482 -0.2043  0.3028
  597TMC3    O2 8858   1.229   2.709  16.721 -0.3310  0.5158 -0.1602
  598TMC3    C1 8859   3.617   3.848  15.170  0.7357  0.2714  0.2582
  598TMC3    C2 8860   3.519   3.758  15.143  0.5219 -0.2816  0.2736
  598TMC3    C3 8861   3.537   3.678  15.031 -0.3064 -0.5038  0.3777
  598TMC3    C4 8862   3.716   3.881  15.078  0.2321  0.2564  0.4168
  598TMC3    C5 8863   3.726   3.808  14.960  0.2823  0.7415  0.5198
  598TMC3    C6 8864   3.634   3.704  14.935 -0.4826 -0.2482  0.4773
  598TMC3     C 8865   3.642   3.884  15.310  0.2595 -0.7258  0.2099
  598TMC3     O 8866   3.580   3.816  15.393 -0.1464 -0.1535  0.1080
  598TMC3     H 8867   3.446   3.738  15.220 -0.4959  2.0917 -0.0817
  598TMC3    H1 8868   3.796   3.949  15.105 -0.5563  1.7144 -0.9625
  598TMC3    H2 8869   3.626   3.644  14.845 -0.2601  0.8626 -0.2756
  598TMC3    C7 8870   3.838   3.814  14.863 -0.8535  0.0724  0.0677
  598TMC3    C8 8871   3.436   3.568  14.997  0.3561  0.3000  0.3654
  598TMC3    O1 8872   3.835   3.723  14.775 -0.3480 -0.4467  0.3504
  598TMC3    O2 8873   3.460   3.501  14.896  0.6494  0.3884  0.3885
  599MPD2     C 8874   4.196   1.181  15.614 -0.2616  0.8065  0.3812
  599MPD2    C1 8875   4.157   1.057  15.657  1.0479 -0.7372  0.8752
  599MPD2    C2 8876   4.061   1.038  15.753  0.6749 -0.4320  0.0867
  599MPD2    C3 8877   3.999   1.151  15.813 -0.0545 -0.2038 -0.3877
  599MPD2    C4 8878   4.041   1.277  15.768  0.8062 -0.7945 -0.7059
  599MPD2    C5 8879   4.138   1.289  15.673  0.9430 -0.2591  0.1863
  599MPD2     H 8880   4.023   0.941  15.782 -0.4714 -0.4652 -1.5128
  599MPD2    H1 8881   3.995   1.364  15.812 -2.1115 -2.1787 -1.0422
  599MPD2    H2 8882   4.267   1.197  15.533 -2.2359  0.0638 -1.4999
  599MPD2    H3 8883   4.157   1.388  15.633  0.8440  0.1387  1.1036
  599MPD2     N 8884   3.891   1.147  15.907  0.5062 -0.0728  0.1601
  599MPD2    H5 8885   3.872   1.236  15.953  1.7051  0.6381 -0.7241
  599MPD2    N1 8886   4.227   0.949  15.599  0.7326 -0.0774 -0.5587
  599MPD2    H7 8887   4.301   0.977  15.536  0.5872 -1.0166 -1.1495
  600TMC3    C1 8888   3.752   1.074  16.083  0.2462  0.3252  0.1656
  600TMC3    C2 8889   3.751   0.961  16.167  0.3587  0.1951 -0.1424
  600TMC3    C3 8890   3.726   0.985  16.298  0.0859  0.3746 -0.2435
  600TMC3    C4 8891   3.729   1.198  16.127  0.4046 -0.1416 -0.5611
  600TMC3    C5 8892   3.718   1.213  16.261  0.7518 -0.0021 -0.3200
  600TMC3    C6 8893   3.722   1.112  16.353  0.8471  0.0626  0.3854
  600TMC3     C 8894   3.822   1.035  15.958 -0.2477  0.2547  0.3774
  600TMC3     O 8895   3.810   0.922  15.910  0.0951  0.2983  0.1771
  600TMC3     H 8896   3.759   0.860  16.129  0.1850 -0.6402  2.0471
  600TMC3    H1 8897   3.712   1.274  16.051  0.8710  0.7676  0.2487
  600TMC3    H2 8898   3.696   1.136  16.455  1.9261  0.8188  0.4820
  600TMC3    C7 8899   3.697   1.350  16.303 -0.4378  0.4610  0.8356
  600TMC3    C8 8900   3.679   0.884  16.385 -0.0906 -0.2195 -0.2460
  600TMC3    O1 8901   3.602   1.408  16.252  0.5607 -0.2332 -0.2244
  600TMC3    O2 8902   3.674   0.918  16.506  0.0723  0.2828 -0.4257
  601MPD2     C 8903   1.269   3.886   0.088 -0.3115  0.1913 -0.8564
  601MPD2    C1 8904   1.131   3.884   0.077 -0.6769  0.1307 -0.0286
  601MPD2    C2 8905   1.059   3.779   0.118  0.0365 -0.5579  0.0878
  601MPD2    C3 8906   1.123   3.664   0.177  0.8034 -0.7828  0.0716
  601MPD2    C4 8907   1.256   3.669   0.192 -0.3371 -0.1903 -0.5338
  601MPD2    C5 8908   1.329   3.779   0.153  0.0816 -0.6612  0.6169
  601MPD2     H 8909   0.952   3.775   0.105  0.2387  0.6205 -2.0627
  601MPD2    H1 8910   1.314   3.606   0.258  0.4232 -0.3612 -1.3681
  601MPD2    H2 8911   1.327   3.975   0.068  0.4541 -0.1963 -0.3836
  601MPD2    H3 8912   1.432   3.792   0.185  1.1833 -3.0280 -1.9450
  601MPD2     N 8913   1.054   3.543   0.214 -0.1680  0.1096  0.4566
  601MPD2    H5 8914   1.110   3.459   0.227 -1.3836 -0.2526  3.3827
  601MPD2    N1 8915   1.059   3.987   0.018 -0.3456  0.3119 -0.5600
  601MPD2    H7 8916   0.960   3.965   0.009 -0.0272 -1.1884 -0.3517
  602TMC3    C1 8917   1.007   4.189  17.610  0.9156  0.4785  0.4415
  602TMC3    C2 8918   1.006   4.324  17.632  0.3430 -0.3018 -0.6778
  602TMC3    C3 8919   0.907   4.402  17.569  0.0365 -0.8723  0.1635
  602TMC3    C4 8920   0.914   4.129  17.541  0.7035 -0.1956 -0.0897
  602TMC3    C5 8921   0.813   4.203  17.490 -0.7708  0.4949 -0.0799
  602TMC3    C6 8922   0.802   4.341  17.502  0.3684  0.4720 -0.0906
  602TMC3     C 8923   1.103   4.109  17.689  0.9951  0.4798 -0.2373
  602TMC3     O 8924   1.210   4.153   0.001 -0.1479 -0.0773  0.6528
  602TMC3     H 8925   1.079   4.369  17.698 -0.0198 -1.4630  0.5148
  602TMC3    H1 8926   0.933   4.028  17.507 -0.8455 -0.6986  0.5346
  602TMC3    H2 8927   0.741   4.401  17.435 -0.8855 -0.2559  0.3995
  602TMC3    C7 8928   0.721   4.142  17.389  0.2173  0.1959 -0.3248
  602TMC3    C8 8929   0.887   4.542  17.608 -0.2127 -0.0522  0.2021
  602TMC3    O1 8930   0.761   4.056  17.314 -0.1634 -0.0673 -1.5526
  602TMC3    O2 8931   0.982   4.609  17.650  0.4482 -0.0202  0.5016
  603TMC3    C1 8932   4.037   4.575  10.642  0.0835 -0.6230 -0.3123
  603TMC3    C2 8933   4.032   4.545  10.778  0.2438 -0.3691  0.4406
  603TMC3    C3 8934   4.042   4.650  10.865 -0.4724 -0.4092  0.5394
  603TMC3    C4 8935   4.048   4.703  10.593 -0.0599  0.2556  0.0134
  603TMC3    C5 8936   4.076   0.072  10.687  0.0351  0.0315  0.0946
  603TMC3    C6 8937   4.071   0.046  10.824 -0.0072  0.1996  0.1579
  603TMC3     C 8938   4.026   4.460  10.554  0.4513  0.1901 -0.0483
  603TMC3     O 8939   4.038   4.345  10.600  0.3914 -0.3999 -0.4322
  603TMC3     H 8940   4.015   4.443  10.812 -0.0005 -0.8982 -1.2700
  603TMC3    H1 8941   4.058   4.724  10.487  0.8689  1.8514  0.4140
  603TMC3    H2 8942   4.062   0.141  10.875  1.4366  1.0165 -1.0695
  603TMC3    C7 8943   4.094   0.207  10.649 -0.3647  0.1738 -0.2648
  603TMC3    C8 8944   4.034   4.626  11.009 -0.5088  0.2158  0.4163
  603TMC3    O1 8945   4.160   0.272  10.728  0.4138  0.3573  0.0428
  603TMC3    O2 8946   4.015   4.512  11.042 -0.4675 -0.2930 -0.1441
  604MPD2     C 8947   0.363   3.424  16.347  0.3391 -0.7134  0.6326
  604MPD2    C1 8948   0.277   3.331  16.306  0.1279  0.0111  0.3087
  604MPD2    C2 8949   0.288   3.272  16.188  0.5912  0.0020 -0.6714
  604MPD2    C3 8950   0.388   3.305  16.105 -0.1796 -0.3659  0.4427
  604MPD2    C4 8951   0.487   3.396  16.144 -0.6282  0.0740 -0.0791
  604MPD2    C5 8952   0.475   3.461  16.267  0.1820  0.8895  0.0129
  604MPD2     H 8953   0.206   3.208  16.157 -0.6280  1.3258 -0.2055
  604MPD2    H1 8954   0.571   3.431  16.085 -1.0486  1.5050  0.1863
  604MPD2    H2 8955   0.352   3.472  16.444 -1.0724 -0.5087  0.3755
  604MPD2    H3 8956   0.538   3.540  16.305 -0.3886  0.2245  2.3038
  604MPD2     N 8957   0.387   3.257  15.966 -0.0689 -0.5262 -0.7156
  604MPD2    H5 8958   0.302   3.207  15.942 -0.8786  0.0085  1.0524
  604MPD2    N1 8959   0.162   3.308  16.384  0.0309  0.1903 -0.3800
  604MPD2    H7 8960   0.164   3.357  16.473 -0.6559 -1.3729  0.4914
  605TMC3    C1 8961   4.707   3.222  16.481  0.2399 -0.2222  0.2747
  605TMC3    C2 8962   0.041   3.275  16.587  0.7044  0.9477  0.1851
  605TMC3    C3 8963   4.715   3.391  16.652 -0.1815  0.1598  0.2477
  605TMC3    C4 8964   4.587   3.270  16.452  0.0134 -0.5712  0.4901
  605TMC3    C5 8965   4.532   3.380  16.520  0.3330  0.2158  0.0270
  605TMC3    C6 8966   4.602   3.446  16.615 -0.5272  0.4970 -0.3319
  605TMC3     C 8967   0.063   3.220  16.366  0.5353  0.0251 -0.1195
  605TMC3     O 8968   0.022   3.152  16.273 -0.0925 -0.2336 -0.0639
  605TMC3     H 8969   0.120   3.229  16.645  1.3707 -0.2738 -1.7177
  605TMC3    H1 8970   4.527   3.230  16.371  1.0524  0.4993 -0.8195
  605TMC3    H2 8971   4.565   3.542  16.649 -3.1188 -0.3171 -0.8520
  605TMC3    C7 8972   4.395   3.413  16.490 -0.2349  0.0816  0.6426
  605TMC3    C8 8973   0.087   3.486  16.693  0.1063  0.1202 -0.2648
  605TMC3    O1 8974   4.363   3.524  16.443  0.8008  0.1595 -0.3049
  605TMC3    O2 8975   0.202   3.449  16.677  0.5642  0.2925 -0.2741
  606TMC3    C1 8976   1.369   1.026  16.789  0.5119 -0.2048 -0.2384
  606TMC3    C2 8977   1.485   1.014  16.875 -0.1352 -0.5296 -0.3161
  606TMC3    C3 8978   1.457   0.967  16.998 -0.2672  0.3882  0.9346
  606TMC3    C4 8979   1.241   0.991  16.832 -0.1322 -0.0878 -0.1050
  606TMC3    C5 8980   1.225   0.953  16.964 -0.7749 -0.3699 -0.8008
  606TMC3    C6 8981   1.333   0.940  17.045 -0.1617  0.2758 -0.1194
  606TMC3     C 8982   1.387   1.080  16.660 -0.0281  0.4246 -0.1390
  606TMC3     O 8983   1.498   1.069  16.606 -0.1547 -0.3695  0.4121
  606TMC3     H 8984   1.586   1.047  16.854 -0.6983  0.9473 -0.6967
  606TMC3    H1 8985   1.159   0.959  16.768 -0.6311 -0.0332  0.5082
  606TMC3    H2 8986   1.320   0.921  17.151  1.5095  3.3918  0.6182
  606TMC3    C7 8987   1.098   0.917  17.023 -0.0878  0.4730 -0.4972
  606TMC3    C8 8988   1.574   0.948  17.086 -0.0474  0.4300  0.6402
  606TMC3    O1 8989   1.094   0.844  17.119  0.2448 -0.1076  0.1383
  606TMC3    O2 8990   1.676   1.017  17.068 -0.4414  0.2325  0.1109
  607MPD2     C 8991   2.960   0.202  11.432 -0.1654 -0.5562 -0.2919
  607MPD2    C1 8992   2.984   0.265  11.555  0.0792 -0.2244  0.2100
  607MPD2    C2 8993   2.947   0.204  11.670  0.1792 -0.3947  0.3792
  607MPD2    C3 8994   2.904   0.072  11.675 -0.3018 -0.4149 -0.3295
  607MPD2    C4 8995   2.882   0.007  11.553 -0.2733 -0.3972  0.6357
  607MPD2    C5 8996   2.914   0.073  11.435 -0.3678 -0.0437  0.3284
  607MPD2     H 8997   2.957   0.258  11.763  0.2446  2.3515 -1.2240
  607MPD2    H1 8998   2.852   4.631  11.553 -3.7527  0.6079  1.6709
  607MPD2    H2 8999   2.971   0.255  11.338 -0.2495  1.7481  1.0093
  607MPD2    H3 9000   2.907   0.013  11.345 -3.3657  0.4787  0.2291
  607MPD2     N 9001   2.904   0.013  11.802 -0.1018 -0.0221 -0.3771
  607MPD2    H5 9002   2.928   0.078  11.876 -0.0666 -0.1205 -0.3029
  607MPD2    N1 9003   3.043   0.389  11.565 -0.0523 -0.9866 -0.4313
  607MPD2    H7 9004   3.049   0.424  11.660  0.5899  0.1471 -0.8977
  608TMC3    C1 9005   3.209   0.552  11.531 -0.4780 -0.1763  0.5915
  608TMC3    C2 9006   3.234   0.547  11.665  0.3728 -0.4477 -0.1151
  608TMC3    C3 9007   3.316   0.647  11.715 -0.4530 -0.5157  0.0411
  608TMC3    C4 9008   3.265   0.653  11.457  0.2882 -0.2794 -0.7807
  608TMC3    C5 9009   3.346   0.757  11.514  0.2562  0.4609 -0.4964
  608TMC3    C6 9010   3.362   0.758  11.652  0.8698 -0.3094  0.0939
  608TMC3     C 9011   3.118   0.453  11.471  0.1205 -0.2905 -0.0664
  608TMC3     O 9012   3.125   0.444  11.349  0.1452  0.2005 -0.1148
  608TMC3     H 9013   3.223   0.453  11.716 -0.7182  1.2722  2.8231
  608TMC3    H1 9014   3.245   0.659  11.351 -0.6110 -2.3627 -0.7348
  608TMC3    H2 9015   3.420   0.829  11.710  0.6901 -0.2927  0.2538
  608TMC3    C7 9016   3.429   0.833  11.426  0.1818 -0.1422  0.0761
  608TMC3    C8 9017   3.340   0.659  11.862 -0.1671 -0.3093  0.2102
  608TMC3    O1 9018   3.402   0.821  11.307 -0.6611  0.4502  0.3293
  608TMC3    O2 9019   3.442   0.710  11.914 -0.1071 -0.5345 -0.1436
  609TMC3    C1 9020   2.113   2.856   8.859  0.0677 -0.0825 -0.1632
  609TMC3    C2 9021   2.068   2.747   8.797  0.6319  0.2245 -0.0301
  609TMC3    C3 9022   2.135   2.633   8.779 -0.6240 -0.2460  0.5549
  609TMC3    C4 9023   2.242   2.846   8.913 -0.1407 -0.5546 -0.3687
  609TMC3    C5 9024   2.306   2.727   8.906 -0.3032 -1.0810  0.1302
  609TMC3    C6 9025   2.260   2.619   8.840 -0.4251  0.9347 -0.5067
  609TMC3     C 9026   2.029   2.973   8.878 -0.8437 -0.0188  1.0653
  609TMC3     O 9027   1.906   2.957   8.861 -0.5988  0.1922 -0.1570
  609TMC3     H 9028   1.962   2.745   8.770  0.2796  1.6058  1.2778
  609TMC3    H1 9029   2.283   2.920   8.980  1.3544 -1.1632 -0.6090
  609TMC3    H2 9030   2.318   2.530   8.818 -1.6280 -0.3934  1.6666
  609TMC3    C7 9031   2.407   2.701   9.008  0.0217  0.1217  0.1239
  609TMC3    C8 9032   2.078   2.521   8.704  0.3771  0.2854 -0.8975
  609TMC3    O1 9033   2.431   2.797   9.078  0.7234 -0.0539 -0.2145
  609TMC3    O2 9034   2.128   2.417   8.731  0.2966 -0.1529  0.1488
  610TMC3    C1 9035   3.227   4.164  12.386  0.7253 -0.2542  0.0242
  610TMC3    C2 9036   3.160   4.282  12.395  0.8193  0.0414  0.0852
  610TMC3    C3 9037   3.240   4.389  12.429  0.1301 -0.0688  0.6106
  610TMC3    C4 9038   3.362   4.156  12.409  0.4185  0.0344  0.2278
  610TMC3    C5 9039   3.429   4.271  12.430 -0.0670 -0.2548  0.4631
  610TMC3    C6 9040   3.377   4.390  12.438 -0.3785  0.7472 -0.9736
  610TMC3     C 9041   3.151   4.044  12.410 -0.7174 -0.0015 -0.6896
  610TMC3     O 9042   3.208   3.944  12.458 -0.9355 -0.4186  0.6716
  610TMC3     H 9043   3.053   4.297  12.382  1.0537 -1.5185 -3.4079
  610TMC3    H1 9044   3.407   4.058  12.417 -1.9244 -0.9979  0.8237
  610TMC3    H2 9045   3.435   4.480  12.453  2.5795 -1.4702  1.1086
  610TMC3    C7 9046   3.573   4.259  12.461  0.6611 -0.6693 -0.0491
  610TMC3    C8 9047   3.163   4.512  12.447 -0.0437  0.7249  0.2263
  610TMC3    O1 9048   3.636   4.170  12.409 -0.0772 -0.4174 -0.1669
  610TMC3    O2 9049   3.050   4.514  12.408  0.5263 -0.0475  0.7182
  611MPD2     C 9050   3.195   0.114  10.389 -0.2993  0.0616  0.3877
  611MPD2    C1 9051   3.120   0.198  10.317 -0.2272  0.0001 -0.1897
  611MPD2    C2 9052   3.182   0.297  10.235 -0.2097 -0.6026 -0.1218
  611MPD2    C3 9053   3.322   0.301  10.221  0.4292  0.0258  0.2135
  611MPD2    C4 9054   3.394   0.202  10.287  0.1626  0.7963  0.7565
  611MPD2    C5 9055   3.329   0.112  10.376  0.0427 -0.1513 -0.8988
  611MPD2     H 9056   3.115   0.366  10.185 -1.1299  1.4219  3.8987
  611MPD2    H1 9057   3.502   0.198  10.280  0.0491  0.2812 -0.8064
  611MPD2    H2 9058   3.154   0.043  10.460  3.1032 -0.3592  1.8890
  611MPD2    H3 9059   3.373   0.032  10.435 -2.7789 -0.1632  1.1783
  611MPD2     N 9060   3.394   0.409  10.162  0.3432  0.0425  0.4108
  611MPD2    H5 9061   3.496   0.407  10.166  0.3585  0.3243  0.2313
  611MPD2    N1 9062   2.983   0.187  10.322 -0.1711  0.2279 -0.3460
  611MPD2    H7 9063   2.948   0.108  10.375 -0.1180  0.1020 -0.4993
  612TMC3    C1 9064   3.448   0.622  10.085 -0.3147 -0.0655  0.1095
  612TMC3    C2 9065   3.557   0.621  10.168 -0.4526 -0.0674  0.6180
  612TMC3    C3 9066   3.640   0.733  10.165  1.3023  0.0762  0.9362
  612TMC3    C4 9067   3.413   0.724   9.997  0.8847 -0.1101  0.3596
  612TMC3    C5 9068   3.487   0.836  10.005 -0.0612 -0.4899  0.0110
  612TMC3    C6 9069   3.600   0.838  10.089  0.0329 -0.8787  0.5028
  612TMC3     C 9070   3.344   0.521  10.101 -0.1823  0.0576 -0.1526
  612TMC3     O 9071   3.228   0.557  10.081  0.8259 -0.1114  0.4243
  612TMC3     H 9072   3.562   0.561  10.257 -1.1043  0.6227  1.1156
  612TMC3    H1 9073   3.328   0.716   9.929 -0.3304  0.3865  1.8370
  612TMC3    H2 9074   3.664   0.926  10.088 -0.1728 -0.7462 -1.0481
  612TMC3    C7 9075   3.454   0.941   9.917  0.1135  0.5277  0.3355
  612TMC3    C8 9076   3.769   0.736  10.232 -1.2109  0.0443 -0.2594
  612TMC3    O1 9077   3.335   0.949   9.877  0.1235  0.1320 -0.4316
  612TMC3    O2 9078   3.837   0.836  10.226  0.0133 -0.1474 -1.0193
  613MPD2     C 9079   2.411   1.731  16.484  0.7628  0.4195 -0.0041
  613MPD2    C1 9080   2.342   1.814  16.401  0.2230 -0.1616  0.3809
  613MPD2    C2 9081   2.221   1.766  16.345  0.4111  1.0451  0.3489
  613MPD2    C3 9082   2.174   1.638  16.374  0.0217  0.9873 -0.0197
  613MPD2    C4 9083   2.238   1.560  16.459 -0.0266  0.1134 -1.0679
  613MPD2    C5 9084   2.358   1.604  16.507  0.1220  1.0944  0.3482
  613MPD2     H 9085   2.173   1.827  16.269  0.5677  1.0487  0.2536
  613MPD2    H1 9086   2.200   1.466  16.498 -1.4631  1.3355  0.4867
  613MPD2    H2 9087   2.508   1.757  16.522  2.4479 -1.5530 -2.8884
  613MPD2    H3 9088   2.405   1.542  16.583 -0.1942  0.8003  0.3057
  613MPD2     N 9089   2.066   1.574  16.302  0.3097 -0.0992  0.0953
  613MPD2    H5 9090   2.041   1.481  16.335 -0.5875 -0.2337 -0.9852
  613MPD2    N1 9091   2.413   1.926  16.349  0.2429  0.2544 -0.2327
  613MPD2    H7 9092   2.514   1.922  16.343  0.5362  1.9624  3.4833
  614TMC3    C1 9093   2.407   2.029  16.131 -0.2645  0.5840  0.3312
  614TMC3    C2 9094   2.437   1.909  16.078  0.1645  1.2977  0.2827
  614TMC3    C3 9095   2.389   1.880  15.955 -0.6097  0.0145  0.2207
  614TMC3    C4 9096   2.352   2.132  16.056  0.0653  0.5823  0.6827
  614TMC3    C5 9097   2.314   2.104  15.929  0.0180  0.9137 -0.6532
  614TMC3    C6 9098   2.329   1.982  15.879 -0.1971  0.8152 -0.1298
  614TMC3     C 9099   2.343   2.012  16.264 -0.1958 -0.2111 -0.1006
  614TMC3     O 9100   2.228   2.058  16.271  0.5126 -0.9266 -0.0583
  614TMC3     H 9101   2.483   1.827  16.133 -1.4058 -0.3050 -0.7901
  614TMC3    H1 9102   2.341   2.230  16.102  2.3793  1.1028  0.1155
  614TMC3    H2 9103   2.281   1.952  15.786 -1.6648  0.5490  0.7218
  614TMC3    C7 9104   2.298   2.215  15.843 -0.1005  0.1469  0.8654
  614TMC3    C8 9105   2.365   1.739  15.931 -0.3458  0.3552 -0.2132
  614TMC3    O1 9106   2.250   2.315  15.897  0.0892  0.1652 -0.0249
  614TMC3    O2 9107   2.371   1.657  16.023 -0.2145  0.0494  0.5114
  615MPD2     C 9108   1.358   4.080  15.887 -0.1360  0.2806  0.9386
  615MPD2    C1 9109   1.304   3.990  15.969  0.4309  0.0236 -0.2319
  615MPD2    C2 9110   1.292   3.863  15.926  0.2007 -0.1464  0.1214
  615MPD2    C3 9111   1.333   3.822  15.801  0.3321  0.3121 -0.0397
  615MPD2    C4 9112   1.389   3.912  15.723  0.6196 -0.7323 -0.3139
  615MPD2    C5 9113   1.397   4.042  15.762  0.3104  0.0735  0.0565
  615MPD2     H 9114   1.259   3.783  15.990 -1.1183 -0.4639 -0.9398
  615MPD2    H1 9115   1.437   3.884  15.630 -2.9234  0.7361 -2.5632
  615MPD2    H2 9116   1.358   4.185  15.917 -1.8521  0.7274 -0.6145
  615MPD2    H3 9117   1.420   4.122  15.693 -3.0356 -1.0178 -2.3531
  615MPD2     N 9118   1.321   3.694  15.745 -0.4574  0.1633 -0.2407
  615MPD2    H5 9119   1.346   3.681  15.648  1.3444 -0.3627  0.2958
  615MPD2    N1 9120   1.243   4.014  16.095 -0.2302 -0.4965  0.4053
  615MPD2    H7 9121   1.187   3.938  16.133 -1.8004  0.8953  0.8513
  616TMC3    C1 9122   1.202   4.122  16.299  0.5949 -0.5295 -0.6522
  616TMC3    C2 9123   1.285   4.206  16.369 -0.9115  1.2282 -0.3601
  616TMC3    C3 9124   1.381   4.157  16.456  0.6568  0.2267  0.3037
  616TMC3    C4 9125   1.198   3.992  16.348 -0.2534 -0.0682  0.3102
  616TMC3    C5 9126   1.285   3.946  16.447  0.7051 -0.5270 -0.1824
  616TMC3    C6 9127   1.375   4.030  16.505  0.7603  0.3908  0.3344
  616TMC3     C 9128   1.229   4.142  16.157  0.0828  0.2336 -0.3747
  616TMC3     O 9129   1.272   4.254  16.124  0.2950  0.2150 -0.5450
  616TMC3     H 9130   1.285   4.313  16.350  0.5226  1.4049  0.5975
  616TMC3    H1 9131   1.111   3.933  16.322 -0.4812 -0.4661  1.9557
  616TMC3    H2 9132   1.450   3.992  16.573  0.7219  0.8779  0.6542
  616TMC3    C7 9133   1.291   3.801  16.473  0.2191  0.1301 -0.7594
  616TMC3    C8 9134   1.521   4.172  16.415  0.4164  0.5884  0.0288
  616TMC3    O1 9135   1.204   3.733  16.428  0.2565  0.0186  0.1562
  616TMC3    O2 9136   1.601   4.104  16.478  0.6932 -0.3218  0.4667
  617MPD2     C 9137   4.219   1.769  13.872  0.4394  0.2328 -0.0272
  617MPD2    C1 9138   4.241   1.675  13.966 -0.0698 -0.1481  0.1965
  617MPD2    C2 9139   4.128   1.603  14.010  0.2973 -0.1070  0.3223
  617MPD2    C3 9140   4.001   1.624  13.952 -0.3812 -0.8004  0.4376
  617MPD2    C4 9141   3.984   1.717  13.853  0.3240 -0.6179  0.1002
  617MPD2    C5 9142   4.096   1.787  13.813 -0.6029 -0.3068  0.0859
  617MPD2     H 9143   4.138   1.531  14.091 -1.7231 -1.2319 -0.4405
  617MPD2    H1 9144   3.888   1.754  13.821 -0.3215 -1.9946  0.4680
  617MPD2    H2 9145   4.298   1.832  13.832  0.8451  0.2191  0.7417
  617MPD2    H3 9146   4.083   1.882  13.762 -0.4642 -1.4890 -2.1333
  617MPD2     N 9147   3.878   1.568  14.002  0.0552  0.2132 -0.1952
  617MPD2    H5 9148   3.805   1.549  13.934 -1.8774 -1.3802  2.3628
  617MPD2    N1 9149   4.372   1.648  14.014  0.7798 -0.4658 -0.3373
  617MPD2    H7 9150   4.453   1.697  13.977  0.0294  0.7535 -0.3512
  618TMC3    C1 9151   4.551   1.542  14.119 -0.6207  0.2190 -0.6507
  618TMC3    C2 9152   4.632   1.437  14.096 -0.5297  0.1979  0.3632
  618TMC3    C3 9153   0.035   1.465  14.070  0.0495 -0.3384 -0.4222
  618TMC3    C4 9154   4.588   1.667  14.156  0.8309  0.3959 -0.1277
  618TMC3    C5 9155   4.724   1.681  14.150  1.3058 -0.0307 -0.0142
  618TMC3    C6 9156   0.083   1.588  14.110 -0.6460  0.4876 -0.6405
  618TMC3     C 9157   4.410   1.534  14.083 -0.0658  0.2065  0.1353
  618TMC3     O 9158   4.354   1.425  14.094 -0.0464 -0.0004  0.1572
  618TMC3     H 9159   4.582   1.343  14.074  0.2592  0.1725 -1.2773
  618TMC3    H1 9160   4.526   1.748  14.193 -0.9012 -0.8692 -0.2554
  618TMC3    H2 9161   0.190   1.603  14.115 -0.3891 -1.3681 -0.8001
  618TMC3    C7 9162   0.050   1.792  14.224  0.6399  0.3047 -0.7534
  618TMC3    C8 9163   0.056   1.458  13.927  0.3054 -0.8268  0.1649
  618TMC3    O1 9164   0.012   1.781  14.339 -0.1218  0.5801 -0.0461
  618TMC3    O2 9165   4.689   1.438  13.856  0.3511  0.6577 -0.2343
  619MPD2     C 9166   0.977   3.126  13.670 -0.2338 -0.6467  0.1643
  619MPD2    C1 9167   0.897   3.186  13.567 -0.0338  0.7397 -0.6074
  619MPD2    C2 9168   0.767   3.144  13.565  0.8975 -0.0619 -0.4939
  619MPD2    C3 9169   0.712   3.048  13.652  0.0280 -0.2020  0.5478
  619MPD2    C4 9170   0.794   3.004  13.756 -0.5720 -0.3811 -0.0635
  619MPD2    C5 9171   0.927   3.039  13.762 -0.1324 -0.4494  0.1496
  619MPD2     H 9172   0.703   3.180  13.484 -0.1147 -0.7739 -0.0176
  619MPD2    H1 9173   0.765   2.933  13.833 -1.1896 -1.4287 -1.2614
  619MPD2    H2 9174   1.075   3.165  13.695 -0.4435  1.3143 -2.0712
  619MPD2    H3 9175   0.994   2.997  13.836  0.4926 -0.7952 -0.6102
  619MPD2     N 9176   0.585   2.991  13.632 -0.0506  0.6370 -0.0649
  619MPD2    H5 9177   0.571   2.925  13.708 -0.8077  0.1386 -0.6456
  619MPD2    N1 9178   0.935   3.293  13.482  0.0021 -0.8128 -0.3152
  619MPD2    H7 9179   0.868   3.339  13.422  0.0289 -0.4682 -0.0770
  620TMC3    C1 9180   1.056   3.474  13.415 -0.3847 -0.2723  0.3379
  620TMC3    C2 9181   0.960   3.501  13.320 -0.1701  0.4907 -0.3487
  620TMC3    C3 9182   0.945   3.628  13.281 -1.0145 -0.1754  0.0722
  620TMC3    C4 9183   1.133   3.572  13.470  0.6380  0.0063 -0.0028
  620TMC3    C5 9184   1.117   3.699  13.427 -0.8613 -1.0224  0.5886
  620TMC3    C6 9185   1.017   3.728  13.340 -0.8886 -0.0218  0.2068
  620TMC3     C 9186   1.057   3.353  13.490 -0.1238 -0.0018 -0.0183
  620TMC3     O 9187   1.159   3.309  13.542 -0.3597 -0.5466 -0.1896
  620TMC3     H 9188   0.911   3.422  13.265 -0.9140  2.4064 -2.4366
  620TMC3    H1 9189   1.211   3.544  13.539  1.4864  0.7307 -0.6607
  620TMC3    H2 9190   1.010   3.827  13.297  1.5348  0.5361  1.1036
  620TMC3    C7 9191   1.163   3.802  13.512  0.6861 -0.3085 -0.1037
  620TMC3    C8 9192   0.812   3.673  13.244 -0.0276  0.2967 -0.5032
  620TMC3    O1 9193   1.190   3.902  13.443 -0.6211  0.2365  0.1172
  620TMC3    O2 9194   0.767   3.764  13.314 -0.1502  0.8874 -0.2313
  621MPD2     C 9195   1.706   3.015   9.775 -0.1222  0.4105 -0.3446
  621MPD2    C1 9196   1.781   3.006   9.656 -0.0336  0.7517  0.5705
  621MPD2    C2 9197   1.781   3.122   9.581  0.5197  0.1860 -0.0624
  621MPD2    C3 9198   1.712   3.237   9.612  0.1175  0.9263  0.5654
  621MPD2    C4 9199   1.634   3.235   9.720  0.5896 -0.1262  0.7393
  621MPD2    C5 9200   1.633   3.128   9.805 -0.7412  0.0083  0.1060
  621MPD2     H 9201   1.857   3.120   9.503  1.5524  1.0161  0.9341
  621MPD2    H1 9202   1.572   3.316   9.756  2.4864  0.8675  1.7560
  621MPD2    H2 9203   1.690   2.931   9.842  1.4196 -0.1264 -0.6549
  621MPD2    H3 9204   1.579   3.129   9.899 -0.0783  0.8967  0.4791
  621MPD2     N 9205   1.737   3.358   9.535  0.3636 -0.2576 -0.1827
  621MPD2    H5 9206   1.799   3.353   9.454  0.9430 -2.5350  0.4023
  621MPD2    N1 9207   1.855   2.888   9.619  0.0858  0.0256  0.2541
  621MPD2    H7 9208   1.911   2.881   9.535  2.2158  0.9459  1.6118
  622TMC3    C1 9209   1.940   2.663   9.653 -0.1036  0.5033  0.3447
  622TMC3    C2 9210   1.949   2.566   9.745 -0.6443  0.0472  0.6381
  622TMC3    C3 9211   1.917   2.436   9.713  0.2829  0.0574  0.3407
  622TMC3    C4 9212   1.925   2.638   9.523 -1.2728  0.1620 -0.2983
  622TMC3    C5 9213   1.877   2.512   9.501 -0.0253  0.2958 -0.6347
  622TMC3    C6 9214   1.887   2.407   9.587  0.2262 -0.0396  0.6960
  622TMC3     C 9215   1.878   2.786   9.707  0.8531  0.4210 -0.5816
  622TMC3     O 9216   1.846   2.770   9.822 -0.4383  0.4601 -0.0883
  622TMC3     H 9217   1.967   2.601   9.847  0.1292 -0.1675  0.5760
  622TMC3    H1 9218   1.905   2.720   9.454  3.3406  0.4546 -1.2540
  622TMC3    H2 9219   1.861   2.304   9.569 -0.2703  0.0820  0.7217
  622TMC3    C7 9220   1.809   2.481   9.377  0.0793 -0.4951 -0.0779
  622TMC3    C8 9221   1.811   2.398   9.803 -0.6231  0.4823 -0.6100
  622TMC3    O1 9222   1.822   2.573   9.292 -0.1178  0.1159  0.0228
  622TMC3    O2 9223   1.765   2.288   9.781  0.2384  0.2638 -0.3781
  623MPD2     C 9224   0.595   3.946  16.059 -1.0084 -0.0071  0.6881
  623MPD2    C1 9225   0.564   3.840  16.143  0.1437  0.2844  0.1559
  623MPD2    C2 9226   0.597   3.833  16.276  0.3154 -0.0736  0.1379
  623MPD2    C3 9227   0.694   3.922  16.321  0.8852 -0.1453 -0.1092
  623MPD2    C4 9228   0.725   4.033  16.243  0.2498 -0.0515 -0.3668
  623MPD2    C5 9229   0.673   4.050  16.115 -0.8685 -0.9454 -0.0761
  623MPD2     H 9230   0.568   3.745  16.332  0.6311  0.2926  0.8702
  623MPD2    H1 9231   0.792   4.113  16.275  1.1314 -0.9275 -0.0153
  623MPD2    H2 9232   0.561   3.954  15.956 -0.4927  0.6336  0.5722
  623MPD2    H3 9233   0.707   4.131  16.050  0.4663 -1.4315  0.0352
  623MPD2     N 9234   0.741   3.902  16.449 -0.4692 -0.5260 -0.4712
  623MPD2    H5 9235   0.694   3.823  16.492 -0.6905 -0.3026 -0.3037
  623MPD2    N1 9236   0.465   3.747  16.108 -0.4569 -0.7964 -0.2659
  623MPD2    H7 9237   0.434   3.685  16.183  0.5179 -0.2372  0.6048
  624TMC3    C1 9238   0.923   3.664  16.697 -0.0450  0.2683 -0.3390
  624TMC3    C2 9239   0.807   3.649  16.769 -0.6227  0.5234  0.2770
  624TMC3    C3 9240   0.712   3.746  16.766  0.2750 -0.0068  0.9712
  624TMC3    C4 9241   0.951   3.785  16.645  0.5669  0.3484 -0.3123
  624TMC3    C5 9242   0.851   3.882  16.642 -0.6415 -0.0409 -0.6463
  624TMC3    C6 9243   0.733   3.862  16.701  0.2455 -0.0652 -0.4317
  624TMC3     C 9244   1.039   3.582  16.735  0.0845  0.4095 -0.2577
  624TMC3     O 9245   1.138   3.651  16.742  0.0418  0.2892 -0.4316
  624TMC3     H 9246   0.783   3.554  16.814 -0.5519  0.8151  0.9338
  624TMC3    H1 9247   1.037   3.799  16.580  0.8934  0.5044  0.1482
  624TMC3    H2 9248   0.658   3.940  16.697  1.2769  0.8394 -2.1131
  624TMC3    C7 9249   0.844   3.955  16.521 -0.4827 -0.0394  0.0909
  624TMC3    C8 9250   0.575   3.707  16.781 -0.0842 -0.5441  0.5547
  624TMC3    O1 9251   0.933   4.030  16.479  0.0536 -0.7185 -0.1826
  624TMC3    O2 9252   0.548   3.592  16.763 -0.0035 -0.3643  0.1544
  625MPD2     C 9253   0.448   4.239   0.406 -0.7028  0.7099  0.6982
  625MPD2    C1 9254   0.535   4.311   0.487 -0.6094  0.3344  0.9206
  625MPD2    C2 9255   0.592   4.245   0.595  0.1455  0.0144  0.1188
  625MPD2    C3 9256   0.560   4.117   0.626 -0.1685 -0.5742  0.5483
  625MPD2    C4 9257   0.469   4.042   0.546  0.0535 -0.2445 -0.2008
  625MPD2    C5 9258   0.423   4.102   0.431  0.1103  0.2555 -1.0395
  625MPD2     H 9259   0.669   4.292   0.656 -2.4004  2.6986  1.2305
  625MPD2    H1 9260   0.434   3.940   0.559 -0.9985 -0.0536 -1.5615
  625MPD2    H2 9261   0.422   4.283   0.311 -1.8572  1.8945  1.5730
  625MPD2    H3 9262   0.359   4.044   0.365  0.0958 -1.3112  0.3593
  625MPD2     N 9263   0.612   4.061   0.744  0.1332  0.3215 -0.2197
  625MPD2    H5 9264   0.656   4.125   0.810 -1.5589  0.9063  0.3296
  625MPD2    N1 9265   0.566   4.452   0.467 -0.0588 -0.5964 -0.0333
  625MPD2    H7 9266   0.601   4.498   0.551 -3.1725 -1.4582  1.7368
  626TMC3    C1 9267   0.538   4.672   0.408  0.0813  0.0446 -0.3157
  626TMC3    C2 9268   0.536   0.035   0.306 -0.1672 -0.0139  0.6098
  626TMC3    C3 9269   0.516   0.169   0.337 -0.3739  0.5577  0.1370
  626TMC3    C4 9270   0.541   4.705   0.536  0.2475  0.1949 -0.5373
  626TMC3    C5 9271   0.525   0.108   0.561 -0.0439  0.6004 -0.5856
  626TMC3    C6 9272   0.510   0.207   0.471 -0.8190 -0.3251  0.4945
  626TMC3     C 9273   0.524   4.534   0.370  0.5219 -0.0596 -0.2064
  626TMC3     O 9274   0.484   4.505   0.256  0.3763  0.7054  0.1602
  626TMC3     H 9275   0.525   0.011   0.201  1.5554 -4.8907  1.5491
  626TMC3    H1 9276   0.529   4.639   0.622  0.0310  0.5938 -0.2603
  626TMC3    H2 9277   0.488   0.311   0.490 -1.1636 -0.5457  1.2935
  626TMC3    C7 9278   0.509   0.139   0.702  0.2189  1.0201  0.1781
  626TMC3    C8 9279   0.442   0.241   0.234  0.7681 -0.8753  0.3040
  626TMC3    O1 9280   0.567   0.070   0.785 -0.3670 -0.1148  0.2560
  626TMC3    O2 9281   0.370   0.176   0.161  0.3408  0.0872  0.2058
  627MPD2     C 9282   4.101   0.459  14.304  0.1270 -1.0318 -0.4304
  627MPD2    C1 9283   4.018   0.460  14.418  0.2916 -0.3553  0.1435
  627MPD2    C2 9284   3.888   0.425  14.406  0.4604 -0.2387 -0.1209
  627MPD2    C3 9285   3.846   0.362  14.293  0.5240  0.3364 -0.0867
  627MPD2    C4 9286   3.929   0.343  14.184  0.4737  0.0788 -0.3186
  627MPD2    C5 9287   4.055   0.388  14.195 -0.3045 -0.6082 -0.4195
  627MPD2     H 9288   3.813   0.429  14.484 -0.7920  0.3616 -1.3597
  627MPD2    H1 9289   3.898   0.306  14.087 -1.7972  0.3225  0.3195
  627MPD2    H2 9290   4.205   0.491  14.301 -0.3168  0.6942  1.9421
  627MPD2    H3 9291   4.124   0.379  14.112  1.1889  2.2588  0.5093
  627MPD2     N 9292   3.710   0.313  14.285  0.3425  0.1776 -0.4650
  627MPD2    H5 9293   3.640   0.328  14.356 -0.7928 -0.3516 -1.4735
  627MPD2    N1 9294   4.061   0.512  14.541 -0.2382 -0.1480  0.1930
  627MPD2    H7 9295   3.994   0.541  14.612  0.1498 -0.6896  0.7806
  628TMC3    C1 9296   4.201   0.605  14.702  0.0212  0.8101  0.8059
  628TMC3    C2 9297   4.315   0.577  14.772 -0.0242 -0.1815 -0.7081
  628TMC3    C3 9298   4.347   0.656  14.877  0.7990  0.3186  0.0195
  628TMC3    C4 9299   4.125   0.719  14.723 -0.5800 -0.0164 -0.1270
  628TMC3    C5 9300   4.160   0.796  14.831  0.1282  0.3435  0.1964
  628TMC3    C6 9301   4.264   0.759  14.913  0.0827 -0.1437 -0.6947
  628TMC3     C 9302   4.192   0.533  14.576 -0.2565 -0.6324 -0.2863
  628TMC3     O 9303   4.303   0.499  14.531 -0.1614  0.0921  0.1977
  628TMC3     H 9304   4.384   0.501  14.738  2.4130  2.5042 -1.8172
  628TMC3    H1 9305   4.038   0.738  14.661 -0.8418 -1.5544 -0.2166
  628TMC3    H2 9306   4.311   0.837  14.972 -1.7175 -1.2238  2.1745
  628TMC3    C7 9307   4.109   0.934  14.851 -0.1008 -0.7884 -0.2160
  628TMC3    C8 9308   4.489   0.692  14.901  0.8516 -0.3344  0.0508
  628TMC3    O1 9309   4.149   0.981  14.958  0.1517 -0.0604  0.1836
  628TMC3    O2 9310   4.525   0.805  14.878  0.2508  0.0139 -0.4848
  629MPD2     C 9311   1.874   4.231  16.052  0.6800  0.2696  0.3873
  629MPD2    C1 9312   1.878   4.176  16.176  0.1366 -0.9920  0.9799
  629MPD2    C2 9313   1.769   4.177  16.258  0.0556 -0.3030  0.6297
  629MPD2    C3 9314   1.653   4.237  16.220  0.1593  0.4079 -0.4650
  629MPD2    C4 9315   1.655   4.291  16.092  0.2697  0.2428 -0.4972
  629MPD2    C5 9316   1.768   4.302  16.011  0.2319  0.5719  0.2174
  629MPD2     H 9317   1.785   4.129  16.354 -0.1171 -1.4692  0.0763
  629MPD2    H1 9318   1.561   4.320  16.047 -0.4728 -1.7488 -0.2433
  629MPD2    H2 9319   1.955   4.233  15.980  0.0183 -1.6997 -0.4197
  629MPD2    H3 9320   1.762   4.349  15.913 -0.8429 -1.9348 -0.9123
  629MPD2     N 9321   1.535   4.235  16.300 -0.1368  0.1830 -0.1893
  629MPD2    H5 9322   1.454   4.274  16.254 -2.7413  0.3899  4.5996
  629MPD2    N1 9323   1.997   4.109  16.208 -0.0766  0.4652  0.0239
  629MPD2    H7 9324   2.070   4.112  16.137  1.9629  0.0821  2.0991
  630TMC3    C1 9325   2.164   3.993  16.324  0.3057  0.7365 -0.2220
  630TMC3    C2 9326   2.256   4.077  16.261  0.5914  0.1312  0.2916
  630TMC3    C3 9327   2.387   4.052  16.297 -0.0232  0.4364  0.5361
  630TMC3    C4 9328   2.188   3.893  16.419  0.5071 -0.5627 -0.9076
  630TMC3    C5 9329   2.319   3.876  16.439 -0.5095  0.4989  0.1313
  630TMC3    C6 9330   2.422   3.945  16.374  0.6359  0.2089 -0.2688
  630TMC3     C 9331   2.022   4.018  16.307  0.4246  0.2827  0.6587
  630TMC3     O 9332   1.950   3.967  16.393  0.1206  0.3693  0.2446
  630TMC3     H 9333   2.226   4.148  16.184 -1.5890  1.7972  2.7031
  630TMC3    H1 9334   2.111   3.821  16.442  1.2312 -1.8440 -2.4697
  630TMC3    H2 9335   2.527   3.941  16.398  0.3801  0.0513  0.8617
  630TMC3    C7 9336   2.359   3.780  16.528  0.1640 -0.4513 -0.3123
  630TMC3    C8 9337   2.491   4.116  16.231 -0.1129 -0.7098  0.0632
  630TMC3    O1 9338   2.473   3.786  16.566  0.2837  0.5365 -0.4035
  630TMC3    O2 9339   2.591   4.047  16.222  0.0431  0.7004  0.0703
  631MPD2     C 9340   0.496   3.523  15.261  0.7864 -0.2548  0.0817
  631MPD2    C1 9341   0.614   3.549  15.190  0.0421  0.3605 -0.3111
  631MPD2    C2 9342   0.734   3.531  15.252  0.2131 -0.2831 -0.0770
  631MPD2    C3 9343   0.736   3.487  15.386  0.3263 -0.2510  0.4464
  631MPD2    C4 9344   0.617   3.466  15.453  0.1578  0.5108 -0.5139
  631MPD2    C5 9345   0.493   3.488  15.395 -0.6266 -0.0919 -0.5316
  631MPD2     H 9346   0.824   3.568  15.204  0.4885  1.1375  1.5302
  631MPD2    H1 9347   0.624   3.417  15.549  1.0129 -0.6164 -1.1523
  631MPD2    H2 9348   0.399   3.555  15.225  2.0368  2.1897 -1.0882
  631MPD2    H3 9349   0.398   3.481  15.446 -0.6322 -1.3614 -0.7158
  631MPD2     N 9350   0.864   3.456  15.444  0.2298 -0.0597  0.3017
  631MPD2    H5 9351   0.940   3.470  15.378  1.2992 -0.0318  1.5412
  631MPD2    N1 9352   0.596   3.620  15.067 -1.0963  0.3561  0.3828
  631MPD2    H7 9353   0.500   3.637  15.038 -1.9487 -0.4921  2.7895
  632TMC3    C1 9354   0.651   3.789  14.923 -0.3826  0.9388 -0.6173
  632TMC3    C2 9355   0.546   3.871  14.971 -0.3260  0.4209 -0.4218
  632TMC3    C3 9356   0.541   4.004  14.935 -0.1133  0.2192 -0.1254
  632TMC3    C4 9357   0.744   3.837  14.835  0.0675 -0.6489  0.1870
  632TMC3    C5 9358   0.729   3.970  14.805  0.6359 -0.3430  0.0527
  632TMC3    C6 9359   0.638   4.054  14.853  0.7737  0.7527  0.0765
  632TMC3     C 9360   0.699   3.670  14.993  0.1208  0.4118  0.3400
  632TMC3     O 9361   0.814   3.631  14.979 -0.1995  0.2226  0.0449
  632TMC3     H 9362   0.482   3.837  15.052 -2.7456 -1.8268 -3.2638
  632TMC3    H1 9363   0.819   3.768  14.800 -0.4195 -1.4284  0.6775
  632TMC3    H2 9364   0.644   4.160  14.830 -2.2852  1.5067  2.7564
  632TMC3    C7 9365   0.781   4.021  14.681 -0.8459 -0.3943 -0.4046
  632TMC3    C8 9366   0.514   4.092  15.049  0.3130 -0.4336 -0.5053
  632TMC3    O1 9367   0.706   4.085  14.606  0.2262  0.0459  0.4656
  632TMC3    O2 9368   0.409   4.061  15.098  0.6124  0.0972  0.1752
  633MPD2     C 9369   0.565   1.760  17.109 -0.0967 -0.1064  0.4763
  633MPD2    C1 9370   0.561   1.737  16.976  0.6976  0.6631  0.2956
  633MPD2    C2 9371   0.507   1.620  16.916 -1.0660 -0.0386  0.4921
  633MPD2    C3 9372   0.461   1.523  16.994 -0.4192 -0.3821  0.3551
  633MPD2    C4 9373   0.468   1.543  17.130 -0.4943  0.2529 -0.1821
  633MPD2    C5 9374   0.516   1.662  17.190 -0.1943  0.7953  0.4171
  633MPD2     H 9375   0.497   1.613  16.809  1.1685 -0.3010  0.2862
  633MPD2    H1 9376   0.444   1.469  17.205  3.1272  1.7103  2.4385
  633MPD2    H2 9377   0.600   1.854  17.151  1.8835 -0.6430  0.0632
  633MPD2    H3 9378   0.515   1.679  17.297  2.5692  0.6280  0.4604
  633MPD2     N 9379   0.384   1.409  16.955 -0.2313  0.7616  0.5400
  633MPD2    H5 9380   0.358   1.343  17.027 -2.8933 -1.3281 -2.3525
  633MPD2    N1 9381   0.631   1.819  16.886 -0.0406  0.2893  0.1098
  633MPD2    H7 9382   0.631   1.789  16.789 -0.2892  0.2653  0.1185
  634TMC3    C1 9383   0.771   1.983  16.806  0.7430  0.0626  0.5128
  634TMC3    C2 9384   0.829   1.905  16.709 -0.5472 -0.7911 -0.6482
  634TMC3    C3 9385   0.881   1.970  16.598 -0.1094 -0.0689  0.1864
  634TMC3    C4 9386   0.769   2.123  16.796 -0.0711 -0.0043  0.0375
  634TMC3    C5 9387   0.824   2.179  16.687  0.0360  0.1275  0.3441
  634TMC3    C6 9388   0.887   2.106  16.591 -0.1865 -0.2286  0.1171
  634TMC3     C 9389   0.698   1.933  16.917 -0.5688 -0.2899 -0.5627
  634TMC3     O 9390   0.671   2.008  17.009 -0.4206 -0.1861  0.3895
  634TMC3     H 9391   0.841   1.799  16.728 -2.1250 -0.5752  1.5640
  634TMC3    H1 9392   0.749   2.179  16.887 -1.6374 -0.5477  0.0236
  634TMC3    H2 9393   0.928   2.152  16.501 -2.4182  0.3010 -0.6396
  634TMC3    C7 9394   0.794   2.314  16.648 -0.3822  0.1484  0.8889
  634TMC3    C8 9395   0.886   1.884  16.478  0.2035 -1.3832 -0.2935
  634TMC3    O1 9396   0.846   2.356  16.547  0.1983 -0.1711  0.1122
  634TMC3    O2 9397   0.848   1.772  16.488  0.0756 -0.5729 -0.1292
  635TMC3    C1 9398   1.131   2.570  17.349 -0.2827 -0.9839 -0.6325
  635TMC3    C2 9399   1.233   2.540  17.268 -0.7783  0.0306  0.3964
  635TMC3    C3 9400   1.250   2.411  17.226  0.1256  0.2189 -0.4367
  635TMC3    C4 9401   1.048   2.470  17.398 -0.6606  0.0612 -0.0696
  635TMC3    C5 9402   1.065   2.341  17.352  0.1138 -0.5794 -0.3301
  635TMC3    C6 9403   1.168   2.308  17.265 -0.1308 -0.3606 -0.0211
  635TMC3     C 9404   1.118   2.698  17.415 -0.6854  0.3436  0.0450
  635TMC3     O 9405   1.004   2.718  17.458 -0.0217 -0.4348  0.4280
  635TMC3     H 9406   1.291   2.622  17.228  1.0998 -0.9594  1.1048
  635TMC3    H1 9407   0.968   2.489  17.469 -2.5747 -1.6373 -1.7814
  635TMC3    H2 9408   1.186   2.208  17.228 -1.2910 -1.0283  1.1827
  635TMC3    C7 9409   0.975   2.242  17.401  0.5394  0.0387  0.6838
  635TMC3    C8 9410   1.354   2.389  17.127  0.5708 -0.4877  0.3050
  635TMC3    O1 9411   0.866   2.279  17.426 -0.3818  0.2298 -0.1894
  635TMC3    O2 9412   1.379   2.270  17.127 -0.3638  0.7986  0.4232
  636MPD2     C 9413   2.023   2.109  15.629 -0.3082 -0.1600  0.3276
  636MPD2    C1 9414   1.964   2.115  15.754 -0.4897  0.0987 -0.0236
  636MPD2    C2 9415   1.937   1.999  15.823  0.1883  1.1579 -0.2265
  636MPD2    C3 9416   1.960   1.867  15.768  0.2038  0.5001 -0.7057
  636MPD2    C4 9417   2.016   1.869  15.641 -0.2210 -0.7469 -0.0614
  636MPD2    C5 9418   2.054   1.983  15.581 -0.2251  0.6134  0.5146
  636MPD2     H 9419   1.895   2.003  15.923  2.7247 -0.6749  0.9114
  636MPD2    H1 9420   2.066   1.780  15.603  0.7512 -0.6656  1.0008
  636MPD2    H2 9421   2.055   2.199  15.579  2.2920 -1.3848 -0.1756
  636MPD2    H3 9422   2.121   1.976  15.496  0.2657 -1.1469  1.0407
  636MPD2     N 9423   1.931   1.750  15.837 -0.2405  0.0861 -0.0236
  636MPD2    H5 9424   1.924   1.745  15.938  0.8571  2.3400  0.1505
  636MPD2    N1 9425   1.932   2.243  15.815  0.3519 -0.1502  0.4806
  636MPD2    H7 9426   1.913   2.239  15.914  0.6028  1.8890  0.6032
  637TMC3    C1 9427   1.896   1.528  15.879 -0.0106 -0.1538  0.0398
  637TMC3    C2 9428   1.877   1.568  16.006 -0.4074  0.4225  0.5328
  637TMC3    C3 9429   1.947   1.514  16.110 -0.2970 -0.1455  0.1950
  637TMC3    C4 9430   1.979   1.417  15.858  1.7161  0.1778  0.3003
  637TMC3    C5 9431   2.047   1.370  15.961  0.0196  0.0572 -0.1315
  637TMC3    C6 9432   2.021   1.406  16.084  0.2857 -0.2650 -0.1739
  637TMC3     C 9433   1.919   1.631  15.781  0.1211  0.3693  1.0052
  637TMC3     O 9434   1.931   1.596  15.667 -0.3390 -0.1949 -0.0099
  637TMC3     H 9435   1.808   1.649  16.027  0.5461  1.5042 -0.4988
  637TMC3    H1 9436   1.995   1.365  15.763  1.1252  0.6567 -0.0564
  637TMC3    H2 9437   2.078   1.367  16.168 -2.6140 -0.3744  1.7407
  637TMC3    C7 9438   2.131   1.252  15.941 -0.2770 -0.3031  0.0457
  637TMC3    C8 9439   2.011   1.618  16.185 -0.6205 -0.0266  0.3768
  637TMC3    O1 9440   2.121   1.158  16.017 -0.9537  0.0376 -0.2397
  637TMC3    O2 9441   2.007   1.729  16.127 -0.0255 -0.2164  0.4340
  638MPD2     C 9442   1.520   1.183  14.612  0.6918  0.5771 -0.4066
  638MPD2    C1 9443   1.442   1.082  14.557  0.0195  0.1985 -0.5090
  638MPD2    C2 9444   1.438   0.964  14.625  0.3725 -0.0856 -0.0825
  638MPD2    C3 9445   1.516   0.935  14.734 -0.1767  0.1051 -0.3857
  638MPD2    C4 9446   1.599   1.036  14.786  0.1509 -0.0966  0.3556
  638MPD2    C5 9447   1.598   1.158  14.723  0.3791  0.8155  0.9619
  638MPD2     H 9448   1.386   0.877  14.586 -3.3375  1.9970  0.1953
  638MPD2    H1 9449   1.660   1.031  14.875  1.6895  0.1450 -0.6785
  638MPD2    H2 9450   1.526   1.274  14.554 -1.0797 -0.5797 -2.3892
  638MPD2    H3 9451   1.664   1.230  14.770  1.3087  0.3007  0.4397
  638MPD2     N 9452   1.509   0.805  14.785  0.7811 -0.3829  0.1060
  638MPD2    H5 9453   1.457   0.733  14.736  1.5078 -0.1757 -0.9744
  638MPD2    N1 9454   1.367   1.096  14.437  0.2950 -0.7721  0.8439
  638MPD2    H7 9455   1.394   1.177  14.381 -0.7232 -0.3391  0.9778
  639TMC3    C1 9456   1.515   0.629  14.954 -0.1597  0.0989  1.0700
  639TMC3    C2 9457   1.388   0.578  14.913  0.3323  0.2892 -0.0696
  639TMC3    C3 9458   1.358   0.447  14.935  0.6221  0.7979  0.3346
  639TMC3    C4 9459   1.615   0.545  14.998 -0.0341  0.7152  0.0086
  639TMC3    C5 9460   1.581   0.416  15.016  0.2205 -0.4391 -1.1084
  639TMC3    C6 9461   1.450   0.368  15.003 -0.0455 -0.2537  0.7397
  639TMC3     C 9462   1.557   0.766  14.907  0.2758 -0.0571  0.1366
  639TMC3     O 9463   1.640   0.828  14.977 -0.5111  0.3273 -0.4918
  639TMC3     H 9464   1.310   0.636  14.865 -2.1467  0.0352  3.6414
  639TMC3    H1 9465   1.716   0.582  15.002 -0.9618  3.2110  0.4223
  639TMC3    H2 9466   1.428   0.263  15.019  0.6846 -0.3105  1.3545
  639TMC3    C7 9467   1.680   0.335  15.078  0.3861  0.1622  0.1751
  639TMC3    C8 9468   1.292   0.382  14.819  0.6081 -0.4602 -0.3075
  639TMC3    O1 9469   1.638   0.239  15.137 -0.0144 -0.0073 -0.1194
  639TMC3    O2 9470   1.363   0.310  14.754 -0.1192 -0.2194  0.1375
  640MPD2     C 9471   2.136   4.015   9.696  0.1581 -0.2772 -0.3481
  640MPD2    C1 9472   2.190   4.052   9.570  0.3299 -0.3671  0.7244
  640MPD2    C2 9473   2.171   4.180   9.528 -0.2538  0.6666 -0.7998
  640MPD2    C3 9474   2.111   4.276   9.608 -0.2551  0.4049  0.0852
  640MPD2    C4 9475   2.081   4.241   9.735  0.1519 -0.0453  0.2493
  640MPD2    C5 9476   2.085   4.115   9.773 -0.4959  0.2086 -0.3612
  640MPD2     H 9477   2.189   4.202   9.424  1.2281 -0.1535 -0.7042
  640MPD2    H1 9478   2.035   4.311   9.804  1.8340  0.7723  0.5415
  640MPD2    H2 9479   2.138   3.914   9.735 -1.5128 -0.0184  0.3774
  640MPD2    H3 9480   2.045   4.088   9.870  0.0470  2.6902  0.5563
  640MPD2     N 9481   2.080   4.405   9.562  0.2039 -0.3601  0.2116
  640MPD2    H5 9482   2.040   4.470   9.629 -1.1246  0.3402 -1.2438
  640MPD2    N1 9483   2.260   3.953   9.497 -0.2431  0.6234  0.8022
  640MPD2    H7 9484   2.274   3.864   9.543 -0.6753  1.0346  1.7296
  641TMC3    C1 9485   2.372   3.870   9.306  0.2218  0.0384  0.4780
  641TMC3    C2 9486   2.452   3.795   9.395  1.0439  0.6595 -0.1201
  641TMC3    C3 9487   2.522   3.685   9.344  0.8377 -0.0579 -0.0686
  641TMC3    C4 9488   2.365   3.839   9.171  0.2400 -0.2908  0.0943
  641TMC3    C5 9489   2.449   3.744   9.129  0.4146  0.0534  0.0367
  641TMC3    C6 9490   2.528   3.665   9.208  0.6048 -0.7861  0.1789
  641TMC3     C 9491   2.287   3.974   9.366  0.0468 -0.0799  0.3948
  641TMC3     O 9492   2.230   4.043   9.284  0.0220 -0.3070 -0.6580
  641TMC3     H 9493   2.472   3.838   9.493 -1.3371 -0.0797  0.6832
  641TMC3    H1 9494   2.307   3.894   9.099 -2.0534  0.0429  2.2171
  641TMC3    H2 9495   2.561   3.566   9.177  3.1430  0.1811 -0.2229
  641TMC3    C7 9496   2.408   3.680   9.006  0.0500  0.2296  0.0469
  641TMC3    C8 9497   2.566   3.580   9.427  0.5355  1.0733 -0.4307
  641TMC3    O1 9498   2.289   3.705   8.976 -0.7466  0.1468 -0.2269
  641TMC3    O2 9499   2.642   3.499   9.379 -0.2543  0.0276  0.4149
  642TMC3    C1 9500   2.891   0.902  12.269  0.2147 -0.3985 -0.5287
  642TMC3    C2 9501   2.960   0.865  12.381 -0.0257  0.3050 -0.3225
  642TMC3    C3 9502   3.007   0.738  12.381  0.4094  0.1478 -0.7407
  642TMC3    C4 9503   2.868   0.816  12.169 -0.5490 -0.2504 -0.3891
  642TMC3    C5 9504   2.918   0.684  12.172  1.2225  0.6373 -0.1581
  642TMC3    C6 9505   2.988   0.646  12.282  0.6563 -0.2933  0.3755
  642TMC3     C 9506   2.822   1.021  12.270 -0.3552  0.0622 -0.1067
  642TMC3     O 9507   2.725   1.040  12.198 -0.8278 -0.1831 -0.4392
  642TMC3     H 9508   2.970   0.936  12.463 -0.6522 -0.1433  0.1465
  642TMC3    H1 9509   2.804   0.854  12.090 -3.5834  0.8231  2.6043
  642TMC3    H2 9510   3.020   0.543  12.292  0.5395 -0.3649  0.0391
  642TMC3    C7 9511   2.826   0.587  12.123 -0.3070  0.7449 -0.0268
  642TMC3    C8 9512   3.098   0.693  12.482 -0.0010  0.2745  0.6828
  642TMC3    O1 9513   2.775   0.605  12.014 -0.0678 -0.1405  0.1529
  642TMC3    O2 9514   3.192   0.624  12.453  0.5075  0.2207 -0.3645
  643TMC3    C1 9515   2.493   0.144   0.319  0.1267  0.2742 -0.1289
  643TMC3    C2 9516   2.362   0.108   0.295 -1.2172  0.0880 -0.8362
  643TMC3    C3 9517   2.324   0.043   0.186 -1.0513 -0.1320  0.1528
  643TMC3    C4 9518   2.590   0.122   0.222 -0.9497  0.1460  0.5140
  643TMC3    C5 9519   2.545   0.053   0.111  0.1333  0.1568 -0.3394
  643TMC3    C6 9520   2.424   4.729   0.099 -0.3427  0.2135  0.2812
  643TMC3     C 9521   2.542   0.172   0.456 -0.1354 -0.0497  0.1129
  643TMC3     O 9522   2.468   0.159   0.551 -0.0603  0.3871  0.1829
  643TMC3     H 9523   2.286   0.133   0.368 -1.1428 -1.4087 -0.2537
  643TMC3    H1 9524   2.693   0.154   0.234 -1.7361  2.7816  0.1780
  643TMC3    H2 9525   2.394   4.665   0.016 -0.2807 -0.5152  0.8140
  643TMC3    C7 9526   2.601   0.090  17.701 -0.6481 -0.2667  0.1398
  643TMC3    C8 9527   2.206   0.113   0.123  0.7099  0.1834 -0.1312
  643TMC3    O1 9528   2.523   0.072  17.609  0.2136  0.1601  0.2903
  643TMC3    O2 9529   2.109   0.145   0.187  0.0085 -0.2041 -0.2200
  644MPD2     C 9530   2.258   0.768   9.296  0.0669  0.1951  0.3381
  644MPD2    C1 9531   2.357   0.759   9.387  0.4520  0.3064  0.3922
  644MPD2    C2 9532   2.415   0.878   9.435 -0.3029  1.0887 -1.1211
  644MPD2    C3 9533   2.358   1.002   9.403  0.7415 -0.0115 -0.2728
  644MPD2    C4 9534   2.250   1.005   9.315  0.3021 -0.3412 -0.0875
  644MPD2    C5 9535   2.197   0.886   9.266 -0.0044 -0.1749 -0.6316
  644MPD2     H 9536   2.494   0.864   9.508 -0.0149  4.7750 -0.7308
  644MPD2    H1 9537   2.203   1.094   9.276 -1.0980 -1.0904 -0.1100
  644MPD2    H2 9538   2.230   0.679   9.242  0.3455  1.0761 -1.2549
  644MPD2    H3 9539   2.120   0.889   9.190 -0.3626 -1.5708 -0.3294
  644MPD2     N 9540   2.420   1.120   9.449  0.5371 -0.3946  0.2091
  644MPD2    H5 9541   2.508   1.109   9.499  1.8177  1.7216 -1.5925
  644MPD2    N1 9542   2.399   0.623   9.406  0.1608  0.2055  0.0455
  644MPD2    H7 9543   2.349   0.550   9.358 -0.3162 -0.0535  0.9390
  645TMC3    C1 9544   2.495   1.342   9.455  0.5779 -0.4951 -0.0426
  645TMC3    C2 9545   2.553   1.329   9.575  0.3174 -0.3155 -0.5451
  645TMC3    C3 9546   2.631   1.435   9.619  0.1450 -0.1439  0.1292
  645TMC3    C4 9547   2.524   1.445   9.371 -0.4579  0.0979  0.2884
  645TMC3    C5 9548   2.612   1.544   9.412 -0.2159 -0.2371 -0.0960
  645TMC3    C6 9549   2.673   1.533   9.534  0.3695 -0.2053  0.1667
  645TMC3     C 9550   2.397   1.250   9.405  0.1591  0.1042 -0.6283
  645TMC3     O 9551   2.328   1.284   9.308 -0.0921  0.2237 -0.3261
  645TMC3     H 9552   2.537   1.240   9.635  1.5227 -2.0354 -2.7469
  645TMC3    H1 9553   2.481   1.431   9.272 -0.5063  0.2150  0.2924
  645TMC3    H2 9554   2.731   1.617   9.571 -2.6724  1.0525  2.0896
  645TMC3    C7 9555   2.660   1.644   9.319  0.4443 -0.8245  0.0705
  645TMC3    C8 9556   2.690   1.436   9.754 -0.1939 -0.2014 -0.3748
  645TMC3    O1 9557   2.751   1.713   9.361 -0.2076  0.7361  0.2116
  645TMC3    O2 9558   2.798   1.492   9.762 -0.3697 -0.0887  0.7909
  646MPD2     C 9559   1.549   4.203  14.379  0.3814  0.2320  0.4513
  646MPD2    C1 9560   1.506   4.297  14.474  0.1695 -0.4717  0.5342
  646MPD2    C2 9561   1.411   4.388  14.441 -0.0938  0.3192 -0.6817
  646MPD2    C3 9562   1.365   4.392  14.311 -0.3433 -0.6456 -0.3311
  646MPD2    C4 9563   1.403   4.285  14.229  0.1047 -0.9485  0.3542
  646MPD2    C5 9564   1.500   4.196  14.260 -0.0994 -0.1934  0.5211
  646MPD2     H 9565   1.364   4.455  14.512  0.1902  0.0471 -0.2331
  646MPD2    H1 9566   1.359   4.267  14.131  0.3523  1.8476 -0.2684
  646MPD2    H2 9567   1.620   4.127  14.407 -0.3889 -0.0338  1.6950
  646MPD2    H3 9568   1.531   4.120  14.190  1.1392  1.6467 -0.9417
  646MPD2     N 9569   1.271   4.490  14.275  0.2347  0.1564 -0.1795
  646MPD2    H5 9570   1.248   4.553  14.352  0.8538  3.0117 -2.3475
  646MPD2    N1 9571   1.566   4.295  14.597 -0.1493  0.4120  0.2125
  646MPD2    H7 9572   1.647   4.234  14.610 -1.9083 -1.5190  2.1525
  647TMC3    C1 9573   1.625   4.338  14.814  0.3973 -0.1671 -0.4517
  647TMC3    C2 9574   1.592   4.248  14.913 -0.2387  0.1227  1.0566
  647TMC3    C3 9575   1.690   4.203  14.996 -0.2411  0.6716  0.7685
  647TMC3    C4 9576   1.755   4.358  14.782 -0.0155 -0.3206  0.3533
  647TMC3    C5 9577   1.855   4.311  14.864  0.3039 -0.0625 -0.5428
  647TMC3    C6 9578   1.822   4.247  14.977 -0.2711 -0.2715 -0.1069
  647TMC3     C 9579   1.526   4.350  14.711 -0.0873  0.7077 -0.1959
  647TMC3     O 9580   1.413   4.384  14.744 -0.2711  0.2813  0.2300
  647TMC3     H 9581   1.491   4.224  14.945 -0.6894 -0.6456 -0.9690
  647TMC3    H1 9582   1.767   4.423  14.696  1.6415 -2.4086 -1.0065
  647TMC3    H2 9583   1.903   4.213  15.041 -1.0773 -1.4403  0.3127
  647TMC3    C7 9584   1.997   4.310  14.820  0.0032 -0.6984  0.2994
  647TMC3    C8 9585   1.690   4.061  15.030  0.1563 -0.2509 -0.0034
  647TMC3    O1 9586   2.083   4.287  14.900 -0.5971 -0.2556  0.1029
  647TMC3    O2 9587   1.778   4.032  15.106  0.6752  0.2959 -0.0728
  648TMC3    C1 9588   1.296   2.082  15.928 -0.0670 -0.0588 -0.2981
  648TMC3    C2 9589   1.307   1.963  15.864  0.0445 -0.0697 -0.3558
  648TMC3    C3 9590   1.273   1.960  15.733 -0.7496 -0.2100  0.4309
  648TMC3    C4 9591   1.225   2.187  15.876 -0.8425  0.6735 -0.0695
  648TMC3    C5 9592   1.190   2.178  15.745 -1.4300  0.0013 -0.2651
  648TMC3    C6 9593   1.203   2.060  15.672 -0.2504  0.7456  0.1471
  648TMC3     C 9594   1.318   2.086  16.065 -0.4583  0.5307  0.5940
  648TMC3     O 9595   1.334   2.195  16.122  0.1561 -0.5363 -0.4492
  648TMC3     H 9596   1.374   1.891  15.909  0.4979  0.3107 -0.4131
  648TMC3    H1 9597   1.198   2.274  15.936  2.8175  1.3644  0.5740
  648TMC3    H2 9598   1.187   2.046  15.565  1.6921  0.7841 -0.1559
  648TMC3    C7 9599   1.113   2.277  15.676 -0.3538  0.3976  0.2844
  648TMC3    C8 9600   1.278   1.830  15.664 -0.2002 -0.4204 -0.4625
  648TMC3    O1 9601   1.080   2.259  15.558  0.5493 -0.2428 -0.1010
  648TMC3    O2 9602   1.187   1.808  15.588  0.0493 -0.5165 -0.1567
  649TMC3    C1 9603   4.328   3.255  12.692 -0.7770  0.1887 -0.6755
  649TMC3    C2 9604   4.450   3.315  12.708 -0.5544  0.5463  0.1641
  649TMC3    C3 9605   4.532   3.261  12.808  0.1101 -0.8588  0.4766
  649TMC3    C4 9606   4.290   3.147  12.758 -0.1016 -0.5007  0.4227
  649TMC3    C5 9607   4.380   3.086  12.844 -0.1880  0.4309 -0.3497
  649TMC3    C6 9608   4.503   3.145  12.876  1.5688  0.2403 -0.2223
  649TMC3     C 9609   4.230   3.321  12.608  0.1775 -0.6017  0.3279
  649TMC3     O 9610   4.115   3.325  12.654  0.8918 -0.1286 -0.1958
  649TMC3     H 9611   4.485   3.401  12.653  1.5255 -0.8065 -0.6197
  649TMC3    H1 9612   4.195   3.100  12.734  0.2315 -0.2654 -1.3071
  649TMC3    H2 9613   4.555   3.107  12.963  0.7369 -0.6517 -0.0981
  649TMC3    C7 9614   4.319   3.015  12.952 -0.0993 -0.4762 -0.4211
  649TMC3    C8 9615   4.682   3.290  12.823  0.5158  0.5887  0.1659
  649TMC3    O1 9616   4.333   3.060  13.064  0.2585 -0.3197  0.3136
  649TMC3    O2 9617   0.017   3.220  12.900 -0.0509  0.0617  0.1882
  650TMC3    C1 9618   2.419   0.089  12.555  0.5537 -0.4112 -0.1511
  650TMC3    C2 9619   2.405   0.208  12.624  0.7499 -0.0144 -0.2855
  650TMC3    C3 9620   2.277   0.263  12.625 -0.1266  0.5228  0.4966
  650TMC3    C4 9621   2.314   0.032  12.486  0.0258  0.8207 -0.7259
  650TMC3    C5 9622   2.195   0.096  12.486 -1.0277 -0.1042  0.5933
  650TMC3    C6 9623   2.166   0.201  12.563  0.1654 -0.4673 -0.2938
  650TMC3     C 9624   2.540   0.016  12.562  0.1433 -0.2921 -0.7585
  650TMC3     O 9625   2.638   0.076  12.598  0.5230 -0.8528 -0.2253
  650TMC3     H 9626   2.489   0.241  12.683  2.5209 -1.0009 -2.2673
  650TMC3    H1 9627   2.337   4.688  12.408  1.1981  1.0318 -0.5826
  650TMC3    H2 9628   2.069   0.248  12.554  0.8908  1.1382  0.2652
  650TMC3    C7 9629   2.087   0.061  12.390  0.2340 -0.0269 -0.1951
  650TMC3    C8 9630   2.260   0.400  12.655  0.5413 -0.1728  0.1401
  650TMC3    O1 9631   2.085   4.675  12.355  1.1103 -0.0089  0.2944
  650TMC3    O2 9632   2.343   0.479  12.613  0.3495  0.6511  0.4117
  651MPD2     C 9633   1.328   1.796  10.308 -0.2836 -0.1081 -0.4857
  651MPD2    C1 9634   1.273   1.905  10.372  0.3194 -0.2040  0.0800
  651MPD2    C2 9635   1.352   2.021  10.388  0.3610  0.0805 -0.0118
  651MPD2    C3 9636   1.477   2.033  10.331 -0.3534  0.1003 -0.4917
  651MPD2    C4 9637   1.531   1.923  10.266 -0.4908  0.1372  0.0249
  651MPD2    C5 9638   1.448   1.811  10.248  0.1294 -0.0386 -0.1660
  651MPD2     H 9639   1.303   2.108  10.430 -3.1167 -2.0533  0.3198
  651MPD2    H1 9640   1.632   1.913  10.226  0.8559 -0.6112  3.5972
  651MPD2    H2 9641   1.276   1.708  10.273 -2.9708  0.7100  1.5091
  651MPD2    H3 9642   1.489   1.730  10.189  2.3202 -0.7640  2.3837
  651MPD2     N 9643   1.551   2.146  10.367  0.4026  0.0446 -0.3400
  651MPD2    H5 9644   1.509   2.210  10.434  0.2210 -2.1995  1.6976
  651MPD2    N1 9645   1.142   1.902  10.424  0.7344 -0.3630 -0.4343
  651MPD2    H7 9646   1.109   1.986  10.469 -5.1954 -1.7325 -2.1979
  652TMC3    C1 9647   1.933   2.386  10.467 -0.9332 -0.5079 -0.4931
  652TMC3    C2 9648   1.861   2.268  10.469  0.3233  0.2172 -0.5775
  652TMC3    C3 9649   1.728   2.274  10.439  0.4753  0.6588 -0.0082
  652TMC3    C4 9650   1.881   2.509  10.443 -0.5314 -0.0021 -0.1705
  652TMC3    C5 9651   1.748   2.506  10.418  0.1664  0.2889 -0.4902
  652TMC3    C6 9652   1.667   2.397  10.421  0.4324 -0.8838 -0.2962
  652TMC3     C 9653   2.070   2.382  10.511 -0.0647  0.1855 -0.6961
  652TMC3     O 9654   2.106   2.289  10.581  0.5021 -0.5860 -0.0838
  652TMC3     H 9655   1.905   2.171  10.491  5.0557  1.8870 -2.6595
  652TMC3    H1 9656   1.930   2.604  10.459  0.0865 -0.6054  1.5834
  652TMC3    H2 9657   1.569   2.401  10.376 -0.0071  0.5719  0.7936
  652TMC3    C7 9658   1.675   2.625  10.397 -0.1899  0.0248 -0.3389
  652TMC3    C8 9659   1.686   2.167  10.357  0.9101  0.3244  0.1603
  652TMC3    O1 9660   1.556   2.624  10.426  0.1559  0.4238 -0.2186
  652TMC3    O2 9661   1.767   2.098  10.303 -0.2795 -0.3639 -0.2235
  653MPD2     C 9662   0.546   1.849   0.001 -0.1724  0.4070  0.3197
  653MPD2    C1 9663   0.503   1.952  17.634 -0.0386  0.1047 -0.5435
  653MPD2    C2 9664   0.411   1.931  17.535 -0.3326 -0.0076  0.4239
  653MPD2    C3 9665   0.364   1.804  17.514  0.0687  0.0993 -0.5601
  653MPD2    C4 9666   0.402   1.702  17.603  0.1970 -0.8679 -0.0020
  653MPD2    C5 9667   0.493   1.726  17.701 -0.0649 -0.6490 -0.5127
  653MPD2     H 9668   0.379   2.005  17.462 -1.5118  0.2594  1.2192
  653MPD2    H1 9669   0.355   1.604  17.601 -1.1602 -0.1726 -1.8074
  653MPD2    H2 9670   0.618   1.856   0.081 -0.9387 -3.3752  1.3445
  653MPD2    H3 9671   0.535   1.644   0.044 -1.6551 -0.9218  0.2505
  653MPD2     N 9672   0.281   1.784  17.397  0.0058  0.1029  0.1352
  653MPD2    H5 9673   0.269   1.863  17.335 -1.1175  0.6074  0.9816
  653MPD2    N1 9674   0.553   2.083  17.643 -0.6551  0.7368  0.1866
  653MPD2    H7 9675   0.530   2.143  17.565 -0.5322  0.0605 -0.3727
  654TMC3    C1 9676   0.149   1.675  17.229 -0.0952  0.2414 -0.3978
  654TMC3    C2 9677   0.092   1.794  17.201  0.3319  0.2347  0.2061
  654TMC3    C3 9678   0.026   1.793  17.078 -0.3425 -0.6327 -0.1764
  654TMC3    C4 9679   0.110   1.566  17.158  0.5187 -0.0441  0.0937
  654TMC3    C5 9680   0.036   1.571  17.046  0.4142 -1.1210 -0.6186
  654TMC3    C6 9681   0.009   1.693  16.991  0.3669 -0.1772 -0.0359
  654TMC3     C 9682   0.232   1.662  17.352 -0.0957 -0.1425  0.0462
  654TMC3     O 9683   0.247   1.551  17.391  0.3903  0.2293 -0.5269
  654TMC3     H 9684   0.104   1.882  17.263  2.1516 -0.1433  0.3870
  654TMC3    H1 9685   0.156   1.472  17.189  0.2506 -0.0546  0.4571
  654TMC3    H2 9686   4.687   1.704  16.896 -1.8697 -0.6154  1.0996
  654TMC3    C7 9687   0.016   1.457  16.958 -0.3404 -0.1859  0.0738
  654TMC3    C8 9688   4.709   1.921  17.020  0.3010 -0.7988 -0.7044
  654TMC3    O1 9689   4.722   1.477  16.841  0.0470  0.4659 -0.3456
  654TMC3    O2 9690   4.694   1.930  16.897  0.3445  0.3474 -0.0880
  655MPD2     C 9691   1.599   2.078  15.549  0.3654  0.1474 -0.4227
  655MPD2    C1 9692   1.509   2.172  15.491 -0.4523 -0.1404 -0.3636
  655MPD2    C2 9693   1.444   2.126  15.377  0.6803  0.0222 -0.0235
  655MPD2    C3 9694   1.479   2.004  15.321 -0.6446  0.1973 -0.3046
  655MPD2    C4 9695   1.567   1.911  15.380 -0.0114  0.2476 -0.1939
  655MPD2    C5 9696   1.619   1.958  15.497 -0.3024 -0.3488  0.0634
  655MPD2     H 9697   1.381   2.197  15.325  1.1292  2.1099  2.2672
  655MPD2    H1 9698   1.585   1.807  15.359  2.4732  1.1854 -2.7241
  655MPD2    H2 9699   1.653   2.088  15.642  0.4535  1.2475 -0.6000
  655MPD2    H3 9700   1.688   1.889  15.544 -1.4550 -0.7251  1.1945
  655MPD2     N 9701   1.432   1.972  15.194  0.1493 -0.0232 -0.2215
  655MPD2    H5 9702   1.484   1.899  15.145  0.7954 -0.0623  0.5026
  655MPD2    N1 9703   1.473   2.301  15.546 -0.0594 -0.2694  0.8277
  655MPD2    H7 9704   1.403   2.349  15.490  0.7578  0.0161  0.0426
  656TMC3    C1 9705   1.451   2.469  15.725 -0.1246  0.3329  0.3562
  656TMC3    C2 9706   1.438   2.481  15.861 -0.4170 -0.0921  0.3368
  656TMC3    C3 9707   1.363   2.589  15.903 -0.5660  0.0482 -0.6157
  656TMC3    C4 9708   1.399   2.557  15.637 -0.1151  0.2740  0.1665
  656TMC3    C5 9709   1.324   2.658  15.686 -0.7622  0.0336  0.0699
  656TMC3    C6 9710   1.311   2.678  15.825 -0.1763 -0.6242  0.2772
  656TMC3     C 9711   1.518   2.346  15.672  0.2314 -0.0922 -0.1042
  656TMC3     O 9712   1.572   2.276  15.759  0.1417 -0.2167 -0.0475
  656TMC3     H 9713   1.474   2.404  15.927 -0.1780  0.7795  1.2223
  656TMC3    H1 9714   1.421   2.536  15.532 -1.9861  0.8562 -0.3316
  656TMC3    H2 9715   1.265   2.768  15.864 -3.0674 -1.8462 -0.2468
  656TMC3    C7 9716   1.276   2.746  15.583  0.3214 -0.1024  0.1819
  656TMC3    C8 9717   1.325   2.593  16.039  0.0252  0.1411 -0.1777
  656TMC3    O1 9718   1.309   2.724  15.468 -0.5810  0.3419 -0.0947
  656TMC3    O2 9719   1.347   2.485  16.087 -0.4448 -0.5175 -0.4352
  657TMC3    C1 9720   0.424   1.364  14.791 -0.3359 -0.3213  0.3689
  657TMC3    C2 9721   0.456   1.346  14.923 -0.0024  0.2605  0.5275
  657TMC3    C3 9722   0.362   1.352  15.017  0.5248 -1.2379  0.9126
  657TMC3    C4 9723   0.293   1.383  14.765  0.4088  0.3617  0.5888
  657TMC3    C5 9724   0.194   1.386  14.864  0.2349 -0.5587 -0.5419
  657TMC3    C6 9725   0.226   1.371  14.995  0.9689  0.1120  0.3026
  657TMC3     C 9726   0.527   1.373  14.689 -0.3217 -0.4135  0.1520
  657TMC3     O 9727   0.491   1.427  14.582 -0.3245 -0.1435 -0.2606
  657TMC3     H 9728   0.563   1.346  14.942  0.1776  1.7076 -0.4102
  657TMC3    H1 9729   0.266   1.405  14.663 -1.6990 -0.0821  1.0494
  657TMC3    H2 9730   0.161   1.371  15.082 -0.9361 -1.3233 -1.1293
  657TMC3    C7 9731   0.061   1.429  14.818 -0.0021  0.2014 -0.3650
  657TMC3    C8 9732   0.396   1.403  15.151 -0.0016  0.4812 -0.2046
  657TMC3    O1 9733   0.058   1.506  14.723  0.0618 -0.1868  0.3562
  657TMC3    O2 9734   0.309   1.475  15.197  0.3202 -0.1151 -0.2655
  658MPD2     C 9735   1.644   2.286  14.738 -0.0691  0.4065 -0.3348
  658MPD2    C1 9736   1.537   2.222  14.693 -0.2621 -0.3585 -0.6399
  658MPD2    C2 9737   1.461   2.291  14.591  0.4255 -0.3700  0.2209
  658MPD2    C3 9738   1.492   2.426  14.557 -0.3146 -0.0095  0.2801
  658MPD2    C4 9739   1.597   2.486  14.627 -0.4080 -0.5816 -0.0565
  658MPD2    C5 9740   1.676   2.414  14.703 -0.0702 -0.3116 -0.4750
  658MPD2     H 9741   1.369   2.244  14.560 -0.3652  1.3843 -0.0472
  658MPD2    H1 9742   1.615   2.593  14.626  2.1374 -1.0052 -0.9666
  658MPD2    H2 9743   1.710   2.237  14.810 -1.8517  0.4468  1.3357
  658MPD2    H3 9744   1.762   2.460  14.750 -0.6607  0.6967 -0.3864
  658MPD2     N 9745   1.408   2.495  14.469 -0.2216 -0.4298 -0.2628
  658MPD2    H5 9746   1.328   2.446  14.429 -1.0899  1.7405 -1.1641
  658MPD2    N1 9747   1.508   2.091  14.745  0.4014  0.9972 -0.3289
  658MPD2    H7 9748   1.568   2.044  14.812 -1.3459 -0.1491  0.4603
  659TMC3    C1 9749   1.347   1.923  14.797 -0.2521 -0.3324 -0.0905
  659TMC3    C2 9750   1.385   1.942  14.921  0.6095  0.7457 -0.4027
  659TMC3    C3 9751   1.285   1.964  15.013 -0.0760 -0.1331  0.1481
  659TMC3    C4 9752   1.218   1.891  14.763  0.0699 -0.2106 -0.2388
  659TMC3    C5 9753   1.121   1.919  14.851  0.1628  0.7881  0.3991
  659TMC3    C6 9754   1.149   1.952  14.980 -0.1004  0.3161  0.0393
  659TMC3     C 9755   1.406   2.013  14.699  0.4493 -0.1912  0.4336
  659TMC3     O 9756   1.350   2.027  14.589  0.5240 -0.0042 -0.9892
  659TMC3     H 9757   1.485   1.967  14.953  0.7697 -1.2635  0.6438
  659TMC3    H1 9758   1.194   1.853  14.665 -2.9708  0.5751  0.1968
  659TMC3    H2 9759   1.076   1.960  15.059  0.2466  0.8991  0.3016
  659TMC3    C7 9760   0.984   1.905  14.818  0.2103  0.3794 -0.5262
  659TMC3    C8 9761   1.315   2.019  15.146  0.1530  0.0852 -0.7626
  659TMC3    O1 9762   0.906   1.923  14.913  0.1803 -0.0670 -0.2909
  659TMC3    O2 9763   1.229   2.088  15.198 -0.3585 -0.1076 -0.7336
  660MPD2     C 9764   4.425   1.080  12.662  0.1240  0.1760 -0.1561
  660MPD2    C1 9765   4.293   1.057  12.645 -0.6979  0.5616 -0.2238
  660MPD2    C2 9766   4.233   0.944  12.701 -0.2429  0.0897  0.3239
  660MPD2    C3 9767   4.312   0.860  12.783 -0.4434  0.5589  0.4360
  660MPD2    C4 9768   4.446   0.890  12.806 -0.3478 -0.7043 -0.0570
  660MPD2    C5 9769   4.500   0.995  12.742 -0.1665  1.3610  0.1139
  660MPD2     H 9770   4.126   0.926  12.690  0.0419 -1.1915 -0.3637
  660MPD2    H1 9771   4.504   0.821  12.866  0.9508  1.5992  1.3303
  660MPD2    H2 9772   4.483   1.157  12.612  2.4030 -2.4358 -1.4634
  660MPD2    H3 9773   4.605   1.017  12.760 -0.0529 -0.3956  1.5314
  660MPD2     N 9774   4.260   0.739  12.845  0.2102 -0.2065  0.5067
  660MPD2    H5 9775   4.325   0.702  12.913 -1.3971 -1.3278  1.4220
  660MPD2    N1 9776   4.220   1.136  12.553 -0.7023  0.0793 -0.7462
  660MPD2    H7 9777   4.272   1.199  12.493 -0.6464  0.3241 -0.4436
  661TMC3    C1 9778   4.026   1.222  12.448  0.1009  0.0360 -0.1795
  661TMC3    C2 9779   4.084   1.236  12.323  0.1740 -0.1863 -0.0409
  661TMC3    C3 9780   3.998   1.250  12.218  0.9424 -0.2466 -0.0393
  661TMC3    C4 9781   3.888   1.227  12.457 -0.1408 -0.5150 -0.6046
  661TMC3    C5 9782   3.815   1.236  12.340  0.1662 -0.9274 -0.5888
  661TMC3    C6 9783   3.866   1.259  12.216  0.5972 -0.4955 -0.0154
  661TMC3     C 9784   4.090   1.149  12.558 -0.3484  0.7691  0.1367
  661TMC3     O 9785   4.007   1.108  12.642 -0.9120 -0.1357 -0.1393
  661TMC3     H 9786   4.190   1.226  12.302  0.2517  0.7573 -0.0775
  661TMC3    H1 9787   3.840   1.218  12.554 -0.4724  0.8377 -0.6429
  661TMC3    H2 9788   3.802   1.261  12.129 -1.1331 -0.0125  1.2829
  661TMC3    C7 9789   3.671   1.201  12.353 -0.6781 -0.5497  0.4282
  661TMC3    C8 9790   4.060   1.257  12.087  0.5644  0.1782 -0.1470
  661TMC3    O1 9791   3.632   1.173  12.465 -0.0818 -0.0301  0.1579
  661TMC3    O2 9792   4.170   1.207  12.074 -0.6811  0.1229 -0.0424
  662MPD2     C 9793   4.413   1.160  17.091  0.5330 -0.5945  0.2633
  662MPD2    C1 9794   4.406   1.094  17.212 -0.0331 -0.1098 -0.1220
  662MPD2    C2 9795   4.358   1.162  17.326  0.0817  0.0428 -0.1653
  662MPD2    C3 9796   4.321   1.296  17.319  0.5060 -0.4062  0.1884
  662MPD2    C4 9797   4.336   1.358  17.199  0.2091 -0.4103 -0.1026
  662MPD2    C5 9798   4.379   1.289  17.091  0.5042  0.0318 -0.3965
  662MPD2     H 9799   4.349   1.103  17.417 -2.1941  0.0275 -0.3776
  662MPD2    H1 9800   4.310   1.463  17.193  0.2326 -0.4856 -1.6770
  662MPD2    H2 9801   4.461   1.112  17.006 -0.0555 -1.2610  0.3105
  662MPD2    H3 9802   4.386   1.338  16.994 -1.0376  1.6827  0.3164
  662MPD2     N 9803   4.263   1.372  17.418  0.5254 -0.2413 -0.9749
  662MPD2    H5 9804   4.227   1.465  17.402 -0.4590 -0.7734 -1.8474
  662MPD2    N1 9805   4.427   0.956  17.218 -0.1343  0.5525  0.3711
  662MPD2    H7 9806   4.418   0.912  17.309  1.9642  0.1171  0.3667
  663TMC3    C1 9807   4.479   0.734  17.139  0.4792  0.4704 -0.7905
  663TMC3    C2 9808   4.501   0.688  17.266  0.1946  0.3446  0.7410
  663TMC3    C3 9809   4.518   0.546  17.287 -0.0363 -0.2561  0.4354
  663TMC3    C4 9810   4.455   0.641  17.041 -0.0479  0.4837  0.4102
  663TMC3    C5 9811   4.434   0.506  17.070  0.2170  0.1570  0.8191
  663TMC3    C6 9812   4.462   0.460  17.192 -0.4288 -0.5839 -0.2401
  663TMC3     C 9813   4.436   0.869  17.113 -0.0196  0.0305  0.1179
  663TMC3     O 9814   4.418   0.891  16.996  0.0288  0.1841  0.0591
  663TMC3     H 9815   4.525   0.758  17.345  2.7423 -0.8577  1.0453
  663TMC3    H1 9816   4.438   0.670  16.938 -2.2804  2.2786  1.2889
  663TMC3    H2 9817   4.484   0.354  17.196 -2.5961 -1.0413 -0.4728
  663TMC3    C7 9818   4.385   0.418  16.961 -0.1680 -0.6274 -0.0825
  663TMC3    C8 9819   4.489   0.500  17.425  0.0872  0.2678 -0.1898
  663TMC3    O1 9820   4.380   0.473  16.851 -0.1147 -0.4769 -0.2541
  663TMC3    O2 9821   4.411   0.405  17.428  0.9405 -0.0274  0.0192
  664MPD2     C 9822   2.807   3.566  17.675 -0.4873 -0.4046  0.2260
  664MPD2    C1 9823   2.772   3.703  17.654 -0.5767  0.0169 -0.0066
  664MPD2    C2 9824   2.788   3.788   0.050  0.6774  0.3204 -0.2277
  664MPD2    C3 9825   2.860   3.747   0.168  0.4611  0.2957  0.3567
  664MPD2    C4 9826   2.896   3.614   0.177 -0.0880  0.0262  0.4511
  664MPD2    C5 9827   2.875   3.529   0.073 -0.9150 -0.4792 -0.3855
  664MPD2     H 9828   2.782   3.895   0.037  3.1225  0.3316 -1.2806
  664MPD2    H1 9829   2.942   3.582   0.270  0.7461  1.4969  0.5329
  664MPD2    H2 9830   2.803   3.496  17.593 -0.8953 -1.9615  1.5716
  664MPD2    H3 9831   2.904   3.426   0.085  1.4415  0.1808 -0.4445
  664MPD2     N 9832   2.905   3.845   0.256  0.0667 -0.2870  0.1415
  664MPD2    H5 9833   2.864   3.936   0.237  1.6839  1.0864  3.3122
  664MPD2    N1 9834   2.732   3.749  17.521 -0.4097  0.0560 -0.5085
  664MPD2    H7 9835   2.722   3.848  17.503  2.0666  0.0766 -1.7876
  665TMC3    C1 9836   3.025   3.947   0.426 -0.2358  0.2727  0.1238
  665TMC3    C2 9837   3.148   3.962   0.486 -0.4326 -0.3474  0.8398
  665TMC3    C3 9838   3.168   4.069   0.564 -0.3482 -0.1958 -0.2751
  665TMC3    C4 9839   2.923   4.031   0.450  0.2344  0.2788  0.0753
  665TMC3    C5 9840   2.942   4.135   0.541  0.1401 -0.4918  0.1932
  665TMC3    C6 9841   3.071   4.163   0.588 -0.1451  0.9366  0.7434
  665TMC3     C 9842   3.003   3.827   0.344  0.0020  0.0369 -0.2447
  665TMC3     O 9843   3.071   3.730   0.377  0.2312 -0.2363 -0.3174
  665TMC3     H 9844   3.225   3.910   0.430 -1.4517 -1.9188  0.8991
  665TMC3    H1 9845   2.824   3.989   0.442  1.1859 -1.6596 -1.6173
  665TMC3    H2 9846   3.098   4.247   0.649 -0.1926 -1.1508  3.6276
  665TMC3    C7 9847   2.831   4.228   0.550  1.0918  0.1781 -0.6800
  665TMC3    C8 9848   3.286   4.074   0.649  0.3195  0.7688 -0.0073
  665TMC3    O1 9849   2.734   4.208   0.472 -0.2691 -0.4455 -0.6082
  665TMC3    O2 9850   3.293   4.173   0.717 -0.0153  0.2614  0.7807
  666TMC3    C1 9851   1.714   3.580   9.473  0.0538 -0.1229 -0.4466
  666TMC3    C2 9852   1.825   3.583   9.392 -0.6713 -0.1493 -0.1065
  666TMC3    C3 9853   1.873   3.706   9.363 -0.4475 -0.6329  0.6505
  666TMC3    C4 9854   1.654   3.696   9.514 -0.0360  0.4385  0.6031
  666TMC3    C5 9855   1.711   3.818   9.479 -0.1018  0.3348  0.0443
  666TMC3    C6 9856   1.827   3.823   9.408  0.1783 -0.1452 -0.4880
  666TMC3     C 9857   1.682   3.479   9.568 -0.0315 -0.3531 -0.9191
  666TMC3     O 9858   1.628   3.522   9.671 -0.0526  0.5407  0.3111
  666TMC3     H 9859   1.868   3.492   9.353 -0.2603 -0.8795  2.0470
  666TMC3    H1 9860   1.559   3.698   9.566 -0.4696  0.7298 -0.1879
  666TMC3    H2 9861   1.879   3.916   9.388 -0.3963  0.4663  0.8113
  666TMC3    C7 9862   1.680   3.931   9.565  0.3805  0.1128  0.3663
  666TMC3    C8 9863   1.967   3.714   9.251  0.2840 -0.1723 -0.2790
  666TMC3    O1 9864   1.615   3.902   9.667 -0.0616  0.0545 -0.0691
  666TMC3    O2 9865   1.945   3.808   9.177 -0.4922 -0.8168 -0.2561
  667MPD2     C 9866   2.917   3.289  14.376 -0.2315 -0.5235 -0.2880
  667MPD2    C1 9867   2.840   3.386  14.439  0.4002  0.3719  0.9676
  667MPD2    C2 9868   2.703   3.401  14.412 -0.8086 -0.8723 -0.4363
  667MPD2    C3 9869   2.653   3.340  14.300 -0.4173 -0.6102 -0.2763
  667MPD2    C4 9870   2.734   3.252  14.228  0.3247 -0.1940  0.0037
  667MPD2    C5 9871   2.856   3.223  14.276  0.2074 -0.6968 -0.0158
  667MPD2     H 9872   2.643   3.465  14.476  0.1179 -1.1992  0.7679
  667MPD2    H1 9873   2.700   3.208  14.135 -1.0970  2.0960 -0.5476
  667MPD2    H2 9874   3.019   3.259  14.399 -0.8799 -0.5616  2.4976
  667MPD2    H3 9875   2.925   3.161  14.221  0.8852 -0.2104  0.2822
  667MPD2     N 9876   2.532   3.370  14.242 -0.2706 -0.2204 -0.3062
  667MPD2    H5 9877   2.507   3.315  14.161 -1.4165 -0.1268 -0.0114
  667MPD2    N1 9878   2.891   3.459  14.554  0.1136  0.3540  0.3861
  667MPD2    H7 9879   2.825   3.505  14.615  0.5164  0.9033  0.4138
  668TMC3    C1 9880   3.053   3.563  14.691 -0.4856 -0.3630 -0.1892
  668TMC3    C2 9881   3.157   3.652  14.680 -0.3987 -0.4485 -0.0021
  668TMC3    C3 9882   3.186   3.717  14.796  0.4846 -0.0884  0.6044
  668TMC3    C4 9883   2.996   3.529  14.806  0.0051  0.0790 -0.2844
  668TMC3    C5 9884   3.033   3.590  14.923  0.4038 -0.3697 -0.1360
  668TMC3    C6 9885   3.127   3.686  14.918  0.1009 -0.1695  0.0406
  668TMC3     C 9886   3.025   3.477  14.574 -0.4248 -0.3078 -0.0577
  668TMC3     O 9887   3.120   3.436  14.508  0.1924  0.4966 -0.1351
  668TMC3     H 9888   3.198   3.671  14.581 -0.8939 -0.4404 -0.2064
  668TMC3    H1 9889   2.915   3.458  14.816  1.6173 -1.6285  0.6400
  668TMC3    H2 9890   3.132   3.747  15.008 -0.8928  0.8225 -0.5725
  668TMC3    C7 9891   2.937   3.591  15.035 -0.2574 -0.2560 -0.2297
  668TMC3    C8 9892   3.270   3.835  14.801  0.3111 -0.3856 -0.2016
  668TMC3    O1 9893   2.942   3.689  15.110  0.3546  0.5606 -0.2606
  668TMC3    O2 9894   3.264   3.894  14.910  0.1727  0.2056 -0.0554
  669TMC3    C1 9895   1.280   3.698  14.398 -0.2065  0.6685  0.1065
  669TMC3    C2 9896   1.142   3.704  14.370 -0.4433  0.0428 -0.9391
  669TMC3    C3 9897   1.117   3.737  14.236 -0.2943 -0.3514  0.1989
  669TMC3    C4 9898   1.375   3.747  14.314  0.7037 -0.3058  0.2902
  669TMC3    C5 9899   1.340   3.803  14.190 -0.5869  0.3725 -0.1264
  669TMC3    C6 9900   1.212   3.786  14.149  0.1937 -0.1920 -0.4670
  669TMC3     C 9901   1.313   3.587  14.482  0.4160  0.1678 -0.2891
  669TMC3     O 9902   1.227   3.552  14.563  0.3974 -0.0689  0.0653
  669TMC3     H 9903   1.067   3.647  14.424  0.0210  0.4336  0.1160
  669TMC3    H1 9904   1.480   3.756  14.338  0.6805  2.0245 -0.5310
  669TMC3    H2 9905   1.168   3.817  14.055 -1.1550  0.1083  0.2558
  669TMC3    C7 9906   1.448   3.874  14.111 -0.6885 -1.0055  0.3323
  669TMC3    C8 9907   0.986   3.721  14.184  0.0785 -0.4963 -0.2196
  669TMC3    O1 9908   1.546   3.893  14.177 -0.7331  0.1088 -0.2244
  669TMC3    O2 9909   0.978   3.666  14.070 -0.0783  0.1209 -0.4033
  670MPD2     C 9910   4.040   1.416  13.616  0.2446  0.5475  0.6155
  670MPD2    C1 9911   4.164   1.433  13.666  0.8200  0.0747 -0.0530
  670MPD2    C2 9912   4.196   1.374  13.788 -0.1827  0.4697 -0.7977
  670MPD2    C3 9913   4.101   1.300  13.858 -0.4914 -0.0709 -0.3658
  670MPD2    C4 9914   3.975   1.277  13.800  0.2633 -0.2037 -0.6928
  670MPD2    C5 9915   3.942   1.349  13.684  0.0810 -0.4590 -0.9355
  670MPD2     H 9916   4.299   1.376  13.821  0.0103 -1.6031 -1.2967
  670MPD2    H1 9917   3.898   1.226  13.857  1.3336 -1.4764 -0.3769
  670MPD2    H2 9918   4.012   1.469  13.526  1.4399 -0.5492 -0.4203
  670MPD2    H3 9919   3.843   1.342  13.640 -1.2738 -1.2152  2.2485
  670MPD2     N 9920   4.142   1.249  13.985  0.6877 -0.2858  0.4312
  670MPD2    H5 9921   4.234   1.273  14.020  0.2072  2.5477 -0.2618
  670MPD2    N1 9922   4.261   1.515  13.611  0.4989  0.3491 -0.5806
  670MPD2    H7 9923   4.347   1.521  13.665  0.0290  2.3045 -0.0670
  671TMC3    C1 9924   4.132   1.095  14.167 -0.3137 -0.4365 -0.4648
  671TMC3    C2 9925   4.270   1.109  14.186 -0.3547  0.7347 -0.1324
  671TMC3    C3 9926   4.329   1.003  14.250 -0.0068  0.1692  0.1265
  671TMC3    C4 9927   4.069   0.980  14.200  0.0428  0.8756 -0.4555
  671TMC3    C5 9928   4.143   0.872  14.233 -0.0768 -0.3167  0.1415
  671TMC3    C6 9929   4.277   0.878  14.260  0.0137  0.1826  0.2637
  671TMC3     C 9930   4.059   1.174  14.066 -0.0566 -0.2477  0.5169
  671TMC3     O 9931   3.942   1.150  14.055 -0.0701 -0.5101  0.2916
  671TMC3     H 9932   4.325   1.202  14.177  0.7093 -0.0077 -1.2667
  671TMC3    H1 9933   3.965   0.972  14.169 -0.0218  0.4711 -0.1484
  671TMC3    H2 9934   4.337   0.788  14.260 -0.4488 -0.1319  1.2022
  671TMC3    C7 9935   4.106   0.752  14.156 -0.4244  0.1049  0.0866
  671TMC3    C8 9936   4.469   1.013  14.276  0.0990 -0.4565  0.1254
  671TMC3    O1 9937   4.197   0.702  14.095  0.5442 -1.1235 -0.1354
  671TMC3    O2 9938   4.532   1.061  14.186 -0.0576  0.4267  0.0553
  672MPD2     C 9939   4.722   1.235   0.660 -0.3195  0.0438 -0.6905
  672MPD2    C1 9940   0.113   1.292   0.677 -0.1816 -0.2503  0.4292
  672MPD2    C2 9941   0.159   1.364   0.787  0.0767 -0.3762 -0.3409
  672MPD2    C3 9942   0.072   1.390   0.888 -0.2108  0.4091  0.1411
  672MPD2    C4 9943   4.676   1.332   0.882 -0.7000  0.2627 -0.1120
  672MPD2    C5 9944   4.640   1.259   0.768  0.0631 -0.2383  0.1370
  672MPD2     H 9945   0.259   1.405   0.777 -0.1459  0.5095  1.0469
  672MPD2    H1 9946   4.608   1.332   0.966 -0.6563 -3.2939 -0.0890
  672MPD2    H2 9947   4.684   1.183   0.573 -0.4035 -0.0627 -0.5905
  672MPD2    H3 9948   4.542   1.213   0.757 -0.3267  0.6785 -0.2589
  672MPD2     N 9949   0.109   1.460   1.002  0.1273  0.6881 -0.3947
  672MPD2    H5 9950   0.047   1.458   1.083  1.1230  1.5508  0.3791
  672MPD2    N1 9951   0.214   1.264   0.575 -0.2565 -0.2092 -0.0873
  672MPD2    H7 9952   0.305   1.310   0.579 -1.3376  1.7936  0.8543
  673TMC3    C1 9953   0.341   1.136   0.432 -0.5482  0.0246  0.3486
  673TMC3    C2 9954   0.379   1.005   0.440  0.7816 -0.5290 -0.1907
  673TMC3    C3 9955   0.507   0.980   0.405 -0.3843  0.1093 -0.5315
  673TMC3    C4 9956   0.424   1.247   0.408  0.1163  0.2637  0.0573
  673TMC3    C5 9957   0.553   1.209   0.386  0.1106 -0.4021 -0.0696
  673TMC3    C6 9958   0.600   1.081   0.382  0.0814  0.1009 -0.1880
  673TMC3     C 9959   0.208   1.158   0.481 -0.2521 -0.1254  0.0433
  673TMC3     O 9960   0.121   1.080   0.445 -0.3377  0.0177 -0.4253
  673TMC3     H 9961   0.304   0.927   0.446 -0.5109  0.5881 -1.7218
  673TMC3    H1 9962   0.378   1.345   0.422  0.0383  0.2755 -0.2701
  673TMC3    H2 9963   0.704   1.053   0.389  0.4461  2.0280  2.1417
  673TMC3    C7 9964   0.647   1.312   0.366 -0.3237  0.3358  0.1091
  673TMC3    C8 9965   0.570   0.856   0.450  0.4924  0.1319 -0.4889
  673TMC3    O1 9966   0.746   1.279   0.299  0.2775 -0.1162 -0.2405
  673TMC3    O2 9967   0.652   0.793   0.387  0.3998 -0.4549 -0.1547
  674MPD2     C 9968   0.249   1.504   0.155  0.4903  0.1206  0.3886
  674MPD2    C1 9969   0.141   1.432   0.196 -0.0449  0.1571  0.9484
  674MPD2    C2 9970   0.085   1.469   0.315 -0.7021 -0.4981  0.2949
  674MPD2    C3 9971   0.136   1.568   0.398 -0.4233  0.7205 -0.1887
  674MPD2    C4 9972   0.249   1.633   0.357 -0.6472 -1.0594 -0.2459
  674MPD2    C5 9973   0.310   1.591   0.239  0.1206  0.4121  0.1848
  674MPD2     H 9974   0.006   1.416   0.367 -0.4659  0.6846  1.8701
  674MPD2    H1 9975   0.292   1.717   0.410 -0.9536 -0.4661 -0.9406
  674MPD2    H2 9976   0.296   1.473   0.062  1.1930  3.7304 -0.4697
  674MPD2    H3 9977   0.405   1.634   0.208 -1.3417 -0.2600 -5.3157
  674MPD2     N 9978   0.068   1.595   0.525  0.2762 -0.6833  0.5245
  674MPD2    H5 9979   4.719   1.538   0.554 -1.5118  2.2005  1.3651
  674MPD2    N1 9980   0.101   1.320   0.119 -0.4334  0.2568  0.4398
  674MPD2    H7 9981   0.164   1.289   0.045  0.1066 -0.9679  1.4204
  675TMC3    C1 9982   4.714   1.121   0.058  0.1771  0.4511  0.4901
  675TMC3    C2 9983   4.629   1.025   0.093  0.1322 -0.4772  0.3314
  675TMC3    C3 9984   4.599   0.923   0.005 -0.7338 -0.2261 -0.7719
  675TMC3    C4 9985   0.045   1.128  17.654 -0.0924 -0.0300 -0.4530
  675TMC3    C5 9986   0.017   1.024  17.569 -0.4630  0.1023 -0.1482
  675TMC3    C6 9987   4.658   0.918  17.597 -0.0713 -0.3335  0.7596
  675TMC3     C 9988   4.726   1.235   0.149  0.2420 -0.6401 -0.1964
  675TMC3     O 9989   4.634   1.246   0.230  0.1929  0.2886 -0.2355
  675TMC3     H 9990   4.580   1.026   0.189 -3.0430  0.7932 -1.3027
  675TMC3    H1 9991   0.104   1.214  17.624  1.3192 -0.8277  0.0142
  675TMC3    H2 9992   4.644   0.833  17.533  0.0891  0.0850  0.1711
  675TMC3    C7 9993   0.099   0.999  17.443 -0.7395 -0.2817  0.0581
  675TMC3    C8 9994   4.484   0.835   0.026  0.5097 -0.2600  0.3108
  675TMC3    O1 9995   0.056   0.934  17.350 -0.0424 -0.2865 -0.3445
  675TMC3    O2 9996   4.410   0.790  17.656  0.2886 -0.1980 -0.2089
  676MPD2     C 9997   2.210   0.132  10.863  0.6482  0.8382  0.2767
  676MPD2    C1 9998   2.118   0.063  10.942  0.0602  0.2634 -0.3636
  676MPD2    C2 9999   2.073   4.671  10.906  0.1101 -0.5494  0.2650
  676MPD2    C310000   2.131   4.606  10.796  1.0336 -0.1975 -0.8262
  676MPD2    C410001   2.227   4.673  10.722  0.0081  0.5428  0.0250
  676MPD2    C510002   2.260   0.072  10.755  1.2236  0.3318  0.1456
  676MPD2     H10003   1.998   4.621  10.966 -1.2708  1.4075  0.1589
  676MPD2    H110004   2.280   4.626  10.640  0.7384  1.2678  0.0794
  676MPD2    H210005   2.243   0.231  10.892 -0.1353  1.4783 -1.0210
  676MPD2    H310006   2.334   0.128  10.699  0.5902  1.4501  0.4071
  676MPD2     N10007   2.110   4.472  10.767 -0.1844 -0.4371 -0.1362
  676MPD2    H510008   2.142   4.427  10.682 -1.3629 -0.7224 -0.4288
  676MPD2    N110009   2.050   0.118  11.048  1.1246  0.0220 -0.0421
  676MPD2    H710010   1.985   0.056  11.095 -0.9217  1.2160 -1.3278
  677TMC3    C110011   1.972   0.264  11.215  0.4918 -0.2618  0.7643
  677TMC3    C210012   1.847   0.202  11.204 -1.1387  0.2499 -0.3194
  677TMC3    C310013   1.772   0.199  11.319 -0.2403  0.7860  0.2582
  677TMC3    C410014   2.016   0.326  11.326 -0.2170 -0.1975 -0.4731
  677TMC3    C510015   1.939   0.317  11.442  0.2719 -0.0976 -0.2775
  677TMC3    C610016   1.816   0.259  11.433  0.7509 -0.3913  1.2390
  677TMC3     C10017   2.071   0.242  11.108  0.8238 -0.0401  0.7032
  677TMC3     O10018   2.159   0.328  11.095  0.1121  0.1208  0.3174
  677TMC3     H10019   1.804   0.151  11.118 -1.2100 -1.1361  0.5289
  677TMC3    H110020   2.118   0.362  11.329 -0.0546 -1.0253  3.2336
  677TMC3    H210021   1.753   0.247  11.520  0.0446 -0.2689  0.7413
  677TMC3    C710022   1.996   0.327  11.572 -0.1251  0.8368  0.6740
  677TMC3    C810023   1.658   0.110  11.328  0.1257  0.0826 -0.1420
  677TMC3    O110024   1.910   0.302  11.660 -0.0705  0.2274 -0.1035
  677TMC3    O210025   1.570   0.129  11.247  0.1668  0.2977  0.2564
  678MPD2     C10026   3.921   4.721   1.624  1.0802 -0.4109  0.1987
  678MPD2    C110027   3.952   0.018   1.493 -0.1542 -0.1208  1.1571
  678MPD2    C210028   3.856   0.042   1.398  0.2431 -0.0034  0.3587
  678MPD2    C310029   3.726   0.055   1.432 -0.2396 -0.3847  0.6587
  678MPD2    C410030   3.697   0.033   1.565  0.1236  0.7630 -0.0988
  678MPD2    C510031   3.788   4.724   1.655 -0.2681  0.1616  0.0797
  678MPD2     H10032   3.894   0.060   1.298 -0.8098 -0.5384 -0.1372
  678MPD2    H110033   3.595   0.032   1.601  0.0341  1.3570 -0.3371
  678MPD2    H210034   3.991   4.680   1.696  1.8508 -0.8122 -0.7835
  678MPD2    H310035   3.760   4.717   1.760 -1.3261  0.6152 -0.1667
  678MPD2     N10036   3.621   0.085   1.341  0.2694  0.3343 -0.6181
  678MPD2    H510037   3.643   0.091   1.242 -0.2098  1.7929 -0.6328
  678MPD2    N110038   4.090   0.015   1.454  0.1066 -0.7742  0.1927
  678MPD2    H710039   4.106   0.017   1.354 -0.5710 -0.2239  0.0968
  679TMC3    C110040   4.550   4.693   1.399  0.1355 -0.4801 -0.1603
  679TMC3    C210041   4.443   4.689   1.485  0.2018  0.0521  0.6030
  679TMC3    C310042   4.326   0.017   1.442 -0.0295  0.6228  0.1484
  679TMC3    C410043   4.544   0.032   1.283 -0.1353 -0.0959  0.2943
  679TMC3    C510044   4.422   0.089   1.243  0.2052  0.1810 -0.0475
  679TMC3    C610045   4.312   0.095   1.324 -0.1689  0.5418 -0.0706
  679TMC3     C10046   4.662   4.603   1.431  0.1759  0.0535  1.1216
  679TMC3     O10047   4.681   4.572   1.551  0.4264 -0.3509  0.3836
  679TMC3     H10048   4.443   4.618   1.567  1.3156  1.5357  1.8974
  679TMC3    H110049   4.635   0.045   1.226  0.3975  1.5778  1.5299
  679TMC3    H210050   4.220   0.147   1.300 -0.5180 -1.2327 -2.6553
  679TMC3    C710051   4.403   0.108   1.099  0.3561  0.4599  0.4206
  679TMC3    C810052   4.205   4.721   1.521  0.6341 -0.7490 -0.6802
  679TMC3    O110053   4.288   0.119   1.057  0.0722  0.0270 -0.0254
  679TMC3    O210054   4.217   4.679   1.634  0.0053  0.3040 -0.2465
  680MPD2     C10055   3.790   3.354  13.556  0.3769  0.2868 -0.1385
  680MPD2    C110056   3.901   3.300  13.619 -0.2797 -0.0574 -0.1664
  680MPD2    C210057   3.997   3.386  13.666 -0.2012  0.0986 -0.7125
  680MPD2    C310058   3.991   3.525  13.658 -0.3696 -0.4834 -0.2605
  680MPD2    C410059   3.883   3.572  13.585  0.0903  0.4114  0.3065
  680MPD2    C510060   3.782   3.490  13.540 -0.3307 -0.0399 -0.1672
  680MPD2     H10061   4.090   3.342  13.700 -0.7213 -0.0574  0.5059
  680MPD2    H110062   3.870   3.678  13.571 -0.1879  0.4221  0.6399
  680MPD2    H210063   3.714   3.292  13.509 -1.9900  0.4791  3.4819
  680MPD2    H310064   3.698   3.536  13.488 -0.9361  0.0449  0.8753
  680MPD2     N10065   4.080   3.617  13.713 -0.5933 -0.3464  0.2704
  680MPD2    H510066   4.068   3.715  13.693 -1.3502 -0.6942 -0.9801
  680MPD2    N110067   3.941   3.162  13.627 -0.0732  0.2690  0.3737
  680MPD2    H710068   4.032   3.146  13.669  0.5830 -1.2158 -1.5742
  681TMC3    C110069   3.946   2.927  13.593  0.4994  0.3606 -0.9269
  681TMC3    C210070   4.018   2.904  13.707  0.5403 -0.2283 -0.3965
  681TMC3    C310071   4.091   2.787  13.725 -0.2559  0.0310 -0.1001
  681TMC3    C410072   3.955   2.826  13.499  0.1000 -0.0922  0.8235
  681TMC3    C510073   4.015   2.707  13.524 -0.1811 -0.3290  0.1784
  681TMC3    C610074   4.098   2.685  13.634  0.2416 -0.2821  0.1684
  681TMC3     C10075   3.879   3.054  13.563 -0.2818 -0.0715 -0.2884
  681TMC3     O10076   3.782   3.049  13.490  0.2952  0.0074 -0.0853
  681TMC3     H10077   4.009   2.971  13.792 -1.2784 -0.1056 -0.6890
  681TMC3    H110078   3.892   2.834  13.411  2.2660  0.9958 -0.6345
  681TMC3    H210079   4.155   2.593  13.634 -0.2292 -0.5929 -3.4130
  681TMC3    C710080   4.052   2.630  13.414 -0.2005  0.1342 -0.6594
  681TMC3    C810081   4.175   2.765  13.849 -0.3397  0.7057 -0.5341
  681TMC3    O110082   4.057   2.510  13.411 -0.8161  0.1043  0.2805
  681TMC3    O210083   4.241   2.662  13.856 -0.2859 -0.4781 -0.2718
  682MPD2     C10084   1.354   4.590  10.690 -0.3936 -0.3861  0.7092
  682MPD2    C110085   1.363   4.454  10.696 -0.5463 -0.2158 -0.5285
  682MPD2    C210086   1.283   4.380  10.784  0.6635  0.2200 -0.0072
  682MPD2    C310087   1.194   4.439  10.871 -0.1193  0.1814 -0.4017
  682MPD2    C410088   1.197   4.576  10.875  0.6230 -0.5420  0.3747
  682MPD2    C510089   1.277   4.649  10.794 -0.8568  0.0469  0.3597
  682MPD2     H10090   1.287   4.272  10.788 -0.6694  0.1931  0.3916
  682MPD2    H110091   1.139   4.631  10.948 -0.7235 -3.0536  1.1829
  682MPD2    H210092   1.424   4.647  10.630 -0.5300  0.5957  1.4786
  682MPD2    H310093   1.272   0.029  10.791  0.5757  0.0610 -1.6964
  682MPD2     N10094   1.131   4.368  10.971  0.3930 -0.0697 -0.4041
  682MPD2    H510095   1.097   4.420  11.051  0.4505  1.4710 -1.3922
  682MPD2    N110096   1.442   4.379  10.610 -0.4119 -0.8305 -0.5398
  682MPD2    H710097   1.437   4.278  10.614 -0.7800 -0.8946 -2.5116
  683TMC3    C110098   0.977   4.204  11.321 -0.4345  0.4138 -0.5676
  683TMC3    C210099   0.897   4.092  11.308 -0.2592 -0.0377 -0.0104
  683TMC3    C310100   0.878   4.028  11.188  0.0356  0.6099 -0.2025
  683TMC3    C410101   1.033   4.250  11.210 -0.3206  0.2934  0.2960
  683TMC3    C510102   1.022   4.185  11.091  0.3035 -0.6488 -0.4938
  683TMC3    C610103   0.938   4.076  11.076  1.2059 -0.4424 -0.0857
  683TMC3     C10104   0.962   4.293  11.431 -0.3554 -0.5212  1.0842
  683TMC3     O10105   1.051   4.376  11.447  0.2329 -0.1482 -0.0976
  683TMC3     H10106   0.847   4.053  11.396  0.5468 -2.5854 -0.6796
  683TMC3    H110107   1.097   4.337  11.207 -0.7575  0.5971 -0.3293
  683TMC3    H210108   0.931   4.029  10.978 -2.5695  1.3183 -0.6530
  683TMC3    C710109   1.094   4.232  10.974  0.5427  0.0078 -0.0279
  683TMC3    C810110   0.846   3.884  11.187  0.0969  0.1983 -0.5626
  683TMC3    O110111   1.099   4.160  10.876 -0.0941 -0.0224 -0.0170
  683TMC3    O210112   0.784   3.842  11.091 -0.1580 -0.2402  0.0227
  684MPD2     C10113   4.589   3.781  16.479  0.0963  0.1522  0.6558
  684MPD2    C110114   4.635   3.846  16.365 -0.4158  0.7302 -0.0008
  684MPD2    C210115   4.612   3.981  16.341  0.2043 -0.3846  0.8364
  684MPD2    C310116   4.541   4.060  16.431 -0.1176  0.8239  0.3031
  684MPD2    C410117   4.511   3.992  16.553 -0.1128 -0.0831 -0.0521
  684MPD2    C510118   4.528   3.857  16.571  0.3741  0.0235 -0.0544
  684MPD2     H10119   4.648   4.019  16.246  1.1621  0.9485  1.7286
  684MPD2    H110120   4.476   4.043  16.642 -0.1369 -0.2009  0.0067
  684MPD2    H210121   4.616   3.680  16.507  0.4973  0.8258  2.7508
  684MPD2    H310122   4.517   3.807  16.667 -0.9919  0.9622  0.2834
  684MPD2     N10123   4.526   4.202  16.416 -0.0831 -0.2981 -0.1417
  684MPD2    H510124   4.493   4.256  16.495  2.5633 -1.2479  1.5916
  684MPD2    N110125   4.703   3.769  16.265  0.1451 -0.3624  0.1301
  684MPD2    H710126   0.012   3.827  16.191  1.4607 -2.9876 -1.2583
  685TMC3    C110127   0.091   3.607  16.157 -0.0777  0.8467  0.0179
  685TMC3    C210128   0.029   3.529  16.063 -0.2339 -0.0993 -0.4970
  685TMC3    C310129   0.098   3.513  15.948 -0.4137  0.1958 -0.2718
  685TMC3    C410130   0.213   3.666  16.147  0.1340  0.0121  0.2645
  685TMC3    C510131   0.264   3.666  16.022  0.1556  0.4905 -0.1083
  685TMC3    C610132   0.208   3.589  15.925  0.0143  0.0937  0.4476
  685TMC3     C10133   0.002   3.639  16.262 -0.2004  0.4326 -0.0177
  685TMC3     O10134   4.709   3.550  16.343 -0.0119  0.1921 -0.5721
  685TMC3     H10135   4.660   3.492  16.091 -0.9316  1.7746 -0.4777
  685TMC3    H110136   0.248   3.741  16.216  1.6112 -0.4259 -0.0106
  685TMC3    H210137   0.249   3.579  15.825 -0.5901 -0.8696  0.2917
  685TMC3    C710138   0.395   3.726  15.993 -0.2062 -0.3642  0.0455
  685TMC3    C810139   0.027   3.472  15.831 -0.4077  0.6195 -0.7098
  685TMC3    O110140   0.437   3.731  15.878  0.1041 -0.4755 -0.3424
  685TMC3    O210141   0.087   3.442  15.730 -0.0750  0.6296  0.0332
  686MPD2     C10142   1.348   3.916  15.394 -0.7069  0.0665 -0.3249
  686MPD2    C110143   1.236   3.837  15.416  0.2596 -0.5873  0.2851
  686MPD2    C210144   1.244   3.702  15.381 -0.0135  0.0210  0.2393
  686MPD2    C310145   1.366   3.638  15.339  0.2405 -0.6782 -0.3369
  686MPD2    C410146   1.474   3.721  15.331 -0.2024 -0.2392 -0.2755
  686MPD2    C510147   1.462   3.860  15.347  0.1300  0.4255 -0.2819
  686MPD2     H10148   1.155   3.641  15.378 -0.2597  0.4558 -1.4135
  686MPD2    H110149   1.570   3.679  15.304 -0.3844  1.5745 -3.6392
  686MPD2    H210150   1.351   4.022  15.418 -0.6838 -0.2572  1.0824
  686MPD2    H310151   1.551   3.918  15.325 -0.2643  0.8327 -0.7950
  686MPD2     N10152   1.385   3.506  15.308  0.2437  0.2034  0.2355
  686MPD2    H510153   1.465   3.475  15.253  0.7359  1.2320  0.3860
  686MPD2    N110154   1.129   3.888  15.493  0.2044 -0.5076 -0.1541
  686MPD2    H710155   1.131   3.987  15.512  1.7169 -0.1137 -2.2670
  687TMC3    C110156   1.227   3.425  15.472 -0.3674  0.0946  0.1403
  687TMC3    C210157   1.107   3.367  15.476  0.4377  0.0286  0.4974
  687TMC3    C310158   1.034   3.383  15.586 -0.0526 -0.6827 -0.0252
  687TMC3    C410159   1.292   3.473  15.587  0.1091 -0.0206  0.1378
  687TMC3    C510160   1.213   3.487  15.698  0.1105  0.0730 -0.2183
  687TMC3    C610161   1.085   3.446  15.697 -0.0101  0.3724  0.4245
  687TMC3     C10162   1.296   3.403  15.352  0.1094 -0.5611 -0.5421
  687TMC3     O10163   1.304   3.285  15.319 -0.1037  0.1837 -0.1422
  687TMC3     H10164   1.067   3.328  15.382  0.1159 -0.3718  0.8008
  687TMC3    H110165   1.393   3.512  15.585  0.1191 -0.0207  0.9707
  687TMC3    H210166   1.018   3.482  15.774 -1.0984  2.8286 -1.6663
  687TMC3    C710167   1.247   3.590  15.797 -0.0049 -0.3284 -0.8836
  687TMC3    C810168   0.890   3.409  15.569 -0.2349  0.2741 -0.2799
  687TMC3    O110169   1.193   3.581  15.904  0.1970 -0.2455  0.1421
  687TMC3    O210170   0.821   3.384  15.665 -0.4159  0.4953  0.5234
  688MPD2     C10171   0.644   2.683  17.245  0.1600  0.2429 -0.0557
  688MPD2    C110172   0.686   2.559  17.274  0.3629 -0.2911  0.6592
  688MPD2    C210173   0.770   2.495  17.188 -0.0481 -0.0581 -0.4004
  688MPD2    C310174   0.803   2.550  17.062 -0.7167  0.0113  0.1327
  688MPD2    C410175   0.753   2.675  17.028  0.9182 -0.4000  0.1816
  688MPD2    C510176   0.677   2.742  17.126  0.5105  1.1101 -0.1774
  688MPD2     H10177   0.811   2.398  17.215  0.3929 -0.1242 -1.2942
  688MPD2    H110178   0.795   2.721  16.939  1.3578 -2.5954 -0.7480
  688MPD2    H210179   0.593   2.754  17.308 -2.0934 -1.0728 -0.3870
  688MPD2    H310180   0.646   2.845  17.114 -1.9952  0.5801  1.7020
  688MPD2     N10181   0.897   2.504  16.976  0.1634  0.2343 -0.4872
  688MPD2    H510182   0.900   2.566  16.896  0.4637  2.5500  1.3213
  688MPD2    N110183   0.673   2.507  17.404  0.0429 -0.0030 -0.1538
  688MPD2    H710184   0.719   2.418  17.421  0.2199  0.6337  2.6496
  689TMC3    C110185   0.634   2.470  17.626  0.8226 -0.3988 -0.5111
  689TMC3    C210186   0.674   2.534   0.021 -0.3569 -0.2072  0.0704
  689TMC3    C310187   0.729   2.460   0.122  0.1680 -0.0711  0.0418
  689TMC3    C410188   0.635   2.333  17.607  0.3243  0.8806 -0.4565
  689TMC3    C510189   0.675   2.259   0.004  0.1759  0.1996  0.2334
  689TMC3    C610190   0.727   2.322   0.115  0.4741 -0.3170 -0.6913
  689TMC3     C10191   0.606   2.554  17.513 -0.6277  0.3161 -0.6320
  689TMC3     O10192   0.555   2.662  17.520  0.1689  0.1915  0.1873
  689TMC3     H10193   0.663   2.642   0.020 -0.1775 -0.1946 -0.6468
  689TMC3    H110194   0.624   2.286  17.510 -0.2979 -1.0377  0.5488
  689TMC3    H210195   0.757   2.275   0.208 -2.3055 -1.7261 -0.4926
  689TMC3    C710196   0.658   2.117   0.010  0.4669  0.0238  0.1657
  689TMC3    C810197   0.753   2.520   0.253  0.8390 -0.0188 -0.5051
  689TMC3    O110198   0.701   2.066   0.112  0.0684 -0.7204  0.4374
  689TMC3    O210199   0.747   2.444   0.351  0.1111  0.3807 -0.8427
  690MPD2     C10200   2.865   4.666  15.405  0.1322  0.1084 -0.1945
  690MPD2    C110201   2.776   4.653  15.300 -0.1590  0.0909  0.1996
  690MPD2    C210202   2.823   4.685  15.176 -0.8951 -0.7589  0.2768
  690MPD2    C310203   2.956   4.728  15.157  0.3974 -0.1487 -1.0532
  690MPD2    C410204   3.044   0.007  15.264 -0.4812  0.0709 -0.8282
  690MPD2    C510205   2.993   4.709  15.387 -0.2172  0.4362 -0.5283
  690MPD2     H10206   2.762   4.674  15.086 -1.6338  1.6898  0.4557
  690MPD2    H110207   3.146   0.043  15.253 -0.5927  0.9202  1.0851
  690MPD2    H210208   2.833   4.650  15.507 -0.9610  1.4356 -0.3361
  690MPD2    H310209   3.056   4.723  15.474  1.0972  0.5369 -1.4984
  690MPD2     N10210   2.992   0.041  15.022  0.3120 -0.2407 -0.3248
  690MPD2    H510211   2.922   0.035  14.948  0.2487  1.3360 -0.3926
  690MPD2    N110212   2.648   4.590  15.319  0.1856  0.0056  0.0458
  690MPD2    H710213   2.585   4.571  15.241  0.1737  0.2485 -0.0020
  691TMC3    C110214   2.481   4.470  15.447  0.5601 -0.3878  0.3131
  691TMC3    C210215   2.420   4.475  15.572  0.3906 -0.3108 -0.1112
  691TMC3    C310216   2.354   4.368  15.615  0.2669  0.8238 -0.3856
  691TMC3    C410217   2.483   4.358  15.368 -0.4751  0.4421 -0.0475
  691TMC3    C510218   2.405   4.259  15.403  1.0237  0.7980 -0.2414
  691TMC3    C610219   2.337   4.255  15.526  0.7011 -0.2674 -0.3981
  691TMC3     C10220   2.598   4.555  15.446  0.0088 -0.6524  0.4667
  691TMC3     O10221   2.623   4.595  15.557 -0.3611  0.3194 -0.1414
  691TMC3     H10222   2.426   4.568  15.628  0.2495  1.0472 -2.3669
  691TMC3    H110223   2.543   4.358  15.277  1.9723  2.6949  1.5856
  691TMC3    H210224   2.276   4.171  15.557 -3.8453  3.0341 -0.4057
  691TMC3    C710225   2.426   4.137  15.331  1.0729 -0.0663  0.0560
  691TMC3    C810226   2.262   4.387  15.727 -0.3310  0.2089 -0.3561
  691TMC3    O110227   2.533   4.119  15.275 -0.5181 -0.0855 -0.5611
  691TMC3    O210228   2.234   4.292  15.802 -0.0911  0.5091  0.0150
  692TMC3    C110229   4.330   0.734  15.593 -0.0408 -0.0030  0.0004
  692TMC3    C210230   4.453   0.782  15.629 -0.1416  0.7540 -0.0387
  692TMC3    C310231   4.543   0.688  15.686 -0.4018 -0.0196  0.4588
  692TMC3    C410232   4.298   0.604  15.585  0.3785 -0.1405  0.7324
  692TMC3    C510233   4.388   0.516  15.617 -0.2113  0.2023  0.1088
  692TMC3    C610234   4.506   0.554  15.678  0.2757  0.0433  0.0298
  692TMC3     C10235   4.217   0.819  15.642  0.0477  0.0026 -0.1025
  692TMC3     O10236   4.134   0.764  15.715 -0.3217 -0.0957 -0.0841
  692TMC3     H10237   4.451   0.888  15.652 -0.1991  1.2705 -2.4844
  692TMC3    H110238   4.206   0.577  15.533 -1.3008  2.3269  2.3813
  692TMC3    H210239   4.581   0.479  15.697  0.1750 -0.1010 -0.1418
  692TMC3    C710240   4.352   0.373  15.619  0.5383  0.2208 -0.0898
  692TMC3    C810241   4.577   0.718  15.820 -0.1045  0.5895 -0.1297
  692TMC3    O110242   4.271   0.335  15.538 -0.6541 -0.0573 -0.9620
  692TMC3    O210243   4.524   0.641  15.898  0.4025 -0.1296  0.0067
  693MPD2     C10244   3.314   3.890  11.030  1.0177  0.2528 -0.0173
  693MPD2    C110245   3.271   3.825  10.918 -0.6861 -0.2949 -0.0356
  693MPD2    C210246   3.353   3.803  10.810 -0.1058  0.5576  0.0190
  693MPD2    C310247   3.485   3.838  10.819  0.2270  0.3666 -0.4239
  693MPD2    C410248   3.529   3.910  10.929  0.2266  0.2359  0.4911
  693MPD2    C510249   3.445   3.936  11.030  0.1902  0.0324 -0.5877
  693MPD2     H10250   3.327   3.727  10.737 -0.2170  1.4012 -0.8120
  693MPD2    H110251   3.630   3.949  10.935 -0.4892  2.1249  0.4392
  693MPD2    H210252   3.252   3.912  11.116 -1.3358 -2.0918 -1.0849
  693MPD2    H310253   3.488   3.979  11.120  1.1045 -0.9699 -0.5389
  693MPD2     N10254   3.583   3.792  10.725  0.1380 -0.5687 -0.2090
  693MPD2    H510255   3.682   3.806  10.743 -0.2156  0.0966  1.2287
  693MPD2    N110256   3.132   3.775  10.933 -0.3404  0.4734  0.4592
  693MPD2    H710257   3.083   3.790  11.020 -0.3101  1.5923  0.2777
  694TMC3    C110258   2.951   3.642  10.879  0.2400  0.3582  0.2306
  694TMC3    C210259   2.870   3.572  10.790  0.6674 -0.4889 -0.1202
  694TMC3    C310260   2.773   3.486  10.832 -0.4880  0.6025  0.3350
  694TMC3    C410261   2.924   3.632  11.014  0.5542 -0.3909 -0.3929
  694TMC3    C510262   2.819   3.551  11.044  0.5245  0.1062  0.8515
  694TMC3    C610263   2.734   3.486  10.959 -0.1759 -1.2158 -0.4592
  694TMC3     C10264   3.072   3.710  10.828  0.0545  0.1953 -0.0708
  694TMC3     O10265   3.107   3.696  10.709 -0.0300 -0.4374  0.0785
  694TMC3     H10266   2.904   3.585  10.687 -2.8124 -0.0396 -1.2046
  694TMC3    H110267   2.959   3.703  11.088  1.4590 -1.3635  0.1196
  694TMC3    H210268   2.659   3.415  10.994 -0.3602 -0.8913 -0.2006
  694TMC3    C710269   2.800   3.521  11.182 -0.6880 -0.4899  0.1140
  694TMC3    C810270   2.704   3.409  10.733 -0.0922 -0.2727 -0.0430
  694TMC3    O110271   2.793   3.615  11.259  0.0891  0.0999 -0.3524
  694TMC3    O210272   2.596   3.368  10.765 -0.2985  0.0335  0.0268
  695MPD2     C10273   0.084   0.912  13.323  0.1175 -0.2057  0.6291
  695MPD2    C110274   0.042   0.884  13.449 -0.3152 -0.1889 -0.1578
  695MPD2    C210275   4.639   0.843  13.464  0.0277 -0.7900  0.0136
  695MPD2    C310276   4.543   0.857  13.365  0.2346  0.3439  0.0801
  695MPD2    C410277   4.586   0.912  13.245 -0.0570 -0.0143  0.0596
  695MPD2    C510278   4.720   0.921  13.221 -0.0047  0.0836 -0.4918
  695MPD2     H10279   4.613   0.797  13.559  1.6055  3.1201  2.3354
  695MPD2    H110280   4.510   0.922  13.168  1.3429 -1.1702 -1.4836
  695MPD2    H210281   0.186   0.940  13.299  0.0650 -0.1605  0.4596
  695MPD2    H310282   0.027   0.955  13.125  0.1101 -0.1923 -0.5472
  695MPD2     N10283   4.409   0.817  13.392 -0.5067  0.0896 -0.0274
  695MPD2    H510284   4.385   0.761  13.473 -1.6532  1.3723  0.5150
  695MPD2    N110285   0.118   0.859  13.560 -0.0639 -0.3658  0.4730
  695MPD2    H710286   0.068   0.843  13.647  0.2922  1.8313  1.0876
  696TMC3    C110287   4.173   0.823  13.396 -0.6321 -1.0259  0.0569
  696TMC3    C210288   4.170   0.725  13.491 -0.0603  0.2614  0.0949
  696TMC3    C310289   4.052   0.703  13.557  0.6118  0.5142 -0.5186
  696TMC3    C410290   4.058   0.898  13.363 -0.0910  0.3527 -0.2876
  696TMC3    C510291   3.946   0.878  13.435  0.7654  0.1614 -0.1451
  696TMC3    C610292   3.935   0.777  13.531 -0.9276 -0.1006  0.1402
  696TMC3     C10293   4.294   0.868  13.337  0.1384  0.5609  0.3476
  696TMC3     O10294   4.291   0.961  13.259 -0.4728  0.1212  0.4247
  696TMC3     H10295   4.255   0.660  13.510 -1.4148 -1.2526  1.0626
  696TMC3    H110296   4.057   0.981  13.294  0.4304  1.6021  1.2197
  696TMC3    H210297   3.838   0.763  13.578 -0.6150 -1.2932  0.4430
  696TMC3    C710298   3.829   0.966  13.419  0.2003  0.2989  1.0753
  696TMC3    C810299   4.051   0.609  13.670 -0.4277 -0.2916 -0.9094
  696TMC3    O110300   3.815   1.030  13.313 -0.0516  0.2025  0.4166
  696TMC3    O210301   4.160   0.596  13.724  0.2476  0.7889 -1.0039
  697MPD2     C10302   3.858   2.309  15.385 -0.2005  0.2990  0.0651
  697MPD2    C110303   3.836   2.307  15.251 -0.2809  0.5891 -0.1798
  697MPD2    C210304   3.828   2.424  15.177 -0.9115 -0.2091  0.8760
  697MPD2    C310305   3.837   2.547  15.240  0.1632 -0.8551  0.4503
  697MPD2    C410306   3.852   2.549  15.371  0.2835  0.2836  0.1510
  697MPD2    C510307   3.868   2.436  15.442 -0.4669  0.0097  0.4517
  697MPD2     H10308   3.825   2.414  15.069 -0.0264  1.9148  0.6572
  697MPD2    H110309   3.855   2.640  15.430 -1.7826 -0.8019  1.9580
  697MPD2    H210310   3.868   2.220  15.447 -0.7005  0.5624  0.5250
  697MPD2    H310311   3.910   2.444  15.542 -0.3211  2.4123  0.1914
  697MPD2     N10312   3.815   2.670  15.166  0.1674  0.4193  0.2398
  697MPD2    H510313   3.810   2.642  15.068  2.4779 -1.3357  0.6356
  697MPD2    N110314   3.815   2.185  15.184 -0.2766 -0.5493 -0.0619
  697MPD2    H710315   3.802   2.188  15.083  0.3327  1.9417 -0.0680
  698TMC3    C110316   3.818   2.902  15.108  0.0857 -0.4101 -0.1761
  698TMC3    C210317   3.806   3.030  15.154 -0.2606  0.1599  0.0748
  698TMC3    C310318   3.833   3.131  15.070  0.3912 -0.3718 -0.0435
  698TMC3    C410319   3.860   2.870  14.983  0.2896  0.7418 -0.2888
  698TMC3    C510320   3.898   2.979  14.900  0.3954  0.6965 -0.2259
  698TMC3    C610321   3.886   3.105  14.944 -0.0427  0.7379  0.3647
  698TMC3     C10322   3.815   2.802  15.213 -0.1048 -0.0534 -0.5023
  698TMC3     O10323   3.836   2.836  15.326 -0.2042 -0.1158  0.1834
  698TMC3     H10324   3.778   3.046  15.258  0.0946  0.5743  0.1096
  698TMC3    H110325   3.862   2.767  14.952  0.4122  0.1281  1.7538
  698TMC3    H210326   3.925   3.183  14.879  0.0727 -1.1339 -1.8211
  698TMC3    C710327   3.941   2.944  14.765 -0.4230  0.5313  0.0292
  698TMC3    C810328   3.849   3.264  15.133  0.3661  0.2009  0.5704
  698TMC3    O110329   3.914   3.017  14.673  0.3111  0.4090 -0.2620
  698TMC3    O210330   3.814   3.274  15.250  0.0518 -0.2243  0.3431
  699TMC3    C110331   4.114   0.568  12.889 -0.0276  0.1586 -0.8604
  699TMC3    C210332   4.210   0.537  12.987  0.0515 -0.2989  0.8637
  699TMC3    C310333   4.231   0.406  13.006 -0.5980  0.5898  1.7642
  699TMC3    C410334   4.039   0.471  12.826  0.4893  0.2688 -1.1802
  699TMC3    C510335   4.074   0.341  12.846  0.1921  0.7303 -0.2773
  699TMC3    C610336   4.175   0.307  12.934 -0.5132  0.1482 -0.2044
  699TMC3     C10337   4.149   0.680  12.804 -0.2342 -0.3139 -0.0575
  699TMC3     O10338   4.087   0.688  12.697 -0.2269 -0.1134 -0.1368
  699TMC3     H10339   4.246   0.604  13.064 -1.5351  0.3702  1.0404
  699TMC3    H110340   3.969   0.513  12.756  0.2408 -0.3337 -1.2885
  699TMC3    H210341   4.216   0.207  12.940  3.3231  1.7032 -0.5444
  699TMC3    C710342   3.972   0.233  12.848 -0.2848 -0.0384 -0.4006
  699TMC3    C810343   4.251   0.366  13.140  0.0308 -0.4948 -0.1809
  699TMC3    O110344   4.021   0.120  12.842  0.0868 -0.6562 -0.0806
  699TMC3    O210345   4.180   0.276  13.179  0.2659  0.2264  0.1757
  700TMC3    C110346   3.114   2.814  17.071  0.3096  0.5960  0.7246
  700TMC3    C210347   3.162   2.687  17.087  0.4621 -0.5437  0.2382
  700TMC3    C310348   3.268   2.686  17.177 -0.4923 -0.8027 -0.1402
  700TMC3    C410349   3.155   2.929  17.135  0.0312  0.1575 -0.5202
  700TMC3    C510350   3.252   2.910  17.235  0.5114  0.8428 -0.5575
  700TMC3    C610351   3.313   2.791  17.262  0.5648  0.3460  0.9088
  700TMC3     C10352   3.040   2.835  16.954 -0.2551 -0.5675  0.0906
  700TMC3     O10353   2.991   2.745  16.888 -0.2609 -0.7646 -0.1694
  700TMC3     H10354   3.148   2.607  17.015 -2.0423 -0.9009  1.1253
  700TMC3    H110355   3.101   3.023  17.137 -0.6733 -0.2090 -3.3342
  700TMC3    H210356   3.396   2.791  17.331 -0.1437  0.0271  1.7531
  700TMC3    C710357   3.312   3.036  17.276 -0.0403 -0.0800  0.2629
  700TMC3    C810358   3.359   2.578  17.167  0.3797  0.0358 -0.2069
  700TMC3    O110359   3.277   3.133  17.211  0.5433 -0.1795  0.1979
  700TMC3    O210360   3.477   2.607  17.174 -0.0928 -0.0837 -0.0791
  701TMC3    C110361   2.937   1.770  15.232  0.3307 -0.3036  0.0792
  701TMC3    C210362   2.933   1.717  15.107 -0.8594 -0.0408 -0.9102
  701TMC3    C310363   3.017   1.766  15.010 -0.1559 -0.2665 -0.0817
  701TMC3    C410364   3.020   1.877  15.262  0.8166 -0.4036 -0.3355
  701TMC3    C510365   3.098   1.931  15.166 -0.6391 -0.4311 -0.0817
  701TMC3    C610366   3.102   1.872  15.040  0.4739 -0.5225  0.0639
  701TMC3     C10367   2.872   1.700  15.343 -0.1179  0.3540 -0.9067
  701TMC3     O10368   2.870   1.763  15.451 -0.4103  0.2745  0.4617
  701TMC3     H10369   2.851   1.655  15.072 -0.5918 -0.6032 -0.5392
  701TMC3    H110370   3.031   1.909  15.365 -0.1033 -1.8914  0.2266
  701TMC3    H210371   3.173   1.907  14.965 -2.1745  2.5950 -0.9660
  701TMC3    C710372   3.190   2.032  15.186 -0.4231 -0.4782 -0.0425
  701TMC3    C810373   3.039   1.691  14.884  0.4914  0.9558 -0.0819
  701TMC3    O110374   3.187   2.106  15.090 -0.2816 -0.6448  0.2594
  701TMC3    O210375   3.152   1.688  14.828 -0.3396  0.0790  0.1848
  702MPD2     C10376   2.641   4.169  10.505 -0.3075 -0.2417 -0.2838
  702MPD2    C110377   2.539   4.259  10.527 -0.0060 -0.4147  0.3380
  702MPD2    C210378   2.555   4.388  10.474 -0.2366  0.2961  0.8876
  702MPD2    C310379   2.671   4.423  10.408 -0.4656 -0.2071  0.3079
  702MPD2    C410380   2.771   4.330  10.392  0.0456  0.2973 -0.5537
  702MPD2    C510381   2.756   4.202  10.437  0.6092  0.7408 -0.5071
  702MPD2     H10382   2.476   4.460  10.493  0.8191  1.1943  1.8497
  702MPD2    H110383   2.856   4.355  10.330 -0.0959  1.9632 -0.0723
  702MPD2    H210384   2.630   4.067  10.540  0.2220 -0.2988 -0.2785
  702MPD2    H310385   2.831   4.127  10.419  0.0904 -0.2458  1.4179
  702MPD2     N10386   2.684   4.563  10.378 -0.3436 -0.2984 -0.5660
  702MPD2    H510387   2.772   4.603  10.349  0.2861 -1.9732 -0.9744
  702MPD2    N110388   2.412   4.227  10.589 -0.2737 -0.7656  0.0541
  702MPD2    H710389   2.344   4.301  10.602  2.2299  1.3435  1.0829
  703TMC3    C110390   2.614   0.048  10.344 -0.0440 -0.2276 -0.0650
  703TMC3    C210391   2.513   0.137  10.378 -0.6760 -0.0431  0.3146
  703TMC3    C310392   2.537   0.271  10.368 -0.2866  0.1129 -0.1959
  703TMC3    C410393   2.739   0.090  10.312  0.4161 -0.0392  0.5559
  703TMC3    C510394   2.760   0.226  10.304 -0.5369 -0.2340  0.2501
  703TMC3    C610395   2.662   0.313  10.325 -0.9235  0.1949  0.1080
  703TMC3     C10396   2.578   4.644  10.348  0.7399 -0.3151  0.3800
  703TMC3     O10397   2.461   4.614  10.340  0.1300 -0.5203  0.4052
  703TMC3     H10398   2.417   0.100  10.410 -1.0785  0.3070 -0.4832
  703TMC3    H110399   2.804   0.025  10.255 -0.4875 -1.7229  1.4422
  703TMC3    H210400   2.668   0.417  10.294 -1.6103 -0.1249 -1.0745
  703TMC3    C710401   2.890   0.275  10.270  0.6591 -0.4749 -0.2475
  703TMC3    C810402   2.456   0.363  10.441 -0.2145 -0.1057 -0.3113
  703TMC3    O110403   2.897   0.388  10.219  0.4084 -0.6497 -0.1841
  703TMC3    O210404   2.509   0.471  10.460 -0.1839  0.0105  0.1967
  704TMC3    C110405   4.410   2.660  11.994  0.4352  0.1307  0.5118
  704TMC3    C210406   4.551   2.653  11.994 -0.2984  0.2243  0.5425
  704TMC3    C310407   4.626   2.591  12.092  0.1954  0.4058 -0.7193
  704TMC3    C410408   4.345   2.619  12.105 -0.0064  0.7707  0.4332
  704TMC3    C510409   4.420   2.555  12.205  0.2637 -0.4199  0.4631
  704TMC3    C610410   4.558   2.539  12.202 -0.4217  0.0118 -0.0823
  704TMC3     C10411   4.342   2.621  11.872 -0.0499  0.2058  0.3872
  704TMC3     O10412   4.220   2.604  11.868 -0.4850  0.1165  0.0868
  704TMC3     H10413   4.608   2.693  11.910 -0.2680  0.1178  0.5120
  704TMC3    H110414   4.237   2.611  12.102 -0.0468  1.2452  0.5017
  704TMC3    H210415   4.614   2.495  12.283  3.1009  1.0716 -1.9140
  704TMC3    C710416   4.347   2.466  12.296  0.2865 -0.4837  0.4449
  704TMC3    C810417   0.024   2.557  12.063 -0.1876 -0.1823  0.4187
  704TMC3    O110418   4.225   2.486  12.318  0.1219  0.4298  0.0864
  704TMC3    O210419   0.056   2.556  11.944 -0.0535  0.5683 -0.1249
  705MPD2     C10420   0.030   0.759  16.415 -0.2336  0.2744  0.5059
  705MPD2    C110421   4.721   0.645  16.350 -0.1502  0.1847  0.5619
  705MPD2    C210422   4.603   0.584  16.385  0.0780 -0.7168  0.0998
  705MPD2    C310423   4.524   0.625  16.487 -0.4365  0.2949 -0.0499
  705MPD2    C410424   4.574   0.728  16.565 -1.1584  0.3387 -0.1298
  705MPD2    C510425   4.697   0.789  16.529 -0.6063  0.2337 -0.6557
  705MPD2     H10426   4.566   0.509  16.316 -0.2412 -0.2891 -0.1931
  705MPD2    H110427   4.524   0.759  16.657 -0.1665  0.3175  0.4177
  705MPD2    H210428   0.119   0.815  16.388  0.2450 -0.3668  0.7604
  705MPD2    H310429   4.717   0.883  16.578 -0.8344 -0.5542  0.9505
  705MPD2     N10430   4.397   0.568  16.514 -0.7318  0.3094 -0.4071
  705MPD2    H510431   4.355   0.596  16.602  0.5408 -0.4854  0.4668
  705MPD2    N110432   0.050   0.603  16.225  0.4767  0.1825 -0.6581
  705MPD2    H710433   4.727   0.531  16.176 -1.4420  1.0407  0.0860
  706TMC3    C110434   0.102   0.476  15.862  0.4968  0.5041 -0.4002
  706TMC3    C210435   0.148   0.567  15.769  0.5500  0.4906 -0.0840
  706TMC3    C310436   0.239   0.657  15.808  0.6077 -0.4163 -0.2235
  706TMC3    C410437   0.118   0.492  15.994  0.8947  0.1218  0.3440
  706TMC3    C510438   0.199   0.593  16.036  0.6780 -0.4303  0.5244
  706TMC3    C610439   0.263   0.671  15.942 -0.1225 -0.0135  0.5755
  706TMC3     C10440   0.075   0.340  15.817 -0.8160  0.3572  0.5501
  706TMC3     O10441   0.000   0.275  15.889  0.1602 -0.4359 -0.1842
  706TMC3     H10442   0.121   0.563  15.664 -0.9790 -2.4046  0.4059
  706TMC3    H110443   0.093   0.409  16.060  0.1987 -0.6809 -0.9304
  706TMC3    H210444   0.306   0.763  15.979 -1.6355  0.2302  1.7372
  706TMC3    C710445   0.166   0.655  16.165  0.0485 -0.1037  0.4060
  706TMC3    C810446   0.255   0.782  15.728 -0.3945  0.6239 -0.3446
  706TMC3    O110447   0.250   0.722  16.217 -0.9250  0.5525  0.1091
  706TMC3    O210448   0.158   0.808  15.655 -0.1515  0.0276  0.4551
  707TMC3    C110449   2.989   4.545   1.921  0.1112 -0.2005  0.6988
  707TMC3    C210450   3.126   4.515   1.944  0.8919  0.0336  0.0894
  707TMC3    C310451   3.191   4.613   2.020 -0.8258  0.0481 -0.7546
  707TMC3    C410452   2.928   4.655   1.974  0.2935  0.3371  0.0383
  707TMC3    C510453   2.999   0.015   2.049  0.5856 -0.9490  0.1044
  707TMC3    C610454   3.135   4.725   2.067  0.1154 -0.0773  0.8052
  707TMC3     C10455   2.930   4.465   1.813  0.4146  0.4728  0.3406
  707TMC3     O10456   2.996   4.385   1.750 -0.4265  0.0286 -0.1487
  707TMC3     H10457   3.167   4.419   1.914  1.6703 -0.0466  1.4447
  707TMC3    H110458   2.826   4.683   1.952 -0.2989 -1.1168  1.0046
  707TMC3    H210459   3.193   0.082   2.100  1.4788 -1.1391  1.1452
  707TMC3    C710460   2.932   0.119   2.128 -0.0613  0.5557  0.2246
  707TMC3    C810461   3.337   4.607   2.013 -0.1616  0.1989 -0.5389
  707TMC3    O110462   3.005   0.184   2.202 -0.5905 -0.0187  0.1661
  707TMC3    O210463   3.406   4.690   2.072  0.3387 -0.3232  0.2362
  708MPD2     C10464   2.971   3.684  13.530  0.2202 -0.5049  0.2561
  708MPD2    C110465   2.848   3.708  13.589  0.3833 -0.2902 -0.3308
  708MPD2    C210466   2.838   3.692  13.726  0.7278 -0.5783 -0.0048
  708MPD2    C310467   2.945   3.643  13.804 -0.3128  0.5234  0.3462
  708MPD2    C410468   3.069   3.624  13.741 -0.0678 -1.0697  1.0663
  708MPD2    C510469   3.079   3.650  13.606 -0.1143  0.2164  0.2116
  708MPD2     H10470   2.743   3.710  13.775  2.0471 -0.0686  2.3952
  708MPD2    H110471   3.157   3.607  13.802  1.1984  0.6162 -0.2792
  708MPD2    H210472   2.985   3.704  13.424 -0.2229  3.9752  1.0319
  708MPD2    H310473   3.180   3.653  13.565  0.1301 -1.7674  0.6874
  708MPD2     N10474   2.937   3.623  13.949 -0.1608  0.6558  0.0825
  708MPD2    H510475   3.017   3.581  13.995  0.7483  3.5700  1.1607
  708MPD2    N110476   2.736   3.733  13.510 -0.1946  0.1969  0.6327
  708MPD2    H710477   2.752   3.713  13.411  0.8360  2.4432  0.3417
  709TMC3    C110478   2.518   3.803  13.469 -0.1513  0.9001  0.6621
  709TMC3    C210479   2.486   3.688  13.417 -0.0520  0.2619  0.6467
  709TMC3    C310480   2.355   3.654  13.440  0.0845  0.2008 -0.6214
  709TMC3    C410481   2.427   3.891  13.517 -0.4602 -0.2257  0.0070
  709TMC3    C510482   2.299   3.852  13.547 -1.0240  0.1828 -0.3854
  709TMC3    C610483   2.260   3.726  13.512  1.0532  0.2051  0.0144
  709TMC3     C10484   2.622   3.794  13.558  0.1233 -0.1558 -0.2703
  709TMC3     O10485   2.603   3.847  13.670 -0.3572 -0.2562 -0.2882
  709TMC3     H10486   2.560   3.619  13.381 -1.1013 -0.7203  0.3709
  709TMC3    H110487   2.461   3.992  13.538  0.9298 -1.1248  2.0761
  709TMC3    H210488   2.160   3.693  13.540  1.2437 -0.5817 -0.2214
  709TMC3    C710489   2.246   3.912  13.662  0.4223  0.1156 -0.2177
  709TMC3    C810490   2.307   3.559  13.343  0.6042 -0.5399  0.6164
  709TMC3    O110491   2.126   3.927  13.672  0.1731  0.0815  0.1665
  709TMC3    O210492   2.214   3.488  13.365  0.5155  0.0770 -0.3877
  710TMC3    C110493   3.936   0.421   0.397  0.1293 -0.2154  0.3201
  710TMC3    C210494   3.990   0.404   0.268 -0.9407 -0.2043 -0.3520
  710TMC3    C310495   4.112   0.340   0.264  0.2477 -0.2451  0.4086
  710TMC3    C410496   3.992   0.358   0.510 -0.7913 -0.0231  0.0209
  710TMC3    C510497   4.118   0.291   0.490 -0.0344  0.3318  0.1928
  710TMC3    C610498   4.174   0.280   0.370  0.3225 -0.3306 -0.5322
  710TMC3     C10499   3.821   0.516   0.405  0.1023 -0.7676  0.0140
  710TMC3     O10500   3.778   0.559   0.299  0.7751  0.5203 -0.1448
  710TMC3     H10501   3.933   0.433   0.180 -1.1425  2.5002  0.6708
  710TMC3    H110502   3.950   0.374   0.608  1.0348 -3.4333  1.3717
  710TMC3    H210503   4.256   0.213   0.348  0.7387 -0.5531  1.7394
  710TMC3    C710504   4.193   0.254   0.609 -0.2579 -0.2099 -0.7291
  710TMC3    C810505   4.201   0.383   0.159  0.2001 -0.6029 -0.1311
  710TMC3    O110506   4.140   0.271   0.718  0.3355  0.6708 -1.0386
  710TMC3    O210507   4.148   0.418   0.056 -0.5098 -0.5466  0.2540
  711TMC3    C110508   3.571   1.132  14.949 -0.2338 -0.7693 -0.2629
  711TMC3    C210509   3.619   1.244  15.004 -0.5747 -0.0743 -0.5394
  711TMC3    C310510   3.727   1.235  15.081 -0.8641  0.2009  0.0470
  711TMC3    C410511   3.633   1.011  14.963  0.6531 -0.1632 -0.3011
  711TMC3    C510512   3.743   1.005  15.040 -0.2591 -0.4415 -0.0774
  711TMC3    C610513   3.799   1.116  15.094 -0.1538  0.3797 -0.4781
  711TMC3     C10514   3.487   1.137  14.829 -0.3865 -0.3826 -0.2791
  711TMC3     O10515   3.455   1.032  14.773  0.3414 -0.4403  0.2941
  711TMC3     H10516   3.553   1.330  15.002 -1.0224 -0.4448 -1.9604
  711TMC3    H110517   3.593   0.922  14.915  0.7553  0.7360 -2.0351
  711TMC3    H210518   3.895   1.119  15.144 -0.0478 -0.4259 -0.6334
  711TMC3    C710519   3.820   0.884  15.053 -0.6685  0.3280 -0.1828
  711TMC3    C810520   3.782   1.348  15.141 -0.0220 -0.1990 -0.4878
  711TMC3    O110521   3.918   0.893  15.123 -0.2882  0.3850  0.3875
  711TMC3    O210522   3.723   1.449  15.107 -0.2413  0.0153 -0.3812
  712MPD2     C10523   0.401   2.314  14.134  0.1099  0.6821 -0.5776
  712MPD2    C110524   0.283   2.315  14.059  0.8391  0.1574  0.4064
  712MPD2    C210525   0.271   2.420  13.975  0.3321 -0.1621  0.9263
  712MPD2    C310526   0.375   2.512  13.944  0.3125  0.0686 -1.1873
  712MPD2    C410527   0.494   2.499  14.012  0.1720 -0.1983 -0.2994
  712MPD2    C510528   0.498   2.410  14.115 -0.6272 -0.5123 -0.4093
  712MPD2     H10529   0.176   2.449  13.932  1.1419  1.7439  0.4376
  712MPD2    H110530   0.578   2.565  13.994 -1.0455  0.9758 -1.6668
  712MPD2    H210531   0.424   2.237  14.207  2.4589  0.0039 -2.0244
  712MPD2    H310532   0.593   2.410  14.168  0.2535 -0.2257 -1.9979
  712MPD2     N10533   0.363   2.615  13.845 -0.4747  0.3212  0.4189
  712MPD2    H510534   0.446   2.668  13.823  0.5235 -0.9987  0.9780
  712MPD2    N110535   0.173   2.238  14.099  0.0331 -0.2649  0.2958
  712MPD2    H710536   0.101   2.241  14.027  0.2922  0.9501  0.0883
  713TMC3    C110537   0.256   2.777  13.691  0.5665 -0.7408  0.3881
  713TMC3    C210538   0.375   2.833  13.657 -0.0957  0.1473 -0.2554
  713TMC3    C310539   0.369   2.954  13.590  0.2773 -0.5964 -0.5529
  713TMC3    C410540   0.137   2.842  13.663 -0.1098  0.1891 -0.1626
  713TMC3    C510541   0.138   2.966  13.614 -0.2665 -0.1328 -0.0217
  713TMC3    C610542   0.253   3.021  13.569  0.4210  0.6321 -0.3644
  713TMC3     C10543   0.249   2.660  13.780 -0.2346 -0.3607 -0.4525
  713TMC3     O10544   0.134   2.625  13.805 -0.4106  0.7399 -0.3769
  713TMC3     H10545   0.464   2.771  13.667 -0.7093 -1.1833 -3.0075
  713TMC3    H110546   0.043   2.799  13.696 -0.2008 -1.4084 -2.4902
  713TMC3    H210547   0.261   3.123  13.534  1.7419  1.1353  1.4257
  713TMC3    C710548   0.015   3.045  13.634 -0.2086  0.3595 -0.6309
  713TMC3    C810549   0.485   3.029  13.551  0.4946  0.1644 -0.3906
  713TMC3    O110550   4.631   3.009  13.608  0.0015 -0.3532  0.3727
  713TMC3    O210551   0.479   3.115  13.463  0.0885  0.1623 -0.1785
  714MPD2     C10552   2.512   1.283   1.509  0.2476 -0.2715 -0.2895
  714MPD2    C110553   2.576   1.226   1.407  0.2143 -0.5686  0.2224
  714MPD2    C210554   2.518   1.230   1.283 -0.2755 -0.4998 -0.1374
  714MPD2    C310555   2.402   1.294   1.262 -0.1576  0.3318 -0.1572
  714MPD2    C410556   2.334   1.353   1.365 -0.0968 -0.4256 -0.3540
  714MPD2    C510557   2.395   1.349   1.489 -0.9716  0.1579  0.6901
  714MPD2     H10558   2.568   1.192   1.195  0.8438  1.2686 -0.2707
  714MPD2    H110559   2.236   1.399   1.358 -0.1329 -0.3953  0.3401
  714MPD2    H210560   2.545   1.271   1.611  0.1654 -0.0870 -0.2423
  714MPD2    H310561   2.343   1.393   1.573 -0.9470 -0.6749  1.1417
  714MPD2     N10562   2.339   1.281   1.129 -0.2376 -0.2846  0.2863
  714MPD2    H510563   2.379   1.213   1.066 -2.3155 -0.5880 -0.7282
  714MPD2    N110564   2.694   1.170   1.434 -0.1073  0.3038  0.5744
  714MPD2    H710565   2.722   1.177   1.532  0.7781 -1.6721  0.4706
  715TMC3    C110566   2.888   1.037   1.409 -0.3340 -0.6217  0.4390
  715TMC3    C210567   2.954   0.935   1.345 -0.3752 -0.0100  0.2251
  715TMC3    C310568   3.063   0.876   1.405  0.3652  0.6501  0.8210
  715TMC3    C410569   2.941   1.085   1.524 -0.3583  0.0087  0.2868
  715TMC3    C510570   3.058   1.032   1.567  0.3936  0.2527  0.2279
  715TMC3    C610571   3.126   0.928   1.513  0.0371 -0.2630 -0.2054
  715TMC3     C10572   2.761   1.072   1.355 -0.1918 -0.6052 -0.3985
  715TMC3     O10573   2.734   1.022   1.245  0.0444  0.2780 -0.6848
  715TMC3     H10574   2.916   0.886   1.256 -0.0680  0.4972 -0.1888
  715TMC3    H110575   2.901   1.180   1.558 -1.1362  0.8278 -2.9343
  715TMC3    H210576   3.227   0.896   1.537  0.2003 -0.3101 -0.9553
  715TMC3    C710577   3.116   1.086   1.686 -0.0809  0.0077 -0.1775
  715TMC3    C810578   3.140   0.788   1.315 -0.2563 -0.4571 -0.0766
  715TMC3    O110579   3.237   1.075   1.688  0.4630  0.2261 -0.2838
  715TMC3    O210580   3.093   0.751   1.210 -0.4782  0.3329 -0.3044
  716MPD2     C10581   2.546   3.558   9.796 -0.2857  0.5824  0.3202
  716MPD2    C110582   2.564   3.511   9.668  0.3877 -0.3343  0.0354
  716MPD2    C210583   2.614   3.386   9.644 -0.4516 -0.0480 -0.4924
  716MPD2    C310584   2.627   3.296   9.746 -0.3920 -0.3544  0.3010
  716MPD2    C410585   2.610   3.342   9.873 -0.0185  0.7887 -0.1302
  716MPD2    C510586   2.591   3.473   9.897 -0.0983 -0.6838  0.6986
  716MPD2     H10587   2.631   3.346   9.545 -2.5911 -0.3113 -0.7553
  716MPD2    H110588   2.627   3.281   9.962  1.8562  0.1274 -0.9326
  716MPD2    H210589   2.523   3.661   9.823  0.7073  0.1935  2.6315
  716MPD2    H310590   2.591   3.508   9.999  1.4000  2.4477 -0.3705
  716MPD2     N10591   2.667   3.164   9.715 -0.1469 -0.2324 -0.0384
  716MPD2    H510592   2.679   3.141   9.617 -2.0496  0.0945 -0.3581
  716MPD2    N110593   2.526   3.593   9.558 -0.5356 -0.0719 -0.4517
  716MPD2    H710594   2.471   3.674   9.584  1.2099  0.9796 -0.0573
  717TMC3    C110595   2.727   2.931   9.757 -0.6213 -0.1735  0.1684
  717TMC3    C210596   2.737   2.894   9.627 -0.3762 -0.3709 -0.5536
  717TMC3    C310597   2.735   2.763   9.591 -0.8477 -0.2585  0.4626
  717TMC3    C410598   2.693   2.832   9.851  0.2342 -0.1675 -0.0667
  717TMC3    C510599   2.673   2.705   9.819 -0.0273 -0.2901 -0.2100
  717TMC3    C610600   2.704   2.665   9.685 -0.2652  0.3934  0.0967
  717TMC3     C10601   2.713   3.070   9.806 -0.0654 -0.1963  0.7781
  717TMC3     O10602   2.744   3.087   9.922 -0.1013  0.0566  0.3136
  717TMC3     H10603   2.764   2.966   9.551 -2.3273  0.7722 -0.1574
  717TMC3    H110604   2.673   2.870   9.951 -0.3349 -2.6519  0.7475
  717TMC3    H210605   2.699   2.562   9.653  3.6948 -0.0565  0.9725
  717TMC3    C710606   2.631   2.614   9.928 -0.1227  0.3684 -0.6092
  717TMC3    C810607   2.716   2.728   9.452 -0.1068 -0.1287  0.0726
  717TMC3    O110608   2.635   2.663  10.040  0.7173 -0.2949 -0.2078
  717TMC3    O210609   2.684   2.823   9.384  0.9155 -0.2706 -0.2840
  718MPD2     C10610   1.805   2.689  13.360  0.3225 -0.3906  0.6338
  718MPD2    C110611   1.748   2.715  13.238 -0.6911  0.4566  0.4844
  718MPD2    C210612   1.620   2.674  13.203  0.5265 -0.3225 -0.1877
  718MPD2    C310613   1.550   2.589  13.279 -0.2741 -0.4157 -0.6106
  718MPD2    C410614   1.596   2.566  13.409 -0.5276  0.1454  0.4479
  718MPD2    C510615   1.722   2.617  13.443 -1.1602 -0.8131 -0.1541
  718MPD2     H10616   1.580   2.706  13.107 -2.4255 -3.1375  0.0791
  718MPD2    H110617   1.536   2.522  13.487 -2.8305  0.1361 -1.3463
  718MPD2    H210618   1.901   2.729  13.391 -0.4977  0.8705  1.5189
  718MPD2    H310619   1.764   2.591  13.540  0.9012 -0.6496 -1.0180
  718MPD2     N10620   1.421   2.562  13.228 -0.5269  0.2539 -0.8402
  718MPD2    H510621   1.399   2.577  13.130  0.2138 -0.1977 -1.0745
  718MPD2    N110622   1.812   2.804  13.150  0.7697  0.0007 -0.1851
  718MPD2    H710623   1.757   2.834  13.070  2.8748  2.0524 -0.8481
  719TMC3    C110624   1.960   2.950  13.069 -0.5283 -0.5252  0.3901
  719TMC3    C210625   1.851   3.007  13.010 -0.4695  0.9288  0.7608
  719TMC3    C310626   1.862   3.069  12.891 -0.1893  0.3607  0.6233
  719TMC3    C410627   2.074   2.939  13.000 -0.3462  0.3330  0.6745
  719TMC3    C510628   2.091   3.009  12.884 -0.1490 -0.2826  0.1501
  719TMC3    C610629   1.987   3.087  12.836 -0.1548  0.1015  0.0501
  719TMC3     C10630   1.940   2.846  13.164  0.5019 -0.3018 -0.1373
  719TMC3     O10631   2.037   2.813  13.227 -0.2254 -0.0408 -0.1521
  719TMC3     H10632   1.755   3.016  13.060 -0.0033  1.3688  1.5694
  719TMC3    H110633   2.143   2.870  13.046 -0.6672 -0.6469 -0.3245
  719TMC3    H210634   1.987   3.137  12.739 -0.5800  1.1015  0.5666
  719TMC3    C710635   2.153   2.935  12.781  0.3390 -0.3432  0.3171
  719TMC3    C810636   1.749   3.062  12.793  0.4357  0.3743  0.2136
  719TMC3    O110637   2.183   2.990  12.677 -0.1096 -0.3253  0.2916
  719TMC3    O210638   1.757   3.133  12.697 -0.1495  0.2833  0.4423
  720MPD2     C10639   0.244   4.321  13.874  0.7104 -0.0272  0.5306
  720MPD2    C110640   0.322   4.400  13.795 -0.2589  0.9132 -0.6665
  720MPD2    C210641   0.462   4.403  13.808 -0.2429  0.0472  0.3189
  720MPD2    C310642   0.523   4.315  13.894 -0.0702  0.8764  0.6712
  720MPD2    C410643   0.444   4.223  13.963  0.0675 -0.5767  0.7197
  720MPD2    C510644   0.309   4.222  13.948  0.6690  0.7782 -0.4372
  720MPD2     H10645   0.513   4.462  13.733  1.0423 -2.0375 -0.4471
  720MPD2    H110646   0.483   4.168  14.047  0.6641 -0.0816  0.7610
  720MPD2    H210647   0.136   4.316  13.871  0.9180 -3.1887 -2.2694
  720MPD2    H310648   0.247   4.162  14.014  2.7650  0.8933  1.6346
  720MPD2     N10649   0.663   4.300  13.907  0.0682  0.5241 -0.0450
  720MPD2    H510650   0.689   4.233  13.978  2.4310  0.2593 -1.1551
  720MPD2    N110651   0.253   4.494  13.715  0.6053  0.1258 -0.7374
  720MPD2    H710652   0.313   4.559  13.666  0.2927  0.0293 -1.2415
  721TMC3    C110653   0.885   4.337  13.873  0.2150  0.4030  0.5257
  721TMC3    C210654   0.917   4.273  13.983 -0.5278 -0.3797 -0.0007
  721TMC3    C310655   1.027   4.186  13.978  0.3833 -0.2022  0.6445
  721TMC3    C410656   0.964   4.336  13.761 -0.3630 -0.1605  0.0635
  721TMC3    C510657   1.074   4.255  13.759 -0.2379 -0.6976 -0.4016
  721TMC3    C610658   1.103   4.171  13.858 -0.2627  0.2431  0.7840
  721TMC3     C10659   0.754   4.390  13.850  0.5354 -0.0498 -0.0428
  721TMC3     O10660   0.733   4.445  13.744  0.6469 -0.0421 -0.7643
  721TMC3     H10661   0.857   4.286  14.072 -1.4415 -1.9536 -0.4015
  721TMC3    H110662   0.966   4.409  13.681  2.6413  1.0059  1.1941
  721TMC3    H210663   1.198   4.119  13.854 -0.9268 -1.0387  2.0341
  721TMC3    C710664   1.198   4.316  13.694 -0.2233  0.4364  0.0312
  721TMC3    C810665   1.089   4.125  14.095 -0.2874 -0.3539  0.0369
  721TMC3    O110666   1.177   4.358  13.581  0.1176  0.5907  0.2028
  721TMC3    O210667   1.204   4.083  14.079 -0.2767 -0.1262  0.3347
  722MPD2     C10668   3.928   2.996  13.146  0.8531  0.1472 -0.6775
  722MPD2    C110669   3.857   3.111  13.153  0.2466 -0.1069  0.1295
  722MPD2    C210670   3.727   3.106  13.109 -0.0571  0.1659  0.7602
  722MPD2    C310671   3.670   2.988  13.065  0.3839 -0.1903 -0.5546
  722MPD2    C410672   3.746   2.872  13.058  0.0597  0.0062 -0.1941
  722MPD2    C510673   3.877   2.880  13.104 -0.6767 -0.2591  0.3642
  722MPD2     H10674   3.663   3.194  13.107 -0.4348 -0.0934  1.3636
  722MPD2    H110675   3.704   2.776  13.029 -0.3319  0.6135 -1.6410
  722MPD2    H210676   4.029   2.988  13.186  0.7760 -0.7730 -0.6651
  722MPD2    H310677   3.934   2.789  13.095 -0.8688 -0.2897 -0.5438
  722MPD2     N10678   3.540   3.000  13.009 -0.3073 -0.0106 -0.2434
  722MPD2    H510679   3.493   3.090  13.019 -0.9026 -0.2519 -0.8126
  722MPD2    N110680   3.920   3.235  13.192 -0.0146  0.0515  0.3472
  722MPD2    H710681   3.861   3.309  13.156 -0.6500 -0.2738  0.7221
  723TMC3    C110682   3.322   2.944  12.937 -0.7100  0.1360  0.3913
  723TMC3    C210683   3.219   2.855  12.935  1.4399  0.2652  0.6765
  723TMC3    C310684   3.094   2.890  12.889  0.4841 -0.2802 -0.1452
  723TMC3    C410685   3.310   3.077  12.902 -0.3476  0.2866 -0.4867
  723TMC3    C510686   3.181   3.111  12.855  0.2271 -0.4481 -1.3043
  723TMC3    C610687   3.077   3.022  12.843 -0.0605  0.3412 -0.1423
  723TMC3     C10688   3.453   2.893  12.976 -0.4791 -0.0754  0.2434
  723TMC3     O10689   3.471   2.770  12.983 -0.4407 -0.0657  0.8463
  723TMC3     H10690   3.239   2.757  12.975  1.5046  1.1515  2.8591
  723TMC3    H110691   3.386   3.153  12.888  0.5536 -0.9105 -2.0468
  723TMC3    H210692   2.977   3.049  12.812  0.5455  2.5792 -0.1550
  723TMC3    C710693   3.154   3.252  12.812 -0.5804 -0.0891  0.1862
  723TMC3    C810694   2.985   2.797  12.909 -0.4865 -0.3417 -0.1216
  723TMC3    O110695   3.070   3.264  12.723  0.3404 -0.1808 -0.0238
  723TMC3    O210696   2.870   2.845  12.906  0.0826 -0.6850 -0.0580
  724TMC3    C110697   3.351   1.407  10.116 -0.2357  0.1466  0.3996
  724TMC3    C210698   3.448   1.320  10.155  0.0278  0.4010 -0.5823
  724TMC3    C310699   3.575   1.365  10.147 -0.2708 -0.8017 -0.2714
  724TMC3    C410700   3.380   1.524  10.056 -0.2428  0.4031 -0.1454
  724TMC3    C510701   3.508   1.557  10.033 -0.1054 -0.3173 -0.4635
  724TMC3    C610702   3.605   1.488  10.088 -0.7360 -0.3068 -0.5148
  724TMC3     C10703   3.213   1.365  10.095  0.8619 -0.4489 -0.3860
  724TMC3     O10704   3.121   1.445  10.082  0.3204  0.3761 -0.2967
  724TMC3     H10705   3.426   1.223  10.199  2.5109  1.4315  2.9324
  724TMC3    H110706   3.292   1.576  10.018  0.5301 -0.0944 -2.5756
  724TMC3    H210707   3.707   1.514  10.062 -0.3575 -1.2832 -0.0199
  724TMC3    C710708   3.547   1.654   9.928  0.4465 -0.4442  0.0315
  724TMC3    C810709   3.683   1.290  10.209 -0.2350 -0.5122  0.8686
  724TMC3    O110710   3.668   1.665   9.905 -0.3404  0.8924  0.3462
  724TMC3    O210711   3.650   1.182  10.249  0.2704 -0.4693  0.2310
  725TMC3    C110712   0.940   0.171  13.154  0.0682 -0.6120  0.4253
  725TMC3    C210713   0.807   0.211  13.126 -0.0997  0.5175  0.3609
  725TMC3    C310714   0.716   0.124  13.152  0.0063  0.1355  0.0228
  725TMC3    C410715   0.983   0.054  13.205  0.0941 -0.2334 -0.1267
  725TMC3    C510716   0.877   4.691  13.233  0.7207  0.0430 -0.3615
  725TMC3    C610717   0.747   0.007  13.213  0.0461  0.2427  0.9320
  725TMC3     C10718   1.041   0.268  13.120  0.9710 -0.6676  0.2241
  725TMC3     O10719   1.005   0.385  13.114 -0.6434  0.1384  0.1736
  725TMC3     H10720   0.773   0.313  13.112 -1.6401 -0.0583 -0.1033
  725TMC3    H110721   1.085   0.020  13.197  1.1882  2.5445  2.0175
  725TMC3    H210722   0.666   4.664  13.224 -1.0027  1.5356  1.5818
  725TMC3    C710723   0.905   4.560  13.163 -0.8968 -0.4500 -0.7702
  725TMC3    C810724   0.630   0.094  13.039  0.5641 -0.0361 -0.5096
  725TMC3    O110725   1.005   4.496  13.182  0.4897 -0.3566  0.0902
  725TMC3    O210726   0.579   4.713  13.027  0.6035  0.1759  0.3094
  726MPD2     C10727   3.575   1.827  10.873  0.7448 -0.4185 -0.5372
  726MPD2    C110728   3.489   1.809  10.765  0.4320  0.2906 -0.8130
  726MPD2    C210729   3.374   1.731  10.782 -0.1320  0.7907 -0.2976
  726MPD2    C310730   3.357   1.662  10.902 -0.7893 -0.4142  0.5938
  726MPD2    C410731   3.440   1.692  11.009  0.0058  0.1685  0.4185
  726MPD2    C510732   3.555   1.769  10.990 -0.1152  0.1945  0.8402
  726MPD2     H10733   3.298   1.725  10.704  0.6878  1.3485 -1.1420
  726MPD2    H110734   3.430   1.645  11.106  1.6091 -0.8012  0.1227
  726MPD2    H210735   3.659   1.895  10.864  0.4235  0.0448 -0.0211
  726MPD2    H310736   3.621   1.792  11.074 -1.0198  0.1641  1.5666
  726MPD2     N10737   3.243   1.577  10.934 -0.6897 -0.0057 -0.0051
  726MPD2    H510738   3.226   1.558  11.032 -0.9004 -0.2962 -0.0991
  726MPD2    N110739   3.505   1.877  10.645 -0.0363 -0.1391 -0.0769
  726MPD2    H710740   3.437   1.862  10.572  0.7027 -1.2314 -0.5402
  727TMC3    C110741   3.588   2.020  10.482 -0.7025 -0.5402 -0.9484
  727TMC3    C210742   3.690   2.094  10.431 -0.1355 -0.1073  1.2118
  727TMC3    C310743   3.663   2.181  10.337  0.7894 -0.0782  0.6469
  727TMC3    C410744   3.460   2.058  10.452  0.0803  0.1471 -1.0453
  727TMC3    C510745   3.430   2.157  10.358 -0.2274 -0.1552 -0.2348
  727TMC3    C610746   3.536   2.214  10.294  0.6750 -0.4761 -0.1655
  727TMC3     C10747   3.611   1.944  10.603 -0.2966 -0.0992  0.0068
  727TMC3     O10748   3.723   1.923  10.645  0.2941 -0.0992  0.0087
  727TMC3     H10749   3.793   2.082  10.461  0.6514  2.2166 -0.5925
  727TMC3    H110750   3.371   2.011  10.492  0.2635  0.0883 -0.7101
  727TMC3    H210751   3.529   2.276  10.206  1.0106  0.5377  0.5208
  727TMC3    C710752   3.296   2.162  10.313 -0.3290  0.6200 -0.4106
  727TMC3    C810753   3.775   2.268  10.300 -0.8442 -0.1025 -0.3520
  727TMC3    O110754   3.231   2.062  10.337 -0.4615 -0.4573 -0.4761
  727TMC3    O210755   3.888   2.222  10.306 -0.0327  0.0833  0.2545
  728TMC3    C110756   3.113   0.078  14.833 -0.3946 -0.0103 -0.9116
  728TMC3    C210757   3.228   0.054  14.763  0.2336  0.0552 -0.2646
  728TMC3    C310758   3.221   0.066  14.628 -0.5244  0.2134  0.1524
  728TMC3    C410759   3.003   0.120  14.761 -0.4409  0.4235 -0.2609
  728TMC3    C510760   3.002   0.121  14.627  0.0749  0.0123  0.2381
  728TMC3    C610761   3.117   0.105  14.560  0.2906  0.1272 -1.0169
  728TMC3     C10762   3.118   0.064  14.974  0.3692  0.4603  0.8813
  728TMC3     O10763   3.229   0.065  15.030 -0.1174 -0.0506  0.3102
  728TMC3     H10764   3.315   0.008  14.808 -0.5826  1.5237  2.7562
  728TMC3    H110765   2.910   0.149  14.807 -0.9246 -0.5425 -0.6072
  728TMC3    H210766   3.117   0.117  14.452  1.9755  0.9923 -0.9119
  728TMC3    C710767   2.883   0.177  14.556  0.4409 -0.7849 -0.2083
  728TMC3    C810768   3.334   0.010  14.557 -0.3647 -0.0694 -0.0024
  728TMC3    O110769   2.778   0.116  14.573 -0.2755  0.1944  0.1831
  728TMC3    O210770   3.310   4.683  14.452  0.7007  0.5998  0.7742
  729MPD2     C10771   0.249   1.455  16.056  0.1819  0.9223  0.4733
  729MPD2    C110772   0.340   1.364  16.098 -0.1692  0.3473  0.5590
  729MPD2    C210773   0.308   1.288  16.212 -0.1003  0.6672  0.3903
  729MPD2    C310774   0.196   1.315  16.283 -0.0390 -0.2681  0.1769
  729MPD2    C410775   0.106   1.404  16.237  0.1466  0.2250 -0.2939
  729MPD2    C510776   0.126   1.472  16.116  0.0696 -0.3115 -0.6876
  729MPD2     H10777   0.382   1.216  16.246  0.7353  1.4035  0.1496
  729MPD2    H110778   0.015   1.429  16.291 -0.3924 -2.6329  0.1180
  729MPD2    H210779   0.271   1.516  15.968 -0.1336 -0.0297 -0.2590
  729MPD2    H310780   0.055   1.541  16.073  0.9064  0.7264 -0.4178
  729MPD2     N10781   0.170   1.256  16.411 -0.3132  0.1294 -0.1258
  729MPD2    H510782   0.100   1.300  16.470 -0.3567 -2.1635  1.5633
  729MPD2    N110783   0.465   1.368  16.025 -0.3567  0.0884  0.3295
  729MPD2    H710784   0.471   1.422  15.939 -0.4689  0.1865  0.3845
  730TMC3    C110785   0.200   1.140  16.609 -0.0577 -0.1329 -0.4112
  730TMC3    C210786   0.249   1.024  16.658 -0.2053  0.8721 -0.0339
  730TMC3    C310787   0.301   1.024  16.785 -1.0494  0.5177  0.5859
  730TMC3    C410788   0.206   1.252  16.686 -0.1269  0.4811 -0.4053
  730TMC3    C510789   0.263   1.253  16.809  0.4643  1.1670  0.0473
  730TMC3    C610790   0.319   1.139  16.859  0.1786 -0.5455  0.6028
  730TMC3     C10791   0.244   1.162  16.477  0.0366 -0.6161 -0.1833
  730TMC3     O10792   0.326   1.085  16.440 -0.0482  0.1902  0.1160
  730TMC3     H10793   0.232   0.932  16.604 -0.9921 -0.0027  1.7135
  730TMC3    H110794   0.166   1.344  16.645 -1.0908 -0.3812 -1.4403
  730TMC3    H210795   0.377   1.143  16.951  0.0431 -2.1018  0.7667
  730TMC3    C710796   0.329   1.384  16.830  0.2279 -0.5874 -0.1151
  730TMC3    C810797   0.390   0.919  16.804  0.4400  0.8123  0.2163
  730TMC3    O110798   0.338   1.452  16.729 -0.1623  0.2427 -0.5146
  730TMC3    O210799   0.361   0.804  16.767  0.2773 -0.1042  0.1287
  731MPD2     C10800   0.178   3.943  12.055  0.3457 -0.6243  0.9581
  731MPD2    C110801   0.299   3.890  12.108  0.3727 -0.4069 -0.4751
  731MPD2    C210802   0.314   3.861  12.244 -0.2334  0.7279  0.8158
  731MPD2    C310803   0.204   3.871  12.329 -0.3988  0.6970 -0.3531
  731MPD2    C410804   0.088   3.910  12.271 -0.3708 -0.2225  0.9717
  731MPD2    C510805   0.078   3.952  12.143  0.0020 -0.0156 -0.3478
  731MPD2     H10806   0.409   3.824  12.282 -0.5821  3.1276  3.9581
  731MPD2    H110807   4.723   3.913  12.324 -0.3967 -0.8585  0.9581
  731MPD2    H210808   0.170   3.981  11.954 -0.0277 -1.2699  0.7392
  731MPD2    H310809   4.708   3.972  12.101  0.6079  0.0326 -1.7302
  731MPD2     N10810   0.219   3.832  12.461  0.3124  0.0198 -0.0978
  731MPD2    H510811   0.306   3.790  12.491  1.0863  0.5126 -1.6921
  731MPD2    N110812   0.405   3.879  12.011 -0.6145 -0.3087  0.3300
  731MPD2    H710813   0.383   3.917  11.920 -0.0534  1.0368  0.7425
  732TMC3    C110814   0.623   3.835  11.919 -0.1142  0.3999  0.2032
  732TMC3    C210815   0.563   3.826  11.796 -0.3185 -0.0913 -0.4738
  732TMC3    C310816   0.641   3.858  11.684  0.2931  0.4313 -1.2528
  732TMC3    C410817   0.757   3.862  11.940  0.0724  0.7457 -0.4984
  732TMC3    C510818   0.823   3.900  11.824 -0.2948 -0.0640 -0.6166
  732TMC3    C610819   0.774   3.895  11.694 -0.3395 -0.5575 -0.5455
  732TMC3     C10820   0.532   3.829  12.032 -0.4234  0.1192  0.6196
  732TMC3     O10821   0.587   3.783  12.135  0.1619 -0.1185 -0.2549
  732TMC3     H10822   0.463   3.787  11.787  0.4072 -1.9536 -0.5245
  732TMC3    H110823   0.788   3.880  12.043 -0.9095 -0.2009 -0.0324
  732TMC3    H210824   0.823   3.931  11.605 -2.2458 -0.3472 -1.5175
  732TMC3    C710825   0.947   3.975  11.844 -1.2684 -0.1838 -0.2250
  732TMC3    C810826   0.567   3.919  11.568 -0.2396 -0.0895  0.0299
  732TMC3    O110827   0.999   4.025  11.745  0.4762  0.3633 -0.2687
  732TMC3    O210828   0.630   4.009  11.510  0.0963 -0.2644  0.1544
  733TMC3    C110829   0.958   2.545  13.175  0.0423 -0.3260  0.1638
  733TMC3    C210830   1.069   2.508  13.249  0.4289  0.2961  0.7779
  733TMC3    C310831   1.188   2.571  13.226  0.3551 -0.6121  0.1316
  733TMC3    C410832   0.962   2.647  13.084 -0.1442 -0.1870 -0.4465
  733TMC3    C510833   1.086   2.707  13.069  0.1841  0.1897 -0.0261
  733TMC3    C610834   1.202   2.677  13.141 -0.2909  0.7308 -0.3654
  733TMC3     C10835   0.837   2.457  13.179  0.1484  0.4336  0.8770
  733TMC3     O10836   0.745   2.491  13.108  0.0663  0.5743 -0.3882
  733TMC3     H10837   1.062   2.452  13.342  2.7984 -0.1509  0.6836
  733TMC3    H110838   0.880   2.668  13.016  1.3881  0.6368 -2.0150
  733TMC3    H210839   1.286   2.744  13.158  1.0231  0.1178 -4.5720
  733TMC3    C710840   1.098   2.799  12.956  0.2171  0.3959 -0.2928
  733TMC3    C810841   1.310   2.544  13.302 -0.7505 -1.0075 -0.4773
  733TMC3    O110842   0.996   2.855  12.916  0.3510  0.2977 -0.4796
  733TMC3    O210843   1.303   2.487  13.413 -0.1790  0.9651  0.1717
  734MPD2     C10844   3.306   0.348  12.258  0.2353 -0.0741 -0.0146
  734MPD2    C110845   3.202   0.318  12.172 -0.1275  0.6266 -0.2544
  734MPD2    C210846   3.177   0.403  12.066  0.0615 -0.6049 -0.1295
  734MPD2    C310847   3.257   0.515  12.043 -0.5516 -0.2252  0.3761
  734MPD2    C410848   3.370   0.528  12.127  0.0010  0.4875 -0.0978
  734MPD2    C510849   3.393   0.447  12.236 -0.4462  0.8697 -0.8420
  734MPD2     H10850   3.094   0.391  11.997  0.6719  1.4746 -1.2568
  734MPD2    H110851   3.439   0.610  12.114  2.2293 -1.1112  1.6812
  734MPD2    H210852   3.334   0.288  12.345  0.0697 -3.0187 -1.9863
  734MPD2    H310853   3.478   0.465  12.300 -0.8594 -1.1969  0.3064
  734MPD2     N10854   3.241   0.591  11.926 -0.0971 -0.6918 -0.1449
  734MPD2    H510855   3.155   0.571  11.876 -0.1249 -0.5534 -0.1529
  734MPD2    N110856   3.128   0.199  12.187 -0.5978  0.0375 -0.3533
  734MPD2    H710857   3.147   0.155  12.276 -2.1836  3.6965  1.8137
  735TMC3    C110858   2.994   0.012  12.122 -0.5116 -0.5308 -0.0947
  735TMC3    C210859   2.892   4.709  12.033  0.4469 -0.1288 -0.1226
  735TMC3    C310860   2.897   4.593  11.977 -0.2682  0.2175  0.4520
  735TMC3    C410861   3.098   4.649  12.146 -1.0617 -0.4344  0.1893
  735TMC3    C510862   3.086   4.525  12.088 -0.3092 -0.3972 -0.4117
  735TMC3    C610863   2.981   4.490  11.997 -0.0221  0.2293 -0.2503
  735TMC3     C10864   3.043   0.146  12.096  0.7651 -0.2133 -0.1095
  735TMC3     O10865   3.002   0.195  11.995 -0.4220  0.2496 -0.5728
  735TMC3     H10866   2.807   0.045  12.012  1.9039  1.5247 -0.9281
  735TMC3    H110867   3.190   4.676  12.197 -0.8163  0.5532 -0.7608
  735TMC3    H210868   2.978   4.397  11.942  0.5912 -0.5917  1.1090
  735TMC3    C710869   3.202   4.438  12.097  0.4112  0.1784  0.6717
  735TMC3    C810870   2.868   4.612  11.836 -0.0955  0.2709 -0.3567
  735TMC3    O110871   3.310   4.489  12.131 -0.1449  0.2110 -0.4282
  735TMC3    O210872   2.850   4.519  11.761 -0.0723 -0.3865 -0.3046
  736MPD2     C10873   3.211   4.073  12.025 -0.3701  0.4376  0.0097
  736MPD2    C110874   3.269   4.199  12.038  0.7974  0.5841  0.3611
  736MPD2    C210875   3.406   4.217  12.024 -0.2556  0.1413 -0.4427
  736MPD2    C310876   3.487   4.110  11.993  0.5916  0.5667 -0.2472
  736MPD2    C410877   3.433   3.986  11.997 -0.1862  0.2897  0.2037
  736MPD2    C510878   3.296   3.969  12.012 -0.3293  0.3239 -0.2725
  736MPD2     H10879   3.452   4.312  12.047 -1.1781  0.2116  1.0529
  736MPD2    H110880   3.486   3.892  11.995 -2.2210 -0.9293  3.5208
  736MPD2    H210881   3.105   4.051  12.026 -0.0843 -0.8791  1.5739
  736MPD2    H310882   3.258   3.869  11.991 -2.1401  1.2630 -1.3663
  736MPD2     N10883   3.625   4.115  11.960 -0.8343  0.8376  0.1500
  736MPD2    H510884   3.690   4.038  11.950  0.1089  1.3538  2.2514
  736MPD2    N110885   3.179   4.306  12.056  0.3549 -0.1757 -0.2224
  736MPD2    H710886   3.079   4.289  12.069  0.6189  1.6060  4.0318
  737TMC3    C110887   3.802   4.233  11.858  0.7272 -0.0162  0.4879
  737TMC3    C210888   3.845   4.353  11.819 -0.3193 -0.0052 -0.2974
  737TMC3    C310889   3.905   4.361  11.691 -1.0237  0.0330 -0.4200
  737TMC3    C410890   3.820   4.117  11.776 -0.0494 -0.9826  0.2512
  737TMC3    C510891   3.877   4.136  11.648  0.1809 -0.1863 -1.0298
  737TMC3    C610892   3.916   4.254  11.601  0.9536 -0.4180 -0.4626
  737TMC3     C10893   3.696   4.233  11.948 -0.1581  0.0908 -0.4175
  737TMC3     O10894   3.661   4.347  11.977  0.0087 -0.1086 -0.4752
  737TMC3     H10895   3.836   4.448  11.870  0.1185 -0.7198  1.1135
  737TMC3    H110896   3.781   4.020  11.805  0.5670 -1.1243  0.6008
  737TMC3    H210897   3.952   4.268  11.500  2.3916 -0.3526  0.0548
  737TMC3    C710898   3.921   4.018  11.578  0.0879 -0.0069 -0.0405
  737TMC3    C810899   3.953   4.495  11.655  0.5291 -0.0161 -0.4182
  737TMC3    O110900   3.875   3.908  11.614 -0.6023  0.1861  0.1525
  737TMC3    O210901   3.950   4.587  11.738 -0.4898 -0.2179  0.0216
  738MPD2     C10902   3.876   3.540  15.201 -0.3104  0.3557  0.2436
  738MPD2    C110903   3.931   3.487  15.089 -0.2366  0.3022  0.5575
  738MPD2    C210904   4.024   3.560  15.012  0.2522  0.2032  0.9747
  738MPD2    C310905   4.085   3.673  15.058  0.0893  0.0310  0.5719
  738MPD2    C410906   4.041   3.717  15.181 -0.3083  0.5432  0.0160
  738MPD2    C510907   3.936   3.652  15.249 -0.4994 -0.3057 -0.1603
  738MPD2     H10908   4.069   3.523  14.921  0.4011  0.3254  0.9978
  738MPD2    H110909   4.071   3.809  15.230 -0.7282  1.3010 -1.1363
  738MPD2    H210910   3.792   3.499  15.255 -0.7287 -0.3664 -0.9461
  738MPD2    H310911   3.903   3.702  15.340 -0.3210  2.3749 -1.5694
  738MPD2     N10912   4.190   3.724  14.975 -0.2230  0.0738 -0.5173
  738MPD2    H510913   4.214   3.668  14.895  1.2285 -1.5075  1.0248
  738MPD2    N110914   3.895   3.359  15.045  0.0427 -0.1351 -0.4619
  738MPD2    H710915   3.919   3.321  14.954  0.7550 -2.2644  0.6037
  739TMC3    C110916   4.408   3.808  14.962 -0.2439 -0.0593  0.2403
  739TMC3    C210917   4.419   3.782  14.829  0.0355 -0.5228  0.1929
  739TMC3    C310918   4.545   3.774  14.777 -0.3163  0.2053 -0.4656
  739TMC3    C410919   4.513   3.826  15.046 -0.2302  0.5369  0.4475
  739TMC3    C510920   4.639   3.817  14.987  0.3443  0.1824 -0.7008
  739TMC3    C610921   4.659   3.794  14.854 -0.0474 -0.5909  0.4129
  739TMC3     C10922   4.271   3.831  15.010  0.0338  0.3829  0.3172
  739TMC3     O10923   4.248   3.914  15.102  0.5197 -0.3283 -0.4821
  739TMC3     H10924   4.332   3.782  14.764 -0.2984  1.2109  0.6469
  739TMC3    H110925   4.493   3.857  15.148  0.5345  1.6987  0.2492
  739TMC3    H210926   0.028   3.761  14.820 -0.7480 -1.9739 -0.2444
  739TMC3    C710927   0.022   3.822  15.077 -0.3232  0.1937  0.2066
  739TMC3    C810928   4.561   3.772  14.634 -0.4386  0.4784 -0.2135
  739TMC3    O110929   0.136   3.851  15.039 -0.0764 -0.1753  0.6269
  739TMC3    O210930   4.465   3.733  14.571  0.0326  0.1107  0.0803
  740TMC3    C110931   0.320   0.183  13.959  0.0411  0.7416  0.6369
  740TMC3    C210932   0.374   0.080  14.032  0.6415 -0.4954 -0.1616
  740TMC3    C310933   0.472   0.013  13.963  0.3227 -0.0032  0.4505
  740TMC3    C410934   0.349   0.200  13.825 -0.5044  0.1897 -0.3323
  740TMC3    C510935   0.448   0.119  13.765  0.0323  0.5773 -0.8507
  740TMC3    C610936   0.512   0.025  13.836 -0.2553 -0.5640 -0.2807
  740TMC3     C10937   0.222   0.276  14.027 -0.2998 -0.7605  0.1710
  740TMC3     O10938   0.222   0.395  13.990  0.1381 -0.0932  0.1959
  740TMC3     H10939   0.361   0.074  14.139 -2.7218 -2.8277 -0.6898
  740TMC3    H110940   0.304   0.276  13.762  0.4692  0.8164 -0.2692
  740TMC3    H210941   0.586   4.684  13.800 -1.3293 -1.7343 -0.2389
  740TMC3    C710942   0.431   0.065  13.627 -0.1341  0.7514 -0.0743
  740TMC3    C810943   0.531   4.642  14.041 -0.3952 -0.4959 -0.0205
  740TMC3    O110944   0.447   4.671  13.625  0.0654 -0.2215 -0.5467
  740TMC3    O210945   0.651   4.639  14.035  0.2101  0.1737 -0.0899
  741TMC3    C110946   4.548   4.287  14.016  0.0084 -0.4780  0.2823
  741TMC3    C210947   4.441   4.206  14.007 -0.1132  0.1978 -0.0245
  741TMC3    C310948   4.413   4.128  14.115 -0.2254 -0.6950 -0.4681
  741TMC3    C410949   4.634   4.286  14.129  0.9740 -0.6798 -0.5789
  741TMC3    C510950   4.599   4.214  14.236  0.1158 -0.7099 -0.1884
  741TMC3    C610951   4.495   4.129  14.229 -0.4931  0.4242 -1.2275
  741TMC3     C10952   4.559   4.407  13.939  0.2384 -0.8209  0.1343
  741TMC3     O10953   4.633   4.495  13.977 -0.0775 -0.1750  0.0105
  741TMC3     H10954   4.388   4.190  13.914  1.0090  1.5759 -0.8956
  741TMC3    H110955   0.000   4.338  14.127  0.8039 -0.3690 -0.6989
  741TMC3    H210956   4.479   4.046  14.297 -1.7162 -0.5477 -2.6995
  741TMC3    C710957   4.687   4.210  14.352 -0.8966 -0.0654 -0.6534
  741TMC3    C810958   4.283   4.056  14.104  0.3451  0.8942  0.3923
  741TMC3    O110959   0.063   4.277  14.336  0.0805  0.2599  0.1696
  741TMC3    O210960   4.217   4.085  14.005 -0.4854  0.1564  0.2152
  742TMC3    C110961   4.257   2.022  15.479  0.3311  1.0706  0.1625
  742TMC3    C210962   4.186   2.008  15.366 -0.4521  0.7888 -0.1971
  742TMC3    C310963   4.229   1.939  15.260  0.4440  0.8917  0.5246
  742TMC3    C410964   4.388   1.998  15.480  0.2367 -0.2171  0.2670
  742TMC3    C510965   4.439   1.948  15.361 -0.0195 -0.5509 -0.1650
  742TMC3    C610966   4.355   1.906  15.258  0.3022 -0.3856 -0.0218
  742TMC3     C10967   4.199   2.066  15.606 -0.0870 -0.4059 -0.4028
  742TMC3     O10968   4.083   2.026  15.631 -0.2252  0.0825 -0.4924
  742TMC3     H10969   4.079   2.016  15.379 -0.5255 -0.2513 -0.1571
  742TMC3    H110970   4.454   2.010  15.566  0.4348 -0.2665  0.1226
  742TMC3    H210971   4.396   1.862  15.168 -2.0835 -0.5914 -0.9996
  742TMC3    C710972   4.579   1.909  15.346  0.1057 -0.4432  0.4914
  742TMC3    C810973   4.171   1.951  15.130 -0.1642 -0.0834 -0.6950
  742TMC3    O110974   4.614   1.835  15.252 -0.2987  0.0453 -0.3681
  742TMC3    O210975   4.201   1.879  15.037 -0.3064 -0.4868 -0.3252
  743MPD2     C10976   4.287   4.339   1.384 -1.0096  0.2424 -0.8775
  743MPD2    C110977   4.208   4.392   1.287  0.3377  0.2985  0.2091
  743MPD2    C210978   4.275   4.450   1.180 -0.4064  0.1200  0.3646
  743MPD2    C310979   4.407   4.434   1.158 -0.4740  0.5485  0.6216
  743MPD2    C410980   4.483   4.378   1.252 -0.5438  0.1435  0.0651
  743MPD2    C510981   4.424   4.325   1.364 -0.1380 -0.5486  0.0451
  743MPD2     H10982   4.225   4.502   1.100  0.0592  0.4247  0.2687
  743MPD2    H110983   4.587   4.363   1.227 -0.7341  0.3609 -0.8523
  743MPD2    H210984   4.248   4.302   1.478  1.6457 -2.6483 -0.8963
  743MPD2    H310985   4.477   4.268   1.440  0.5044  0.0388  0.0340
  743MPD2     N10986   4.457   4.495   1.034  0.6772 -0.3191  0.2147
  743MPD2    H510987   4.381   4.532   0.978  1.9494  2.1171  0.1238
  743MPD2    N110988   4.067   4.385   1.286  0.0208  0.2311  0.0604
  743MPD2    H710989   4.020   4.346   1.368 -1.2508  0.8821 -0.3606
  744TMC3    C110990   3.848   4.373   1.219  0.1196  0.5230 -0.1747
  744TMC3    C210991   3.804   4.377   1.350 -0.1693 -0.8336 -0.1370
  744TMC3    C310992   3.697   4.300   1.381 -0.5991 -0.0725  0.3109
  744TMC3    C410993   3.791   4.284   1.130  0.1313 -0.4290  0.4581
  744TMC3    C510994   3.693   4.206   1.169 -0.5312 -0.5918  0.3431
  744TMC3    C610995   3.634   4.221   1.292 -0.1380  0.0741 -0.0861
  744TMC3     C10996   3.985   4.406   1.183 -0.2731 -0.0448 -0.1566
  744TMC3     O10997   4.008   4.428   1.063  0.5787 -0.3449 -0.4856
  744TMC3     H10998   3.839   4.452   1.420 -3.0375 -1.7414  2.3149
  744TMC3    H110999   3.820   4.274   1.026  1.9581  4.1992  0.5217
  744TMC3    H211000   3.539   4.174   1.317 -0.0752  0.4154  0.8131
  744TMC3    C711001   3.614   4.133   1.069  0.1521  0.1833 -0.2692
  744TMC3    C811002   3.635   4.333   1.514 -1.0554  0.2909 -0.4279
  744TMC3    O111003   3.497   4.108   1.096 -0.1143 -0.2049  0.0015
  744TMC3    O211004   3.514   4.315   1.516  0.0031  0.1640  0.1678
  745TMC3    C111005   0.010   2.149  14.233 -0.3161  0.4288 -0.2070
  745TMC3    C211006   4.683   2.163  14.361  0.2854  0.1298 -0.3825
  745TMC3    C311007   4.547   2.180  14.365  0.4221 -0.2887 -0.7535
  745TMC3    C411008   4.663   2.151  14.123 -0.4487 -0.3126  0.1324
  745TMC3    C511009   4.529   2.159  14.134  0.9991 -0.7990 -0.4081
  745TMC3    C611010   4.470   2.176  14.254 -0.0774  0.5760  0.0013
  745TMC3     C11011   0.148   2.182  14.220  0.3803  0.0112 -0.1319
  745TMC3     O11012   0.204   2.206  14.323  0.0034 -0.2151  0.3508
  745TMC3     H11013   0.020   2.157  14.447 -1.4157 -3.8020  0.6411
  745TMC3    H111014   4.703   2.113  14.030 -0.9534  1.4347 -0.7860
  745TMC3    H211015   4.363   2.187  14.258 -0.2835 -2.0824  1.6327
  745TMC3    C711016   4.436   2.120  14.026 -0.4325  0.6726 -0.0719
  745TMC3    C811017   4.509   2.293  14.438 -0.2756 -1.0345  0.1464
  745TMC3    O111018   4.322   2.083  14.052 -0.2593 -0.2164 -0.6911
  745TMC3    O211019   4.387   2.319  14.447  0.0928 -0.3063  0.1925
  746TMC3    C111020   2.092   4.259  10.838 -0.2909  0.4786 -0.2877
  746TMC3    C211021   2.220   4.250  10.783 -0.2884 -0.7189 -0.2354
  746TMC3    C311022   2.265   4.125  10.743  0.1312 -0.4409 -0.2757
  746TMC3    C411023   2.010   4.153  10.850 -0.2700 -0.8697 -0.0236
  746TMC3    C511024   2.053   4.031  10.799  0.4078  1.1352  0.1838
  746TMC3    C611025   2.178   4.021  10.745  0.4061  0.0160  0.1704
  746TMC3     C11026   2.031   4.387  10.843 -0.4161  0.4250  0.2822
  746TMC3     O11027   1.963   4.401  10.944  0.0672 -0.1488 -0.3328
  746TMC3     H11028   2.291   4.331  10.785 -0.3016 -0.6873 -1.1839
  746TMC3    H111029   1.916   4.157  10.903  0.5632  2.9025  1.1996
  746TMC3    H211030   2.199   3.928  10.693 -0.3489  0.2774 -0.6073
  746TMC3    C711031   1.951   3.924  10.790 -0.1812  0.0040 -0.6151
  746TMC3    C811032   2.374   4.108  10.650  0.0116 -0.4032 -0.1687
  746TMC3    O111033   1.992   3.829  10.716 -0.2166 -0.1917  0.3325
  746TMC3    O211034   2.420   3.995  10.632 -0.2185 -0.1886 -0.2082
  747TMC3    C111035   4.693   3.922  10.851 -0.1292  0.0261 -0.1091
  747TMC3    C211036   4.611   3.848  10.928  0.7925  0.2551  0.0051
  747TMC3    C311037   4.528   3.910  11.019 -0.2490 -0.3831 -0.4204
  747TMC3    C411038   4.712   4.054  10.881 -0.0852 -0.5962 -0.2904
  747TMC3    C511039   4.640   4.111  10.984 -0.2470 -0.3638 -1.2942
  747TMC3    C611040   4.543   4.043  11.049 -0.0295  0.6819 -0.1459
  747TMC3     C11041   0.031   3.874  10.738 -0.1410 -0.4429 -0.0062
  747TMC3     O11042   0.106   3.956  10.682 -0.3900 -0.1484  0.3415
  747TMC3     H11043   4.600   3.741  10.916  1.3748  0.0762  1.0446
  747TMC3    H111044   0.057   4.112  10.827 -1.7305  1.4321 -0.3295
  747TMC3    H211045   4.494   4.096  11.130  0.8977 -0.4103  1.1147
  747TMC3    C711046   4.691   4.237  11.041 -0.9451  0.1254  0.4167
  747TMC3    C811047   4.422   3.829  11.083  0.1832  0.3661  0.3134
  747TMC3    O111048   4.610   4.317  11.085 -0.0688 -0.1096  0.2622
  747TMC3    O211049   4.415   3.712  11.052  0.0601  0.0636 -0.1481
  748MPD2     C11050   1.171   0.595   1.081  0.0541  0.1293 -0.7992
  748MPD2    C111051   1.278   0.545   1.160  0.2292 -0.1262 -0.2672
  748MPD2    C211052   1.407   0.586   1.122  0.2170 -0.0685  0.0238
  748MPD2    C311053   1.438   0.653   1.008 -0.0701 -0.5616  0.0764
  748MPD2    C411054   1.337   0.703   0.935  0.1127  0.2446 -0.0027
  748MPD2    C511055   1.205   0.678   0.981  0.5536  0.7855  0.1808
  748MPD2     H11056   1.482   0.546   1.189 -0.0328 -0.8415 -0.1608
  748MPD2    H111057   1.349   0.769   0.850 -1.6583  0.1218 -0.3502
  748MPD2    H211058   1.065   0.583   1.100  0.2847 -1.3926 -0.4055
  748MPD2    H311059   1.129   0.738   0.932  0.7749  0.3078 -0.7486
  748MPD2     N11060   1.574   0.662   0.980 -0.3422  0.0849  0.9742
  748MPD2    H511061   1.628   0.611   1.049 -2.9981 -1.4654  1.9111
  748MPD2    N111062   1.248   0.466   1.273  0.2684  0.1119 -0.5025
  748MPD2    H711063   1.151   0.438   1.276 -0.3056  2.4350  1.9834
  749TMC3    C111064   1.772   0.751   0.883 -0.3139 -0.2629 -0.0985
  749TMC3    C211065   1.819   0.738   1.012  0.4082  0.6719 -0.2141
  749TMC3    C311066   1.951   0.759   1.022 -0.3371 -0.6599  0.4933
  749TMC3    C411067   1.843   0.795   0.779 -0.1816  0.0069 -0.9030
  749TMC3    C511068   1.978   0.819   0.805 -0.6508  0.3898 -0.3435
  749TMC3    C611069   2.032   0.799   0.921 -0.0795  1.1246  0.6014
  749TMC3     C11070   1.631   0.727   0.873 -0.4278 -0.6337 -0.4037
  749TMC3     O11071   1.569   0.768   0.777  0.6435 -0.1279  0.3337
  749TMC3     H11072   1.766   0.699   1.098 -0.3476  0.5769 -0.7230
  749TMC3    H111073   1.785   0.844   0.702 -0.2878  0.4138 -0.5662
  749TMC3    H211074   2.134   0.836   0.933  0.7985 -1.5281  1.2573
  749TMC3    C711075   2.070   0.845   0.694  0.1573 -0.0847 -0.2104
  749TMC3    C811076   2.018   0.757   1.154 -0.4752 -0.3698  0.5135
  749TMC3    O111077   2.186   0.870   0.724 -0.4154  0.5090 -0.0302
  749TMC3    O211078   1.961   0.815   1.247 -0.1776  0.5438  0.4533
  750MPD2     C11079   2.408   1.433  11.539  0.6633  0.0499  0.1621
  750MPD2    C111080   2.275   1.406  11.518 -0.0975  0.2324  0.2805
  750MPD2    C211081   2.251   1.294  11.442 -0.5125  0.2253 -0.5345
  750MPD2    C311082   2.342   1.212  11.388 -0.0364 -0.8457  0.2293
  750MPD2    C411083   2.473   1.238  11.421 -0.0772 -0.2974 -0.1976
  750MPD2    C511084   2.502   1.347  11.491 -0.0363 -0.3960 -0.3129
  750MPD2     H11085   2.147   1.266  11.427 -1.2675  2.3359  0.7521
  750MPD2    H111086   2.559   1.192  11.373  0.2764  0.4414 -0.2636
  750MPD2    H211087   2.442   1.516  11.600  0.5384 -1.1602  1.8977
  750MPD2    H311088   2.605   1.381  11.498 -0.8645  2.1151 -0.4436
  750MPD2     N11089   2.310   1.082  11.335  0.4550  0.6040  0.1215
  750MPD2    H511090   2.389   1.018  11.335 -0.8786 -1.0685 -2.2691
  750MPD2    N111091   2.175   1.493  11.571 -0.0080  0.2792 -0.1855
  750MPD2    H711092   2.216   1.570  11.622  1.7521  0.0975 -1.2899
  751TMC3    C111093   2.188   0.902  11.253 -0.2622  0.1096 -0.1061
  751TMC3    C211094   2.066   0.841  11.242  0.3376  0.5382 -0.3518
  751TMC3    C311095   2.058   0.722  11.174 -0.2047 -0.3516  0.3236
  751TMC3    C411096   2.299   0.863  11.180  0.6178 -0.4362  0.7063
  751TMC3    C511097   2.288   0.742  11.112  0.4166 -0.4225  0.1262
  751TMC3    C611098   2.169   0.676  11.108 -0.4362 -0.2099  0.4230
  751TMC3     C11099   2.187   1.038  11.293  0.8410 -0.1993  0.1486
  751TMC3     O11100   2.075   1.094  11.293  0.3576 -0.4107  0.2933
  751TMC3     H11101   1.988   0.881  11.306 -0.6494  1.1125 -1.9158
  751TMC3    H111102   2.387   0.926  11.172 -1.8254  2.5184 -2.7878
  751TMC3    H211103   2.162   0.575  11.071 -1.6842  0.5412 -1.3977
  751TMC3    C711104   2.400   0.696  11.026  1.2615 -0.2327  0.7878
  751TMC3    C811105   1.934   0.658  11.144  0.4521  0.3916  0.2562
  751TMC3    O111106   2.474   0.785  11.001 -0.0118 -0.1852  0.1150
  751TMC3    O211107   1.925   0.620  11.029  0.7142  0.0471  0.4918
  752TMC3    C111108   1.493   0.747  16.157  0.2482  0.8569  0.5589
  752TMC3    C211109   1.414   0.802  16.250  0.2888 -0.2327  0.2625
  752TMC3    C311110   1.427   0.763  16.379  0.3875 -0.4050  0.1303
  752TMC3    C411111   1.580   0.650  16.188 -0.1520 -0.5057  0.4762
  752TMC3    C511112   1.603   0.623  16.317  0.2183 -0.2815  0.3039
  752TMC3    C611113   1.533   0.687  16.415 -0.2187  0.0020  0.5362
  752TMC3     C11114   1.493   0.801  16.027  0.7097 -0.0617  0.6884
  752TMC3     O11115   1.594   0.793  15.957 -0.5710  0.0034  0.3051
  752TMC3     H11116   1.341   0.878  16.224  0.5258 -0.0769  0.0552
  752TMC3    H111117   1.655   0.615  16.117 -0.0131  0.3274  0.2069
  752TMC3    H211118   1.545   0.654  16.518  0.1848  0.0060  0.4874
  752TMC3    C711119   1.733   0.569  16.349  0.1691  0.0033 -0.4066
  752TMC3    C811120   1.317   0.764  16.469  0.1305 -0.2246 -0.9642
  752TMC3    O111121   1.798   0.515  16.261  0.0434 -0.8008  0.3754
  752TMC3    O211122   1.347   0.743  16.587  0.1464  0.2471 -0.0033
  753TMC3    C111123   3.100   2.283  13.264 -0.1441  0.0294 -0.3382
  753TMC3    C211124   3.189   2.253  13.362  0.1063 -0.1943 -0.1604
  753TMC3    C311125   3.229   2.117  13.375  0.1504  0.2328 -0.1792
  753TMC3    C411126   3.040   2.186  13.188  0.0140  0.8063  0.4337
  753TMC3    C511127   3.070   2.054  13.207  0.3551  0.2473 -0.8209
  753TMC3    C611128   3.163   2.015  13.300  0.4265 -1.2600 -0.1940
  753TMC3     C11129   3.058   2.422  13.243  0.1088  0.1431 -0.3208
  753TMC3     O11130   2.938   2.441  13.239  0.4495 -0.1989  0.0432
  753TMC3     H11131   3.240   2.328  13.422 -1.9595  1.5198 -0.5701
  753TMC3    H111132   2.979   2.222  13.106  1.2958  1.5582 -0.1947
  753TMC3    H211133   3.184   1.909  13.313 -0.9319 -1.5073 -0.0171
  753TMC3    C711134   2.964   1.958  13.181 -0.3350 -0.9023 -0.9160
  753TMC3    C811135   3.304   2.073  13.492  0.3399  0.7349  0.8142
  753TMC3    O111136   2.895   1.990  13.084 -0.5194  0.0890  0.4590
  753TMC3    O211137   3.294   1.955  13.521 -0.4031  0.2154  0.4970
  754MPD2     C11138   2.153   1.256  12.940  0.2568 -0.1922  0.3173
  754MPD2    C111139   2.134   1.122  12.967  0.2544 -0.3722  0.0699
  754MPD2    C211140   2.004   1.070  12.994 -0.1657 -0.5555  0.2558
  754MPD2    C311141   1.897   1.158  13.000 -0.0351  0.0513  0.5483
  754MPD2    C411142   1.917   1.292  12.979  0.6055  0.1412 -0.0919
  754MPD2    C511143   2.041   1.338  12.957  0.0992 -0.6002  0.1854
  754MPD2     H11144   1.982   0.964  13.004 -0.2065 -0.7433 -1.8957
  754MPD2    H111145   1.840   1.368  12.982  0.6765  0.2301 -0.5944
  754MPD2    H211146   2.249   1.298  12.912 -0.4839  0.0731 -1.7758
  754MPD2    H311147   2.050   1.445  12.943  0.7784 -0.7419 -0.4386
  754MPD2     N11148   1.763   1.108  13.005 -0.5442  0.4587 -0.0119
  754MPD2    H511149   1.694   1.177  12.977 -0.0465  0.7760 -0.4482
  754MPD2    N111150   2.258   1.046  12.960  0.1431  0.1330  0.3194
  754MPD2    H711151   2.329   1.082  12.897 -0.4757 -1.6437 -1.3940
  755MPD2     C11152   0.850   1.445  13.064  0.2065 -0.4397 -0.4221
  755MPD2    C111153   0.964   1.459  13.142  0.0385  0.6781  0.1266
  755MPD2    C211154   1.065   1.367  13.121  0.1155  0.2838  1.0045
  755MPD2    C311155   1.075   1.288  13.007  0.1959 -0.4762  0.0470
  755MPD2    C411156   0.960   1.289  12.925  0.6335 -0.1422 -0.6570
  755MPD2    C511157   0.849   1.361  12.955  0.0090 -0.1690  0.2549
  755MPD2     H11158   1.141   1.373  13.198 -0.7734 -0.8921  1.9894
  755MPD2    H111159   0.941   1.221  12.842  0.6462  0.2212 -0.9584
  755MPD2    H211160   0.763   1.507  13.085  2.4011  2.9216 -1.2663
  755MPD2    H311161   0.760   1.363  12.893 -1.1166  1.4229  1.9349
  755MPD2     N11162   1.170   1.193  12.987 -0.0433 -0.2536 -0.2909
  755MPD2    H511163   1.171   1.136  12.902  1.7999 -1.1616  0.3403
  755MPD2    N111164   0.971   1.541  13.261 -0.4471 -0.2661  0.4405
  755MPD2    H711165   1.054   1.529  13.318 -0.8066 -0.0347  1.0046
  756MPD2     C11166   2.392   1.818   9.533  0.3650  0.6004 -0.6379
  756MPD2    C111167   2.329   1.696   9.569 -0.6847  0.5130  0.3363
  756MPD2    C211168   2.247   1.629   9.477 -0.1208 -0.8614  0.3493
  756MPD2    C311169   2.226   1.688   9.351 -0.3536  0.1718  0.2793
  756MPD2    C411170   2.288   1.806   9.318  0.2634  0.6372  0.0482
  756MPD2    C511171   2.373   1.868   9.403 -0.2446 -0.7006 -0.3161
  756MPD2     H11172   2.183   1.552   9.518  0.2825 -0.1923  2.2331
  756MPD2    H111173   2.270   1.859   9.225 -0.3579  1.1446  0.4555
  756MPD2    H211174   2.438   1.880   9.608  0.5806 -0.2975 -0.0218
  756MPD2    H311175   2.420   1.963   9.380 -0.2010 -0.7361 -0.3748
  756MPD2     N11176   2.124   1.629   9.275  0.1184 -0.1697  0.3091
  756MPD2    H511177   2.077   1.545   9.307  0.1887 -0.4226 -0.2415
  756MPD2    N111178   2.323   1.664   9.705 -0.3657  0.8203 -0.4716
  756MPD2    H711179   2.266   1.582   9.724  1.5259 -0.6208 -1.0431
  757MPD2     C11180   1.837   0.781   9.080 -0.2868  0.4127  0.0820
  757MPD2    C111181   1.857   0.834   9.202  0.4108 -0.3633  0.4385
  757MPD2    C211182   1.829   0.969   9.226 -0.0904  0.0640  0.8042
  757MPD2    C311183   1.813   1.053   9.120  0.9780  0.3938 -0.0571
  757MPD2    C411184   1.792   0.997   8.992 -0.5195  0.5007  1.0231
  757MPD2    C511185   1.810   0.865   8.977 -0.6554  0.6479  0.4560
  757MPD2     H11186   1.824   1.009   9.327 -1.4956 -0.8086  1.0798
  757MPD2    H111187   1.769   1.053   8.902  0.7769 -2.8908 -1.4366
  757MPD2    H211188   1.849   0.676   9.059  1.8825  0.4603  1.0571
  757MPD2    H311189   1.795   0.819   8.880  0.9357 -0.6076  0.8041
  757MPD2     N11190   1.807   1.199   9.151 -0.2875 -0.3999  0.1822
  757MPD2    H511191   1.839   1.227   9.243 -0.5259 -0.3750  0.2569
  757MPD2    N111192   1.880   0.738   9.310  0.1046  0.5212  0.3141
  757MPD2    H711193   1.890   0.645   9.270 -0.7688  0.3394  0.5253
  758MPD2     C11194   2.116   0.386  15.803 -0.5185  0.6387 -0.3955
  758MPD2    C111195   2.185   0.298  15.885  0.0827 -0.4914  0.3249
  758MPD2    C211196   2.112   0.254  16.001 -0.3854 -0.0943  0.3770
  758MPD2    C311197   1.992   0.312  16.037  0.2795 -0.2431 -0.6775
  758MPD2    C411198   1.940   0.416  15.968  0.0607  0.7121 -0.0858
  758MPD2    C511199   2.003   0.451  15.854 -0.4055 -0.7743 -0.5174
  758MPD2     H11200   2.163   0.187  16.069  0.3214  0.8160  0.7450
  758MPD2    H111201   1.848   0.463  16.001  0.4521  2.6655 -1.7855
  758MPD2    H211202   2.153   0.412  15.704  1.4087  0.9212  0.4082
  758MPD2    H311203   1.952   0.526  15.794 -2.6976 -1.0838  1.0507
  758MPD2     N11204   1.921   0.277  16.156  0.0849 -0.7068 -0.0745
  758MPD2    H511205   1.833   0.322  16.177 -0.2117 -2.3100  2.1675
  758MPD2    N111206   2.312   0.265  15.852 -0.2677 -0.9397 -0.4565
  758MPD2    H711207   2.351   0.317  15.774  0.0425 -1.5063 -0.6781
  759MPD2     C11208   1.235   3.526   9.866 -0.2167  0.0365  0.0866
  759MPD2    C111209   1.255   3.399   9.817 -0.4753  0.6323 -0.7108
  759MPD2    C211210   1.287   3.381   9.682  0.1034  0.0953 -0.0798
  759MPD2    C311211   1.289   3.489   9.594  0.3685 -0.7400 -0.1538
  759MPD2    C411212   1.270   3.620   9.646 -0.5288  0.2155  1.1779
  759MPD2    C511213   1.250   3.631   9.782 -0.4104  0.0998 -0.4026
  759MPD2     H11214   1.309   3.283   9.641 -0.8762 -0.8894  1.7656
  759MPD2    H111215   1.268   3.709   9.584 -0.6116  0.3404  1.3630
  759MPD2    H211216   1.213   3.543   9.971 -2.3472  3.3238 -0.8958
  759MPD2    H311217   1.227   3.725   9.830 -0.3564 -0.0196 -0.1430
  759MPD2     N11218   1.308   3.463   9.454 -0.2502 -0.4249  0.9131
  759MPD2    H511219   1.312   3.365   9.429  1.3403  0.7682 -3.5224
  759MPD2    N111220   1.248   3.286   9.900 -0.0290  0.2628  0.0971
  759MPD2    H711221   1.258   3.203   9.842 -1.6196  0.6331 -0.7078
  760MPD2     C11222   0.479   0.909  11.869  0.0317  0.4185 -0.2808
  760MPD2    C111223   0.619   0.913  11.852  0.1349 -1.0128  0.2207
  760MPD2    C211224   0.706   0.848  11.934  0.1545 -0.1658  0.3251
  760MPD2    C311225   0.656   0.781  12.040  0.8080  0.0422 -0.6123
  760MPD2    C411226   0.520   0.768  12.050  0.0422  0.7147 -0.3876
  760MPD2    C511227   0.432   0.831  11.970 -0.7793 -0.2938 -0.2452
  760MPD2     H11228   0.813   0.860  11.920 -0.1051  1.8901  0.1003
  760MPD2    H111229   0.482   0.700  12.126  0.5247  0.8544 -0.0198
  760MPD2    H211230   0.406   0.955  11.804  1.4751 -0.0901 -2.2819
  760MPD2    H311231   0.327   0.821  11.995 -0.7513 -0.5476 -0.2279
  760MPD2     N11232   0.737   0.700  12.128 -0.2448 -0.2389 -0.5940
  760MPD2    H511233   0.695   0.648  12.204 -3.7936  3.2710 -0.1548
  760MPD2    N111234   0.681   0.985  11.752  0.1944  0.2991  0.0342
  760MPD2    H711235   0.781   0.970  11.745  0.1094  0.4435 -1.5455
  761MPD2     C11236   1.473   0.456  11.230 -0.3715 -0.6240  0.6529
  761MPD2    C111237   1.566   0.438  11.134  0.1352  0.5484  0.1241
  761MPD2    C211238   1.691   0.491  11.142 -0.1337  0.6490  0.6766
  761MPD2    C311239   1.725   0.571  11.249  0.2835  0.0949 -0.1391
  761MPD2    C411240   1.635   0.588  11.352 -0.5199  0.6336 -0.3457
  761MPD2    C511241   1.512   0.529  11.339 -0.1540  0.7689  0.6483
  761MPD2     H11242   1.762   0.473  11.063 -0.0753  1.8371  0.4582
  761MPD2    H111243   1.668   0.653  11.432 -1.3265 -0.5734  0.9634
  761MPD2    H211244   1.377   0.407  11.215 -0.0044 -0.8275 -1.0443
  761MPD2    H311245   1.434   0.547  11.413 -2.1057  1.6819 -1.6256
  761MPD2     N11246   1.847   0.639  11.257  0.4432 -0.2180 -0.2198
  761MPD2    H511247   1.866   0.693  11.341 -2.3411  0.6119 -0.0978
  761MPD2    N111248   1.529   0.351  11.022  0.4296 -0.3557 -0.1222
  761MPD2    H711249   1.437   0.308  11.024  0.5910 -0.6033  2.2195
  762MPD2     C11250   2.058   0.440  10.760  0.2217  0.4473  0.5020
  762MPD2    C111251   2.019   0.335  10.674  0.1962 -0.1232 -0.6209
  762MPD2    C211252   2.112   0.300  10.576  0.0819  0.2140 -0.3738
  762MPD2    C311253   2.232   0.365  10.561 -0.2610  0.4755  0.1634
  762MPD2    C411254   2.263   0.470  10.645 -0.3421  0.4959  0.2577
  762MPD2    C511255   2.178   0.510  10.744 -0.2089 -0.2306  0.1062
  762MPD2     H11256   2.094   0.202  10.532  1.1894 -0.5634  0.9151
  762MPD2    H111257   2.360   0.517  10.651 -0.4512  0.9360 -1.6483
  762MPD2    H211258   1.986   0.474  10.833 -1.5915  0.6058 -1.3767
  762MPD2    H311259   2.196   0.599  10.803 -2.1306 -0.6333  1.3058
  762MPD2     N11260   2.322   0.314  10.465 -0.1811 -0.9487 -0.8083
  762MPD2    H511261   2.286   0.240  10.405  0.2126 -2.3263  0.6435
  762MPD2    N111262   1.890   0.282  10.690 -0.0175  0.6168 -0.8491
  762MPD2    H711263   1.838   0.332  10.761  1.1735  0.8239 -0.1276
  763MPD2     C11264   3.805   0.538  16.003  0.6666  0.2074 -0.5952
  763MPD2    C111265   3.908   0.603  15.946 -0.2535 -0.5718  0.2133
  763MPD2    C211266   3.977   0.695  16.027 -0.3461  0.5864 -0.1913
  763MPD2    C311267   3.958   0.706  16.163 -0.4534 -0.0401  0.3429
  763MPD2    C411268   3.856   0.623  16.217  0.0237  0.1411 -0.5837
  763MPD2    C511269   3.778   0.557  16.137 -0.0368  0.0936 -0.6583
  763MPD2     H11270   4.048   0.753  15.969 -1.4998  2.1526 -0.0347
  763MPD2    H111271   3.846   0.619  16.325  1.7856 -0.9812 -0.4621
  763MPD2    H211272   3.737   0.482  15.939  0.1035  0.7953 -0.5061
  763MPD2    H311273   3.719   0.478  16.181 -1.9823  1.5803 -0.6380
  763MPD2     N11274   4.048   0.794  16.239  0.0027  0.0276  0.2157
  763MPD2    H511275   4.117   0.847  16.186 -3.6635  3.3993 -1.0994
  763MPD2    N111276   3.925   0.606  15.803  0.7175 -0.0677  0.0125
  763MPD2    H711277   3.986   0.673  15.758  0.9445 -0.0976  0.2716
  764MPD2     C11278   2.262   1.614  16.812 -0.4577 -0.0944 -0.4304
  764MPD2    C111279   2.154   1.528  16.830  0.3319 -0.1981  0.3490
  764MPD2    C211280   2.161   1.429  16.927 -0.2065 -0.8558 -0.3502
  764MPD2    C311281   2.269   1.422  17.016  0.0715  0.4234 -0.3102
  764MPD2    C411282   2.379   1.492  16.980 -0.9737 -0.1799  0.3221
  764MPD2    C511283   2.377   1.592  16.888  0.1829  0.3567  0.1584
  764MPD2     H11284   2.067   1.378  16.945 -1.1701  0.8642 -0.5204
  764MPD2    H111285   2.460   1.495  17.051  0.3147  0.5535 -1.1603
  764MPD2    H211286   2.262   1.701  16.746  1.3735 -0.4282 -0.8581
  764MPD2    H311287   2.457   1.665  16.880 -0.4651  1.0761  0.2757
  764MPD2     N11288   2.258   1.331  17.123 -0.4613  0.5890 -0.3222
  764MPD2    H511289   2.178   1.271  17.135 -0.2651  0.9099  2.5701
  764MPD2    N111290   2.028   1.558  16.767 -0.4854 -0.3981 -0.6683
  764MPD2    H711291   1.960   1.485  16.783 -1.5922  1.1510  1.6814
  765MPD2     C11292   1.916   4.694  15.950 -0.7252 -0.3673 -0.6077
  765MPD2    C111293   1.944   0.008  15.821  0.1970  0.5286  0.5553
  765MPD2    C211294   2.054   4.688  15.756  0.4977 -0.3381  0.3861
  765MPD2    C311295   2.110   4.566  15.799  0.4579  0.2014  0.0141
  765MPD2    C411296   2.083   4.519  15.918 -0.4380  0.4515  0.9056
  765MPD2    C511297   1.991   4.583  15.997 -0.2150  0.0697  0.1057
  765MPD2     H11298   2.087   0.004  15.664  0.9989 -0.2364  0.6144
  765MPD2    H111299   2.127   4.432  15.965 -0.0343 -1.0907 -2.3145
  765MPD2    H211300   1.860   0.027  16.020  2.2075  0.4600  1.0251
  765MPD2    H311301   1.965   4.556  16.099  0.9678  0.2353  0.4469
  765MPD2     N11302   2.204   4.511  15.714  0.4310  0.4213 -0.3041
  765MPD2    H511303   2.245   4.571  15.643 -3.5675  1.0439 -2.0877
  765MPD2    N111304   1.860   0.105  15.766  0.8343 -0.6629 -0.0423
  765MPD2    H711305   1.783   0.135  15.825  1.0861  0.5554 -0.3403
  766MPD2     C11306   1.151   0.242  15.279  0.2363  0.0392 -0.5820
  766MPD2    C111307   1.270   0.181  15.297  0.4831 -0.0557 -0.6959
  766MPD2    C211308   1.309   0.101  15.184  0.7165  0.6347 -0.2190
  766MPD2    C311309   1.231   0.070  15.076 -0.0394  0.2211 -0.3196
  766MPD2    C411310   1.104   0.123  15.080  0.3759 -0.1474 -0.3405
  766MPD2    C511311   1.064   0.222  15.178 -0.4130  0.5050  0.1548
  766MPD2     H11312   1.412   0.066  15.180 -0.0779 -1.6134 -0.9003
  766MPD2    H111313   1.025   0.106  15.008  1.2062  0.2922 -1.3623
  766MPD2    H211314   1.130   0.300  15.369  1.9235 -0.5768  0.2077
  766MPD2    H311315   0.968   0.270  15.172  0.6363  2.0670 -4.1825
  766MPD2     N11316   1.280   0.020  14.952  0.0223  0.0829  0.1063
  766MPD2    H511317   1.219   0.036  14.872 -0.8769 -1.2354  0.5177
  766MPD2    N111318   1.355   0.217  15.403 -0.7345 -0.2815 -1.0253
  766MPD2    H711319   1.340   0.311  15.438 -0.7927 -0.3451 -0.8797
  767MPD2     C11320   0.933   0.317  14.824 -0.0288 -0.2751  0.3795
  767MPD2    C111321   1.055   0.318  14.765  0.0647 -0.5645 -0.2300
  767MPD2    C211322   1.089   0.244  14.650 -0.3396  0.3719  0.3578
  767MPD2    C311323   0.985   0.179  14.582  0.0225 -0.4002 -0.0096
  767MPD2    C411324   0.859   0.177  14.646 -0.1135 -1.0881  0.0425
  767MPD2    C511325   0.838   0.241  14.765  0.3791 -0.0122  0.0222
  767MPD2     H11326   1.183   0.251  14.596 -0.2756  0.7731  0.5201
  767MPD2    H111327   0.777   0.117  14.608  0.0795  0.0964 -2.2227
  767MPD2    H211328   0.909   0.353  14.923  3.2697 -0.6351  1.3207
  767MPD2    H311329   0.739   0.221  14.803  0.2942  0.6946  0.1740
  767MPD2     N11330   1.008   0.119  14.454  0.3955 -0.1787  1.1051
  767MPD2    H511331   1.102   0.103  14.417  0.1973  2.3473 -0.5466
  767MPD2    N111332   1.152   0.398  14.833 -0.6531 -0.4426  0.5487
  767MPD2    H711333   1.120   0.443  14.918  0.1666 -1.9567  1.6618
  768MPD2     C11334   2.144   3.353  10.444  0.5172  1.2655  0.0521
  768MPD2    C111335   2.079   3.280  10.544  0.2371  1.1481  0.4418
  768MPD2    C211336   2.145   3.237  10.657  0.0061 -0.3847  0.5874
  768MPD2    C311337   2.273   3.278  10.678 -0.3996  0.1050 -0.2432
  768MPD2    C411338   2.331   3.348  10.578 -0.3877  0.7135  0.3278
  768MPD2    C511339   2.264   3.397  10.467  0.0478  0.1295 -0.5461
  768MPD2     H11340   2.093   3.176  10.729 -0.5253 -0.4607  0.1370
  768MPD2    H111341   2.429   3.389  10.600 -0.9883  0.8194  2.9070
  768MPD2    H211342   2.090   3.390  10.357  1.3421 -0.6055 -1.2374
  768MPD2    H311343   2.313   3.465  10.398 -0.7632  0.6754 -0.5902
  768MPD2     N11344   2.347   3.255  10.794  0.0465  0.1888 -0.2885
  768MPD2    H511345   2.436   3.302  10.805  1.1335 -1.9491  0.0149
  768MPD2    N111346   1.940   3.268  10.549 -0.2742 -0.9511  0.0810
  768MPD2    H711347   1.902   3.221  10.631 -1.2982 -1.1578 -0.5089
  769MPD2     C11348   2.882   1.339  14.546 -0.6434  0.2752  0.5067
  769MPD2    C111349   2.775   1.417  14.582 -0.1130 -0.0197  0.3380
  769MPD2    C211350   2.795   1.523  14.660 -0.3704 -0.2209  0.5975
  769MPD2    C311351   2.913   1.532  14.739  0.4857 -0.8177 -0.7711
  769MPD2    C411352   3.019   1.446  14.713 -0.0048 -0.0572 -0.4133
  769MPD2    C511353   2.997   1.342  14.624 -0.1382 -0.3751 -0.2269
  769MPD2     H11354   2.709   1.585  14.684  0.4737  1.4041 -0.5039
  769MPD2    H111355   3.118   1.451  14.757 -0.6549  1.8670  0.8487
  769MPD2    H211356   2.866   1.265  14.468 -0.4200  0.9188 -0.1445
  769MPD2    H311357   3.078   1.276  14.595  0.3738 -0.6955  1.9637
  769MPD2     N11358   2.922   1.637  14.837  0.0650  0.3001 -0.3125
  769MPD2    H511359   2.831   1.678  14.859  0.0468  0.8243 -1.3572
  769MPD2    N111360   2.659   1.401  14.505  0.0961 -0.4451 -0.0826
  769MPD2    H711361   2.657   1.329  14.434  0.1760 -0.8224  0.2978
  770MPD2     C11362   2.332   0.581  14.311 -0.3841  0.2884  0.2605
  770MPD2    C111363   2.405   0.638  14.417 -0.0792 -0.4227  0.7620
  770MPD2    C211364   2.433   0.772  14.422 -0.5429  0.6454 -0.2282
  770MPD2    C311365   2.394   0.851  14.314 -0.0593 -0.6138 -0.2778
  770MPD2    C411366   2.340   0.792  14.200 -0.0585 -0.0260 -0.1959
  770MPD2    C511367   2.309   0.655  14.205  0.5126 -0.8051 -0.3674
  770MPD2     H11368   2.478   0.824  14.505 -1.3472  0.7261  0.1504
  770MPD2    H111369   2.294   0.857  14.126  0.2908  0.2566 -0.1662
  770MPD2    H211370   2.312   0.474  14.308 -0.9535  0.4651 -2.0037
  770MPD2    H311371   2.249   0.622  14.121 -0.6010  0.6272 -0.1415
  770MPD2     N11372   2.405   0.995  14.340 -0.0599 -0.2733  0.3845
  770MPD2    H511373   2.423   1.029  14.434  1.1859  1.5193 -0.4908
  770MPD2    N111374   2.444   0.544  14.518 -0.0359 -0.2402 -0.2415
  770MPD2    H711375   2.401   0.453  14.529 -1.3127  0.1743 -1.9350
  771MPD2     C11376   4.009   4.271  13.785  0.7267  0.1643 -0.9428
  771MPD2    C111377   3.976   4.358  13.685 -0.3990  0.0098  0.0065
  771MPD2    C211378   3.886   4.310  13.587  0.5291  0.6635 -0.3445
  771MPD2    C311379   3.846   4.180  13.577  0.4670 -0.8409  0.0032
  771MPD2    C411380   3.880   4.095  13.682  0.3505 -0.2998 -0.3562
  771MPD2    C511381   3.967   4.141  13.779  0.2978  0.0308 -0.1093
  771MPD2     H11382   3.838   4.379  13.517 -0.4041  3.6152  3.1803
  771MPD2    H111383   3.856   3.989  13.686  0.2226 -0.2807 -0.6338
  771MPD2    H211384   4.078   4.297  13.864 -0.6919 -1.2701  0.7594
  771MPD2    H311385   3.987   4.070  13.859 -0.0188 -0.4378 -0.4468
  771MPD2     N11386   3.772   4.135  13.465 -0.2328  0.2423  0.5910
  771MPD2    H511387   3.746   4.205  13.396 -1.8288 -0.1563  0.7851
  771MPD2    N111388   3.994   4.495  13.687 -0.1497  0.3071 -0.1303
  771MPD2    H711389   3.955   4.550  13.611  0.3288  0.2525 -0.4147
  772MPD2     C11390   3.746   0.224  13.362  0.2992  0.2476 -0.3803
  772MPD2    C111391   3.675   0.196  13.478  0.4485  0.1256 -0.4017
  772MPD2    C211392   3.540   0.171  13.490 -0.3948  0.5775 -0.2928
  772MPD2    C311393   3.467   0.175  13.377 -0.3910  0.0476  0.3638
  772MPD2    C411394   3.536   0.198  13.256  0.4250 -0.3174  1.4099
  772MPD2    C511395   3.673   0.218  13.250 -0.1475  0.4053 -0.1965
  772MPD2     H11396   3.491   0.154  13.585 -0.8345 -0.3207 -0.6820
  772MPD2    H111397   3.486   0.184  13.161 -0.5690  0.6887  1.7847
  772MPD2    H211398   3.853   0.227  13.345 -0.0784  1.4468 -2.5755
  772MPD2    H311399   3.710   0.253  13.154  1.7790  1.4794  0.9381
  772MPD2     N11400   3.331   0.169  13.378  0.0762  0.8777 -0.1706
  772MPD2    H511401   3.289   0.156  13.286 -1.4990 -1.7661  0.9358
  772MPD2    N111402   3.744   0.189  13.598  0.3201  0.6401 -0.1159
  772MPD2    H711403   3.689   0.165  13.680 -0.5068 -0.9057 -1.1162
  773MPD2     C11404   2.795   0.896   0.005  0.2286 -0.1757 -0.1071
  773MPD2    C111405   2.802   0.786  17.649  0.2870 -0.6430  0.7271
  773MPD2    C211406   2.891   0.685  17.681  0.2304 -0.2999 -0.5227
  773MPD2    C311407   2.967   0.701   0.084  0.0194 -0.7057 -0.2083
  773MPD2    C411408   2.939   0.808   0.171  0.0724  0.9637 -0.3890
  773MPD2    C511409   2.859   0.907   0.126  0.0809 -0.1315 -0.1401
  773MPD2     H11410   2.889   0.593  17.623 -4.0267 -0.7011  0.2982
  773MPD2    H111411   2.992   0.818   0.265 -1.2650 -1.1058  0.5910
  773MPD2    H211412   2.733   0.982  17.697 -1.6177 -0.9662  1.8830
  773MPD2    H311413   2.839   0.991   0.191 -2.1269  0.1719 -1.1957
  773MPD2     N11414   3.049   0.592   0.111  0.3025  0.7807 -0.2603
  773MPD2    H511415   3.039   0.511   0.051 -0.6445  1.5909 -1.1843
  773MPD2    N111416   2.720   0.765  17.537  0.4403  0.1016 -0.3045
  773MPD2    H711417   2.735   0.693  17.467  1.6035 -0.0399  0.0959
  774MPD2     C11418   1.592   0.243  13.192  0.1197  0.4186 -0.3202
  774MPD2    C111419   1.732   0.225  13.191 -0.5685 -0.5739  0.5648
  774MPD2    C211420   1.813   0.339  13.187 -0.5111 -0.1460  0.3509
  774MPD2    C311421   1.760   0.470  13.183  0.3017  0.7818 -0.1868
  774MPD2    C411422   1.625   0.482  13.177 -0.1688 -0.3656 -0.2177
  774MPD2    C511423   1.547   0.372  13.183  0.1060 -0.0823 -0.0002
  774MPD2     H11424   1.919   0.324  13.171 -0.6036 -0.5849  0.1357
  774MPD2    H111425   1.579   0.579  13.162  1.9043  0.6724  0.1290
  774MPD2    H211426   1.523   0.159  13.197  2.6804 -1.7544 -1.3955
  774MPD2    H311427   1.441   0.380  13.160  0.0291  0.1535  0.4245
  774MPD2     N11428   1.841   0.588  13.183  0.6317  0.5056 -0.3620
  774MPD2    H511429   1.787   0.674  13.177 -0.2281 -0.0404 -0.5211
  774MPD2    N111430   1.778   0.091  13.205  0.1984 -0.6549  0.3056
  774MPD2    H711431   1.706   0.029  13.239 -1.6347 -0.2128 -2.8249
  775MPD2     C11432   3.140   1.331  15.218  0.3982 -0.2126  0.3379
  775MPD2    C111433   3.200   1.410  15.316  0.1720 -0.9217 -0.0892
  775MPD2    C211434   3.300   1.501  15.284 -0.1015 -0.9217 -0.0896
  775MPD2    C311435   3.338   1.520  15.152  0.4449 -0.3467 -0.8022
  775MPD2    C411436   3.286   1.435  15.061 -0.8340  0.4427  0.4575
  775MPD2    C511437   3.182   1.346  15.089  0.6994 -0.5400  0.9852
  775MPD2     H11438   3.349   1.560  15.359 -1.7069  0.7094 -0.3217
  775MPD2    H111439   3.324   1.438  14.960  1.0381 -0.2820  1.1395
  775MPD2    H211440   3.065   1.259  15.249  0.7482 -0.3832  0.7972
  775MPD2    H311441   3.145   1.282  15.010  1.4720  1.0207 -0.6249
  775MPD2     N11442   3.435   1.620  15.108  0.3324 -0.1539 -0.5607
  775MPD2    H511443   3.457   1.623  15.009  1.3877 -1.3857 -0.3554
  775MPD2    N111444   3.167   1.376  15.450 -0.1280  0.2679  0.2923
  775MPD2    H711445   3.109   1.295  15.468  1.7084 -1.1667 -0.2546
  776MPD2     C11446   2.600   1.709  11.862 -0.0919 -0.3795 -0.5468
  776MPD2    C111447   2.493   1.780  11.828  0.7919  1.1864  0.1195
  776MPD2    C211448   2.512   1.903  11.764 -1.1780 -0.0132  0.1181
  776MPD2    C311449   2.640   1.936  11.717 -0.4110 -0.4226  0.4521
  776MPD2    C411450   2.741   1.860  11.767 -0.5770  0.0605 -0.3490
  776MPD2    C511451   2.724   1.756  11.849 -0.6201  0.1414 -0.1503
  776MPD2     H11452   2.428   1.965  11.734 -0.8367 -0.0167 -0.8330
  776MPD2    H111453   2.843   1.899  11.760 -0.2681 -1.0221 -1.8518
  776MPD2    H211454   2.607   1.614  11.913 -0.0844 -0.1676 -0.1604
  776MPD2    H311455   2.810   1.711  11.899 -0.7576  1.1530  1.0143
  776MPD2     N11456   2.671   2.042  11.634 -0.2587 -0.3698 -0.1305
  776MPD2    H511457   2.770   2.063  11.625 -0.2631  0.1978  1.1330
  776MPD2    N111458   2.367   1.720  11.848  0.5296 -0.5115 -0.4649
  776MPD2    H711459   2.370   1.632  11.898 -0.2554  1.5005  3.0980
  777MPD2     C11460   2.572   4.624   0.737  0.1467 -0.3119 -0.6873
  777MPD2    C111461   2.682   4.598   0.819  0.1412 -0.5256  0.4026
  777MPD2    C211462   2.771   4.495   0.792  0.0362 -0.0192  0.9831
  777MPD2    C311463   2.759   4.428   0.673  0.7152 -0.1532  0.0988
  777MPD2    C411464   2.655   4.460   0.590 -0.8198  0.6750  0.7298
  777MPD2    C511465   2.559   4.560   0.619 -0.2936 -0.3903 -0.0111
  777MPD2     H11466   2.846   4.458   0.860  1.2086  0.1015 -0.2516
  777MPD2    H111467   2.636   4.407   0.498 -1.3262  0.4207  0.9826
  777MPD2    H211468   2.500   4.702   0.759  0.3187 -0.0012 -1.2500
  777MPD2    H311469   2.473   4.576   0.554 -1.0589 -0.2738  1.0327
  777MPD2     N11470   2.843   4.318   0.654 -0.3265  0.3943 -0.2448
  777MPD2    H511471   2.928   4.313   0.709  0.5400 -2.3949 -1.8566
  777MPD2    N111472   2.685   4.677   0.933  0.2007  0.0210  0.1281
  777MPD2    H711473   2.610   0.012   0.959  0.9733  0.8021  0.4904
  778MPD2     C11474   3.497   4.036  14.819 -0.4019 -0.1394 -0.3970
  778MPD2    C111475   3.478   3.947  14.713 -0.3107 -0.0828 -0.4772
  778MPD2    C211476   3.563   3.956  14.606  0.7958 -0.3539 -0.0311
  778MPD2    C311477   3.661   4.051  14.598  0.0626 -0.0084 -0.3954
  778MPD2    C411478   3.684   4.125  14.708  0.3374 -0.3247 -0.3827
  778MPD2    C511479   3.599   4.120  14.818  0.0803 -0.0273 -0.1742
  778MPD2     H11480   3.534   3.907  14.514  0.5256  0.6165 -0.4647
  778MPD2    H111481   3.778   4.178  14.714  0.2790 -0.4270  1.3683
  778MPD2    H211482   3.423   4.042  14.898 -0.0933 -1.4011 -0.0115
  778MPD2    H311483   3.611   4.180  14.908 -1.0210 -0.9227  0.5595
  778MPD2     N11484   3.748   4.057  14.489 -0.0594  0.6369 -0.0476
  778MPD2    H511485   3.733   3.998  14.408 -3.6391 -0.5114  1.4439
  778MPD2    N111486   3.367   3.855  14.700  0.2299 -0.4801 -0.5726
  778MPD2    H711487   3.366   3.784  14.627  0.8398 -2.9350  1.7599
  779MPD2     C11488   3.400   3.048  13.802 -0.5806 -0.2869  0.5909
  779MPD2    C111489   3.529   3.066  13.841 -0.2409  0.3804  0.4053
  779MPD2    C211490   3.580   3.195  13.837 -0.0652 -0.7406 -0.1551
  779MPD2    C311491   3.502   3.303  13.797  0.4821  1.0464  0.2665
  779MPD2    C411492   3.367   3.281  13.772  0.5315  0.1977 -0.4513
  779MPD2    C511493   3.317   3.153  13.772  0.4344  0.3280 -0.3621
  779MPD2     H11494   3.685   3.212  13.861 -0.0870  0.1602 -0.6898
  779MPD2    H111495   3.306   3.368  13.749 -0.0227 -0.9472 -3.2830
  779MPD2    H211496   3.354   2.951  13.790  0.0850 -0.2872 -1.8663
  779MPD2    H311497   3.214   3.125  13.754  0.7681 -1.1033 -0.0495
  779MPD2     N11498   3.558   3.435  13.800 -0.3816  0.0150 -0.3885
  779MPD2    H511499   3.642   3.451  13.855 -1.2736 -0.7166  1.1960
  779MPD2    N111500   3.605   2.951  13.880  0.2900  0.8217 -0.5049
  779MPD2    H711501   3.547   2.868  13.883 -0.3435  1.2804 -0.1194
  780MPD2     C11502   3.175   3.144   0.768 -0.7409  0.1330  0.5029
  780MPD2    C111503   3.110   3.046   0.692  0.2649  0.3390 -0.6943
  780MPD2    C211504   3.098   3.072   0.559  0.4073 -0.4797  0.2970
  780MPD2    C311505   3.153   3.182   0.495  0.4510  0.0520  0.0159
  780MPD2    C411506   3.226   3.273   0.571  0.4539  0.1400  0.0572
  780MPD2    C511507   3.232   3.252   0.703 -0.1003 -0.6437  0.2385
  780MPD2     H11508   3.051   2.996   0.498 -0.9358  1.2093 -0.7749
  780MPD2    H111509   3.266   3.365   0.528  0.7589 -0.2599 -0.5208
  780MPD2    H211510   3.174   3.137   0.876 -3.8618 -0.3298  0.4421
  780MPD2    H311511   3.289   3.329   0.752 -0.5356  0.8701 -1.6185
  780MPD2     N11512   3.136   3.192   0.354 -0.0967 -0.7451 -0.6162
  780MPD2    H511513   3.072   3.134   0.302 -0.2182 -0.3215 -0.9387
  780MPD2    N111514   3.043   2.941   0.758  0.1820 -0.8564 -0.7522
  780MPD2    H711515   3.070   2.907   0.850 -0.9439 -0.5650 -0.3103
  781MPD2     C11516   4.147   0.502  11.433  0.3170  0.3697  0.0531
  781MPD2    C111517   4.262   0.433  11.485 -0.4480 -0.2008 -1.0187
  781MPD2    C211518   4.369   0.407  11.401 -0.0513  0.0088  0.3192
  781MPD2    C311519   4.363   0.444  11.269  0.0106  0.3294 -0.3983
  781MPD2    C411520   4.248   0.504  11.218 -0.0313  0.0604 -0.8224
  781MPD2    C511521   4.139   0.531  11.295 -0.0802  0.1081  0.3788
  781MPD2     H11522   4.457   0.352  11.433  1.7401  2.2868 -0.7291
  781MPD2    H111523   4.244   0.527  11.112 -0.5717  0.4457 -0.7166
  781MPD2    H211524   4.066   0.533  11.499  0.4505 -0.9882  0.8626
  781MPD2    H311525   4.053   0.580  11.250  0.5017 -0.5179 -1.4153
  781MPD2     N11526   4.460   0.423  11.167 -0.2326 -0.3840 -0.2053
  781MPD2    H511527   4.439   0.460  11.074  1.8679 -2.6147 -1.5669
  781MPD2    N111528   4.255   0.401  11.621  0.6262 -0.0924  0.2249
  781MPD2    H711529   4.174   0.434  11.673  1.3148  1.9619 -0.0165
  782MPD2     C11530   2.523   1.036  10.487  0.1940  0.2389  0.1127
  782MPD2    C111531   2.662   1.021  10.508 -0.1454 -0.2296  0.3336
  782MPD2    C211532   2.725   1.109  10.597 -0.2167  0.6026  0.0329
  782MPD2    C311533   2.657   1.213  10.654 -0.2834 -0.2776 -0.1845
  782MPD2    C411534   2.527   1.241  10.618 -0.7388  0.3954  0.6467
  782MPD2    C511535   2.462   1.151  10.532  0.5488 -0.7303  0.2146
  782MPD2     H11536   2.829   1.091  10.620  0.1148  2.1890 -0.2426
  782MPD2    H111537   2.469   1.328  10.646 -1.4699  0.1770 -0.1872
  782MPD2    H211538   2.467   0.971  10.420  1.5635 -0.1658 -0.6498
  782MPD2    H311539   2.358   1.167  10.506  0.4521  0.7657  1.5374
  782MPD2     N11540   2.738   1.295  10.736  0.1753  0.4115  0.5415
  782MPD2    H511541   2.838   1.280  10.745  0.4031  0.9872 -1.1177
  782MPD2    N111542   2.727   0.912  10.448 -0.3080 -0.3001  0.3375
  782MPD2    H711543   2.664   0.842  10.411 -4.1307  3.9834 -1.2496
  783MPD2     C11544   2.476   0.346  10.943  0.2345  0.0957 -0.1167
  783MPD2    C111545   2.491   0.485  10.930  0.3447  0.6322  0.0770
  783MPD2    C211546   2.602   0.531  10.865  0.1754  0.5467  0.0214
  783MPD2    C311547   2.687   0.455  10.794  0.0620 -0.7228 -0.2679
  783MPD2    C411548   2.671   0.317  10.811 -0.3014  0.1070 -0.0659
  783MPD2    C511549   2.568   0.265  10.884  0.3140  0.1831  0.0362
  783MPD2     H11550   2.610   0.638  10.846 -1.0711  0.7879  0.8745
  783MPD2    H111551   2.730   0.244  10.756  1.2230  2.1917 -1.1835
  783MPD2    H211552   2.396   0.302  11.001 -0.7681 -0.3861 -1.8602
  783MPD2    H311553   2.563   0.157  10.889 -0.0426  0.1292 -1.3650
  783MPD2     N11554   2.757   0.517  10.690  0.3337  0.2085 -0.9494
  783MPD2    H511555   2.756   0.618  10.681 -2.7289  0.1818 -0.9110
  783MPD2    N111556   2.398   0.562  11.002 -0.4386  0.0785  0.3170
  783MPD2    H711557   2.328   0.509  11.054 -0.1307  0.5428  1.2165
  784MPD2     C11558   0.655   0.519   0.828 -0.7501  0.4271  0.0103
  784MPD2    C111559   0.607   0.635   0.882 -0.5367 -0.5154  0.1205
  784MPD2    C211560   0.564   0.736   0.796 -0.2717  0.4718  0.1407
  784MPD2    C311561   0.569   0.729   0.659  0.4056  0.0448  0.8427
  784MPD2    C411562   0.635   0.612   0.612  0.7487 -0.7405  0.7863
  784MPD2    C511563   0.680   0.515   0.695 -0.6281 -0.3219  0.4614
  784MPD2     H11564   0.510   0.824   0.832 -0.6491 -0.6987  2.4444
  784MPD2    H111565   0.659   0.593   0.508  1.6203 -3.0637  1.4021
  784MPD2    H211566   0.676   0.432   0.889  0.9168  1.0024  0.2457
  784MPD2    H311567   0.713   0.421   0.651  1.9892  1.9467 -2.4195
  784MPD2     N11568   0.529   0.836   0.579 -0.3749 -0.5662  0.7928
  784MPD2    H511569   0.480   0.912   0.625  1.3096 -0.0011  1.6784
  784MPD2    N111570   0.583   0.648   1.018 -0.7903  0.3354 -0.2196
  784MPD2    H711571   0.539   0.737   1.041  0.0176  0.5690  0.4147
  785MPD2     C11572   0.671   4.316  11.075 -0.5862  0.1823  0.1228
  785MPD2    C111573   0.722   4.340  10.951  0.6722  0.7406 -0.1068
  785MPD2    C211574   0.706   4.248  10.852 -0.0790 -0.2521 -0.2903
  785MPD2    C311575   0.643   4.128  10.871 -0.3959 -0.2913  0.2525
  785MPD2    C411576   0.589   4.101  10.998 -0.1045 -0.5707  0.0144
  785MPD2    C511577   0.594   4.202  11.091 -1.0205 -0.2299  0.4284
  785MPD2     H11578   0.739   4.273  10.752  0.4707 -0.9043 -0.2732
  785MPD2    H111579   0.534   4.009  11.019 -0.6431 -0.6872 -1.8469
  785MPD2    H211580   0.691   4.384  11.157 -0.0824  1.0642 -0.7364
  785MPD2    H311581   0.552   4.190  11.190 -2.8732  0.3334 -0.2827
  785MPD2     N11582   0.609   4.046  10.762 -0.2521 -0.7486 -0.0525
  785MPD2    H511583   0.645   4.076  10.672  0.1165  0.5520  0.5249
  785MPD2    N111584   0.775   4.465  10.929  0.1169  0.3311 -0.2688
  785MPD2    H711585   0.744   4.539  10.991 -1.1814 -0.6475  0.2436
  786MPD2     C11586   4.053   2.295  14.775 -0.0061 -0.3385 -0.2124
  786MPD2    C111587   4.080   2.162  14.760 -0.4241  0.6160  0.0243
  786MPD2    C211588   4.102   2.088  14.872 -0.8491  0.0818  0.7757
  786MPD2    C311589   4.091   2.143  14.999  0.7451  0.1735  0.8128
  786MPD2    C411590   4.067   2.278  15.013  0.3958 -0.0693  0.3241
  786MPD2    C511591   4.044   2.352  14.901  0.2105 -0.6392 -0.2024
  786MPD2     H11592   4.119   1.983  14.850 -2.6435  0.3384 -1.9088
  786MPD2    H111593   4.058   2.325  15.110 -0.6295 -0.4535  0.4190
  786MPD2    H211594   4.034   2.357  14.689  1.3990 -0.5365 -0.6674
  786MPD2    H311595   4.005   2.453  14.907  0.1686 -0.7524  1.4372
  786MPD2     N11596   4.118   2.073  15.119 -0.0649 -0.1091  0.2706
  786MPD2    H511597   4.114   2.129  15.204  2.6173 -0.2334  0.4684
  786MPD2    N111598   4.097   2.108  14.634  0.7362 -0.0267  0.1607
  786MPD2    H711599   4.121   2.009  14.630  2.1559  0.3587 -0.9907
  787MPD2     C11600   4.137   1.402  14.427  0.4781  0.5285  0.2786
  787MPD2    C111601   4.232   1.500  14.406  0.3447 -0.3864  0.0434
  787MPD2    C211602   4.367   1.470  14.431 -0.3079 -0.3201  0.2255
  787MPD2    C311603   4.406   1.350  14.487  0.2630  0.6739 -0.1647
  787MPD2    C411604   4.303   1.255  14.511 -0.5298  0.1426  0.1076
  787MPD2    C511605   4.172   1.284  14.479  0.1243 -0.2895  0.0856
  787MPD2     H11606   4.439   1.546  14.403  0.7175 -1.5171 -0.3662
  787MPD2    H111607   4.320   1.165  14.570 -1.4544  1.6288  2.6607
  787MPD2    H211608   4.033   1.427  14.414  0.6594  1.3383  0.3284
  787MPD2    H311609   4.098   1.212  14.514 -0.4742  0.1927 -0.1818
  787MPD2     N11610   4.541   1.319  14.502 -0.0778 -0.3850 -0.0182
  787MPD2    H511611   4.606   1.385  14.461  0.4026 -0.2011  1.0433
  787MPD2    N111612   4.180   1.625  14.356 -0.4355 -0.0960  0.1863
  787MPD2    H711613   4.082   1.627  14.328 -0.7978  0.2888  1.4812
  788MPD2     C11614   0.682   4.352   1.364  0.4389  0.1101 -0.0311
  788MPD2    C111615   0.704   4.336   1.232  0.1877 -0.2075 -0.1768
  788MPD2    C211616   0.740   4.449   1.160 -0.7277 -0.0546  0.8995
  788MPD2    C311617   0.760   4.569   1.226  0.2205  0.4121  0.7897
  788MPD2    C411618   0.734   4.582   1.362  0.1065  0.6789  0.7594
  788MPD2    C511619   0.703   4.470   1.433  0.4264 -0.5712  0.2387
  788MPD2     H11620   0.755   4.443   1.053  0.6290  0.6456  1.0506
  788MPD2    H111621   0.765   4.673   1.412  3.7952 -0.0474 -0.2036
  788MPD2    H211622   0.642   4.274   1.429  0.8937 -0.9173 -0.9947
  788MPD2    H311623   0.676   4.481   1.537  0.1464 -1.9507  0.3046
  788MPD2     N11624   0.811   4.687   1.170  0.0272  0.1977 -0.3018
  788MPD2    H511625   0.845   0.031   1.232  0.1200  0.2690 -0.4344
  788MPD2    N111626   0.696   4.203   1.175 -0.0676  0.4512 -0.4376
  788MPD2    H711627   0.703   4.192   1.074  0.8550 -2.1842 -0.0954
  789MPD2     C11628   1.721   4.555  16.313 -0.0237 -0.9114  0.0948
  789MPD2    C111629   1.687   4.520  16.443  0.1805  0.3598 -0.7303
  789MPD2    C211630   1.566   4.565  16.487 -0.0036  0.3696 -0.4938
  789MPD2    C311631   1.482   4.652  16.411 -0.9842  0.2576  0.0708
  789MPD2    C411632   1.519   4.679  16.279 -0.7199  0.3409 -0.1065
  789MPD2    C511633   1.641   4.634  16.236  0.6249  0.0781  0.2147
  789MPD2     H11634   1.531   4.532  16.584 -0.4732  0.1363 -0.7410
  789MPD2    H111635   1.462   0.007  16.207  2.7179  1.6911 -1.7777
  789MPD2    H211636   1.816   4.521  16.272  0.9920  1.7213  0.3061
  789MPD2    H311637   1.681   4.649  16.137  1.0213  2.3693  0.7107
  789MPD2     N11638   1.356   4.697  16.452  0.1692 -0.3506 -0.1942
  789MPD2    H511639   1.300   0.004  16.375 -0.4670 -2.0744 -0.5273
  789MPD2    N111640   1.758   4.433  16.523  0.0979  0.1353 -0.3381
  789MPD2    H711641   1.707   4.396  16.603 -0.4904  0.4536 -0.5643
  790MPD2     C11642   2.497   2.311  13.284 -0.1012 -0.2367  0.1008
  790MPD2    C111643   2.532   2.179  13.289 -0.8490 -0.1582  0.8342
  790MPD2    C211644   2.459   2.094  13.213  0.1836 -0.0446  0.2014
  790MPD2    C311645   2.344   2.130  13.145  0.8192  0.0631 -1.0669
  790MPD2    C411646   2.308   2.264  13.146 -0.3418  0.3419  0.3562
  790MPD2    C511647   2.386   2.350  13.206  0.1945 -0.1213 -0.4658
  790MPD2     H11648   2.492   1.993  13.192  2.2276  0.9060 -1.2423
  790MPD2    H111649   2.225   2.300  13.086  0.1632  0.6126 -0.1861
  790MPD2    H211650   2.549   2.395  13.330 -0.6448  0.4503 -0.5343
  790MPD2    H311651   2.356   2.453  13.194 -3.1536 -1.1843 -1.2108
  790MPD2     N11652   2.270   2.027  13.079 -0.3556 -0.4514  0.5404
  790MPD2    H511653   2.317   1.938  13.092  0.8468  0.0078 -0.6361
  790MPD2    N111654   2.639   2.141  13.375  0.8331 -0.1921  0.2709
  790MPD2    H711655   2.690   2.217  13.419 -1.1468 -0.9476  3.8524
  791MPD2     C11656   1.527   1.919  12.983  0.6181  0.4418 -0.5469
  791MPD2    C111657   1.593   1.853  12.885 -0.7515 -0.6844  0.7955
  791MPD2    C211658   1.521   1.824  12.772 -0.4899 -0.2834 -0.6638
  791MPD2    C311659   1.390   1.864  12.747  0.4691  0.4254  0.1498
  791MPD2    C411660   1.327   1.928  12.848  0.7072 -0.2015  0.3556
  791MPD2    C511661   1.390   1.946  12.970  0.3993  0.2617  0.5431
  791MPD2     H11662   1.576   1.778  12.691 -0.6557 -1.3265 -0.1792
  791MPD2    H111663   1.221   1.946  12.856  0.8443  0.6470  0.2866
  791MPD2    H211664   1.573   1.951  13.076 -2.2161  2.5517  0.1465
  791MPD2    H311665   1.330   2.001  13.041  0.7056  0.3251  0.7535
  791MPD2     N11666   1.325   1.808  12.634 -0.4460  0.6465 -0.2007
  791MPD2    H511667   1.377   1.750  12.569 -4.8373  0.1110 -3.2538
  791MPD2    N111668   1.730   1.834  12.902 -0.4803 -0.5789  0.6977
  791MPD2    H711669   1.772   1.877  12.984  0.9797  0.0819 -0.3947
  792MPD2     C11670   2.639   1.661  11.189 -0.0326 -0.2028 -0.2328
  792MPD2    C111671   2.553   1.758  11.139 -0.2679  0.1590  0.6630
  792MPD2    C211672   2.414   1.738  11.113  0.0492  0.1763 -1.2667
  792MPD2    C311673   2.363   1.616  11.154 -0.3484  0.6319  1.0753
  792MPD2    C411674   2.451   1.521  11.199 -1.1174  0.2278 -0.2340
  792MPD2    C511675   2.582   1.543  11.227  0.5399 -0.2768  0.1238
  792MPD2     H11676   2.348   1.816  11.076 -0.4575 -0.3646 -1.4990
  792MPD2    H111677   2.417   1.423  11.230  0.4045  0.4162  2.0781
  792MPD2    H211678   2.742   1.685  11.213 -0.7562  2.4416  0.2818
  792MPD2    H311679   2.652   1.472  11.269  0.0764 -1.6196 -1.3390
  792MPD2     N11680   2.229   1.579  11.150 -0.1063  0.6909  0.8527
  792MPD2    H511681   2.216   1.479  11.159 -1.5808  1.0216  2.3264
  792MPD2    N111682   2.617   1.878  11.108  0.2788  0.0737  0.1290
  792MPD2    H711683   2.718   1.868  11.110  0.4246  1.7007  1.5052
  793MPD2     C11684   1.810   1.594  10.285  0.2982 -0.5158 -0.3593
  793MPD2    C111685   1.935   1.609  10.340  0.1319 -0.4324  0.3735
  793MPD2    C211686   1.955   1.593  10.478  0.8758 -0.2289 -0.0797
  793MPD2    C311687   1.851   1.563  10.559  0.0292 -0.1472 -0.0992
  793MPD2    C411688   1.725   1.546  10.509  0.2637  0.7880 -0.4147
  793MPD2    C511689   1.709   1.567  10.376  0.1866 -0.2973 -0.9374
  793MPD2     H11690   2.052   1.595  10.527  0.1694  1.8705  1.2207
  793MPD2    H111691   1.639   1.528  10.573  0.9238 -1.2234 -0.0994
  793MPD2    H211692   1.789   1.607  10.179 -1.6442 -2.3415 -0.1903
  793MPD2    H311693   1.611   1.537  10.339 -0.1260 -1.6845  0.9888
  793MPD2     N11694   1.891   1.546  10.694  0.3925  0.6493 -0.4545
  793MPD2    H511695   1.987   1.562  10.722 -0.2170  3.3849  0.0973
  793MPD2    N111696   2.060   1.628  10.269 -0.0403 -0.1488  0.5804
  793MPD2    H711697   2.138   1.627  10.333  0.9630 -2.9881 -0.6517
  794MPD2     C11698   2.388   1.135  16.819  0.3928 -0.4057  0.7700
  794MPD2    C111699   2.346   1.005  16.838 -0.1306  0.4285 -0.4806
  794MPD2    C211700   2.273   0.936  16.740 -0.9357 -0.5334 -0.5474
  794MPD2    C311701   2.252   1.006  16.621 -1.1781  0.7691 -0.5027
  794MPD2    C411702   2.288   1.138  16.604  0.8786 -0.2332  0.8439
  794MPD2    C511703   2.361   1.201  16.704  0.7844 -0.1593 -0.0974
  794MPD2     H11704   2.235   0.835  16.753  0.9858 -1.0394  1.0775
  794MPD2    H111705   2.268   1.206  16.521  4.0733 -0.2511  0.0542
  794MPD2    H211706   2.450   1.186  16.892  1.2667  0.7244 -0.7534
  794MPD2    H311707   2.386   1.305  16.692  1.4665  0.1378  3.6589
  794MPD2     N11708   2.178   0.941  16.517 -0.8597  0.2003 -0.2711
  794MPD2    H511709   2.144   1.003  16.444 -0.4526  2.3722  1.3754
  794MPD2    N111710   2.373   0.949  16.970  0.4137 -0.4179  0.5472
  794MPD2    H711711   2.323   0.863  16.989 -0.9401  0.6340  1.7084
  795MPD2     C11712   4.581   3.528  13.669  0.7554  0.4037  0.3978
  795MPD2    C111713   4.527   3.418  13.610 -0.7653  0.2319  0.2758
  795MPD2    C211714   4.595   3.301  13.616 -0.4881  0.3065  0.4444
  795MPD2    C311715   4.706   3.280  13.701  0.4473 -0.6262  0.3223
  795MPD2    C411716   0.019   3.393  13.776  0.0065 -0.9259  0.0074
  795MPD2    C511717   4.690   3.515  13.750 -0.7732  0.1756  0.0486
  795MPD2     H11718   4.558   3.220  13.554 -2.3702  1.2865  0.2735
  795MPD2    H111719   0.104   3.399  13.842  0.7460  0.6656 -1.0763
  795MPD2    H211720   4.552   3.632  13.658  0.3929  0.4402  1.6437
  795MPD2    H311721   0.001   3.606  13.794  2.0008 -1.2577  0.5357
  795MPD2     N11722   0.051   3.158  13.704  0.3317 -0.6601  0.3299
  795MPD2    H511723   0.140   3.168  13.751 -0.3180 -0.2746  1.4796
  795MPD2    N111724   4.433   3.434  13.509 -0.5568 -0.5963  0.5507
  795MPD2    H711725   4.406   3.356  13.449  1.6201  1.7431 -3.5082
  796MPD2     C11726   4.445   4.612  15.753  0.0992 -0.0378  0.1503
  796MPD2    C111727   4.463   4.694  15.864 -0.1541  0.1120  0.8149
  796MPD2    C211728   4.459   0.104  15.844 -0.3302  0.4967  0.2586
  796MPD2    C311729   4.417   0.156  15.724  0.1590 -0.2131 -0.1685
  796MPD2    C411730   4.379   0.069  15.624  0.1098 -0.6511 -0.3043
  796MPD2    C511731   4.397   4.662  15.638  0.2657 -0.9653  0.2495
  796MPD2     H11732   4.488   0.176  15.919 -0.4627 -0.7003  1.4550
  796MPD2    H111733   4.352   0.106  15.526  1.2626  2.2192  0.4503
  796MPD2    H211734   4.447   4.506  15.778  0.9772  0.2067  1.1359
  796MPD2    H311735   4.377   4.598  15.553  0.6467 -1.7712  0.7730
  796MPD2     N11736   4.412   0.297  15.722 -0.2598 -0.3289 -1.0521
  796MPD2    H511737   4.450   0.353  15.799  1.1461 -0.8971 -1.3307
  796MPD2    N111738   4.500   4.628  15.984  0.2870 -0.9203 -0.2501
  796MPD2    H711739   4.505   4.526  15.983  6.0014 -0.6054 -1.0612
  797MPD2     C11740   0.545   4.225  17.160  0.5313 -0.0979 -0.1116
  797MPD2    C111741   0.510   4.242  17.296  0.5139 -0.3787 -0.1924
  797MPD2    C211742   0.398   4.318  17.324 -0.1113  0.0755 -0.7125
  797MPD2    C311743   0.337   4.389  17.230  0.7528 -0.3946 -0.0912
  797MPD2    C411744   0.373   4.369  17.091 -0.1255 -0.9772 -0.4504
  797MPD2    C511745   0.476   4.284  17.062 -0.6948  0.2071  0.5667
  797MPD2     H11746   0.386   4.343  17.429 -0.9278 -1.3286 -0.4783
  797MPD2    H111747   0.324   4.425  17.012 -0.1448 -1.4077 -0.7420
  797MPD2    H211748   0.628   4.165  17.122  0.8565 -0.6707  1.5041
  797MPD2    H311749   0.501   4.251  16.962  0.2701 -0.5972  1.0672
  797MPD2     N11750   0.240   4.492  17.259 -0.3312 -0.6205  0.0940
  797MPD2    H511751   0.217   4.554  17.183 -2.0362 -3.4284 -1.6679
  797MPD2    N111752   0.599   4.201  17.401  0.5074 -0.2196 -0.5439
  797MPD2    H711753   0.560   4.224  17.492 -0.8300 -1.5076 -0.7799
  798MPD2     C11754   0.571   0.205  17.624 -0.3730  0.2849 -0.7257
  798MPD2    C111755   0.502   0.088  17.609  1.8413  0.2447 -0.1006
  798MPD2    C211756   0.563   4.693  17.600 -0.0014 -0.1507 -0.5143
  798MPD2    C311757   0.702   4.697  17.608  0.2584  0.4121 -0.1117
  798MPD2    C411758   0.770   0.086  17.618  0.2106  0.5918 -0.2624
  798MPD2    C511759   0.703   0.201  17.625  1.2446  0.0265 -0.5398
  798MPD2     H11760   0.509   4.599  17.605 -1.1444  0.5687  0.6408
  798MPD2    H111761   0.878   0.092  17.623  0.1351  1.2761  0.6513
  798MPD2    H211762   0.527   0.304  17.621  0.2044  0.5709  0.0688
  798MPD2    H311763   0.751   0.297  17.638 -1.2675  1.4896 -2.1266
  798MPD2     N11764   0.753   4.572  17.589 -0.1490  0.2381  0.3807
  798MPD2    H511765   0.683   4.499  17.599 -0.1522 -0.2006 -2.6189
  798MPD2    N111766   0.363   0.080  17.594 -0.2219 -0.6062 -0.2331
  798MPD2    H711767   0.320   4.718  17.608  0.2587 -1.0626 -1.6844
  799MPD2     C11768   4.004   1.215  14.846  0.0096  0.4412 -0.7579
  799MPD2    C111769   3.960   1.111  14.766  0.0638  0.4538  0.1691
  799MPD2    C211770   3.864   1.138  14.677 -0.2098  0.2867 -0.0295
  799MPD2    C311771   3.820   1.268  14.667 -0.0450 -0.0670 -0.1238
  799MPD2    C411772   3.862   1.372  14.742  0.1418  0.3266 -0.1544
  799MPD2    C511773   3.953   1.342  14.839  0.8564  0.3050  0.0296
  799MPD2     H11774   3.802   1.062  14.631  1.2272 -0.9315  0.0685
  799MPD2    H111775   3.829   1.474  14.723 -0.4805 -0.1712 -1.6427
  799MPD2    H211776   4.096   1.204  14.902 -0.2174  2.2903  0.0096
  799MPD2    H311777   3.982   1.416  14.912  1.2838  0.0636  0.1051
  799MPD2     N11778   3.753   1.309  14.547 -0.0646 -0.0247  0.1359
  799MPD2    H511779   3.718   1.404  14.542  0.0762  0.0314  0.2254
  799MPD2    N111780   4.013   0.978  14.767 -0.2435 -0.1247 -0.0331
  799MPD2    H711781   3.978   0.917  14.693  1.7762 -1.8267  0.4128
  800MPD2     C11782   4.620   2.761  14.610  0.1323  0.5122 -0.0983
  800MPD2    C111783   0.011   2.707  14.584 -0.2472  0.1515 -0.8190
  800MPD2    C211784   0.014   2.572  14.557  0.1335  0.6971 -0.4088
  800MPD2    C311785   4.623   2.504  14.533  0.4119  0.4985 -0.2601
  800MPD2    C411786   4.503   2.561  14.572 -0.3468 -0.0328 -0.1874
  800MPD2    C511787   4.507   2.688  14.617  0.5695  1.0363  0.0602
  800MPD2     H11788   0.110   2.524  14.540  0.5769  0.2876  3.1158
  800MPD2    H111789   4.406   2.520  14.550 -0.0778 -0.5839 -0.3490
  800MPD2    H211790   4.621   2.870  14.614 -0.0180  0.5327 -0.6274
  800MPD2    H311791   4.414   2.740  14.639 -0.5128 -1.7260  2.0243
  800MPD2     N11792   4.618   2.375  14.476 -0.0238 -0.1122  0.1261
  800MPD2    H511793   4.710   2.346  14.446 -0.4658 -1.6394  0.2521
  800MPD2    N111794   0.122   2.794  14.564 -0.8699 -0.9493  0.7079
  800MPD2    H711795   0.116   2.892  14.538 -1.0555 -2.0101 -3.1215
  801MPD2     C11796   0.251   3.343  14.167 -0.7173  0.5478  0.0056
  801MPD2    C111797   0.198   3.274  14.274 -0.3403 -0.0284 -0.4688
  801MPD2    C211798   0.081   3.315  14.323 -0.7090 -0.4269  0.7491
  801MPD2    C311799   0.003   3.416  14.271  0.4147 -0.6821  0.4383
  801MPD2    C411800   0.053   3.488  14.169 -0.7717 -0.2037  0.1507
  801MPD2    C511801   0.177   3.454  14.110 -0.6458  0.1650  0.6536
  801MPD2     H11802   0.043   3.264  14.412 -0.2943 -2.0106  0.0164
  801MPD2    H111803   0.010   3.577  14.125  1.6056  0.4844 -0.8005
  801MPD2    H211804   0.352   3.334  14.130 -0.7762  0.9774 -0.2525
  801MPD2    H311805   0.221   3.519  14.037 -1.2832 -0.0302  0.0936
  801MPD2     N11806   4.604   3.455  14.333  0.6361  0.0761  0.6738
  801MPD2    H511807   4.564   3.537  14.289  0.3169 -0.1970  0.4542
  801MPD2    N111808   0.269   3.179  14.348  0.1910 -0.0852 -0.3189
  801MPD2    H711809   0.213   3.137  14.422  1.4114  0.9960  1.2230
  802MPD2     C11810   4.182   4.032   0.152 -0.1369  0.4637 -0.1970
  802MPD2    C111811   4.156   4.054   0.021 -0.1527 -0.7958 -0.0497
  802MPD2    C211812   4.263   4.050  17.652 -0.0513 -0.4423  0.3378
  802MPD2    C311813   4.389   4.016  17.696  0.0877  0.1259 -0.0414
  802MPD2    C411814   4.406   3.989   0.113 -0.2204 -0.4492  0.0160
  802MPD2    C511815   4.305   4.001   0.197 -0.6874 -0.2299  0.3235
  802MPD2     H11816   4.245   4.069  17.547 -0.3584  0.2847  0.5176
  802MPD2    H111817   4.507   3.984   0.152  0.1731  0.9650 -0.7918
  802MPD2    H211818   4.109   4.045   0.231 -0.5491 -1.9506 -0.1695
  802MPD2    H311819   4.331   3.996   0.303  1.1924 -2.1094 -0.2363
  802MPD2     N11820   4.484   4.004  17.594 -0.2063 -0.0576  0.4758
  802MPD2    H511821   4.454   4.013  17.497 -1.5425  0.4204  0.9280
  802MPD2    N111822   4.024   4.083  17.685 -0.2874  0.9359 -0.4692
  802MPD2    H711823   4.035   4.100  17.585  0.1331 -1.2476 -0.7886
  803MPD2     C11824   0.352   1.806  11.591  0.3550 -0.7078  0.5741
  803MPD2    C111825   0.416   1.861  11.700  0.0563  0.0363 -0.3852
  803MPD2    C211826   0.367   1.825  11.826  0.9438 -0.2574 -0.0133
  803MPD2    C311827   0.248   1.758  11.849 -0.7113  0.0330 -0.0983
  803MPD2    C411828   0.185   1.698  11.741 -0.1373  0.0139 -0.6314
  803MPD2    C511829   0.232   1.733  11.610  0.3359 -1.3768 -0.7353
  803MPD2     H11830   0.421   1.869  11.909  0.4490  0.0568  0.1423
  803MPD2    H111831   0.087   1.653  11.753 -1.5152  3.0284 -0.4835
  803MPD2    H211832   0.377   1.840  11.491 -2.3046  1.0812  0.5102
  803MPD2    H311833   0.167   1.700  11.530  0.6610 -0.1463 -1.5109
  803MPD2     N11834   0.201   1.736  11.984 -1.1300 -0.2083  0.3805
  803MPD2    H511835   0.258   1.751  12.066 -1.2905 -0.5105  0.5449
  803MPD2    N111836   0.511   1.968  11.693  0.2310  0.2762 -0.7545
  803MPD2    H711837   0.553   1.994  11.782 -1.9861 -1.3311  0.7583
  804MPD2     C11838   0.189   3.134  17.087 -0.0732  0.0549  0.1801
  804MPD2    C111839   0.278   3.074  17.178  0.0071  0.6024  0.1458
  804MPD2    C211840   0.374   3.148  17.240  0.4832  0.2357 -0.7985
  804MPD2    C311841   0.392   3.288  17.209  0.2662  1.1722 -0.0154
  804MPD2    C411842   0.305   3.342  17.118 -0.4901 -0.0771 -0.2500
  804MPD2    C511843   0.202   3.274  17.061 -0.1528  0.2842  0.6200
  804MPD2     H11844   0.447   3.101  17.306  1.5931 -0.9304 -2.8611
  804MPD2    H111845   0.327   3.445  17.089 -2.6400  0.2215 -0.8387
  804MPD2    H211846   0.121   3.072  17.031 -2.2539  1.5405  1.1859
  804MPD2    H311847   0.154   3.322  16.976 -0.5266  3.3406  2.5294
  804MPD2     N11848   0.493   3.350  17.277  0.5938 -0.6557 -0.5381
  804MPD2    H511849   0.535   3.294  17.351 -0.5225  0.4309  0.9093
  804MPD2    N111850   0.286   2.936  17.197 -0.2390  0.0411 -0.1038
  804MPD2    H711851   0.340   2.902  17.276  0.2575 -0.1633 -0.5308
  805MPD2     C11852   3.898   1.573  15.287 -0.1683  0.0568  0.0423
  805MPD2    C111853   3.969   1.462  15.264  0.4400 -0.3905  0.2180
  805MPD2    C211854   4.096   1.447  15.309 -0.1393 -0.3002  0.7760
  805MPD2    C311855   4.155   1.552  15.382 -1.0472  0.5393 -0.3812
  805MPD2    C411856   4.084   1.664  15.409 -0.4338 -0.3304  0.3295
  805MPD2    C511857   3.960   1.677  15.356  0.2976  0.8904  0.2941
  805MPD2     H11858   4.147   1.352  15.292 -0.7080  0.1622 -3.2923
  805MPD2    H111859   4.123   1.748  15.466  0.5665  0.4743 -1.5529
  805MPD2    H211860   3.792   1.583  15.267  0.0146  1.2949 -0.3472
  805MPD2    H311861   3.914   1.773  15.372 -1.3388  0.8632 -4.1642
  805MPD2     N11862   4.291   1.544  15.436  0.0917 -0.2686  0.5105
  805MPD2    H511863   4.303   1.612  15.510  1.4030  1.2391 -1.0984
  805MPD2    N111864   3.914   1.346  15.203 -0.1511  0.3069  0.2902
  805MPD2    H711865   3.970   1.261  15.197  0.8409  0.8547  1.8770
  806MPD2     C11866   4.178   0.675   0.408  0.6317 -0.5885  0.1814
  806MPD2    C111867   4.312   0.664   0.449 -0.1365  0.3261  0.3044
  806MPD2    C211868   4.407   0.708   0.365  0.8754 -0.4402  0.8443
  806MPD2    C311869   4.373   0.751   0.231 -0.0115  0.4412  0.0263
  806MPD2    C411870   4.241   0.766   0.195  0.8413 -0.4873 -0.0106
  806MPD2    C511871   4.146   0.728   0.284  0.4970  0.0564 -0.4712
  806MPD2     H11872   4.509   0.710   0.401 -0.4337 -0.1226  4.5976
  806MPD2    H111873   4.209   0.797   0.096  0.1474 -3.8776 -0.8723
  806MPD2    H211874   4.095   0.657   0.475  0.1465  0.0247 -0.2630
  806MPD2    H311875   4.041   0.728   0.257  0.4714 -2.1532 -0.3793
  806MPD2     N11876   4.482   0.805   0.156 -0.1562 -0.1300 -0.5319
  806MPD2    H511877   4.567   0.822   0.208 -0.7285  0.1366  0.3323
  806MPD2    N111878   4.334   0.620   0.581  0.0416  0.7242 -0.6605
  806MPD2    H711879   4.252   0.603   0.639 -1.8377  3.5749 -2.4645
  807MPD2     C11880   4.004   0.386   1.245 -0.5869 -0.6305  0.7544
  807MPD2    C111881   4.141   0.410   1.276 -0.2685 -0.1155 -0.1434
  807MPD2    C211882   4.183   0.403   1.408 -0.1298 -0.0843 -0.0129
  807MPD2    C311883   4.093   0.368   1.514 -0.7674  0.5795 -0.5663
  807MPD2    C411884   3.967   0.343   1.483 -0.4935  0.2099 -0.4304
  807MPD2    C511885   3.927   0.352   1.354 -0.1449 -0.4063 -0.1134
  807MPD2     H11886   4.290   0.405   1.427 -0.2600  0.4594  0.6751
  807MPD2    H111887   3.886   0.307   1.547 -2.2540  2.9478 -1.1398
  807MPD2    H211888   3.959   0.404   1.148 -0.3113  2.1341  1.1388
  807MPD2    H311889   3.823   0.323   1.348  0.2216 -1.5931 -0.6745
  807MPD2     N11890   4.147   0.371   1.647  0.0334 -0.8728  0.4059
  807MPD2    H511891   4.245   0.393   1.661 -0.4321  0.4797  1.5743
  807MPD2    N111892   4.245   0.434   1.177  0.1274  0.2961 -0.6673
  807MPD2    H711893   4.338   0.441   1.217  0.1066  0.7020 -0.6888
  808MPD2     C11894   4.636   2.128  10.519 -0.0284  0.0964 -0.6917
  808MPD2    C111895   4.725   2.030  10.491  0.1686  1.1114 -0.6511
  808MPD2    C211896   0.134   2.056  10.475 -0.6687  0.5716  0.9711
  808MPD2    C311897   0.181   2.182  10.439 -0.2120 -0.7667 -0.6497
  808MPD2    C411898   0.092   2.283  10.456  0.9855 -0.3248  0.2133
  808MPD2    C511899   4.691   2.258  10.509 -0.0674  0.4821 -0.5701
  808MPD2     H11900   0.189   1.964  10.460 -0.1896  1.0947 -0.4457
  808MPD2    H111901   0.124   2.386  10.451  1.4522 -0.4784  0.0600
  808MPD2    H211902   4.535   2.118  10.557  0.8318  0.2609  1.6508
  808MPD2    H311903   4.621   2.340  10.519 -2.4697 -1.6562  0.0936
  808MPD2     N11904   0.314   2.213  10.398  0.2417 -0.5060 -0.2825
  808MPD2    H511905   0.340   2.311  10.398  0.3789 -0.5442  0.0562
  808MPD2    N111906   4.697   1.891  10.475 -0.3023  0.3959  0.1112
  808MPD2    H711907   0.041   1.835  10.431  1.4041  2.8638 -0.1937
  809MPD2     C11908   0.941   1.662   9.822 -0.1564 -0.3725  0.2986
  809MPD2    C111909   0.947   1.803   9.794  0.6125  0.1080 -0.0647
  809MPD2    C211910   0.912   1.900   9.882  0.1027  0.0213  0.4089
  809MPD2    C311911   0.870   1.860  10.009  0.4231  0.7539  0.4229
  809MPD2    C411912   0.883   1.725  10.046  0.9538  0.2903  0.0719
  809MPD2    C511913   0.920   1.626   9.949 -0.2637 -0.3844 -0.0314
  809MPD2     H11914   0.920   2.004   9.850 -2.9258  0.0054 -0.4227
  809MPD2    H111915   0.855   1.690  10.145 -2.5324  1.3621 -0.5109
  809MPD2    H211916   0.958   1.580   9.753 -0.4850 -0.2810  0.1123
  809MPD2    H311917   0.913   1.523   9.983  2.0857 -0.2887  0.6882
  809MPD2     N11918   0.820   1.952  10.110  0.1533 -0.8535  0.2693
  809MPD2    H511919   0.792   1.914  10.199  1.0333 -0.1444  0.8578
  809MPD2    N111920   0.982   1.852   9.668 -0.2133 -0.4124  0.0431
  809MPD2    H711921   0.980   1.950   9.643 -2.9814 -0.8805 -1.5980
  810MPD2     C11922   4.457   1.864  10.101 -0.1763  0.1321  0.7720
  810MPD2    C111923   4.376   1.966  10.062  0.5289 -0.4258 -0.3030
  810MPD2    C211924   4.425   2.093  10.047  0.9936 -0.1330 -0.1030
  810MPD2    C311925   4.552   2.126  10.071  0.4781  0.7084 -0.0969
  810MPD2    C411926   4.628   2.024  10.119 -0.2261 -0.7825  0.1113
  810MPD2    C511927   4.588   1.892  10.128 -0.0540  0.3151  0.3332
  810MPD2     H11928   4.361   2.171  10.005 -0.6268 -1.3499  0.0910
  810MPD2    H111929   0.006   2.037  10.132 -0.4738  0.1309  1.1600
  810MPD2    H211930   4.424   1.761  10.113  0.8586 -0.3310 -0.3460
  810MPD2    H311931   4.655   1.816  10.168 -2.0722 -1.2466  0.7734
  810MPD2     N11932   4.603   2.259  10.046 -0.4358 -0.5954 -0.1993
  810MPD2    H511933   4.689   2.280  10.095  0.1547 -0.7460 -1.1567
  810MPD2    N111934   4.244   1.933  10.043 -0.3394 -0.0505 -0.4572
  810MPD2    H711935   4.220   1.835  10.058 -0.5376  0.0047 -0.4159
  811MPD2     C11936   3.333   2.156   9.871 -0.1512  0.0410 -0.5303
  811MPD2    C111937   3.467   2.188   9.849  0.7605 -0.1751 -0.4419
  811MPD2    C211938   3.498   2.308   9.786  0.2846 -0.3709  0.0601
  811MPD2    C311939   3.397   2.394   9.763  0.7731  0.0371 -0.6683
  811MPD2    C411940   3.270   2.364   9.803  0.4470  0.2655  0.2167
  811MPD2    C511941   3.230   2.238   9.838 -0.0595  0.3677  0.0371
  811MPD2     H11942   3.599   2.344   9.776  0.4332 -0.4122  1.3890
  811MPD2    H111943   3.186   2.433   9.790 -0.1421 -0.9365 -2.4107
  811MPD2    H211944   3.314   2.059   9.915  2.5273 -0.5856 -0.7668
  811MPD2    H311945   3.125   2.212   9.849 -0.1697  0.6966 -0.2203
  811MPD2     N11946   3.434   2.523   9.709 -0.0747 -0.4769  0.0147
  811MPD2    H511947   3.527   2.561   9.720 -0.3453  0.0915  0.3123
  811MPD2    N111948   3.561   2.090   9.896 -0.3171 -0.5481  0.2690
  811MPD2    H711949   3.532   1.995   9.917  2.1175 -0.7441  2.6635
  812MPD2     C11950   3.296   1.598  12.262  0.7043 -0.9238 -0.0751
  812MPD2    C111951   3.202   1.662  12.347  0.1153 -1.1108  0.8976
  812MPD2    C211952   3.162   1.594  12.463 -0.3163  0.0843 -0.1116
  812MPD2    C311953   3.216   1.470  12.491 -0.1261  0.2187  0.0820
  812MPD2    C411954   3.312   1.416  12.411  0.1600  0.1303 -0.3321
  812MPD2    C511955   3.357   1.473  12.294  0.2561 -0.2312  0.0867
  812MPD2     H11956   3.087   1.630  12.533 -0.2631 -0.2024  0.0872
  812MPD2    H111957   3.362   1.321  12.430  1.6505  0.4953 -2.5164
  812MPD2    H211958   3.336   1.655  12.180  0.6661 -1.7504 -0.6682
  812MPD2    H311959   3.435   1.433  12.230  0.6982 -0.3480  0.7048
  812MPD2     N11960   3.170   1.403  12.608 -0.6390 -0.5551 -0.7728
  812MPD2    H511961   3.102   1.453  12.665 -0.0624 -0.9332  0.2300
  812MPD2    N111962   3.151   1.790  12.315 -0.4411 -0.2482 -0.3439
  812MPD2    H711963   3.189   1.845  12.239  1.0003  0.0154  0.5643
  813MPD2     C11964   2.048   3.450  12.620  0.7244 -0.1106 -0.6701
  813MPD2    C111965   2.108   3.568  12.640 -0.3004  0.0712  0.3629
  813MPD2    C211966   2.103   3.616  12.769 -0.0156 -0.2140  0.4881
  813MPD2    C311967   2.020   3.567  12.865 -0.7516  0.1581 -0.7743
  813MPD2    C411968   1.952   3.456  12.840 -0.2110  0.2116 -0.8429
  813MPD2    C511969   1.967   3.397  12.719  0.3553  0.1964 -0.6180
  813MPD2     H11970   2.153   3.710  12.792 -0.6798  0.2032  0.2294
  813MPD2    H111971   1.892   3.398  12.910  2.1024 -3.3187 -1.7928
  813MPD2    H211972   2.049   3.403  12.523  1.5699  1.6288 -1.5000
  813MPD2    H311973   1.903   3.310  12.707 -0.3495  1.0136 -2.8318
  813MPD2     N11974   2.026   3.630  12.992  0.6869  0.0227 -0.3183
  813MPD2    H511975   2.089   3.709  12.996 -0.8950  1.1803  1.7743
  813MPD2    N111976   2.190   3.625  12.537 -0.2017 -0.6174 -0.3486
  813MPD2    H711977   2.220   3.575  12.454  0.9249  2.2478 -1.6843
  814MPD2     C11978   2.575   0.138  12.101  0.1969  0.1415 -0.5152
  814MPD2    C111979   2.622   0.218  11.999 -0.7091  0.2877 -0.3639
  814MPD2    C211980   2.699   0.329  12.027 -0.5772  0.3890  1.0754
  814MPD2    C311981   2.730   0.362  12.162 -0.2915  0.5010 -0.8969
  814MPD2    C411982   2.683   0.280  12.258  0.4251  0.4746  0.1289
  814MPD2    C511983   2.616   0.169  12.228 -0.2162  0.3486  0.0799
  814MPD2     H11984   2.726   0.393  11.943 -0.4695 -1.7615 -0.5430
  814MPD2    H111985   2.705   0.293  12.364  1.0171  1.8382 -0.1711
  814MPD2    H211986   2.531   0.040  12.084  0.2494  0.0090  0.1413
  814MPD2    H311987   2.578   0.101  12.303 -1.4883  0.9924  0.0075
  814MPD2     N11988   2.809   0.473  12.198  0.0773  0.3035 -0.0426
  814MPD2    H511989   2.837   0.473  12.296  0.1925 -1.1304 -0.0753
  814MPD2    N111990   2.591   0.198  11.864 -0.0485 -0.4163 -0.0449
  814MPD2    H711991   2.616   0.264  11.791 -1.1495  0.9455  0.8172
  815MPD2     C11992   2.852   3.255  12.037  0.3898  0.1417  0.7115
  815MPD2    C111993   2.868   3.166  11.930  0.2021  0.0853 -0.6323
  815MPD2    C211994   2.813   3.039  11.942  0.2145  0.0255  0.1493
  815MPD2    C311995   2.731   3.002  12.050  0.4064 -0.4989  0.6548
  815MPD2    C411996   2.709   3.098  12.148 -0.1583 -0.2461 -0.2869
  815MPD2    C511997   2.768   3.220  12.142  0.4387  0.2861 -0.3902
  815MPD2     H11998   2.819   2.968  11.861 -1.0318  0.9689 -0.7769
  815MPD2    H111999   2.654   3.064  12.235  1.1330 -0.3557  0.4742
  815MPD2    H212000   2.916   3.341  12.054 -1.5006  1.8626 -0.9441
  815MPD2    H312001   2.758   3.288  12.226  0.7415  0.3156 -0.3798
  815MPD2     N12002   2.674   2.871  12.047  0.1281 -0.0210  0.3257
  815MPD2    H512003   2.704   2.807  11.974 -0.4405 -0.8610  0.8371
  815MPD2    N112004   2.960   3.197  11.824 -1.1526  0.3529  0.2259
  815MPD2    H712005   2.983   3.127  11.753  2.2327  1.0328  0.6393
  816MPD2     C12006   3.295   2.220  17.112  0.0446  0.2195 -0.7296
  816MPD2    C112007   3.371   2.338  17.109 -0.1139 -0.4776  0.5141
  816MPD2    C212008   3.506   2.330  17.082  0.1943 -0.1144  0.3209
  816MPD2    C312009   3.557   2.205  17.049 -0.5034  0.8918  0.1755
  816MPD2    C412010   3.483   2.089  17.055  0.5903 -0.9646  0.0459
  816MPD2    C512011   3.350   2.098  17.082 -0.0948 -0.0243 -0.1245
  816MPD2     H12012   3.568   2.419  17.072 -0.2051  0.3371  1.9204
  816MPD2    H112013   3.523   1.991  17.032  0.1999 -1.0789 -0.1422
  816MPD2    H212014   3.187   2.217  17.122  0.2374  0.2461  1.2941
  816MPD2    H312015   3.273   2.021  17.081 -0.2013  0.1191 -2.8295
  816MPD2     N12016   3.694   2.213  17.008  0.0499 -0.1469  0.4252
  816MPD2    H512017   3.732   2.304  16.986 -1.8112  0.7195  0.7657
  816MPD2    N112018   3.300   2.457  17.142 -0.4699 -0.1302  0.2849
  816MPD2    H712019   3.199   2.443  17.140 -0.1970 -1.8447 -1.2345
  817MPD2     C12020   2.952   0.002  10.016  0.3565  0.0433 -0.8135
  817MPD2    C112021   2.840   4.664   9.960  0.3669  0.0033 -1.0438
  817MPD2    C212022   2.748   0.012   9.889 -0.1642 -0.1870 -0.8491
  817MPD2    C312023   2.770   0.146   9.850  0.0649  0.0810  0.4368
  817MPD2    C412024   2.889   0.204   9.892 -0.0679 -0.0751  0.2806
  817MPD2    C512025   2.980   0.132   9.971  0.5347  0.2094 -0.2029
  817MPD2     H12026   2.657   4.689   9.859 -0.4511  0.0702 -0.4200
  817MPD2    H112027   2.926   0.295   9.847 -2.0018  0.1495 -0.8736
  817MPD2    H212028   3.020   4.688  10.089 -0.7493  0.4693  0.4676
  817MPD2    H312029   3.078   0.171   9.999  0.5795  0.0497 -0.1338
  817MPD2     N12030   2.680   0.219   9.770  0.2672 -0.6824 -0.8112
  817MPD2    H512031   2.710   0.310   9.737 -0.1470  0.3401  1.5891
  817MPD2    N112032   2.803   4.530   9.987  0.5540 -0.2028 -0.1598
  817MPD2    H712033   2.716   4.501   9.942 -0.0422  1.5228 -0.1112
  818MPD2     C12034   1.740   4.387   9.785 -0.3469 -0.2387  0.4524
  818MPD2    C112035   1.711   4.259   9.837  0.4029  0.7176  0.5851
  818MPD2    C212036   1.717   4.146   9.750  0.2968 -0.7450  0.3122
  818MPD2    C312037   1.749   4.156   9.613 -0.1637  0.7377 -0.0576
  818MPD2    C412038   1.770   4.284   9.564  0.1386 -0.3405 -0.0007
  818MPD2    C512039   1.782   4.391   9.657 -0.5010  0.1008  0.3019
  818MPD2     H12040   1.696   4.054   9.802  0.2893 -0.9662 -0.0791
  818MPD2    H112041   1.784   4.303   9.459 -1.4929  0.8438 -0.0056
  818MPD2    H212042   1.742   4.477   9.846 -0.4237 -1.3665  2.1261
  818MPD2    H312043   1.802   4.490   9.616 -0.2890 -0.0231  0.1114
  818MPD2     N12044   1.742   4.047   9.522  0.3937 -0.0337  0.0116
  818MPD2    H512045   1.771   4.074   9.428  0.2599 -0.0507 -0.0340
  818MPD2    N112046   1.685   4.236   9.978 -0.1058 -0.0133  0.2284
  818MPD2    H712047   1.683   4.140  10.010  0.8116  0.0764  0.5516
  819MPD2     C12048   0.129   0.739  15.226 -0.0972  0.2476  0.0750
  819MPD2    C112049   0.105   0.614  15.291  0.2270 -0.9338 -0.0650
  819MPD2    C212050   0.204   0.561  15.367  0.2473  0.2074 -0.4707
  819MPD2    C312051   0.326   0.627  15.375  0.0117 -0.4080 -0.4695
  819MPD2    C412052   0.342   0.758  15.332 -1.0950  0.3853 -0.5810
  819MPD2    C512053   0.250   0.805  15.248  0.0544  0.5920 -0.4739
  819MPD2     H12054   0.188   0.468  15.420  0.2384  0.0481 -0.7500
  819MPD2    H112055   0.430   0.815  15.359 -0.2285  0.3400 -3.2303
  819MPD2    H212056   0.057   0.782  15.157 -2.2351 -1.6201  1.1320
  819MPD2    H312057   0.262   0.904  15.206 -1.3036  1.3267  0.8569
  819MPD2     N12058   0.441   0.576  15.436 -0.0366 -0.2764 -0.4970
  819MPD2    H512059   0.529   0.624  15.418 -0.0513  0.7685  2.1826
  819MPD2    N112060   4.702   0.559  15.290  0.0754 -0.6319 -0.5620
  819MPD2    H712061   4.625   0.600  15.237  0.2477 -1.6519 -1.6303
  820MPD2     C12062   3.796   0.564  14.867 -0.0473 -0.1725 -0.2565
  820MPD2    C112063   3.850   0.650  14.961 -1.0635 -0.3339 -0.5886
  820MPD2    C212064   3.976   0.621  15.019 -0.0902 -0.4239  1.3524
  820MPD2    C312065   4.038   0.498  14.992  0.0449  0.2056  0.1111
  820MPD2    C412066   3.975   0.415  14.899  0.2418 -0.2942  0.1365
  820MPD2    C512067   3.858   0.452  14.830  0.8952 -0.5114 -0.9075
  820MPD2     H12068   4.021   0.692  15.087 -0.1382  1.2557 -0.3896
  820MPD2    H112069   4.011   0.313  14.892 -0.5476 -0.6360  1.1198
  820MPD2    H212070   3.697   0.587  14.828 -0.5762 -1.3941  0.3681
  820MPD2    H312071   3.817   0.375  14.765 -1.2784 -1.4615  1.6052
  820MPD2     N12072   4.158   0.448  15.049 -0.0106 -0.0826  1.2621
  820MPD2    H512073   4.193   0.358  15.018  0.0801 -0.0267  1.2018
  820MPD2    N112074   3.778   0.774  14.974  0.7972 -0.3949 -0.0810
  820MPD2    H712075   3.687   0.782  14.931  0.1726 -1.0767  1.1262
  821MPD2     C12076   4.309   2.079  13.757  0.1114 -0.6137 -0.0046
  821MPD2    C112077   4.444   2.111  13.771 -0.2264  0.4075  0.6480
  821MPD2    C212078   4.522   2.137  13.662  0.3331  0.0388  0.4387
  821MPD2    C312079   4.468   2.127  13.540 -0.4347  0.2378  0.2484
  821MPD2    C412080   4.338   2.094  13.522  0.0430  0.1468 -0.1026
  821MPD2    C512081   4.256   2.065  13.629  0.9558  0.0705  0.2819
  821MPD2     H12082   4.627   2.164  13.673 -0.5424  2.2114  3.3499
  821MPD2    H112083   4.293   2.075  13.425  0.2721  1.7904 -0.5347
  821MPD2    H212084   4.242   2.062  13.841  0.1717 -0.6177  0.0426
  821MPD2    H312085   4.150   2.041  13.623  1.3622 -1.8984  1.0629
  821MPD2     N12086   4.540   2.153  13.415  0.1448 -0.3080 -0.1046
  821MPD2    H512087   4.496   2.146  13.324 -2.4739 -2.3503  1.3124
  821MPD2    N112088   4.499   2.113  13.902 -0.1049 -0.3158  0.0084
  821MPD2    H712089   4.596   2.143  13.900  0.2359 -1.5218 -1.2982
  822MPD2     C12090   0.906   2.476  15.584  0.1691 -0.5093 -0.1224
  822MPD2    C112091   0.957   2.466  15.711 -0.3301  0.5633 -0.0054
  822MPD2    C212092   0.900   2.541  15.807 -0.0073  0.4210  0.1082
  822MPD2    C312093   0.809   2.635  15.781  0.2139 -0.0520 -0.2602
  822MPD2    C412094   0.768   2.651  15.654 -0.0892  0.0836 -0.1400
  822MPD2    C512095   0.812   2.568  15.556  0.7542  0.5744 -0.6385
  822MPD2     H12096   0.918   2.530  15.913 -0.0655 -1.2680 -0.0577
  822MPD2    H112097   0.688   2.720  15.627 -0.3310 -0.1469 -0.0070
  822MPD2    H212098   0.954   2.427  15.499 -0.4161 -0.7896 -0.2925
  822MPD2    H312099   0.781   2.587  15.454 -1.9846 -1.0871 -0.1316
  822MPD2     N12100   0.766   2.704  15.895  0.2865 -0.4188  0.1814
  822MPD2    H512101   0.789   2.661  15.984 -1.3530 -0.4463  0.6003
  822MPD2    N112102   1.060   2.377  15.751 -0.5150  0.1250 -0.1248
  822MPD2    H712103   1.096   2.388  15.845 -1.6645 -0.2817  0.3584
  823MPD2     C12104   0.508   2.732  16.685 -0.3845 -0.5987  0.2149
  823MPD2    C112105   0.579   2.685  16.579 -0.1088  0.9636 -0.2739
  823MPD2    C212106   0.644   2.564  16.596  0.0260 -0.5549  0.0420
  823MPD2    C312107   0.639   2.504  16.719 -0.5815  0.3961  0.2069
  823MPD2    C412108   0.553   2.544  16.818 -0.9859 -0.0154 -0.7444
  823MPD2    C512109   0.494   2.663  16.800  0.5857 -0.0578  0.7471
  823MPD2     H12110   0.687   2.525  16.505  0.4012 -0.4196  0.1611
  823MPD2    H112111   0.553   2.494  16.914  0.1274 -1.4297 -1.4608
  823MPD2    H212112   0.458   2.829  16.681 -0.2162 -0.5701 -0.9244
  823MPD2    H312113   0.430   2.705  16.876  0.9612 -0.6057  1.3689
  823MPD2     N12114   0.704   2.381  16.734 -0.3789  0.3781  0.0068
  823MPD2    H512115   0.683   2.330  16.820 -0.1791 -0.2069 -0.2889
  823MPD2    N112116   0.571   2.757  16.458  0.6365 -0.3114  0.3342
  823MPD2    H712117   0.530   2.850  16.469  0.1321 -0.4583 -0.3513
  824MPD2     C12118   1.318   1.548  15.602  0.3176  0.0408 -0.0505
  824MPD2    C112119   1.418   1.638  15.632  0.7281  0.6145 -0.0839
  824MPD2    C212120   1.551   1.597  15.630 -0.3705 -0.2125 -0.1573
  824MPD2    C312121   1.580   1.469  15.583  0.1759  0.2361 -0.2519
  824MPD2    C412122   1.477   1.385  15.543 -0.3298  0.2453  0.1194
  824MPD2    C512123   1.349   1.422  15.568  0.0176  0.6966  0.1664
  824MPD2     H12124   1.633   1.667  15.643 -2.4709  2.4924 -1.5618
  824MPD2    H112125   1.495   1.287  15.501 -0.0719 -0.0772  0.9806
  824MPD2    H212126   1.212   1.569  15.607  0.2348 -0.0913 -1.3198
  824MPD2    H312127   1.273   1.355  15.530  1.1340 -0.2363 -0.4143
  824MPD2     N12128   1.714   1.434  15.561 -0.0194  0.0447 -0.4249
  824MPD2    H512129   1.784   1.503  15.584  0.8754 -0.8266 -0.5130
  824MPD2    N112130   1.395   1.767  15.690 -0.3047  0.7342  0.4915
  824MPD2    H712131   1.466   1.811  15.747  1.5507 -2.5261  0.7276
  825MPD2     C12132   2.126   1.405  14.875  0.7560  0.2499  0.9088
  825MPD2    C112133   2.139   1.484  14.989  0.8365 -0.1160 -0.9962
  825MPD2    C212134   2.194   1.609  14.977 -0.6361 -0.3048 -0.4601
  825MPD2    C312135   2.223   1.669  14.856  0.3697  0.2925 -0.1788
  825MPD2    C412136   2.207   1.591  14.748  0.5222 -0.3023  0.2708
  825MPD2    C512137   2.172   1.458  14.761 -0.2251 -0.4984  0.3938
  825MPD2     H12138   2.213   1.663  15.069 -2.4493 -0.1128 -0.1973
  825MPD2    H112139   2.238   1.621  14.649  0.2192 -0.3849  0.1537
  825MPD2    H212140   2.082   1.306  14.875  0.5912  0.3360 -0.8523
  825MPD2    H312141   2.159   1.392  14.676  0.4639 -0.1799  0.0413
  825MPD2     N12142   2.271   1.809  14.839  0.5226  0.6694  0.0298
  825MPD2    H512143   2.286   1.834  14.742 -2.5068 -1.1326 -0.9042
  825MPD2    N112144   2.111   1.436  15.117 -0.0466 -0.7055  0.0299
  825MPD2    H712145   2.092   1.336  15.116 -1.0530 -0.5299  0.5871
  826MPD2     C12146   1.460   1.806  13.751  0.0369 -0.1447  0.1748
  826MPD2    C112147   1.361   1.798  13.653 -0.2765  0.3855 -0.6987
  826MPD2    C212148   1.226   1.837  13.673 -0.0420  0.0839 -0.5801
  826MPD2    C312149   1.200   1.887  13.800  0.5965  0.6760 -0.0156
  826MPD2    C412150   1.302   1.892  13.896 -0.2483  0.1932 -0.2874
  826MPD2    C512151   1.428   1.852  13.871  0.3807  0.1367 -0.5309
  826MPD2     H12152   1.145   1.823  13.602 -0.9523  0.7792  0.3125
  826MPD2    H112153   1.285   1.926  13.997 -0.1884 -0.0041 -0.2127
  826MPD2    H212154   1.563   1.774  13.737  0.2356 -0.1742  1.6862
  826MPD2    H312155   1.490   1.874  13.957  0.4059 -0.2109 -0.4597
  826MPD2     N12156   1.070   1.925  13.847  0.1036 -0.4282  0.1720
  826MPD2    H512157   1.051   1.957  13.942  0.4296  0.9362 -0.2258
  826MPD2    N112158   1.405   1.754  13.531 -0.3640  0.5204 -0.3436
  826MPD2    H712159   1.505   1.734  13.530  0.1693  3.1488 -0.3544
  827MPD2     C12160   2.270   2.738   9.918  0.5781 -0.1002 -0.2973
  827MPD2    C112161   2.205   2.700  10.034 -0.1268  0.4836  0.8330
  827MPD2    C212162   2.170   2.567  10.049 -0.7670  0.0508 -0.1660
  827MPD2    C312163   2.190   2.470   9.950  0.1354  0.6238  0.4266
  827MPD2    C412164   2.249   2.518   9.834  0.6573 -0.3319 -0.0047
  827MPD2    C512165   2.295   2.644   9.823  0.2394  0.3169 -0.2554
  827MPD2     H12166   2.125   2.532  10.141 -0.4521  1.8895  0.6731
  827MPD2    H112167   2.267   2.451   9.750 -2.3425 -2.0870  0.7661
  827MPD2    H212168   2.309   2.838   9.905 -0.1322  0.1136 -0.7608
  827MPD2    H312169   2.347   2.673   9.732  1.1798 -0.6818 -0.0396
  827MPD2     N12170   2.141   2.341   9.972  0.6241 -0.7107 -0.4971
  827MPD2    H512171   2.098   2.320  10.062 -0.5303  2.0589 -0.4014
  827MPD2    N112172   2.177   2.799  10.127 -0.2379 -0.3547 -0.6995
  827MPD2    H712173   2.211   2.894  10.118 -1.4090  0.0774 -0.5110
  828MPD2     C12174   0.469   2.761  12.310 -0.0656 -0.1402  0.2765
  828MPD2    C112175   0.434   2.796  12.180 -1.0331 -1.1971 -0.0458
  828MPD2    C212176   0.527   2.771  12.078 -0.0937  0.6126  0.2335
  828MPD2    C312177   0.646   2.714  12.105  0.3556 -0.2147 -0.5990
  828MPD2    C412178   0.683   2.686  12.232  0.4354 -0.2676  0.8348
  828MPD2    C512179   0.594   2.701  12.333 -0.3347  0.3553  0.4522
  828MPD2     H12180   0.494   2.791  11.977 -1.9859  0.7909  0.8764
  828MPD2    H112181   0.777   2.637  12.256 -0.7460 -1.6861  2.5438
  828MPD2    H212182   0.402   2.784  12.392  2.6166 -0.8788  2.6627
  828MPD2    H312183   0.622   2.674  12.434  1.9991  1.1291  0.0156
  828MPD2     N12184   0.734   2.681  12.006  0.4195 -0.4641 -0.2111
  828MPD2    H512185   0.817   2.633  12.039  1.0582 -0.1595 -1.3701
  828MPD2    N112186   0.307   2.855  12.147 -0.2306 -0.3917 -0.1210
  828MPD2    H712187   0.281   2.861  12.049 -0.3738 -0.7450 -0.1052
  829MPD2     C12188   4.632   3.280  11.474  0.4926  0.4233 -0.3625
  829MPD2    C112189   4.531   3.225  11.545 -1.1789  0.0210 -0.4199
  829MPD2    C212190   4.561   3.154  11.658  0.3732 -0.2687 -0.4361
  829MPD2    C312191   4.696   3.138  11.692 -0.5751  0.2469  0.1656
  829MPD2    C412192   0.069   3.197  11.613  1.0008 -0.3253  0.5031
  829MPD2    C512193   0.031   3.268  11.501 -0.3251  0.8123 -0.2045
  829MPD2     H12194   4.479   3.106  11.711  1.6431  1.4239  3.0855
  829MPD2    H112195   0.173   3.172  11.631  0.7996 -1.4691  0.0928
  829MPD2    H212196   4.608   3.339  11.386 -0.9657 -1.1950 -1.0447
  829MPD2    H312197   0.108   3.323  11.448  0.4614  0.9494  1.0931
  829MPD2     N12198   0.005   3.065  11.802 -0.4903  0.1364  0.2524
  829MPD2    H512199   0.096   3.090  11.840  0.3191 -0.5687 -1.2486
  829MPD2    N112200   4.402   3.244  11.494  0.2486  0.2142  0.0467
  829MPD2    H712201   4.389   3.297  11.408 -1.1382 -0.0901  0.0606
  830MPD2     C12202   1.260   0.543  15.596 -0.3075 -0.5790 -0.4579
  830MPD2    C112203   1.155   0.560  15.510  0.6709  0.6087  0.1795
  830MPD2    C212204   1.168   0.655  15.407  0.0291  0.3794 -0.0536
  830MPD2    C312205   1.287   0.731  15.393  0.0770  0.2022 -0.4898
  830MPD2    C412206   1.382   0.718  15.489  0.3792 -0.0346  0.8346
  830MPD2    C512207   1.366   0.634  15.593  0.4140  0.7739  0.0395
  830MPD2     H12208   1.078   0.674  15.349 -0.1536 -0.0054  0.1025
  830MPD2    H112209   1.464   0.789  15.493  0.1907  0.3356 -1.6088
  830MPD2    H212210   1.261   0.463  15.669 -0.3930  1.6825  2.0007
  830MPD2    H312211   1.442   0.621  15.669 -1.7190 -1.2516  1.8171
  830MPD2     N12212   1.311   0.816  15.283  0.2095 -0.7602  0.6335
  830MPD2    H512213   1.407   0.851  15.281 -0.3184  0.6431 -0.1096
  830MPD2    N112214   1.034   0.491  15.540 -0.1597 -0.4459  0.3593
  830MPD2    H712215   1.041   0.425  15.617 -1.2532  1.4770  2.0935
  831MPD2     C12216   1.136   2.783  16.278  0.0966  0.2590  1.5961
  831MPD2    C112217   1.164   2.684  16.189  0.3239  0.1863 -0.0942
  831MPD2    C212218   1.088   2.566  16.199  0.1131  0.2751 -0.1280
  831MPD2    C312219   0.989   2.544  16.297  0.1022  0.0836 -0.9286
  831MPD2    C412220   0.978   2.645  16.395  0.2523  0.4175 -0.6144
  831MPD2    C512221   1.043   2.764  16.379 -0.0914  0.8805 -0.0545
  831MPD2     H12222   1.100   2.503  16.112  1.2338  0.1413  0.1171
  831MPD2    H112223   0.898   2.646  16.468  1.4413  1.5051  0.6645
  831MPD2    H212224   1.199   2.871  16.273  2.3215 -1.3721  1.1581
  831MPD2    H312225   1.019   2.848  16.445  0.8285 -0.4482  1.9588
  831MPD2     N12226   0.896   2.434  16.290 -0.4341 -0.6715 -0.1432
  831MPD2    H512227   0.836   2.426  16.371 -1.3101 -0.7902 -0.8099
  831MPD2    N112228   1.264   2.701  16.093 -0.3723  0.2010 -0.2451
  831MPD2    H712229   1.286   2.792  16.054  0.8595 -0.0051 -0.0264
  832MPD2     C12230   3.930   3.672  17.079  0.0577 -0.1738  0.9356
  832MPD2    C112231   3.904   3.782  17.003 -0.0176  0.8343 -0.6056
  832MPD2    C212232   3.803   3.776  16.906  0.2224  0.2494  0.2952
  832MPD2    C312233   3.726   3.661  16.884 -0.0055 -0.0050 -0.9686
  832MPD2    C412234   3.763   3.554  16.962 -0.4470  0.2713 -0.5546
  832MPD2    C512235   3.865   3.560  17.054  0.4360  0.3122  0.2282
  832MPD2     H12236   3.789   3.859  16.838 -1.0214  1.3807  1.9375
  832MPD2    H112237   3.702   3.464  16.959  0.5955 -0.4027 -1.3345
  832MPD2    H212238   4.018   3.674  17.143 -0.4086 -0.9197  1.6033
  832MPD2    H312239   3.885   3.470  17.110 -2.7499  1.0061  2.4975
  832MPD2     N12240   3.615   3.643  16.797  0.3937 -0.1026 -0.2931
  832MPD2    H512241   3.571   3.552  16.801 -0.2347  0.2322  0.3604
  832MPD2    N112242   3.964   3.904  17.043 -0.0748 -0.2262 -0.5514
  832MPD2    H712243   4.032   3.899  17.119  1.8045  0.4311 -2.1781
  833MPD2     C12244   1.041   0.307  12.711 -0.4778  0.2042  0.3883
  833MPD2    C112245   1.127   0.357  12.615 -0.9044 -0.1429  0.8981
  833MPD2    C212246   1.185   0.273  12.518  0.4898  0.4852 -0.6110
  833MPD2    C312247   1.161   0.137  12.524  0.3990  0.4399  0.4567
  833MPD2    C412248   1.078   0.090  12.619  0.9337  0.3611 -0.1015
  833MPD2    C512249   1.019   0.171  12.710 -0.5997 -0.2065  0.3905
  833MPD2     H12250   1.253   0.315  12.445  0.7553 -0.4898 -0.9109
  833MPD2    H112251   1.049   4.714  12.618 -1.0010  0.8943 -0.3992
  833MPD2    H212252   1.003   0.368  12.792 -0.0610 -0.0723  0.7857
  833MPD2    H312253   0.954   0.125  12.784 -0.1561 -1.4805 -0.0140
  833MPD2     N12254   1.206   0.050  12.417 -0.0285  0.6221 -0.0561
  833MPD2    H512255   1.189   4.679  12.423  1.8593  0.4646  2.9384
  833MPD2    N112256   1.133   0.495  12.600  0.5856  0.3056 -0.0457
  833MPD2    H712257   1.091   0.546  12.678  0.1890  0.6057 -0.4583
  834MPD2     C12258   0.713   4.272  11.703  0.5021  0.5124 -0.6491
  834MPD2    C112259   0.830   4.305  11.636 -0.8102  0.7535 -0.4922
  834MPD2    C212260   0.924   4.374  11.705  0.6650  0.1361 -0.8376
  834MPD2    C312261   0.915   4.407  11.836  0.8332 -0.0328 -0.1465
  834MPD2    C412262   0.813   4.356  11.907  0.0961  0.2490  0.6511
  834MPD2    C512263   0.709   4.293  11.841 -0.2997  0.1584  0.4826
  834MPD2     H12264   1.008   4.425  11.659  1.2829  0.1709  0.3293
  834MPD2    H112265   0.814   4.371  12.014  1.8094 -0.9138  0.8053
  834MPD2    H212266   0.634   4.213  11.660  0.9601  0.5416 -1.5252
  834MPD2    H312267   0.623   4.270  11.903 -0.3456  0.1988  0.4341
  834MPD2     N12268   1.018   4.495  11.883 -0.1512  0.0160  0.3224
  834MPD2    H512269   1.079   4.527  11.808 -0.0118 -2.7667 -0.7296
  834MPD2    N112270   0.849   4.272  11.503 -0.1164 -0.3952  0.1225
  834MPD2    H712271   0.777   4.215  11.458 -2.3183  2.4714  0.0440
  835MPD2     C12272   0.741   3.081  11.428  0.6981 -0.3314 -0.7730
  835MPD2    C112273   0.848   2.987  11.452 -0.4010 -0.7026  0.2150
  835MPD2    C212274   0.895   2.978  11.580 -0.0115 -0.2878  0.3247
  835MPD2    C312275   0.841   3.046  11.686  0.8651  0.4606 -0.5086
  835MPD2    C412276   0.728   3.109  11.665  0.2577 -0.2297  0.4632
  835MPD2    C512277   0.683   3.132  11.537  0.2539 -0.1677  0.4320
  835MPD2     H12278   0.973   2.903  11.588  0.4753 -0.1275 -2.9996
  835MPD2    H112279   0.664   3.163  11.734 -2.8212 -1.2268 -1.5895
  835MPD2    H212280   0.691   3.111  11.337  1.0807  1.5741 -0.3579
  835MPD2    H312281   0.607   3.202  11.506 -1.0008 -0.4122  2.9192
  835MPD2     N12282   0.886   3.018  11.820 -0.1255  0.1861 -0.2721
  835MPD2    H512283   0.826   3.057  11.891 -0.5705  0.7175 -0.9358
  835MPD2    N112284   0.899   2.902  11.353 -0.4434  0.1553 -0.0318
  835MPD2    H712285   0.985   2.851  11.369  0.4093  2.1170  1.5478
  836MPD2     C12286   0.807   2.885  12.639  0.6579 -0.2142 -0.3981
  836MPD2    C112287   0.770   2.954  12.530 -0.1034  0.3994  0.3718
  836MPD2    C212288   0.645   3.010  12.529 -0.3368 -0.2591  0.6773
  836MPD2    C312289   0.561   3.001  12.642 -0.2780 -0.0693 -0.1571
  836MPD2    C412290   0.608   2.932  12.752 -0.4317  0.4595 -0.0880
  836MPD2    C512291   0.729   2.873  12.749 -0.5183 -0.2133 -0.4829
  836MPD2     H12292   0.613   3.058  12.437 -0.5143 -0.7126  0.5015
  836MPD2    H112293   0.541   2.908  12.833 -1.4042 -1.3207 -1.4194
  836MPD2    H212294   0.906   2.841  12.634  1.1325  0.8241 -0.0692
  836MPD2    H312295   0.771   2.817  12.832  0.5188  0.5657 -0.4896
  836MPD2     N12296   0.428   3.042  12.654  0.0372 -0.3610  0.1788
  836MPD2    H512297   0.378   3.037  12.742 -0.8578 -1.6391 -0.3982
  836MPD2    N112298   0.859   2.949  12.422  0.3642 -0.5544 -0.3287
  836MPD2    H712299   0.940   2.888  12.434  0.3796 -0.2515  1.1302
  837MPD2     C12300   3.471   3.300   9.885 -0.2054 -0.0951 -0.0528
  837MPD2    C112301   3.426   3.260   9.757  0.0336 -0.1361  0.1250
  837MPD2    C212302   3.358   3.353   9.681 -0.4992  0.0335  0.3094
  837MPD2    C312303   3.329   3.482   9.729 -0.0598  0.2765 -0.2289
  837MPD2    C412304   3.376   3.514   9.855 -0.1869  0.5513  0.1820
  837MPD2    C512305   3.453   3.423   9.921  0.1572  0.2844  0.1291
  837MPD2     H12306   3.318   3.318   9.586 -1.1074 -1.9651  1.3072
  837MPD2    H112307   3.369   3.616   9.891  0.8150  1.4666 -2.2202
  837MPD2    H212308   3.531   3.228   9.940 -0.9036  0.3754  1.3234
  837MPD2    H312309   3.485   3.459  10.018  2.4663 -0.8316 -0.2230
  837MPD2     N12310   3.273   3.571   9.646 -0.2904 -0.6546 -1.1266
  837MPD2    H512311   3.241   3.548   9.552 -0.5012 -1.2870 -0.9029
  837MPD2    N112312   3.458   3.139   9.694 -0.2799  0.5325 -0.2990
  837MPD2    H712313   3.428   3.119   9.599  0.8157  1.6991 -0.8765
  838MPD2     C12314   2.061   1.133  11.702 -0.1433 -0.5065 -0.0125
  838MPD2    C112315   2.090   1.057  11.817 -0.1440 -0.2769  0.2509
  838MPD2    C212316   1.991   0.976  11.870  0.2749 -0.1422 -0.6387
  838MPD2    C312317   1.861   0.974  11.811 -0.1485  0.1555  0.1528
  838MPD2    C412318   1.844   1.046  11.695 -0.2220 -0.7550  0.0032
  838MPD2    C512319   1.944   1.116  11.636  0.0417 -1.0022 -0.2394
  838MPD2     H12320   2.024   0.929  11.962 -0.5713  2.0119  0.7493
  838MPD2    H112321   1.750   1.042  11.642 -1.4287 -1.6634  2.1979
  838MPD2    H212322   2.149   1.181  11.660  0.4973 -0.9962  0.7733
  838MPD2    H312323   1.928   1.162  11.540  0.7037  1.9539  1.0509
  838MPD2     N12324   1.764   0.887  11.859 -0.0208 -0.7651  0.0565
  838MPD2    H512325   1.785   0.841  11.947  0.3205 -0.9679 -0.1331
  838MPD2    N112326   2.212   1.057  11.882  0.4194 -0.1787 -0.8461
  838MPD2    H712327   2.227   0.998  11.963 -0.7004 -1.3527 -1.4906
  839MPD2     C12328   2.152   0.317  11.814 -0.4984 -0.4807  0.7050
  839MPD2    C112329   2.186   0.395  11.704  0.2009  0.1708 -0.1460
  839MPD2    C212330   2.288   0.485  11.709 -0.3133 -0.1561  0.1612
  839MPD2    C312331   2.341   0.504  11.839 -0.3783 -0.4121  0.0312
  839MPD2    C412332   2.314   0.417  11.940 -0.4856  0.2126 -0.7443
  839MPD2    C512333   2.219   0.320  11.931  0.2036 -0.2290 -0.4112
  839MPD2     H12334   2.306   0.555  11.628 -0.9402  1.3680  1.3530
  839MPD2    H112335   2.367   0.424  12.034 -0.5378  0.5237 -0.7376
  839MPD2    H212336   2.076   0.241  11.808  1.2174 -2.0217 -1.4343
  839MPD2    H312337   2.195   0.252  12.011  0.5457  1.3937  1.0687
  839MPD2     N12338   2.418   0.623  11.862  0.4736  0.1633 -0.1026
  839MPD2    H512339   2.432   0.650  11.959  2.0864 -2.7499  0.4970
  839MPD2    N112340   2.119   0.398  11.588  0.1337  0.6337  0.9260
  839MPD2    H712341   2.174   0.442  11.514 -0.2098  2.5771  1.8316
  840MPD2     C12342   2.636   3.190  10.283  0.3288  0.3943 -0.7891
  840MPD2    C112343   2.583   3.153  10.404  0.5139  0.2917 -0.5497
  840MPD2    C212344   2.634   3.213  10.519  0.9764 -0.1935 -0.5784
  840MPD2    C312345   2.736   3.308  10.512  0.1677 -0.2730  0.2630
  840MPD2    C412346   2.797   3.333  10.389  0.0255 -0.5270  0.0744
  840MPD2    C512347   2.738   3.280  10.275 -0.0067  0.8114  0.1179
  840MPD2     H12348   2.585   3.195  10.614  2.8813 -2.3372 -0.0011
  840MPD2    H112349   2.883   3.398  10.380  1.6505 -2.9388 -1.6295
  840MPD2    H212350   2.610   3.137  10.192 -0.4416 -0.4432 -0.0675
  840MPD2    H312351   2.789   3.299  10.181 -1.5005 -0.7286 -0.9873
  840MPD2     N12352   2.783   3.378  10.621  0.4911 -0.0187 -0.3407
  840MPD2    H512353   2.872   3.424  10.605 -0.4738  2.0107  0.0306
  840MPD2    N112354   2.474   3.060  10.399 -0.0031  0.0444  0.2827
  840MPD2    H712355   2.432   3.054  10.307  0.5952 -2.3192  0.1494
  841MPD2     C12356   2.181   2.965  14.789  0.0620 -0.8475 -0.4544
  841MPD2    C112357   2.203   2.917  14.662  0.1940 -0.0313  0.5400
  841MPD2    C212358   2.174   2.999  14.559 -0.9386 -0.0165  0.2691
  841MPD2    C312359   2.122   3.123  14.569 -0.6190 -0.1065  0.0304
  841MPD2    C412360   2.099   3.171  14.695  0.0287 -0.0735  0.3773
  841MPD2    C512361   2.126   3.091  14.806  0.5717 -0.2597 -0.2846
  841MPD2     H12362   2.188   2.961  14.458 -0.8154 -2.8253  1.3551
  841MPD2    H112363   2.058   3.270  14.705 -1.5189 -0.8264  1.5231
  841MPD2    H212364   2.214   2.901  14.870  1.4884 -0.5749 -0.8086
  841MPD2    H312365   2.108   3.127  14.907 -0.7890  0.3175 -0.7390
  841MPD2     N12366   2.111   3.197  14.450  0.2552 -0.1766 -0.2652
  841MPD2    H512367   2.142   3.137  14.375  3.1448 -0.3937  1.0764
  841MPD2    N112368   2.258   2.789  14.626 -0.3277 -0.1278  0.4060
  841MPD2    H712369   2.254   2.775  14.526  0.8175 -3.4158  0.8430
  842MPD2     C12370   2.171   3.525  16.730 -0.5850 -0.2413  0.1344
  842MPD2    C112371   2.272   3.609  16.690 -0.1467 -0.7122 -0.1611
  842MPD2    C212372   2.378   3.608  16.773 -0.6488  0.8911  0.5092
  842MPD2    C312373   2.388   3.551  16.900 -0.3632 -0.3723 -0.2824
  842MPD2    C412374   2.280   3.469  16.939 -0.7649 -0.0713 -0.3497
  842MPD2    C512375   2.179   3.454  16.849  0.2907 -0.1895 -0.2624
  842MPD2     H12376   2.458   3.678  16.751  1.0411 -1.1262  0.2215
  842MPD2    H112377   2.275   3.417  17.034  0.3055 -0.6218 -0.5956
  842MPD2    H212378   2.077   3.523  16.676 -0.5617  0.0427  0.0844
  842MPD2    H312379   2.096   3.387  16.870  0.9036 -1.1921 -1.0107
  842MPD2     N12380   2.496   3.568  16.985 -0.1973 -0.1763  0.6676
  842MPD2    H512381   2.502   3.513  17.070  1.7430 -2.0898 -0.6974
  842MPD2    N112382   2.256   3.694  16.576  0.2179 -0.2865  0.4564
  842MPD2    H712383   2.164   3.697  16.533  0.2618 -0.7213  0.3388
  843MPD2     C12384   0.294   3.528   0.391 -0.3064 -0.4752  0.2803
  843MPD2    C112385   0.388   3.538   0.489 -0.3932 -1.1905 -0.0306
  843MPD2    C212386   0.480   3.637   0.481  0.1392 -0.1954  0.0330
  843MPD2    C312387   0.491   3.717   0.369 -0.7666  0.4585 -0.2264
  843MPD2    C412388   0.389   3.707   0.269 -0.0606  0.3196  0.8423
  843MPD2    C512389   0.293   3.613   0.285  0.1395  0.3293 -0.6626
  843MPD2     H12390   0.546   3.653   0.566 -1.8522 -0.6800  1.6920
  843MPD2    H112391   0.382   3.776   0.185 -0.8527 -0.5541  0.1916
  843MPD2    H212392   0.221   3.448   0.400 -2.5577  1.6371  0.7977
  843MPD2    H312393   0.217   3.606   0.208 -0.6665  1.7211  0.0075
  843MPD2     N12394   0.596   3.807   0.349 -0.7930 -0.2000  0.1155
  843MPD2    H512395   0.578   3.876   0.277  1.6825 -0.4148 -0.6898
  843MPD2    N112396   0.369   3.449   0.600  0.3365  0.3037  0.3927
  843MPD2    H712397   0.288   3.388   0.597  0.0067  0.6397  2.2147
  844MPD2     C12398   3.766   2.783  16.660 -0.3919  0.5520  0.6294
  844MPD2    C112399   3.751   2.854  16.544 -0.3712 -0.3838  0.2923
  844MPD2    C212400   3.787   2.984  16.538  0.6167  0.1988  0.0514
  844MPD2    C312401   3.841   3.044  16.653 -1.1533  1.0149  0.2433
  844MPD2    C412402   3.856   2.971  16.770  0.0024  0.1241 -0.6240
  844MPD2    C512403   3.825   2.841  16.772  0.2219 -0.0038  0.5686
  844MPD2     H12404   3.766   3.049  16.453  0.2652  0.5991  0.4443
  844MPD2    H112405   3.886   3.008  16.867 -0.8745 -2.3855  0.6120
  844MPD2    H212406   3.745   2.679  16.683 -1.3360  0.5679 -0.1684
  844MPD2    H312407   3.839   2.786  16.865  0.4045  0.4749  0.8231
  844MPD2     N12408   3.873   3.180  16.645 -0.1853 -0.4845 -0.5212
  844MPD2    H512409   3.849   3.226  16.557  0.2174  1.0549  0.1759
  844MPD2    N112410   3.697   2.796  16.431 -0.4028 -0.6160  0.5284
  844MPD2    H712411   3.689   2.860  16.353 -0.7165  1.0355  1.9261
  845MPD2     C12412   3.741   4.034  16.176  0.1739 -0.1029 -0.5591
  845MPD2    C112413   3.843   4.067  16.261 -0.1193 -0.2323  0.0123
  845MPD2    C212414   3.900   3.976  16.340 -0.3331  0.0867  0.3932
  845MPD2    C312415   3.855   3.850  16.347  0.3352 -0.1909 -0.9665
  845MPD2    C412416   3.757   3.815  16.264  0.2877  0.3347 -0.2355
  845MPD2    C512417   3.699   3.905  16.182 -0.2022  0.2900  0.1206
  845MPD2     H12418   3.989   3.995  16.398  0.8363  4.3818 -2.7957
  845MPD2    H112419   3.728   3.711  16.271  1.7301 -0.0434  0.1394
  845MPD2    H212420   3.696   4.103  16.106 -1.8231 -0.3898  0.4523
  845MPD2    H312421   3.628   3.864  16.111  0.5289  1.1505 -1.1121
  845MPD2     N12422   3.910   3.764  16.444 -0.8756 -0.2086 -0.0493
  845MPD2    H512423   3.981   3.807  16.503  0.5432 -1.9674 -0.4712
  845MPD2    N112424   3.884   4.203  16.250 -0.6612 -0.3548 -0.2796
  845MPD2    H712425   3.847   4.257  16.172  0.6109  0.0256 -0.6161
  846MPD2     C12426   0.305   0.044  13.139  0.6597  0.6980 -0.4676
  846MPD2    C112427   0.338   0.177  13.163 -0.3344 -0.1018  0.8486
  846MPD2    C212428   0.377   0.209  13.293 -0.6280  0.1573 -0.2093
  846MPD2    C312429   0.396   0.115  13.390 -0.2095 -0.0869  0.2761
  846MPD2    C412430   0.374   4.720  13.354 -0.2542 -0.5307  0.2471
  846MPD2    C512431   0.324   4.677  13.237  0.2894 -0.7375 -0.1181
  846MPD2     H12432   0.375   0.314  13.320  1.0833  0.2428 -0.4723
  846MPD2    H112433   0.371   4.636  13.422 -1.1828 -0.8884 -0.2317
  846MPD2    H212434   0.272   4.728  13.046  0.2754  1.5469 -0.7417
  846MPD2    H312435   0.315   4.571  13.217  0.3535 -0.5331 -1.2467
  846MPD2     N12436   0.417   0.152  13.527  0.1136  0.8098 -0.1104
  846MPD2    H512437   0.429   0.250  13.549 -1.4386  1.0568 -0.3500
  846MPD2    N112438   0.335   0.279  13.063 -0.0272 -0.0868  0.3016
  846MPD2    H712439   0.372   0.369  13.093 -0.2334  0.1171 -0.0504
  847MPD2     C12440   0.948   0.669  13.698  0.1674  0.3529 -0.0807
  847MPD2    C112441   0.889   0.753  13.799 -0.2610 -0.0593 -0.2170
  847MPD2    C212442   0.902   0.708  13.932  0.6736 -0.2699  0.2187
  847MPD2    C312443   0.975   0.598  13.966  0.2649 -0.0920  0.4999
  847MPD2    C412444   1.025   0.515  13.866  0.3134  0.8204 -0.4090
  847MPD2    C512445   1.019   0.556  13.736  0.1151 -0.3002 -0.1818
  847MPD2     H12446   0.854   0.762  14.013 -0.5950  0.8161 -1.2678
  847MPD2    H112447   1.071   0.418  13.878 -0.0846  0.3988 -2.2615
  847MPD2    H212448   0.936   0.696  13.594 -0.3964 -3.5173 -1.0217
  847MPD2    H312449   1.055   0.487  13.661  0.8076 -0.3733  0.2112
  847MPD2     N12450   0.990   0.569  14.103  0.0492  0.4863 -0.3421
  847MPD2    H512451   0.988   0.644  14.171  1.3145 -0.2147  0.4696
  847MPD2    N112452   0.815   0.871  13.785  0.2729 -0.0600  0.1590
  847MPD2    H712453   0.775   0.914  13.867  2.5339  0.4805  0.9820
  848MPD2     C12454   3.466   3.584  16.016  0.1109  0.1945 -0.1377
  848MPD2    C112455   3.424   3.687  16.100  0.3022  0.1747  0.0894
  848MPD2    C212456   3.372   3.800  16.034 -0.1111 -0.4654  0.3554
  848MPD2    C312457   3.368   3.810  15.892  0.0761  0.0924 -0.0088
  848MPD2    C412458   3.422   3.712  15.814  0.0452 -0.0888  0.7757
  848MPD2    C512459   3.472   3.603  15.878 -0.6779 -0.0987 -0.1185
  848MPD2     H12460   3.346   3.886  16.095  0.4199  0.5267 -0.7907
  848MPD2    H112461   3.435   3.712  15.706 -2.2617 -3.6440  0.4906
  848MPD2    H212462   3.501   3.489  16.054  0.1125  0.4563  0.5196
  848MPD2    H312463   3.513   3.521  15.820 -0.7891  1.4144 -2.3123
  848MPD2     N12464   3.312   3.925  15.836  0.3768 -0.0769  0.5925
  848MPD2    H512465   3.327   3.941  15.737  0.8735  1.7040  0.9615
  848MPD2    N112466   3.414   3.672  16.240 -0.7196  0.9403  0.6977
  848MPD2    H712467   3.366   3.745  16.290  0.5584  1.9335  0.4679
  849MPD2     C12468   2.217   3.969  13.958 -0.2128 -0.6152  0.3621
  849MPD2    C112469   2.332   3.928  13.894 -1.0219 -0.2597 -0.2357
  849MPD2    C212470   2.436   3.886  13.967  1.0354  0.1880 -0.2817
  849MPD2    C312471   2.431   3.890  14.110 -0.0110  0.6188  0.5405
  849MPD2    C412472   2.320   3.932  14.173 -0.5148 -0.1976 -0.2574
  849MPD2    C512473   2.214   3.982  14.096  0.3225 -0.1688 -0.6559
  849MPD2     H12474   2.521   3.835  13.923 -0.3059 -1.6565 -0.7440
  849MPD2    H112475   2.318   3.934  14.282  1.0353 -0.2646 -0.2339
  849MPD2    H212476   2.126   4.007  13.913  0.8567  1.6101  0.0915
  849MPD2    H312477   2.126   4.030  14.138 -0.3744 -0.9679 -1.2161
  849MPD2     N12478   2.541   3.831  14.173 -0.1889 -0.1072 -0.1219
  849MPD2    H512479   2.623   3.818  14.114 -0.5426  0.4959 -0.7481
  849MPD2    N112480   2.345   3.916  13.753 -0.2905 -0.5187  0.1732
  849MPD2    H712481   2.434   3.876  13.723 -0.2265 -1.4671  1.6566
  850MPD2     C12482   0.613   1.740  14.507  1.0044  0.1633  0.8553
  850MPD2    C112483   0.606   1.767  14.641 -0.7154  0.4505 -0.1324
  850MPD2    C212484   0.721   1.819  14.702  0.3534  0.1179  0.1173
  850MPD2    C312485   0.837   1.844  14.633  0.8250  0.5304 -0.0706
  850MPD2    C412486   0.835   1.823  14.496  0.2862  0.1784  0.5526
  850MPD2    C512487   0.723   1.777  14.434  0.9167  0.0251  0.2707
  850MPD2     H12488   0.715   1.847  14.807 -1.9943 -2.6780  0.7182
  850MPD2    H112489   0.925   1.835  14.436  0.5752  1.5212  1.2447
  850MPD2    H212490   0.524   1.710  14.453  0.4952 -0.6671  2.1682
  850MPD2    H312491   0.715   1.774  14.325  0.8692  3.7605  0.1677
  850MPD2     N12492   0.959   1.877  14.691  0.2999 -0.2858  0.2049
  850MPD2    H512493   1.040   1.874  14.629  0.7157  1.5438  0.6647
  850MPD2    N112494   0.480   1.752  14.699 -1.0309  0.1264 -0.1113
  850MPD2    H712495   0.403   1.748  14.634 -0.2621 -0.1938 -1.0112
  851MPD2     C12496   1.141   1.716  15.267  0.4391  0.0283 -0.9836
  851MPD2    C112497   1.059   1.646  15.175 -0.0928  0.1834  0.6427
  851MPD2    C212498   1.111   1.528  15.126 -0.8770 -0.1605 -0.4219
  851MPD2    C312499   1.237   1.483  15.149 -0.0963 -0.4441 -0.2030
  851MPD2    C412500   1.312   1.554  15.238 -1.0316 -0.2704 -0.0886
  851MPD2    C512501   1.261   1.667  15.301 -0.3167  0.6675 -0.3936
  851MPD2     H12502   1.058   1.461  15.059 -3.8269  1.7907 -0.0230
  851MPD2    H112503   1.409   1.523  15.274 -1.0514  1.2717  1.2557
  851MPD2    H212504   1.100   1.800  15.322  0.7269  0.2258 -1.0719
  851MPD2    H312505   1.328   1.715  15.371  0.3267 -0.1664 -0.4293
  851MPD2     N12506   1.276   1.362  15.094 -0.0686  1.1788 -0.1751
  851MPD2    H512507   1.198   1.318  15.047  0.8507 -0.5952 -0.0665
  851MPD2    N112508   0.927   1.688  15.153 -0.4109 -0.8264 -0.0129
  851MPD2    H712509   0.909   1.782  15.187  0.3689 -0.3988 -0.7621
  852MPD2     C12510   0.915   3.756  10.170  0.0383  0.1879  0.5857
  852MPD2    C112511   0.862   3.884  10.175 -0.5019  0.2426 -0.3672
  852MPD2    C212512   0.931   3.980  10.106 -0.5508 -0.1118 -0.1248
  852MPD2    C312513   1.053   3.956  10.046 -0.9636  0.3557 -0.6770
  852MPD2    C412514   1.112   3.829  10.052  0.0600  0.6780  0.4421
  852MPD2    C512515   1.039   3.732  10.111 -0.1425 -0.0620  0.3208
  852MPD2     H12516   0.890   4.080  10.095 -0.7862  0.1158  2.8610
  852MPD2    H112517   1.209   3.802  10.011  0.1545  3.2398 -1.0201
  852MPD2    H212518   0.871   3.672  10.224 -1.1383  1.0484  0.9858
  852MPD2    H312519   1.082   3.633  10.124 -4.6187 -1.8496  1.7581
  852MPD2     N12520   1.113   4.073   9.995 -0.2108  0.2283 -0.0171
  852MPD2    H512521   1.053   4.154  10.005 -0.3060 -0.0559  1.7533
  852MPD2    N112522   0.746   3.911  10.254 -0.4179 -0.3519 -0.4747
  852MPD2    H712523   0.719   4.009  10.248 -1.9914 -0.7790 -0.4736
  853MPD2     C12524   2.004   3.913  12.291 -0.1114 -0.6631  0.6808
  853MPD2    C112525   1.974   4.043  12.256  0.4657  0.1806  0.4386
  853MPD2    C212526   1.975   4.075  12.120 -0.3146 -0.8340 -0.0282
  853MPD2    C312527   1.996   3.987  12.018 -0.7166  0.3764  0.4056
  853MPD2    C412528   2.025   3.856  12.054  0.7512 -0.7506  0.0263
  853MPD2    C512529   2.020   3.822  12.185 -0.2926 -0.4799  0.3120
  853MPD2     H12530   1.950   4.178  12.100 -2.1748 -0.8379  2.2722
  853MPD2    H112531   2.050   3.779  11.981  4.8663  0.1146  0.5246
  853MPD2    H212532   1.981   3.878  12.390 -0.1611 -1.2141  0.4724
  853MPD2    H312533   2.029   3.716  12.203  0.1435 -0.4947 -0.0007
  853MPD2     N12534   1.999   4.012  11.878  0.1937 -0.1797 -0.1669
  853MPD2    H512535   2.020   3.936  11.815  0.0690  0.6419 -1.2084
  853MPD2    N112536   1.948   4.135  12.365  0.5999  0.4206 -0.1033
  853MPD2    H712537   1.958   4.098  12.459  1.2641 -1.0677 -0.7534
  854MPD2     C12538   3.776   4.459  12.682  0.0869 -0.7469 -0.2008
  854MPD2    C112539   3.746   4.348  12.611  0.0356 -0.7151 -0.0879
  854MPD2    C212540   3.827   4.241  12.626 -0.9905 -0.1087  0.0572
  854MPD2    C312541   3.945   4.251  12.695  0.0408 -0.0858 -0.3369
  854MPD2    C412542   3.979   4.365  12.756  0.2044 -0.0344  0.0690
  854MPD2    C512543   3.891   4.471  12.752 -0.6447  0.5799 -0.1111
  854MPD2     H12544   3.797   4.145  12.585  0.1922 -1.4605  2.3754
  854MPD2    H112545   4.073   4.365  12.811  0.4168  1.7172 -0.2794
  854MPD2    H212546   3.708   4.544  12.687 -0.1778 -1.0925  2.0176
  854MPD2    H312547   3.904   4.558  12.816 -0.1444  0.1624  0.3573
  854MPD2     N12548   4.030   4.144  12.726  0.5455 -0.5745 -0.0300
  854MPD2    H512549   4.102   4.154  12.797  2.8279  0.3397 -2.4700
  854MPD2    N112550   3.615   4.345  12.560  0.1900  0.6250  0.4967
  854MPD2    H712551   3.553   4.422  12.583  0.7951  1.1751  0.2730
  855MPD2     C12552   4.392   4.184  13.453  0.2926  0.3078  0.1886
  855MPD2    C112553   4.374   4.050  13.440  0.2127 -0.0500 -0.0193
  855MPD2    C212554   4.347   3.997  13.318  0.6110 -0.7070  0.2759
  855MPD2    C312555   4.330   4.077  13.204  0.7020 -0.0392  0.4569
  855MPD2    C412556   4.341   4.215  13.220 -0.4465  0.6900  0.2362
  855MPD2    C512557   4.369   4.259  13.347  0.5592  0.4096  0.0361
  855MPD2     H12558   4.337   3.890  13.300 -2.4612 -0.1113 -1.4564
  855MPD2    H112559   4.333   4.285  13.137  0.9164 -1.0168 -1.3413
  855MPD2    H212560   4.431   4.230  13.542  0.6114  1.3463 -0.4852
  855MPD2    H312561   4.368   4.366  13.359 -0.4228  0.4889 -0.7640
  855MPD2     N12562   4.313   4.028  13.069 -0.0395 -0.2710  0.9550
  855MPD2    H512563   4.291   4.096  12.997 -0.2237 -2.9174 -1.5186
  855MPD2    N112564   4.373   3.956  13.547 -0.3631 -0.3146  0.3967
  855MPD2    H712565   4.344   3.860  13.534 -1.0155 -0.0314 -0.1943
  856MPD2     C12566   1.337   0.242  13.500 -0.0977 -0.3189  0.4615
  856MPD2    C112567   1.418   0.347  13.529 -0.3295 -0.0014  0.5065
  856MPD2    C212568   1.375   0.478  13.510  0.5710 -0.1224 -0.1359
  856MPD2    C312569   1.249   0.507  13.462 -0.1383  0.4750 -0.0798
  856MPD2    C412570   1.165   0.402  13.444  0.6268 -0.5892  0.6527
  856MPD2    C512571   1.211   0.274  13.456  1.0815  0.2910 -1.5634
  856MPD2     H12572   1.435   0.562  13.541  0.9507  0.0536 -1.3562
  856MPD2    H112573   1.068   0.415  13.397  1.3659  1.4416 -0.3101
  856MPD2    H212574   1.370   0.139  13.497 -2.0868 -0.9743  1.7732
  856MPD2    H312575   1.156   0.187  13.422  0.6031  0.6588 -1.7460
  856MPD2     N12576   1.200   0.642  13.445  0.0348 -0.5981 -0.4978
  856MPD2    H512577   1.102   0.652  13.422  0.0922 -1.1626 -1.0003
  856MPD2    N112578   1.550   0.323  13.568 -0.1181  0.6764  1.0233
  856MPD2    H712579   1.616   0.401  13.568 -0.1466  0.6925 -0.3664
  857MPD2     C12580   2.811   2.312  12.931 -0.0290 -0.4211 -0.0611
  857MPD2    C112581   2.936   2.314  12.867 -0.5302  1.8144 -0.1471
  857MPD2    C212582   3.001   2.439  12.863 -0.1140 -0.0475 -0.1900
  857MPD2    C312583   2.945   2.550  12.915 -0.6857 -0.4007  0.1672
  857MPD2    C412584   2.819   2.549  12.970  0.9450 -0.0362 -0.4938
  857MPD2    C512585   2.753   2.431  12.971 -0.0070 -0.2062  0.5768
  857MPD2     H12586   3.100   2.448  12.820  0.3418 -1.2145  0.6127
  857MPD2    H112587   2.779   2.646  12.997 -1.4604 -1.2451  0.2874
  857MPD2    H212588   2.750   2.224  12.946  0.3932 -0.9592 -1.4757
  857MPD2    H312589   2.655   2.421  13.017 -1.0186  3.2905 -0.9024
  857MPD2     N12590   3.025   2.665  12.890  0.2518 -0.0716  0.1563
  857MPD2    H512591   3.120   2.647  12.856  0.2872 -0.5877  0.5366
  857MPD2    N112592   2.985   2.193  12.820 -0.4620  0.0512  0.7117
  857MPD2    H712593   2.923   2.116  12.842  0.9617 -0.8162  1.7450
  858MPD2     C12594   3.862   1.288  16.815  0.3966 -0.1663  0.3503
  858MPD2    C112595   4.000   1.282  16.811  0.3608  0.1526 -0.8453
  858MPD2    C212596   4.075   1.389  16.844 -0.1372  0.0809 -1.2716
  858MPD2    C312597   4.012   1.494  16.909 -0.2988 -0.1654  0.1151
  858MPD2    C412598   3.875   1.493  16.927 -0.2626  0.5242  0.1791
  858MPD2    C512599   3.800   1.389  16.878 -0.0502  0.0704 -0.2778
  858MPD2     H12600   4.183   1.383  16.833 -0.0011  0.7543 -0.3828
  858MPD2    H112601   3.824   1.572  16.982  1.0503  0.6903  1.1618
  858MPD2    H212602   3.805   1.219  16.754  0.0475  1.4640 -1.1862
  858MPD2    H312603   3.692   1.390  16.874 -0.0426  3.1360  0.0331
  858MPD2     N12604   4.086   1.606  16.948 -0.5171 -0.8566 -0.4277
  858MPD2    H512605   4.050   1.661  17.026 -1.0449  1.9377 -2.6528
  858MPD2    N112606   4.054   1.166  16.755  1.1850  0.3415  0.1058
  858MPD2    H712607   3.996   1.083  16.745  0.0669  1.2245 -0.8598
  859MPD2     C12608   2.350   3.507  14.977  0.3185 -0.3715  0.1512
  859MPD2    C112609   2.456   3.509  14.890 -0.2948 -0.7598 -0.2810
  859MPD2    C212610   2.518   3.387  14.850  0.3220 -0.1996  0.1859
  859MPD2    C312611   2.475   3.264  14.898  0.3648 -0.7436  0.4002
  859MPD2    C412612   2.368   3.262  14.982 -0.6605 -0.3270  0.0691
  859MPD2    C512613   2.307   3.381  15.020 -0.4974  0.9771 -0.2463
  859MPD2     H12614   2.596   3.376  14.775  1.8863  1.6660  1.5213
  859MPD2    H112615   2.330   3.177  15.037  2.2658 -2.3972 -1.1181
  859MPD2    H212616   2.298   3.599  15.001  0.5212 -0.1690 -0.1944
  859MPD2    H312617   2.222   3.371  15.087 -1.0543 -0.9799 -1.2416
  859MPD2     N12618   2.534   3.150  14.847  0.3874 -0.3621 -0.1856
  859MPD2    H512619   2.606   3.159  14.776 -1.8367  2.6195 -2.0232
  859MPD2    N112620   2.499   3.635  14.839 -0.0207  0.3136 -0.2127
  859MPD2    H712621   2.439   3.713  14.862  2.1028  2.0885 -0.6791
  860MPD2     C12622   0.367   4.014  11.371  0.5518  0.0052  0.2846
  860MPD2    C112623   0.345   3.936  11.488  0.0891  0.9347 -0.1787
  860MPD2    C212624   0.218   3.915  11.533 -0.8778  0.3521  0.5756
  860MPD2    C312625   0.114   3.962  11.452  0.5647  0.2201 -0.1391
  860MPD2    C412626   0.134   4.022  11.332  0.1679 -0.2608  0.0478
  860MPD2    C512627   0.259   4.049  11.295  0.8023 -0.0514 -0.6246
  860MPD2     H12628   0.177   3.866  11.620  0.9574  0.6811  1.6143
  860MPD2    H112629   0.046   4.057  11.279 -0.5007  1.2357  2.1418
  860MPD2    H212630   0.467   4.035  11.334  0.7030 -1.0140  0.1180
  860MPD2    H312631   0.270   4.106  11.203  0.7283 -0.2963 -0.7845
  860MPD2     N12632   4.711   3.937  11.506  0.2078  0.2167  0.0627
  860MPD2    H512633   4.715   3.902  11.600  0.6668  1.8930  0.6754
  860MPD2    N112634   0.441   3.881  11.569 -0.2461  0.5390  0.1667
  860MPD2    H712635   0.421   3.799  11.625  1.5318 -0.5499 -0.8073
  861MPD2     C12636   3.929   2.689  10.975 -0.1736  0.6736 -0.0045
  861MPD2    C112637   3.821   2.621  11.029  0.0254  0.6305  1.0607
  861MPD2    C212638   3.691   2.626  10.976  0.0448 -0.0713  0.2660
  861MPD2    C312639   3.674   2.714  10.861  0.0249  0.4705  0.2179
  861MPD2    C412640   3.781   2.768  10.809  0.1773 -0.4011  0.8490
  861MPD2    C512641   3.901   2.763  10.863  0.1364 -0.4316 -0.3527
  861MPD2     H12642   3.601   2.583  11.016 -1.0814  2.2350  0.2185
  861MPD2    H112643   3.771   2.838  10.727 -1.1162  0.2313  1.5402
  861MPD2    H212644   4.025   2.684  11.024 -0.5976  1.1975  0.9028
  861MPD2    H312645   3.985   2.818  10.822  0.9378 -0.6296  1.0619
  861MPD2     N12646   3.555   2.722  10.786  0.3360 -0.2054  0.5606
  861MPD2    H512647   3.562   2.768  10.696 -2.4442  0.0556  0.4729
  861MPD2    N112648   3.837   2.552  11.149  0.6404  0.6136 -0.4987
  861MPD2    H712649   3.922   2.566  11.203  0.2737 -2.0666  0.7816
  862MPD2     C12650   2.941   2.650  10.329  0.0650 -0.0050  0.1954
  862MPD2    C112651   3.069   2.645  10.376  0.4879  0.7314 -0.9651
  862MPD2    C212652   3.118   2.527  10.435  0.4326  0.4545 -0.0500
  862MPD2    C312653   3.033   2.418  10.452  0.1374 -0.0214  0.1381
  862MPD2    C412654   2.915   2.421  10.394 -0.3812 -0.4402 -0.4123
  862MPD2    C512655   2.870   2.533  10.325  0.0268 -0.0878  0.0906
  862MPD2     H12656   3.221   2.520  10.469  0.2732 -1.4209  0.0588
  862MPD2    H112657   2.844   2.339  10.393  0.1774 -0.9260  0.7933
  862MPD2    H212658   2.899   2.739  10.284 -0.4377 -0.4225 -0.1538
  862MPD2    H312659   2.769   2.536  10.285  0.5524  1.4200 -1.1036
  862MPD2     N12660   3.056   2.308  10.530 -0.3450  0.4202 -0.1275
  862MPD2    H512661   2.999   2.226  10.511  2.3200 -1.0360 -1.9520
  862MPD2    N112662   3.136   2.763  10.406  1.1135  0.1382 -0.0117
  862MPD2    H712663   3.083   2.849  10.418  0.6628 -0.1488  0.0670
  863MPD2     C12664   1.905   0.120  17.019 -0.3836 -0.0169  0.6659
  863MPD2    C112665   1.960   0.087  16.896 -0.3046  0.1528 -0.3224
  863MPD2    C212666   2.097   0.076  16.889  0.4467  0.5373 -0.4509
  863MPD2    C312667   2.182   0.085  16.995 -0.8287  0.7108  0.2004
  863MPD2    C412668   2.124   0.112  17.120 -0.4683  0.5508  0.0860
  863MPD2    C512669   1.986   0.127  17.133 -0.7298  0.1320  0.2257
  863MPD2     H12670   2.142   0.042  16.797 -0.9124 -1.7510 -0.2649
  863MPD2    H112671   2.180   0.120  17.213 -2.2103 -0.9464  1.2553
  863MPD2    H212672   1.798   0.130  17.032 -0.5659 -2.9124  1.4716
  863MPD2    H312673   1.941   0.134  17.231 -0.7682  0.2249  0.2015
  863MPD2     N12674   2.326   0.076  16.980 -0.3942  0.1454 -0.0792
  863MPD2    H512675   2.378   0.078  17.067  1.0957  1.8775 -1.0079
  863MPD2    N112676   1.868   0.082  16.785  0.2506 -0.3108 -0.4985
  863MPD2    H712677   1.780   0.132  16.784  0.8601  0.7258 -1.9417
  864MPD2     C12678   2.766   1.339  17.086 -0.3491 -0.1820  0.0445
  864MPD2    C112679   2.803   1.316  16.954  0.2439 -0.1233 -0.2530
  864MPD2    C212680   2.898   1.395  16.893  0.2839  0.1668 -0.7876
  864MPD2    C312681   2.947   1.501  16.956  0.6190 -0.2923  0.3263
  864MPD2    C412682   2.894   1.543  17.075 -0.1002 -0.2581 -0.1038
  864MPD2    C512683   2.806   1.457  17.143  0.3748  0.0843  0.7560
  864MPD2     H12684   2.951   1.368  16.803 -0.1793 -1.4068 -0.5872
  864MPD2    H112685   2.945   1.602  17.150  1.4493  0.6399 -1.8594
  864MPD2    H212686   2.690   1.271  17.123 -0.6392  0.4970  0.6971
  864MPD2    H312687   2.775   1.478  17.245  1.5768 -1.2287  1.3871
  864MPD2     N12688   3.049   1.574  16.889 -0.3060  0.3938  0.0128
  864MPD2    H512689   3.072   1.542  16.796  3.0195 -0.7390  1.2379
  864MPD2    N112690   2.751   1.203  16.896 -0.0265  0.0135  0.4626
  864MPD2    H712691   2.683   1.149  16.947 -0.7541 -0.6604 -1.2171
  865MPD2     C12692   3.077   1.939  15.962  0.1666  0.0270 -0.1769
  865MPD2    C112693   3.072   1.815  16.019 -0.3655  0.4901  0.5691
  865MPD2    C212694   3.103   1.806  16.150 -0.4893  0.0661 -0.0725
  865MPD2    C312695   3.129   1.917  16.225 -0.0512 -0.4757  0.2443
  865MPD2    C412696   3.139   2.037  16.160 -0.2211  0.0046  0.9514
  865MPD2    C512697   3.109   2.052  16.028  0.4635  1.0407  0.1010
  865MPD2     H12698   3.109   1.707  16.193 -0.1817 -0.3493 -1.0602
  865MPD2    H112699   3.165   2.125  16.218  0.3234  0.5421 -0.1000
  865MPD2    H212700   3.069   1.954  15.855 -1.5970 -1.7761 -0.2840
  865MPD2    H312701   3.123   2.148  15.979 -0.7880  1.9438  1.5174
  865MPD2     N12702   3.155   1.914  16.365  0.5186 -0.3315 -0.1787
  865MPD2    H512703   3.179   2.003  16.408  1.2728  0.0799 -1.4261
  865MPD2    N112704   3.047   1.698  15.944  0.0551 -0.2712 -0.1026
  865MPD2    H712705   3.035   1.700  15.843 -3.0191 -0.0558  0.2878
  866MPD2     C12706   4.257   2.845  11.474 -0.6644  0.7703  0.6655
  866MPD2    C112707   4.257   2.927  11.360 -0.1207  0.6084 -0.0216
  866MPD2    C212708   4.134   2.968  11.305  0.0442 -0.4336 -0.4919
  866MPD2    C312709   4.020   2.935  11.371 -0.1990  0.3996 -1.0085
  866MPD2    C412710   4.020   2.875  11.492  0.0718  0.1382  0.2338
  866MPD2    C512711   4.142   2.825  11.541  0.6742 -0.1288  0.0434
  866MPD2     H12712   4.120   3.017  11.209  1.9897 -0.7023 -0.9273
  866MPD2    H112713   3.936   2.861  11.558  0.6703 -0.0797  0.9595
  866MPD2    H212714   4.353   2.820  11.518 -1.9707  0.9740  3.6237
  866MPD2    H312715   4.148   2.780  11.640  0.9621  1.8901  0.9344
  866MPD2     N12716   3.892   2.957  11.328 -0.3936 -0.2339  0.4022
  866MPD2    H512717   3.824   2.931  11.399 -0.2971 -2.8785 -0.4813
  866MPD2    N112718   4.385   2.969  11.311  0.1790  0.4979  0.2229
  866MPD2    H712719   4.470   2.953  11.365 -0.2636 -4.2379 -0.4962
  867MPD2     C12720   1.684   1.162  15.995 -0.3542  0.4563 -0.5612
  867MPD2    C112721   1.737   1.139  16.118  0.3123 -0.5673  0.7538
  867MPD2    C212722   1.727   1.228  16.220  0.5137 -0.3048 -0.5772
  867MPD2    C312723   1.658   1.345  16.213 -0.4693 -0.0111 -0.0687
  867MPD2    C412724   1.616   1.375  16.084 -0.5535  0.1594 -0.5024
  867MPD2    C512725   1.627   1.289  15.973 -0.1543  0.4063 -0.0590
  867MPD2     H12726   1.765   1.199  16.317  0.8792 -0.3796 -0.7397
  867MPD2    H112727   1.586   1.478  16.063 -2.1629 -0.1765  0.1029
  867MPD2    H212728   1.690   1.097  15.909 -0.2444 -1.2133  0.7100
  867MPD2    H312729   1.599   1.324  15.874 -0.2911  0.2917 -0.0600
  867MPD2     N12730   1.651   1.441  16.317 -0.0698  0.6263 -0.5751
  867MPD2    H512731   1.623   1.534  16.286  3.2464  1.3795 -1.2782
  867MPD2    N112732   1.801   1.013  16.135 -0.1606  0.0261  0.0446
  867MPD2    H712733   1.831   0.965  16.050  0.1069 -0.1639  0.2466
  868MPD2     C12734   3.749   0.049  12.904  0.4030 -0.2373  0.1234
  868MPD2    C112735   3.735   0.182  12.889  0.4210  0.0893 -0.1358
  868MPD2    C212736   3.610   0.240  12.889  0.6379 -0.0118 -0.1747
  868MPD2    C312737   3.494   0.166  12.903  0.2321  0.0443  0.8863
  868MPD2    C412738   3.511   0.026  12.925  0.3716  0.0592 -0.1142
  868MPD2    C512739   3.638   4.703  12.933  0.2577  0.7826  0.2587
  868MPD2     H12740   3.600   0.343  12.857  1.0847  0.4512  1.2100
  868MPD2    H112741   3.429   4.685  12.941  0.3655  0.1771  0.3572
  868MPD2    H212742   3.847   0.006  12.920 -0.0122 -1.3351 -0.2511
  868MPD2    H312743   3.644   4.597  12.954  1.1712  0.5800 -1.0646
  868MPD2     N12744   3.380   0.241  12.935  0.1585  0.6876  0.0843
  868MPD2    H512745   3.387   0.338  12.905  0.2819  0.3516 -0.9498
  868MPD2    N112746   3.840   0.275  12.858 -0.5142 -0.0952 -0.0380
  868MPD2    H712747   3.816   0.373  12.852  2.3814  0.6876  1.0002
  869MPD2     C12748   4.460   4.073   2.333 -0.2635  0.1512  0.2717
  869MPD2    C112749   4.479   3.940   2.308  0.3244  0.8505 -0.9770
  869MPD2    C212750   4.578   3.905   2.212 -0.2548 -0.6129  0.3004
  869MPD2    C312751   4.655   3.997   2.144  0.1988  0.2858  0.4471
  869MPD2    C412752   4.644   4.127   2.187 -0.1160 -1.1405 -0.2612
  869MPD2    C512753   4.540   4.164   2.273 -0.5251 -0.7119  0.1471
  869MPD2     H12754   4.577   3.802   2.178  0.1802 -0.8974  1.1646
  869MPD2    H112755   4.705   4.206   2.145 -0.5516 -1.7614 -2.0792
  869MPD2    H212756   4.380   4.097   2.401 -0.5087 -2.6769  0.9652
  869MPD2    H312757   4.518   4.266   2.303 -0.1964 -0.3736 -0.7772
  869MPD2     N12758   0.016   3.971   2.036  0.1666  0.0738  0.0082
  869MPD2    H512759   0.080   4.042   2.002  0.0199  0.1769 -0.0525
  869MPD2    N112760   4.406   3.847   2.382  0.1819 -0.3560  0.6187
  869MPD2    H712761   4.326   3.875   2.437  0.0908 -0.1597  0.3837
  870MPD2     C12762   0.068   1.765   2.052 -0.8238 -0.3694  0.2929
  870MPD2    C112763   0.032   1.892   2.083  0.3580  0.1925  0.3495
  870MPD2    C212764   0.063   1.999   1.998  0.1119 -0.3319  0.2033
  870MPD2    C312765   0.128   1.975   1.879 -0.3060  0.2218 -0.1267
  870MPD2    C412766   0.147   1.846   1.832 -0.2572  1.0696 -0.0569
  870MPD2    C512767   0.113   1.746   1.920 -0.1623  0.5078 -0.6068
  870MPD2     H12768   0.035   2.101   2.020 -0.4158 -0.0709 -1.6674
  870MPD2    H112769   0.179   1.819   1.732 -0.4830  2.5154 -0.5262
  870MPD2    H212770   0.039   1.677   2.108 -2.9538  0.5699  0.6688
  870MPD2    H312771   0.126   1.643   1.886  2.1664  0.8123 -0.6752
  870MPD2     N12772   0.153   2.088   1.794 -0.0544 -0.5082 -0.0141
  870MPD2    H512773   0.118   2.179   1.823 -0.0178 -0.8911  1.2310
  870MPD2    N112774   4.716   1.912   2.214  0.4181  0.1521  0.3987
  870MPD2    H712775   4.686   1.830   2.266 -0.6050  0.2221 -0.0801
  871MPD2     C12776   0.948   2.011  16.139  0.6110  0.2845  0.2110
  871MPD2    C112777   0.907   1.913  16.231 -0.0041 -0.1257  0.2465
  871MPD2    C212778   0.890   1.784  16.189 -0.2181 -0.5845  0.4454
  871MPD2    C312779   0.915   1.754  16.055 -0.0770  0.6456 -0.2445
  871MPD2    C412780   0.944   1.846  15.961 -0.5858  0.3367  0.5507
  871MPD2    C512781   0.962   1.972  16.005  0.0037  0.0209  0.7725
  871MPD2     H12782   0.857   1.715  16.265 -2.4290 -0.9451 -0.8650
  871MPD2    H112783   0.954   1.822  15.856  0.4537  2.2536  0.2203
  871MPD2    H212784   0.964   2.116  16.159  0.1082  0.1981  1.0906
  871MPD2    H312785   0.983   2.059  15.943 -2.2945  0.7391  1.0212
  871MPD2     N12786   0.895   1.616  16.019  0.3296  0.4452  0.3600
  871MPD2    H512787   0.880   1.549  16.094  3.9181 -2.2514 -1.3606
  871MPD2    N112788   0.903   1.960  16.367 -0.1708  0.0094  0.4257
  871MPD2    H712789   0.923   2.058  16.385 -1.4714 -0.2832  3.3585
  872MPD2     C12790   1.679   4.503  13.779  0.2042  0.0812  0.2904
  872MPD2    C112791   1.618   4.469  13.662  1.0336 -0.7184 -0.1406
  872MPD2    C212792   1.484   4.425  13.657  0.0664  0.3504  0.7829
  872MPD2    C312793   1.415   4.413  13.777  0.2940  0.1363  0.0374
  872MPD2    C412794   1.476   4.449  13.897 -0.3437 -0.0125  0.9907
  872MPD2    C512795   1.611   4.485  13.898 -0.4291 -0.2783 -0.2208
  872MPD2     H12796   1.447   4.390  13.561  1.4993  0.2734  0.2494
  872MPD2    H112797   1.424   4.440  13.992  1.1316  0.7030  1.8621
  872MPD2    H212798   1.777   4.549  13.783  0.5640 -0.5438 -1.2802
  872MPD2    H312799   1.665   4.504  13.990 -2.5274 -1.6692  1.2662
  872MPD2     N12800   1.284   4.353  13.793  0.0896 -0.5895  0.4243
  872MPD2    H512801   1.257   4.339  13.890 -0.0052  1.2238  0.6527
  872MPD2    N112802   1.698   4.472  13.543  0.1518 -0.6856  0.0044
  872MPD2    H712803   1.644   4.447  13.461  1.1222 -0.3954 -0.7173
  873MPD2     C12804   3.074   4.645   0.705  0.5606  0.2293 -0.3004
  873MPD2    C112805   3.205   4.659   0.740 -0.0517  0.0800  0.5327
  873MPD2    C212806   3.309   4.636   0.654  0.4527 -0.4618  0.1059
  873MPD2    C312807   3.283   4.591   0.526  0.4987  1.0335  0.1271
  873MPD2    C412808   3.151   4.564   0.497 -0.6535  0.6308  0.8146
  873MPD2    C512809   3.050   4.595   0.583 -0.4531  0.7078  0.9689
  873MPD2     H12810   3.411   4.659   0.683 -0.1859  0.8064  1.3472
  873MPD2    H112811   3.132   4.524   0.398  3.7816 -3.3263  1.5764
  873MPD2    H212812   2.991   4.654   0.775  0.9551 -0.2139  0.2184
  873MPD2    H312813   2.947   4.573   0.557  0.0410  0.4740 -0.8138
  873MPD2     N12814   3.373   4.577   0.416  0.0079  0.5418 -0.1708
  873MPD2    H512815   3.325   4.559   0.328  0.2499  0.6098 -0.3159
  873MPD2    N112816   3.225   4.709   0.869  0.1576 -0.8095 -0.8118
  873MPD2    H712817   3.140   4.705   0.925  1.2176 -1.0940  0.7569
  874MPD2     C12818   2.464   4.399  16.022 -0.1287 -0.0478  0.7378
  874MPD2    C112819   2.533   4.293  16.073  0.3430 -0.1221  0.1309
  874MPD2    C212820   2.660   4.271  16.055  0.3320  0.8226 -0.4419
  874MPD2    C312821   2.721   4.347  15.958  0.4437  0.5860  0.1337
  874MPD2    C412822   2.650   4.442  15.891  0.6259 -0.5839 -0.2197
  874MPD2    C512823   2.518   4.468  15.921  0.2281  0.2805  0.4186
  874MPD2     H12824   2.708   4.180  16.091  2.8686  1.7960 -1.3927
  874MPD2    H112825   2.684   4.510  15.813 -1.4144 -0.6384 -1.1598
  874MPD2    H212826   2.361   4.419  16.049 -0.5828  0.9929 -1.7704
  874MPD2    H312827   2.459   4.543  15.869 -1.9420 -0.8308  1.2652
  874MPD2     N12828   2.856   4.319  15.925  0.6012  0.1290 -0.3986
  874MPD2    H512829   2.904   4.252  15.985 -0.7036 -1.1024 -0.7411
  874MPD2    N112830   2.452   4.226  16.164 -0.2606 -0.6289  0.1716
  874MPD2    H712831   2.359   4.260  16.185 -0.2469 -0.6604  0.2869
  875MPD2     C12832   4.101   2.567  14.456 -0.4309 -0.0994  0.1589
  875MPD2    C112833   4.019   2.673  14.431  0.1309  0.5726 -0.1968
  875MPD2    C212834   3.988   2.759  14.536 -0.0118  0.0476  0.0468
  875MPD2    C312835   4.038   2.745  14.665 -0.9962 -0.0340  0.0227
  875MPD2    C412836   4.124   2.639  14.678  0.6396 -0.6028  0.3050
  875MPD2    C512837   4.151   2.554  14.579 -0.2168  0.9360 -0.9164
  875MPD2     H12838   3.925   2.845  14.517 -0.1745  0.0795  0.7486
  875MPD2    H112839   4.161   2.606  14.774  1.0904  0.9366  0.6672
  875MPD2    H212840   4.129   2.487  14.388 -3.4437 -0.4771 -0.6560
  875MPD2    H312841   4.211   2.464  14.592  0.2558  1.5612  1.2268
  875MPD2     N12842   4.013   2.825  14.772 -0.0785 -0.2557 -0.2671
  875MPD2    H512843   4.027   2.791  14.867 -0.5727  0.0041 -0.1002
  875MPD2    N112844   3.955   2.697  14.303  0.1987 -0.1837 -0.2736
  875MPD2    H712845   3.871   2.753  14.316  1.3106  1.3152  0.4026
  876MPD2     C12846   2.771   4.069  15.687 -0.4109  0.0516  0.0639
  876MPD2    C112847   2.882   4.016  15.623 -0.3755 -0.0564  0.1791
  876MPD2    C212848   2.958   3.917  15.679  0.2988 -0.1459 -0.6986
  876MPD2    C312849   2.932   3.870  15.806 -0.2188  0.1183  0.4180
  876MPD2    C412850   2.818   3.920  15.870  0.3642  0.1789 -0.0734
  876MPD2    C512851   2.742   4.014  15.807  0.2308  0.0339  0.6019
  876MPD2     H12852   3.038   3.876  15.618  1.8683  1.3677  0.3247
  876MPD2    H112853   2.782   3.888  15.967  2.3375 -0.5695  0.4228
  876MPD2    H212854   2.712   4.148  15.644  0.5127  1.6197  1.6954
  876MPD2    H312855   2.653   4.053  15.854  0.0542 -1.8181  1.8318
  876MPD2     N12856   3.004   3.757  15.856  0.4345  0.4140 -0.0179
  876MPD2    H512857   3.084   3.725  15.803  0.1964  0.1718 -0.2262
  876MPD2    N112858   2.927   4.086  15.509  0.7896  0.5603 -0.4181
  876MPD2    H712859   2.860   4.156  15.477  0.0704  2.0293  4.2628
  877MPD2     C12860   2.642   4.394  14.893  1.0824  0.0610  0.0318
  877MPD2    C112861   2.778   4.411  14.875 -0.6346  0.5035 -0.4672
  877MPD2    C212862   2.828   4.438  14.749 -0.0770 -0.0911  0.3797
  877MPD2    C312863   2.740   4.468  14.647 -0.7150 -0.0251  0.7165
  877MPD2    C412864   2.605   4.452  14.661 -0.9352 -0.2184 -0.1688
  877MPD2    C512865   2.560   4.404  14.784 -0.3632  0.3768 -0.2220
  877MPD2     H12866   2.935   4.432  14.733 -0.2694 -1.0668 -0.5181
  877MPD2    H112867   2.537   4.475  14.580 -2.2716  1.4500  1.4146
  877MPD2    H212868   2.600   4.384  14.993 -1.4873  1.1779 -0.9313
  877MPD2    H312869   2.454   4.408  14.805 -0.5399  2.4990 -1.5648
  877MPD2     N12870   2.784   4.514  14.523 -0.1842  0.1518  0.4740
  877MPD2    H512871   2.728   4.502  14.439 -0.4819 -1.0823  0.8554
  877MPD2    N112872   2.872   4.381  14.969 -0.3252  0.2030 -0.4370
  877MPD2    H712873   2.969   4.385  14.939 -0.0795  1.1437  0.4542
  878MPD2     C12874   2.369   3.387  12.853 -0.1827 -0.4096 -0.0695
  878MPD2    C112875   2.429   3.510  12.875  0.5864 -0.1197 -0.9964
  878MPD2    C212876   2.422   3.577  12.993 -0.2592  0.0107  0.1894
  878MPD2    C312877   2.354   3.528  13.097 -0.4405  0.9542  0.9868
  878MPD2    C412878   2.287   3.409  13.080  0.2172  0.8529 -0.0863
  878MPD2    C512879   2.304   3.335  12.964  0.2487  0.1137  0.5003
  878MPD2     H12880   2.481   3.666  13.012  3.6360 -2.5201  0.0605
  878MPD2    H112881   2.239   3.351  13.157  1.5455 -0.7237 -0.4329
  878MPD2    H212882   2.385   3.327  12.764 -1.2007 -0.7284 -0.0314
  878MPD2    H312883   2.250   3.241  12.959  1.4847 -0.6700  1.6265
  878MPD2     N12884   2.373   3.582  13.227 -0.2590 -0.0980  0.4461
  878MPD2    H512885   2.442   3.656  13.225 -0.9851  0.5429 -0.5162
  878MPD2    N112886   2.502   3.548  12.761  0.2714  0.3248  0.0472
  878MPD2    H712887   2.494   3.492  12.677 -1.6846  0.6224  0.0420
  879MPD2     C12888   3.837   0.233  16.829 -0.0276  0.5918 -0.1782
  879MPD2    C112889   3.719   0.289  16.861  0.2312  0.0883 -0.6877
  879MPD2    C212890   3.601   0.239  16.810 -0.5457 -0.3870 -0.6310
  879MPD2    C312891   3.597   0.131  16.718 -0.7215  0.1806 -0.7343
  879MPD2    C412892   3.717   0.074  16.686 -0.1525  0.2728 -0.4377
  879MPD2    C512893   3.833   0.137  16.737  0.0523  0.9679  0.3526
  879MPD2     H12894   3.511   0.286  16.848  0.5369  0.6792  0.5975
  879MPD2    H112895   3.728   4.718  16.620  0.3223  0.2268 -0.2983
  879MPD2    H212896   3.927   0.263  16.880 -0.0724  1.9446 -0.8819
  879MPD2    H312897   3.930   0.095  16.713 -0.9875 -0.4730 -1.2426
  879MPD2     N12898   3.476   0.063  16.682  0.0545 -0.5469 -0.4212
  879MPD2    H512899   3.488   4.702  16.635 -1.4046 -0.2592 -1.3466
  879MPD2    N112900   3.721   0.391  16.962  0.4876  0.0140  0.4643
  879MPD2    H712901   3.813   0.416  16.997  0.0928 -0.4857  1.8760
  880MPD2     C12902   0.776   1.798   0.275 -0.2382 -0.2915  0.3247
  880MPD2    C112903   0.669   1.795   0.357  0.2901  0.3102  0.2670
  880MPD2    C212904   0.620   1.678   0.405  0.6934 -0.0041  0.2195
  880MPD2    C312905   0.670   1.553   0.366  0.6193 -0.8931 -0.5719
  880MPD2    C412906   0.775   1.558   0.284 -0.4040 -0.0722 -0.0840
  880MPD2    C512907   0.828   1.676   0.245  0.9475 -0.7353  0.4539
  880MPD2     H12908   0.529   1.690   0.462 -0.5493 -1.1517 -1.4990
  880MPD2    H112909   0.836   1.472   0.261  0.6918  1.1914 -1.9025
  880MPD2    H212910   0.814   1.892   0.238  0.8798 -1.2503 -0.9539
  880MPD2    H312911   0.917   1.679   0.184  0.3640 -1.1431 -0.4161
  880MPD2     N12912   0.603   1.434   0.408 -0.3960 -0.2540  0.0020
  880MPD2    H512913   0.527   1.444   0.475 -0.3084 -0.2887  0.1075
  880MPD2    N112914   0.608   1.924   0.386 -0.6443  0.0507  0.4539
  880MPD2    H712915   0.638   1.997   0.323 -1.8741 -0.3681 -0.6235
  881MPD2     C12916   0.349   2.802   0.035  0.5850  0.2963 -0.9114
  881MPD2    C112917   0.297   2.678  17.709  0.2888  0.6202 -0.1629
  881MPD2    C212918   0.324   2.566   0.077  0.8939 -0.1548  0.0890
  881MPD2    C312919   0.377   2.582   0.201  0.8035 -0.0021  0.2551
  881MPD2    C412920   0.411   2.707   0.238 -1.3943  0.3787 -0.2770
  881MPD2    C512921   0.399   2.812   0.162 -0.1897  0.0407  1.0899
  881MPD2     H12922   0.315   2.467   0.033 -0.3369 -0.3438  0.7519
  881MPD2    H112923   0.461   2.734   0.330 -0.8017  2.1727 -1.1335
  881MPD2    H212924   0.354   2.895  17.694 -1.6361  1.3693  0.6683
  881MPD2    H312925   0.445   2.903   0.201 -0.1389  1.0662 -1.3294
  881MPD2     N12926   0.383   2.485   0.301  0.3978  0.5436 -0.2284
  881MPD2    H512927   0.423   2.518   0.388  1.8242  0.2243 -0.7651
  881MPD2    N112928   0.258   2.660  17.574  0.1380 -0.1286 -0.3646
  881MPD2    H712929   0.271   2.744  17.519  0.2930 -0.5300 -0.9425
  882MPD2     C12930   2.791   4.540  13.672 -0.8231 -0.2790 -0.4868
  882MPD2    C112931   2.724   4.540  13.792  0.2991 -0.0769  0.5157
  882MPD2    C212932   2.603   4.474  13.801  0.1111  0.2156  0.6022
  882MPD2    C312933   2.533   4.434  13.689  0.1880  0.3997  0.2259
  882MPD2    C412934   2.597   4.440  13.562 -0.7101 -0.0845 -0.1484
  882MPD2    C512935   2.726   4.487  13.561 -0.3907  0.3768 -0.2252
  882MPD2     H12936   2.555   4.463  13.897  0.4785 -0.6043  0.6925
  882MPD2    H112937   2.550   4.400  13.473  0.8083  1.7324 -1.7447
  882MPD2    H212938   2.886   4.591  13.665  0.0630 -1.6329  1.8281
  882MPD2    H312939   2.785   4.480  13.471  0.2268 -0.3088  0.2304
  882MPD2     N12940   2.397   4.394  13.693 -0.3275  0.0700 -0.3319
  882MPD2    H512941   2.352   4.384  13.602 -2.9857  1.2265  0.8518
  882MPD2    N112942   2.794   4.586  13.911  0.0452 -0.0048 -0.7015
  882MPD2    H712943   2.888   4.623  13.898 -0.8944  2.1527 -1.2280
  883MPD2     C12944   0.239   3.998  16.347  0.3954  0.4445 -0.2869
  883MPD2    C112945   0.313   4.075  16.268  0.0187 -0.0531 -0.1707
  883MPD2    C212946   0.413   4.148  16.329  0.6766  0.0310 -0.1924
  883MPD2    C312947   0.445   4.138  16.466  0.5796  1.1683 -0.1436
  883MPD2    C412948   0.363   4.065  16.547 -0.1023  0.0573 -0.3098
  883MPD2    C512949   0.263   3.991  16.483  0.3510  0.0027  0.3828
  883MPD2     H12950   0.476   4.209  16.264  1.6933 -0.2275  0.5429
  883MPD2    H112951   0.368   4.056  16.654  1.7541  3.1923 -0.1088
  883MPD2    H212952   0.152   3.940  16.317  1.2327 -1.2529  0.5478
  883MPD2    H312953   0.194   3.931  16.541  0.5259  0.0906  0.6826
  883MPD2     N12954   0.563   4.198  16.515 -0.2895 -0.2796  0.8580
  883MPD2    H512955   0.623   4.244  16.446 -1.5581  0.8767  0.5301
  883MPD2    N112956   0.286   4.094  16.132 -0.7530 -0.2204 -0.2914
  883MPD2    H712957   0.341   4.156  16.073  0.9820 -0.5035  1.0260
  884MPD2     C12958   2.180   0.197  15.142 -0.0668  0.3242  0.5386
  884MPD2    C112959   2.164   0.284  15.034  0.9345 -1.0140  0.0476
  884MPD2    C212960   2.037   0.326  14.986 -0.3422 -0.7410  0.1023
  884MPD2    C312961   1.926   0.292  15.059 -0.1595 -0.0195  0.5514
  884MPD2    C412962   1.946   0.223  15.177  0.8040  0.4425  0.8491
  884MPD2    C512963   2.070   0.177  15.212  0.3622  0.2819  0.5094
  884MPD2     H12964   2.032   0.394  14.901  2.2822 -1.0417 -0.3055
  884MPD2    H112965   1.867   0.197  15.247  0.2111  0.4625  0.1922
  884MPD2    H212966   2.275   0.157  15.176 -0.2767 -1.4334 -0.9160
  884MPD2    H312967   2.084   0.121  15.304  0.4783  2.7776  2.0282
  884MPD2     N12968   1.806   0.359  15.028  0.5968 -0.1689 -0.4112
  884MPD2    H512969   1.812   0.413  14.942 -1.2820 -0.6590 -0.8504
  884MPD2    N112970   2.274   0.312  14.947 -0.5743 -0.9158  0.3219
  884MPD2    H712971   2.249   0.362  14.862  0.7259 -0.5224  0.1727
  885MPD2     C12972   0.366   0.602   0.235  0.2181 -0.3038 -0.1363
  885MPD2    C112973   0.382   0.476   0.183  0.6320 -0.9630  0.7899
  885MPD2    C212974   0.346   0.454   0.051  0.1894 -0.0788  0.7400
  885MPD2    C312975   0.281   0.551  17.693  0.8321  0.2322  0.7421
  885MPD2    C412976   0.265   0.672   0.032  0.0924 -0.0326 -0.4823
  885MPD2    C512977   0.300   0.694   0.164  0.4433 -0.0719  0.3501
  885MPD2     H12978   0.375   0.357   0.014  0.2469  0.0582  0.4312
  885MPD2    H112979   0.229   0.761  17.696 -2.0202  0.2712  1.4979
  885MPD2    H212980   0.395   0.627   0.337  1.9817 -0.1782 -0.6702
  885MPD2    H312981   0.285   0.794   0.205 -1.8528 -0.4317  0.3742
  885MPD2     N12982   0.259   0.525  17.554 -0.4694  0.0631  0.2333
  885MPD2    H512983   0.306   0.443  17.517  0.3703  0.6465  0.0028
  885MPD2    N112984   0.449   0.377   0.252  0.2978  0.4584  0.3734
  885MPD2    H712985   0.504   0.408   0.332 -1.1369 -2.3259  2.4681
  886MPD2     C12986   1.537   3.574  15.001 -0.4352 -0.5562 -0.0679
  886MPD2    C112987   1.640   3.633  15.055 -0.5463 -0.1447  0.2976
  886MPD2    C212988   1.674   3.768  15.033 -0.5607  0.0185 -0.0413
  886MPD2    C312989   1.589   3.850  14.961 -0.1736  0.4553  0.8502
  886MPD2    C412990   1.478   3.794  14.901 -0.1922  0.1508 -0.3754
  886MPD2    C512991   1.458   3.654  14.916  0.5273  0.5885 -0.0567
  886MPD2     H12992   1.756   3.809  15.091 -1.8883  1.7724  0.6046
  886MPD2    H112993   1.411   3.848  14.835  0.7507  2.8645  0.8753
  886MPD2    H212994   1.534   3.467  14.983 -1.2073 -0.6606  0.7008
  886MPD2    H312995   1.386   3.612  14.846 -1.0725 -0.6489  2.3237
  886MPD2     N12996   1.598   3.990  14.964 -0.0579 -0.3928 -0.1668
  886MPD2    H512997   1.540   4.039  14.896  2.2531  3.0859  0.3861
  886MPD2    N112998   1.733   3.564  15.135 -0.4607  0.5207  0.2973
  886MPD2    H712999   1.826   3.604  15.145  0.0741 -0.8250  0.5739
  887MPD2     C13000   2.365   3.628  15.288 -0.3966 -0.0603 -0.3922
  887MPD2    C113001   2.259   3.682  15.357  0.9846  0.4027 -0.3794
  887MPD2    C213002   2.250   3.815  15.364  0.4310  0.1198 -0.4736
  887MPD2    C313003   2.344   3.900  15.314  0.0135 -0.0585 -1.0160
  887MPD2    C413004   2.447   3.847  15.246 -0.2495 -0.3166 -0.0462
  887MPD2    C513005   2.450   3.710  15.225 -0.2417  0.2020  0.0319
  887MPD2     H13006   2.165   3.856  15.417  0.8162 -0.7221  0.8012
  887MPD2    H113007   2.534   3.900  15.206 -0.8417 -0.5156 -1.5816
  887MPD2    H213008   2.361   3.521  15.276  1.5323  0.0842 -2.1885
  887MPD2    H313009   2.525   3.670  15.157 -0.8524 -1.8286  0.5405
  887MPD2     N13010   2.331   4.038  15.345 -0.3094  0.1564  0.1199
  887MPD2    H513011   2.250   4.067  15.400 -1.1103  1.1405 -1.5713
  887MPD2    N113012   2.142   3.605  15.390 -0.2706 -0.0011  0.2587
  887MPD2    H713013   2.060   3.662  15.410 -1.9881 -1.6306 -2.1268
  888MPD2     C13014   4.080   3.859  14.694 -0.0697 -0.9456 -0.3769
  888MPD2    C113015   4.021   3.955  14.782 -0.2176  0.0870 -0.6981
  888MPD2    C213016   4.061   4.084  14.761 -0.4955 -0.7524  0.4738
  888MPD2    C313017   4.153   4.127  14.670  0.1075  0.4307 -0.1618
  888MPD2    C413018   4.214   4.033  14.595  0.1191  0.0174 -0.1427
  888MPD2    C513019   4.175   3.906  14.607 -0.1624 -0.0388 -0.3533
  888MPD2     H13020   4.017   4.162  14.822  0.6688  0.4637 -0.2140
  888MPD2    H113021   4.292   4.045  14.520 -0.1803  0.7608 -0.3380
  888MPD2    H213022   4.066   3.755  14.719 -1.6069 -1.1998 -2.3336
  888MPD2    H313023   4.216   3.828  14.543  0.1933 -1.3526  1.4953
  888MPD2     N13024   4.193   4.264  14.672 -0.2140 -0.3628 -0.3700
  888MPD2    H513025   4.155   4.322  14.746 -2.2948 -0.3263 -1.4454
  888MPD2    N113026   3.920   3.917  14.874  0.0836 -0.3093 -0.6941
  888MPD2    H713027   3.891   3.993  14.935 -1.4831  0.6570 -2.6281
  889MPD2     C13028   3.212   3.529  12.727 -0.2780 -0.2165  0.0156
  889MPD2    C113029   3.250   3.482  12.845  0.5182 -0.8138  0.6329
  889MPD2    C213030   3.332   3.552  12.936  1.0790  0.3268  0.5979
  889MPD2    C313031   3.348   3.685  12.914 -0.6604  0.8246  0.3219
  889MPD2    C413032   3.294   3.739  12.801  0.1419  0.2367 -0.5217
  889MPD2    C513033   3.224   3.665  12.707  0.2499 -0.3886  0.2506
  889MPD2     H13034   3.338   3.522  13.039 -3.3200 -3.5156 -0.2896
  889MPD2    H113035   3.296   3.844  12.773 -2.6143  0.4545  0.0565
  889MPD2    H213036   3.149   3.473  12.659  0.8682 -1.0216 -0.3727
  889MPD2    H313037   3.189   3.703  12.612 -1.4694 -2.8661 -0.1190
  889MPD2     N13038   3.408   3.777  13.005  0.3246  0.0123 -0.1950
  889MPD2    H513039   3.404   3.875  12.980 -1.9440  0.8410  3.2950
  889MPD2    N113040   3.232   3.346  12.879 -0.2225  0.0667  0.7964
  889MPD2    H713041   3.282   3.316  12.962  2.6425  0.3004 -0.8772
  890MPD2     C13042   2.679   0.538  14.255  0.1042 -0.3872 -0.1430
  890MPD2    C113043   2.815   0.572  14.279 -1.0432 -0.4650 -0.0603
  890MPD2    C213044   2.895   0.488  14.353  0.7102 -0.6413 -0.2136
  890MPD2    C313045   2.842   0.369  14.400 -0.9029 -0.1003 -0.1803
  890MPD2    C413046   2.715   0.331  14.362  0.6518  0.2498 -0.0160
  890MPD2    C513047   2.632   0.412  14.290  0.5371  0.3207  0.1308
  890MPD2     H13048   2.998   0.513  14.376  0.8582 -0.7610 -0.7421
  890MPD2    H113049   2.673   0.239  14.402  1.0173 -0.0060 -0.2163
  890MPD2    H213050   2.621   0.604  14.191 -0.4364 -1.5808 -0.8927
  890MPD2    H313051   2.537   0.375  14.254  1.4819 -1.7843 -0.1760
  890MPD2     N13052   2.922   0.284  14.478  0.1013  0.0061  0.2756
  890MPD2    H513053   3.018   0.309  14.499 -0.5299 -0.1133  3.2553
  890MPD2    N113054   2.858   0.696  14.238 -0.7091  0.3674 -0.2187
  890MPD2    H713055   2.796   0.751  14.179 -0.9350  1.3175  0.8923
  891MPD2     C13056   1.048   3.216  16.696 -0.0248  0.4768 -0.3837
  891MPD2    C113057   1.095   3.334  16.744  0.2374  0.0693  0.4947
  891MPD2    C213058   1.218   3.342  16.812  0.7129 -0.4632  0.9025
  891MPD2    C313059   1.284   3.220  16.831 -0.3930  1.2575 -0.1667
  891MPD2    C413060   1.234   3.102  16.788 -0.3727 -0.4689  0.0012
  891MPD2    C513061   1.112   3.101  16.717  0.0249  0.5410 -0.2251
  891MPD2     H13062   1.262   3.434  16.849  1.1721 -0.4846  0.4167
  891MPD2    H113063   1.290   3.014  16.818  0.5539 -0.2688 -1.1346
  891MPD2    H213064   0.965   3.223  16.627  0.6830 -2.4421 -1.5143
  891MPD2    H313065   1.070   3.006  16.687  0.6822 -0.9511  3.5524
  891MPD2     N13066   1.398   3.229  16.913  0.6061 -0.3946 -0.3956
  891MPD2    H513067   1.418   3.324  16.945  0.0775 -0.3633 -0.1611
  891MPD2    N113068   1.017   3.449  16.718 -0.1057  0.1795 -0.3236
  891MPD2    H713069   0.922   3.427  16.690 -1.0776  2.8601  0.8573
  892MPD2     C13070   2.077   4.705  14.555 -1.0423 -0.4203 -0.1365
  892MPD2    C113071   1.959   4.680  14.484 -0.7079  0.1674  0.2494
  892MPD2    C213072   1.974   4.628  14.352  0.2851 -0.2659  0.3083
  892MPD2    C313073   2.091   4.584  14.300 -0.0899 -1.4750  0.4948
  892MPD2    C413074   2.204   4.606  14.378  0.6429  0.1611 -0.1802
  892MPD2    C513075   2.203   4.668  14.502  0.3029 -0.0462 -0.5332
  892MPD2     H13076   1.889   4.628  14.285  0.0816  2.6339  0.5772
  892MPD2    H113077   2.301   4.573  14.342 -0.4964  1.0197 -4.0234
  892MPD2    H213078   2.075   0.015  14.656  1.5945 -0.0423 -0.2275
  892MPD2    H313079   2.294   4.678  14.559 -0.7914 -2.9061  1.6761
  892MPD2     N13080   2.111   4.523  14.173  0.7299  0.2741 -0.3705
  892MPD2    H513081   2.207   4.519  14.140  0.5366  1.5375 -1.1018
  892MPD2    N113082   1.832   4.705  14.535 -0.6562  0.7065  0.5038
  892MPD2    H713083   1.755   4.686  14.472  0.4719  1.2267 -1.0391
  893MPD2     C13084   4.638   2.526   1.427  0.0147 -0.5384  0.4070
  893MPD2    C113085   4.614   2.531   1.566 -0.7649  0.8543 -0.7295
  893MPD2    C213086   4.589   2.411   1.629  0.4510  0.5957 -0.5820
  893MPD2    C313087   4.574   2.287   1.563  0.1332 -0.9753  0.8746
  893MPD2    C413088   4.584   2.294   1.420  0.0471 -0.9060 -0.0195
  893MPD2    C513089   4.621   2.406   1.356 -0.6025  0.2836 -0.5731
  893MPD2     H13090   4.563   2.413   1.734  1.5521 -0.7363 -0.2874
  893MPD2    H113091   4.560   2.204   1.365  0.8834 -1.9558  1.3271
  893MPD2    H213092   4.671   2.614   1.374  1.8404 -1.8742 -0.6420
  893MPD2    H313093   4.649   2.404   1.252 -1.7828 -0.5932 -0.8667
  893MPD2     N13094   4.532   2.167   1.626  0.7308 -0.3307  0.1096
  893MPD2    H513095   4.502   2.088   1.570 -2.0897 -0.3196  1.5689
  893MPD2    N113096   4.642   2.657   1.636  0.0079 -0.1169  0.1900
  893MPD2    H713097   4.674   2.738   1.584 -0.5215  0.0252  0.0944
  894MPD2     C13098   1.519   0.997   1.065 -0.4650  0.3446  0.5528
  894MPD2    C113099   1.633   1.005   1.146 -0.5213  0.5713  0.5880
  894MPD2    C213100   1.749   1.061   1.093  0.0746  0.2434  0.0719
  894MPD2    C313101   1.761   1.101   0.962 -0.6827 -0.0602  0.5689
  894MPD2    C413102   1.644   1.104   0.886  0.4881 -0.1450  0.1252
  894MPD2    C513103   1.531   1.055   0.941  0.0564 -0.0004 -0.2982
  894MPD2     H13104   1.834   1.077   1.159  0.1062 -0.8633  0.2965
  894MPD2    H113105   1.632   1.143   0.786 -0.2224  4.5965  2.0261
  894MPD2    H213106   1.434   0.935   1.091 -0.7092  0.7123  0.6297
  894MPD2    H313107   1.445   1.044   0.876  1.9109 -2.1203 -2.3574
  894MPD2     N13108   1.882   1.152   0.908  0.2471 -0.2132 -0.5087
  894MPD2    H513109   1.952   1.171   0.980  0.5601 -2.1210 -0.3060
  894MPD2    N113110   1.628   0.944   1.272 -0.1387 -0.6337  0.1654
  894MPD2    H713111   1.713   0.939   1.328 -1.6483 -2.5991  2.2712
  895MPD2     C13112   0.787   3.993  13.783 -0.1735  0.1302  0.4201
  895MPD2    C113113   0.827   4.027  13.654  0.1536  0.0124  0.2699
  895MPD2    C213114   0.946   3.967  13.607  0.3448  0.3545  0.4936
  895MPD2    C313115   1.010   3.878  13.685  0.0058 -0.3479 -0.5670
  895MPD2    C413116   0.971   3.845  13.813 -0.4262  0.7045  0.5129
  895MPD2    C513117   0.858   3.907  13.857  0.5931  0.1622 -0.0285
  895MPD2     H13118   0.978   3.979  13.503  1.7458 -1.5952  0.7129
  895MPD2    H113119   1.023   3.763  13.862  1.0900  0.7963 -0.9439
  895MPD2    H213120   0.692   4.031  13.818 -0.9547 -0.0441 -1.4620
  895MPD2    H313121   0.829   3.885  13.959 -1.9985  2.0407 -0.3639
  895MPD2     N13122   1.107   3.788  13.634  0.0377  0.2750  0.3325
  895MPD2    H513123   1.133   3.705  13.686  0.2624 -0.9519 -1.7670
  895MPD2    N113124   0.750   4.114  13.575 -0.0783 -0.8078 -0.2478
  895MPD2    H713125   0.655   4.126  13.608  0.3222  1.6947 -0.0037
  896MPD2     C13126   3.493   1.504   1.842 -0.1683 -0.3167 -0.7007
  896MPD2    C113127   3.585   1.465   1.743 -0.1678 -0.3533 -0.0130
  896MPD2    C213128   3.541   1.392   1.641 -0.1346  0.4065  0.1334
  896MPD2    C313129   3.407   1.361   1.619  0.0495 -0.6344  0.0241
  896MPD2    C413130   3.320   1.406   1.715  0.3413  0.3839  0.7336
  896MPD2    C513131   3.361   1.471   1.834  0.1017  0.1666  0.3578
  896MPD2     H13132   3.608   1.356   1.563  1.1714  0.5903  1.1645
  896MPD2    H113133   3.215   1.378   1.709  0.6339 -0.7332  0.9463
  896MPD2    H213134   3.522   1.558   1.931  2.6961 -1.0536 -1.1755
  896MPD2    H313135   3.286   1.501   1.906 -1.0508  1.6659 -1.4864
  896MPD2     N13136   3.354   1.288   1.511 -0.1014  0.0111 -0.3181
  896MPD2    H513137   3.254   1.301   1.499 -0.2817 -0.7739  0.3739
  896MPD2    N113138   3.718   1.497   1.767 -0.0041  0.5920 -0.4052
  896MPD2    H713139   3.751   1.543   1.852  0.4298  0.6489 -0.6016
  897MPD2     C13140   3.951   3.191  10.041 -0.0641  0.2955 -0.8056
  897MPD2    C113141   4.048   3.236  10.131  0.2587  0.1720 -0.1602
  897MPD2    C213142   4.003   3.343  10.202  0.1248 -0.3145  0.4040
  897MPD2    C313143   3.894   3.424  10.172  0.2092  0.1245 -0.2631
  897MPD2    C413144   3.808   3.376  10.073 -0.4494  0.0843 -0.4095
  897MPD2    C513145   3.836   3.255  10.015  0.1402 -0.4980 -0.0233
  897MPD2     H13146   4.065   3.396  10.273 -1.1476  0.8868  0.6217
  897MPD2    H113147   3.718   3.427  10.042  1.0952  4.0628  1.6216
  897MPD2    H213148   3.979   3.106   9.980  0.5721  0.6222 -0.9731
  897MPD2    H313149   3.773   3.207   9.940 -0.8785  0.3355  0.3006
  897MPD2     N13150   3.878   3.543  10.248 -0.1448  0.7500  0.3283
  897MPD2    H513151   3.938   3.557  10.329 -0.8588  2.4006  0.5853
  897MPD2    N113152   4.173   3.177  10.146 -0.4857 -0.8723  0.5825
  897MPD2    H713153   4.194   3.116  10.068 -0.4399 -1.6635  1.2177
  898MPD2     C13154   1.971   3.931   0.516  0.3258  0.4639 -0.0374
  898MPD2    C113155   2.082   3.978   0.450 -0.1407 -0.1909 -0.3074
  898MPD2    C213156   2.079   4.110   0.405  0.2222  0.1532 -0.1355
  898MPD2    C313157   1.964   4.183   0.407 -0.5497 -0.6955 -0.1491
  898MPD2    C413158   1.849   4.134   0.467  0.3588  0.5737 -0.7054
  898MPD2    C513159   1.855   4.010   0.518 -0.6997 -0.7503  0.7230
  898MPD2     H13160   2.158   4.149   0.343  2.2739 -1.2268  1.6160
  898MPD2    H113161   1.753   4.184   0.470 -1.1667 -2.4453  0.1779
  898MPD2    H213162   1.966   3.842   0.577 -0.8757  0.9898  0.6235
  898MPD2    H313163   1.763   3.973   0.563 -2.4068  3.5001  0.7115
  898MPD2     N13164   1.955   4.307   0.341  0.4414  0.7116 -0.2977
  898MPD2    H513165   2.041   4.340   0.297  0.8958 -1.1617 -0.8005
  898MPD2    N113166   2.199   3.900   0.443 -0.3165 -0.3840 -0.5460
  898MPD2    H713167   2.286   3.942   0.414 -1.1541  1.2661 -0.6594
  899MPD2     C13168   2.940   0.323  17.405  0.6882  0.4071 -0.1884
  899MPD2    C113169   2.838   0.237  17.370 -0.4078  0.3689 -0.4945
  899MPD2    C213170   2.775   0.169  17.477  0.9555 -0.4002 -0.3724
  899MPD2    C313171   2.799   0.196  17.611  0.2390 -0.4575  0.3658
  899MPD2    C413172   2.902   0.279  17.639 -0.5127  0.4438  0.0092
  899MPD2    C513173   2.972   0.339  17.541 -0.1561 -0.0225 -0.0484
  899MPD2     H13174   2.694   0.100  17.458  1.1914 -1.0608  1.0499
  899MPD2    H113175   2.921   0.306   0.027  2.5293  1.6292 -0.8389
  899MPD2    H213176   2.995   0.384  17.334  2.1452 -2.6481 -1.6639
  899MPD2    H313177   3.057   0.395  17.576 -1.0416  1.2034  0.1503
  899MPD2     N13178   2.717   0.158   0.000 -0.1093  0.2265 -0.2026
  899MPD2    H513179   2.728   0.213   0.085  0.8111  1.0720 -0.8672
  899MPD2    N113180   2.812   0.219  17.229 -0.0945  0.0525  0.1890
  899MPD2    H713181   2.879   0.271  17.172  0.5811  0.1489  1.0753
  900MPD2     C13182   2.067   1.827  12.477  0.8725 -0.2532  0.1880
  900MPD2    C113183   1.995   1.713  12.446 -0.1480  0.1994 -0.1304
  900MPD2    C213184   1.869   1.732  12.400  0.1449  0.3999  0.3872
  900MPD2    C313185   1.806   1.853  12.416  0.5266  0.3903 -0.0350
  900MPD2    C413186   1.875   1.971  12.442  0.6745  0.5526 -0.2298
  900MPD2    C513187   2.007   1.949  12.480  0.1700  0.5787  0.1681
  900MPD2     H13188   1.816   1.646  12.361 -0.3327  1.1739 -0.6879
  900MPD2    H113189   1.835   2.071  12.431 -1.7804 -0.2177  1.7023
  900MPD2    H213190   2.169   1.801  12.504  0.5566 -0.6402  1.0083
  900MPD2    H313191   2.055   2.042  12.508 -0.2295  0.1486  2.2652
  900MPD2     N13192   1.667   1.846  12.386  0.7743  0.0784 -0.0052
  900MPD2    H513193   1.627   1.755  12.362 -0.2761  1.1249 -2.2134
  900MPD2    N113194   2.057   1.584  12.439  0.3249  0.7023 -0.2005
  900MPD2    H713195   2.150   1.587  12.481 -0.5673 -0.2026  1.8475
  901MPD2     C13196   1.983   0.566  12.830  0.2865  0.0453 -0.2085
  901MPD2    C113197   2.095   0.555  12.748 -0.8653 -0.5511  0.5871
  901MPD2    C213198   2.133   0.665  12.664  0.9095 -0.1755 -0.3383
  901MPD2    C313199   2.069   0.790  12.686 -0.0984  0.6771 -0.2988
  901MPD2    C413200   1.965   0.799  12.776  0.4099 -0.4537 -0.4161
  901MPD2    C513201   1.919   0.684  12.846 -0.6689 -0.0990 -0.4001
  901MPD2     H13202   2.211   0.662  12.590  0.9526 -1.0158 -0.2602
  901MPD2    H113203   1.916   0.890  12.808 -2.3357 -1.7979 -0.7865
  901MPD2    H213204   1.951   0.481  12.889 -1.8831  0.9536 -0.0750
  901MPD2    H313205   1.834   0.688  12.914 -0.7650  0.9324 -0.5759
  901MPD2     N13206   2.113   0.907  12.612  0.4097  0.3693 -0.2457
  901MPD2    H513207   2.204   0.911  12.568  0.6190  2.4708  0.3937
  901MPD2    N113208   2.158   0.427  12.738 -0.0675  0.6665 -0.2344
  901MPD2    H713209   2.114   0.358  12.799 -1.1211  1.1417 -0.4453
  902MPD2     C13210   0.754   4.524  12.833 -0.1238 -0.9144  0.3257
  902MPD2    C113211   0.838   4.487  12.933  0.9340  0.0036 -0.1667
  902MPD2    C213212   0.942   4.392  12.909 -0.5319  0.1652  0.9127
  902MPD2    C313213   0.945   4.329  12.785  0.4966 -0.6998 -0.3754
  902MPD2    C413214   0.847   4.361  12.693  0.2723  0.5497 -0.1250
  902MPD2    C513215   0.756   4.462  12.716 -0.3193 -0.5469  0.0889
  902MPD2     H13216   1.014   4.382  12.988 -2.0071 -2.5421  1.9225
  902MPD2    H113217   0.838   4.312  12.596  3.1024  1.9291 -1.0943
  902MPD2    H213218   0.689   4.611  12.828  0.1584 -0.7434 -0.3978
  902MPD2    H313219   0.685   4.478  12.635 -2.2317  0.0667  1.9106
  902MPD2     N13220   1.040   4.234  12.748  0.0520  0.1043  0.1952
  902MPD2    H513221   1.042   4.202  12.651 -2.1014 -1.6429  0.7241
  902MPD2    N113222   0.818   4.554  13.055  0.3609  0.3162 -0.0997
  902MPD2    H713223   0.734   4.612  13.061  0.4547  0.1795  2.5946
  903MPD2     C13224   1.282   4.199  12.152 -0.4404 -0.3255  0.2026
  903MPD2    C113225   1.231   4.089  12.207 -0.0825 -0.0127 -0.1733
  903MPD2    C213226   1.141   4.007  12.149 -0.4478 -0.1199 -0.7429
  903MPD2    C313227   1.102   4.038  12.024  0.0237 -0.4219  0.0286
  903MPD2    C413228   1.157   4.146  11.955  0.2779  0.6251 -0.2645
  903MPD2    C513229   1.242   4.227  12.026 -0.4286  0.2632 -0.5016
  903MPD2     H13230   1.104   3.914  12.190  1.3672 -0.7800 -0.5619
  903MPD2    H113231   1.127   4.185  11.859  1.6568 -2.4965 -1.9643
  903MPD2    H213232   1.339   4.272  12.208 -0.0797  0.4795 -1.2161
  903MPD2    H313233   1.278   4.311  11.968 -2.1924  1.6531  0.4126
  903MPD2     N13234   0.994   3.967  11.975  0.3539  0.2508 -0.0259
  903MPD2    H513235   0.953   3.893  12.030  0.3492 -0.4920 -1.0174
  903MPD2    N113236   1.245   4.081  12.343  0.4312  0.0810  0.7817
  903MPD2    H713237   1.312   4.150  12.375  1.7124 -0.5589 -0.5317
  904MPD2     C13238   0.637   3.471  13.666 -0.0848 -0.6121 -0.4331
  904MPD2    C113239   0.639   3.377  13.763  0.5270  0.0044 -0.5762
  904MPD2    C213240   0.759   3.360  13.832 -0.0933 -0.6828  0.0484
  904MPD2    C313241   0.871   3.431  13.795 -1.1415  0.2523  0.1444
  904MPD2    C413242   0.866   3.529  13.693 -1.5530 -0.7857 -0.3333
  904MPD2    C513243   0.743   3.550  13.633  0.3561  0.1846 -0.1284
  904MPD2     H13244   0.779   3.292  13.913  1.2703 -1.3077 -0.8103
  904MPD2    H113245   0.939   3.602  13.663 -2.1107  0.2095  0.7302
  904MPD2    H213246   0.546   3.494  13.611 -1.0450 -0.3503  1.2455
  904MPD2    H313247   0.740   3.627  13.556 -2.5615  0.5930  0.3934
  904MPD2     N13248   0.991   3.397  13.859 -0.5684  0.2764  0.1611
  904MPD2    H513249   0.991   3.318  13.921 -0.5335 -0.3119 -0.5827
  904MPD2    N113250   0.534   3.290  13.798  0.2480 -0.1936 -0.8341
  904MPD2    H713251   0.562   3.219  13.865  2.1679  1.8785  0.5639
  905MPD2     C13252   0.339   3.479  13.162  0.5504  0.4513 -0.2527
  905MPD2    C113253   0.397   3.545  13.268 -0.3873 -0.6675  0.2941
  905MPD2    C213254   0.529   3.580  13.275  0.4009  0.0378 -0.4413
  905MPD2    C313255   0.614   3.541  13.175  0.0500 -0.0364 -1.0172
  905MPD2    C413256   0.560   3.462  13.078  0.2190  0.9205 -0.4667
  905MPD2    C513257   0.423   3.440  13.064 -0.2044  0.6508 -0.6441
  905MPD2     H13258   0.573   3.629  13.361  0.5482 -2.6038  0.9946
  905MPD2    H113259   0.623   3.423  12.999  0.5302  0.6635 -0.0881
  905MPD2    H213260   0.235   3.451  13.155  0.3460  1.2532 -0.4699
  905MPD2    H313261   0.395   3.384  12.976  1.8249 -1.1622 -0.1260
  905MPD2     N13262   0.751   3.571  13.177  0.3686 -0.1661  0.1388
  905MPD2    H513263   0.813   3.519  13.116  1.4996  0.5531  0.6822
  905MPD2    N113264   0.305   3.562  13.372 -0.3247  0.6118  0.0157
  905MPD2    H713265   0.220   3.506  13.379  0.5374 -0.7977 -0.8042
  906MPD2     C13266   2.784   3.392  11.450 -0.3934  0.1949 -0.0938
  906MPD2    C113267   2.795   3.323  11.328  0.3502  0.4270  0.1723
  906MPD2    C213268   2.784   3.190  11.331  0.0342  0.1652 -0.1125
  906MPD2    C313269   2.752   3.119  11.441  0.0914 -0.4134  0.5425
  906MPD2    C413270   2.743   3.187  11.562 -0.7680 -0.3489 -0.3764
  906MPD2    C513271   2.759   3.322  11.566  0.9052  0.3848 -1.0062
  906MPD2     H13272   2.800   3.145  11.233  0.3602  0.1241 -0.0404
  906MPD2    H113273   2.715   3.131  11.650  0.3128  0.9171  0.7857
  906MPD2    H213274   2.808   3.498  11.449  1.6956 -0.2772  0.5941
  906MPD2    H313275   2.754   3.362  11.667 -2.2923  0.3382 -1.1382
  906MPD2     N13276   2.692   2.990  11.427  0.2658  0.0968  0.2676
  906MPD2    H513277   2.659   2.972  11.332 -2.1849  2.2804  0.6943
  906MPD2    N113278   2.810   3.385  11.203  0.2423 -0.3233 -0.3609
  906MPD2    H713279   2.825   3.325  11.123 -1.2182  0.0429 -0.8979
  907MPD2     C13280   2.339   2.473  15.397  0.0784 -0.1164 -0.1338
  907MPD2    C113281   2.338   2.335  15.365 -0.1937 -0.4625 -0.2314
  907MPD2    C213282   2.336   2.247  15.471 -0.6456  0.2623  0.3768
  907MPD2    C313283   2.340   2.287  15.606  0.1922  0.3447 -0.8531
  907MPD2    C413284   2.339   2.425  15.632  0.1865 -0.3472 -0.0266
  907MPD2    C513285   2.345   2.512  15.528 -0.1183  0.1692 -0.3178
  907MPD2     H13286   2.345   2.144  15.440  2.1559  0.4828  0.5291
  907MPD2    H113287   2.349   2.473  15.729  0.6716  0.1923 -0.3399
  907MPD2    H213288   2.347   2.553  15.324 -1.0609  0.2380  0.1415
  907MPD2    H313289   2.354   2.619  15.545 -1.7716  0.4504 -1.1724
  907MPD2     N13290   2.343   2.191  15.712 -0.1208  0.0936  0.2828
  907MPD2    H513291   2.361   2.092  15.698  0.6235  0.2833 -0.1067
  907MPD2    N113292   2.348   2.276  15.237  0.3743 -0.0995  0.4057
  907MPD2    H713293   2.361   2.175  15.228  1.1143  0.1498 -1.1868
  908MPD2     C13294   4.544   2.620   9.605 -0.3606  0.4607  0.4322
  908MPD2    C113295   4.418   2.667   9.645  0.2047 -0.6167 -0.0427
  908MPD2    C213296   4.403   2.753   9.755  0.1591  0.0764  0.6484
  908MPD2    C313297   4.516   2.788   9.832 -0.1825 -0.0955 -0.7077
  908MPD2    C413298   4.636   2.740   9.792  0.1133 -0.7179  0.8105
  908MPD2    C513299   4.648   2.659   9.681  0.2457  0.1277 -0.1387
  908MPD2     H13300   4.310   2.799   9.783 -0.1487 -0.2100  0.0908
  908MPD2    H113301   4.727   2.757   9.848  1.3116  0.8059 -1.6357
  908MPD2    H213302   4.554   2.548   9.524  0.0897 -2.9533  3.5004
  908MPD2    H313303   0.014   2.608   9.660  0.3933 -0.2942  1.5729
  908MPD2     N13304   4.499   2.886   9.932  0.0852  0.0273  0.1583
  908MPD2    H513305   4.406   2.925   9.935  0.4837  1.0743 -1.0199
  908MPD2    N113306   4.303   2.628   9.576 -0.1659  0.3548 -0.0394
  908MPD2    H713307   4.320   2.559   9.503  1.1824 -1.3986  1.9368
  909MPD2     C13308   0.274   1.314  12.038 -0.4599 -0.2035 -0.3022
  909MPD2    C113309   0.223   1.376  11.921  0.0828 -0.1620  0.1826
  909MPD2    C213310   0.092   1.409  11.925 -0.1147  0.3788 -0.7485
  909MPD2    C313311   0.009   1.391  12.032  0.0818 -0.2272 -1.0446
  909MPD2    C413312   0.058   1.325  12.137 -0.1673  0.1393 -0.3912
  909MPD2    C513313   0.188   1.292  12.145  0.3224 -0.0638  0.0086
  909MPD2     H13314   0.045   1.462  11.842 -2.5462 -1.2137 -0.3714
  909MPD2    H113315   4.727   1.304  12.226  1.4258 -0.4150  0.5321
  909MPD2    H213316   0.374   1.274  12.051 -0.0749  0.9240  0.2132
  909MPD2    H313317   0.224   1.242  12.234  0.4587  1.3585  0.7596
  909MPD2     N13318   4.602   1.437  12.022 -0.2676  0.1335 -0.0716
  909MPD2    H513319   4.578   1.511  11.958 -0.1732 -0.3677 -0.6809
  909MPD2    N113320   0.290   1.381  11.796 -0.3042 -0.1725  0.0625
  909MPD2    H713321   0.237   1.419  11.717  0.2315 -2.3075 -1.3146
  910MPD2     C13322   1.583   3.019  15.726 -0.7888 -0.4746  0.5602
  910MPD2    C113323   1.603   2.901  15.650 -0.1275 -0.1187 -0.0184
  910MPD2    C213324   1.576   2.902  15.516  0.3350  0.1101  0.1983
  910MPD2    C313325   1.554   3.026  15.455 -0.0231 -0.3293 -0.2074
  910MPD2    C413326   1.540   3.140  15.527 -0.5006  0.0181 -0.4603
  910MPD2    C513327   1.560   3.142  15.665 -0.3640 -0.3963 -0.6346
  910MPD2     H13328   1.574   2.809  15.459  1.6150  0.4891 -0.4547
  910MPD2    H113329   1.530   3.240  15.486 -0.7356  0.1112 -0.1758
  910MPD2    H213330   1.609   3.015  15.831 -1.2516  3.1343  0.7882
  910MPD2    H313331   1.554   3.235  15.720  3.1515  0.1018 -1.0819
  910MPD2     N13332   1.515   3.038  15.319 -0.2839  0.0979  0.5603
  910MPD2    H513333   1.463   3.120  15.291 -0.7338 -1.3307 -2.8201
  910MPD2    N113334   1.654   2.785  15.708 -0.4763 -0.0721  0.7081
  910MPD2    H713335   1.685   2.714  15.642  1.1124  0.6935  0.6257
  911MPD2     C13336   4.164   3.133  16.442 -0.5683  0.1465  0.0102
  911MPD2    C113337   4.207   3.257  16.423 -0.7813 -0.0833 -0.4081
  911MPD2    C213338   4.144   3.349  16.338  0.3507  0.0077 -0.6080
  911MPD2    C313339   4.038   3.299  16.268 -0.3952 -0.0656 -0.4709
  911MPD2    C413340   3.995   3.170  16.284 -0.1198  0.3046  0.7315
  911MPD2    C513341   4.061   3.084  16.374 -0.2619  0.0659  0.6089
  911MPD2     H13342   4.195   3.442  16.318  2.4839 -1.0757 -0.1596
  911MPD2    H113343   3.910   3.137  16.226  0.3119 -1.9046  1.3720
  911MPD2    H213344   4.209   3.073  16.520  2.3973  1.3712 -0.7115
  911MPD2    H313345   4.032   2.983  16.400  0.7576 -0.7835 -1.5284
  911MPD2     N13346   3.966   3.388  16.183  0.3646  0.9205  0.0643
  911MPD2    H513347   3.888   3.347  16.133 -1.7254  2.3747  2.1501
  911MPD2    N113348   4.328   3.294  16.494 -0.0990  0.2947 -0.4550
  911MPD2    H713349   4.360   3.226  16.561 -0.8308  1.3490  0.9556
  912MPD2     C13350   3.681   3.081  15.623  0.2192  0.0110  0.0394
  912MPD2    C113351   3.669   3.133  15.749  0.4735 -1.2358 -0.5012
  912MPD2    C213352   3.640   3.035  15.846 -0.2683 -1.0104  0.3460
  912MPD2    C313353   3.623   2.900  15.824 -0.0614  0.8520  0.1862
  912MPD2    C413354   3.648   2.853  15.692 -0.2211 -0.1730  0.1767
  912MPD2    C513355   3.679   2.950  15.596 -0.1977 -0.1936 -0.0049
  912MPD2     H13356   3.648   3.062  15.951 -0.7015 -1.0181  0.3799
  912MPD2    H113357   3.660   2.749  15.663 -0.4428  0.0200 -0.6134
  912MPD2    H213358   3.706   3.144  15.537  0.7817  1.1811  1.0499
  912MPD2    H313359   3.715   2.917  15.499 -0.3634  3.2205 -1.2058
  912MPD2     N13360   3.595   2.823  15.934  0.0726  0.2941 -0.5442
  912MPD2    H513361   3.586   2.876  16.020  1.0776 -3.7530  2.0237
  912MPD2    N113362   3.691   3.277  15.775  0.1894  0.2002 -0.7117
  912MPD2    H713363   3.698   3.335  15.692 -2.1036  2.9266  1.0102
  913MPD2     C13364   4.287   4.531  10.288 -0.0527  0.2757 -0.3507
  913MPD2    C113365   4.304   4.637  10.371  0.4551 -0.5488 -0.1581
  913MPD2    C213366   4.277   0.037  10.333 -0.7506 -0.2572  0.4428
  913MPD2    C313367   4.218   0.061  10.205  0.3127 -0.7610 -0.0795
  913MPD2    C413368   4.184   4.675  10.127 -0.4918 -0.6209  0.0655
  913MPD2    C513369   4.227   4.553  10.170 -0.3714 -0.7312  0.1593
  913MPD2     H13370   4.300   0.118  10.400 -0.9048  0.2587 -0.1231
  913MPD2    H113371   4.138   4.693  10.030  0.3944 -2.9089 -0.7899
  913MPD2    H213372   4.309   4.429  10.319  1.3855  0.3190 -1.2263
  913MPD2    H313373   4.209   4.467  10.106  1.1933 -0.4954 -0.6170
  913MPD2     N13374   4.178   0.186  10.152  0.0401  0.2637 -0.4520
  913MPD2    H513375   4.137   0.181  10.059  1.2166 -1.4719 -0.8708
  913MPD2    N113376   4.371   4.604  10.496 -0.4618 -0.2632 -0.0147
  913MPD2    H713377   4.403   4.508  10.497  0.7511  0.1622  0.9616
  914MPD2     C13378   1.798   0.209  11.988  0.4633 -0.1573  0.2266
  914MPD2    C113379   1.801   0.313  12.077  0.1994  1.1488  0.1643
  914MPD2    C213380   1.880   0.301  12.196  0.0968 -0.4674 -0.0285
  914MPD2    C313381   1.949   0.181  12.218  0.6644  0.3970 -0.1727
  914MPD2    C413382   1.940   0.077  12.126  1.1241  0.0670  0.0060
  914MPD2    C513383   1.865   0.089  12.016  0.0845  0.0370 -0.6466
  914MPD2     H13384   1.886   0.378  12.271  0.8865  0.7475 -1.3401
  914MPD2    H113385   1.982   4.709  12.152  2.1516  0.2069 -1.1513
  914MPD2    H213386   1.741   0.220  11.896  2.4455  1.5482 -0.7886
  914MPD2    H313387   1.860   0.006  11.947  0.2992 -0.6031  0.0993
  914MPD2     N13388   2.032   0.178  12.334  0.2389  0.0397 -0.0381
  914MPD2    H513389   2.052   0.267  12.379  0.9605  1.5928 -3.4390
  914MPD2    N113390   1.710   0.415  12.044 -0.1690  0.5570 -0.5021
  914MPD2    H713391   1.636   0.396  11.977  0.1695 -0.0136 -0.7091
  915MPD2     C13392   0.124   4.669  15.495 -0.4479  0.4199 -0.1919
  915MPD2    C113393   0.209   0.044  15.458 -0.0356  0.8478  0.8252
  915MPD2    C213394   0.203   0.165  15.515  1.0847 -0.0300 -0.0836
  915MPD2    C313395   0.115   0.191  15.624 -0.3991  0.0284 -0.4334
  915MPD2    C413396   0.038   0.089  15.666  0.2177  0.1801  0.1389
  915MPD2    C513397   0.038   4.689  15.601  0.3095 -0.0097  0.6368
  915MPD2     H13398   0.263   0.250  15.486  0.4383  0.5144  0.1689
  915MPD2    H113399   4.699   0.102  15.749 -0.4897 -0.6560 -0.3045
  915MPD2    H213400   0.114   4.588  15.424 -1.7765 -0.0227  0.5131
  915MPD2    H313401   4.694   4.615  15.632 -0.4755 -0.1271 -1.4110
  915MPD2     N13402   0.132   0.313  15.696 -0.7620  0.5554  0.6516
  915MPD2    H513403   0.208   0.371  15.662 -1.0148 -0.2200 -1.2181
  915MPD2    N113404   0.300   0.018  15.353  0.3493  0.2560  0.3765
  915MPD2    H713405   0.282   4.663  15.300 -2.1679  1.6860 -1.0578
  916MPD2     C13406   3.430   3.473  15.507  0.1013  0.1636 -0.5954
  916MPD2    C113407   3.369   3.369  15.574 -0.2124  0.4951 -0.1959
  916MPD2    C213408   3.374   3.237  15.528 -0.0394 -0.1460  0.1974
  916MPD2    C313409   3.432   3.209  15.403 -0.0092 -0.5844 -0.2713
  916MPD2    C413410   3.496   3.313  15.341  0.1252  0.2100  0.3521
  916MPD2    C513411   3.499   3.441  15.395 -0.0981  0.1728  0.0829
  916MPD2     H13412   3.315   3.165  15.584 -1.5293  0.4570 -0.6084
  916MPD2    H113413   3.563   3.300  15.257  0.5563 -0.5572  0.8180
  916MPD2    H213414   3.436   3.578  15.535  1.3148  0.1814 -0.8969
  916MPD2    H313415   3.565   3.513  15.348 -1.6278  0.6808 -1.2771
  916MPD2     N13416   3.434   3.072  15.358 -0.6905 -0.4545  0.3623
  916MPD2    H513417   3.399   3.005  15.426 -1.4735  1.2144  1.6178
  916MPD2    N113418   3.286   3.405  15.688  0.5206  0.0083 -0.1679
  916MPD2    H713419   3.261   3.503  15.692  1.0697  0.3171 -4.0434
  917MPD2     C13420   3.266   1.211  11.069 -0.0265  0.2505 -0.4306
  917MPD2    C113421   3.315   1.229  11.200 -0.1884 -0.3036  0.1712
  917MPD2    C213422   3.421   1.307  11.223  0.4266 -0.2969 -0.1289
  917MPD2    C313423   3.494   1.368  11.126  0.8868  0.7372  0.2596
  917MPD2    C413424   3.457   1.339  10.998 -0.2139  0.6916  0.4346
  917MPD2    C513425   3.341   1.266  10.970 -0.2909 -0.2271 -0.5142
  917MPD2     H13426   3.458   1.308  11.325  1.1691 -0.3909 -0.3969
  917MPD2    H113427   3.522   1.358  10.914 -0.0577 -0.6057  0.2718
  917MPD2    H213428   3.178   1.150  11.053 -0.3357  0.3834  0.7349
  917MPD2    H313429   3.321   1.244  10.866 -1.1110 -0.8173 -0.2232
  917MPD2     N13430   3.616   1.435  11.146 -0.8824 -0.5830  0.0877
  917MPD2    H513431   3.680   1.447  11.068 -1.0026  1.8453  0.3455
  917MPD2    N113432   3.244   1.162  11.302 -0.0400  0.6448  0.0891
  917MPD2    H713433   3.164   1.105  11.278 -0.0249  1.4973 -1.9659
  918MPD2     C13434   3.396   1.097  12.303 -0.2752  0.6120 -0.1909
  918MPD2    C113435   3.470   1.156  12.209  0.5285 -0.3689  0.7718
  918MPD2    C213436   3.410   1.181  12.082 -0.7467 -0.2906  0.2677
  918MPD2    C313437   3.279   1.145  12.057  0.0127 -0.1003 -0.2168
  918MPD2    C413438   3.214   1.076  12.153 -0.0253  0.2617  0.4019
  918MPD2    C513439   3.273   1.058  12.272  0.2058  0.4913  0.5549
  918MPD2     H13440   3.460   1.226  11.996  1.1854 -2.7587  0.1069
  918MPD2    H113441   3.111   1.043  12.145 -0.6262  1.5587  2.5998
  918MPD2    H213442   3.425   1.092  12.408 -0.5509  0.3769 -0.1261
  918MPD2    H313443   3.198   1.019  12.340  0.0616 -1.1952 -0.5786
  918MPD2     N13444   3.233   1.152  11.923 -0.0510  0.2193 -0.3049
  918MPD2    H513445   3.296   1.188  11.853  3.7140 -0.3247  2.8209
  918MPD2    N113446   3.595   1.211  12.232 -0.7280  0.3968  0.4361
  918MPD2    H713447   3.645   1.247  12.151  1.7295  0.5111  2.0039
  919MPD2     C13448   4.066   0.004  11.512 -0.1699 -0.3702  0.1768
  919MPD2    C113449   4.029   4.616  11.451 -0.4627 -0.4372  0.7316
  919MPD2    C213450   4.033   4.615  11.311  0.1148 -0.1621  0.0344
  919MPD2    C313451   4.088   4.719  11.240 -0.4174 -0.2394 -0.1861
  919MPD2    C413452   4.152   0.093  11.300  0.3203  0.8308  0.0476
  919MPD2    C513453   4.144   0.092  11.437  0.2427  0.5300  0.3820
  919MPD2     H13454   3.988   4.531  11.259 -2.5019  0.6917  0.9145
  919MPD2    H113455   4.203   0.173  11.247 -0.8969  1.7253  0.2378
  919MPD2    H213456   4.065   0.015  11.619 -0.5974  3.0668 -0.1738
  919MPD2    H313457   4.192   0.175  11.488 -1.7764  0.8104  1.8364
  919MPD2     N13458   4.083   4.726  11.094 -0.8564 -0.2118 -0.2165
  919MPD2    H513459   4.115   0.085  11.055  0.4106 -0.7136 -0.3127
  919MPD2    N113460   3.987   4.502  11.525 -0.0253 -0.0230 -0.3292
  919MPD2    H713461   3.959   4.422  11.469  2.2177  1.1209 -3.0780
  920MPD2     C13462   4.007   0.661  10.398  0.8410  0.1051 -0.0216
  920MPD2    C113463   3.909   0.569  10.370  0.2253 -0.4570 -0.0207
  920MPD2    C213464   3.920   0.433  10.405  0.2895 -0.0278 -0.2377
  920MPD2    C313465   4.019   0.388  10.494 -0.2465 -0.4534  0.0652
  920MPD2    C413466   4.111   0.481  10.530 -0.5416  0.3714  0.2769
  920MPD2    C513467   4.114   0.619  10.483 -0.0367 -0.3846 -0.6643
  920MPD2     H13468   3.837   0.372  10.373 -0.0201  0.3740 -0.1976
  920MPD2    H113469   4.197   0.453  10.589  0.4855  0.2821 -1.2722
  920MPD2    H213470   4.002   0.767  10.378 -1.2010  0.0421  0.1512
  920MPD2    H313471   4.189   0.689  10.517  0.4451 -0.8332 -0.8018
  920MPD2     N13472   4.027   0.253  10.538 -0.4327 -0.1800 -0.2580
  920MPD2    H513473   3.987   0.186  10.474 -1.5105  1.2209 -1.0535
  920MPD2    N113474   3.801   0.614  10.292  0.1562  0.1537 -0.1264
  920MPD2    H713475   3.731   0.546  10.264 -0.7238  0.5074  1.2339
  921MPD2     C13476   0.281   3.927  16.872 -0.6684 -0.1392 -0.6495
  921MPD2    C113477   0.349   3.813  16.838  0.1333 -0.0393  0.0871
  921MPD2    C213478   0.275   3.699  16.806  0.5630 -0.8845 -0.3703
  921MPD2    C313479   0.135   3.693  16.823 -0.0169  0.1064  0.4832
  921MPD2    C413480   0.074   3.804  16.871  0.0213  0.6648  1.2492
  921MPD2    C513481   0.147   3.915  16.897 -1.7518  0.0188  0.0575
  921MPD2     H13482   0.333   3.615  16.770  0.0193 -0.8044 -1.4187
  921MPD2    H113483   4.698   3.797  16.901  0.1557 -0.8198  1.3446
  921MPD2    H213484   0.324   4.027  16.879 -0.8666 -0.1238  0.3285
  921MPD2    H313485   0.099   4.003  16.938  0.3911  1.6119 -0.8574
  921MPD2     N13486   0.047   3.589  16.774 -0.2871  0.2708  0.4133
  921MPD2    H513487   4.686   3.569  16.817 -0.7416  0.5399 -0.4118
  921MPD2    N113488   0.492   3.808  16.825 -0.2573  0.8782  0.2891
  921MPD2    H713489   0.552   3.879  16.868  0.7979 -0.5294  1.1720
  922MPD2     C13490   0.822   0.773  17.019  0.1509  0.8349  0.3879
  922MPD2    C113491   0.852   0.895  16.958  0.0734 -1.1225  0.0608
  922MPD2    C213492   0.748   0.956  16.896  0.1347  0.1298 -0.2158
  922MPD2    C313493   0.621   0.903  16.897 -0.0913 -0.1073 -0.4406
  922MPD2    C413494   0.604   0.783  16.959  0.0815 -0.7631  0.4532
  922MPD2    C513495   0.699   0.717  17.030 -0.0923 -0.4268 -0.7049
  922MPD2     H13496   0.770   1.052  16.848  0.6975 -0.3741 -0.9766
  922MPD2    H113497   0.503   0.745  16.965 -0.2244 -0.0719 -0.2704
  922MPD2    H213498   0.902   0.721  17.070 -0.6245  0.3543  1.1210
  922MPD2    H313499   0.685   0.622  17.080  0.5799 -0.9877 -1.5768
  922MPD2     N13500   0.516   0.975  16.834  0.5566  0.0412 -0.6525
  922MPD2    H513501   0.539   1.068  16.802 -0.9752 -0.1807 -2.3615
  922MPD2    N113502   0.982   0.945  16.947  0.1073 -0.5526 -0.2019
  922MPD2    H713503   0.986   1.019  16.878 -0.8166 -1.7119 -1.4957
  923MPD2     C13504   2.612   2.402   9.062 -0.1014  0.0678  0.2088
  923MPD2    C113505   2.558   2.530   9.094 -0.3375  0.3291  0.4867
  923MPD2    C213506   2.599   2.599   9.214 -0.7034 -0.7336  0.2269
  923MPD2    C313507   2.701   2.543   9.286  0.6687  0.0373 -0.8637
  923MPD2    C413508   2.757   2.419   9.253 -0.3884  0.1715 -0.0552
  923MPD2    C513509   2.709   2.347   9.145 -0.3200  0.3446 -0.8193
  923MPD2     H13510   2.549   2.692   9.237  2.5903  1.0673  0.0716
  923MPD2    H113511   2.834   2.363   9.304  0.3730 -0.2520 -1.6973
  923MPD2    H213512   2.579   2.350   8.973 -2.5565 -1.2199  1.8796
  923MPD2    H313513   2.743   2.247   9.124  0.7814  0.2471  1.4344
  923MPD2     N13514   2.748   2.605   9.405  0.3328  0.2739 -0.5038
  923MPD2    H513515   2.789   2.536   9.469  1.5912  0.2889 -1.2883
  923MPD2    N113516   2.462   2.579   9.004 -0.1995  0.2824 -0.2590
  923MPD2    H713517   2.423   2.514   8.936 -0.3630 -0.4341  0.5067
  924MPD2     C13518   2.328   1.331  15.641 -0.6201  0.2774  0.1262
  924MPD2    C113519   2.274   1.361  15.764  0.1058  0.2276  0.2484
  924MPD2    C213520   2.293   1.483  15.821 -0.0242 -0.2955  0.6757
  924MPD2    C313521   2.347   1.583  15.749 -0.2453  0.1681 -0.3322
  924MPD2    C413522   2.369   1.556  15.617 -0.5958  0.2253 -0.4066
  924MPD2    C513523   2.366   1.437  15.569  0.0263 -0.3510 -0.0440
  924MPD2     H13524   2.241   1.510  15.912  0.1594  0.7545  0.4712
  924MPD2    H113525   2.396   1.632  15.544  3.0031 -1.4773 -0.8516
  924MPD2    H213526   2.315   1.236  15.591  1.2166  0.5974 -0.9452
  924MPD2    H313527   2.393   1.435  15.464 -3.1185  2.2029 -0.8892
  924MPD2     N13528   2.366   1.716  15.795 -0.0565 -0.0502  0.1532
  924MPD2    H513529   2.392   1.790  15.732  0.7326 -1.0133 -0.6572
  924MPD2    N113530   2.205   1.258  15.826  0.1619 -0.1105  0.0616
  924MPD2    H713531   2.217   1.165  15.787  2.6062  0.5555 -0.7753
  925MPD2     C13532   1.184   4.052  14.363  0.3251 -0.3640 -0.9893
  925MPD2    C113533   1.056   4.076  14.336  0.2875 -0.4913 -0.0240
  925MPD2    C213534   0.955   4.072  14.439 -0.7377  0.0769  0.1558
  925MPD2    C313535   0.992   4.023  14.563 -0.0772 -0.0368 -0.1814
  925MPD2    C413536   1.126   3.981  14.576 -0.2193 -0.6577  0.2090
  925MPD2    C513537   1.218   3.994  14.479 -0.3703  1.0992 -0.0031
  925MPD2     H13538   0.853   4.106  14.422 -1.0560 -1.9586 -2.0718
  925MPD2    H113539   1.164   3.931  14.664  3.7073  0.5933 -0.7860
  925MPD2    H213540   1.262   4.062  14.288 -1.5323 -0.9561 -2.9911
  925MPD2    H313541   1.319   3.956  14.492 -0.1177  1.2254 -1.6651
  925MPD2     N13542   0.910   3.990  14.669 -0.2383  0.1107  0.1255
  925MPD2    H513543   0.951   3.948  14.752 -1.5764  0.4729  0.9671
  925MPD2    N113544   1.009   4.118  14.204  0.5120 -0.2313 -0.7814
  925MPD2    H713545   0.912   4.148  14.197  0.8841  0.9245 -0.9199
  926MPD2     C13546   4.125   2.570  13.128  0.0747 -0.6835  0.4630
  926MPD2    C113547   4.147   2.690  13.195  0.5081 -0.2009 -0.1149
  926MPD2    C213548   4.202   2.800  13.127  0.2605 -0.5256 -0.0143
  926MPD2    C313549   4.228   2.790  12.991  0.0178 -1.2198  0.3140
  926MPD2    C413550   4.198   2.669  12.927 -0.0241 -0.1242 -0.2216
  926MPD2    C513551   4.158   2.560  12.997 -0.7544  0.2630  0.5055
  926MPD2     H13552   4.217   2.896  13.175 -4.4665  1.2756 -2.1149
  926MPD2    H113553   4.211   2.667  12.820 -0.4038  0.5372 -0.2812
  926MPD2    H213554   4.090   2.483  13.183 -0.2335 -0.4151  0.6934
  926MPD2    H313555   4.154   2.468  12.940  0.0577  1.1743 -1.0119
  926MPD2     N13556   4.273   2.896  12.911  0.0905 -0.1144 -0.6622
  926MPD2    H513557   4.248   2.878  12.815  0.4066 -2.0776 -0.3753
  926MPD2    N113558   4.115   2.720  13.333  0.3831 -0.7592  0.0055
  926MPD2    H713559   4.121   2.817  13.362 -1.3975 -1.7120  3.5257
  927MPD2     C13560   4.554   0.473   0.211  0.0771 -0.2556 -0.0191
  927MPD2    C113561   4.444   0.434   0.139  0.2000 -0.0789 -0.0227
  927MPD2    C213562   4.450   0.453   0.004 -0.1808 -0.0255 -0.1555
  927MPD2    C313563   4.557   0.516  17.658  0.1536 -0.7371  0.3225
  927MPD2    C413564   4.661   0.547   0.021  0.2297 -0.0696  0.0713
  927MPD2    C513565   4.663   0.537   0.161  0.0479  0.1621  0.1254
  927MPD2     H13566   4.369   0.431  17.650 -1.4490  1.5268  0.8401
  927MPD2    H113567   0.022   0.595  17.699  0.6236 -0.0463  1.0555
  927MPD2    H213568   4.555   0.458   0.318  0.9056 -2.1177 -0.2920
  927MPD2    H313569   0.014   0.565   0.229  1.7824 -0.1433 -1.7846
  927MPD2     N13570   4.576   0.543  17.518 -0.3643 -0.3516  0.2290
  927MPD2    H513571   4.653   0.603  17.491 -3.3711  2.5738 -1.8367
  927MPD2    N113572   4.330   0.389   0.205  0.0434 -0.2415  0.0102
  927MPD2    H713573   4.346   0.347   0.296  1.8460  1.4624  0.4807
  928MPD2     C13574   3.727   3.897   0.821  0.6299  0.1829 -0.0118
  928MPD2    C113575   3.645   3.993   0.878  0.3087  0.0677  0.0278
  928MPD2    C213576   3.522   4.013   0.813  0.2354 -0.2184 -0.0603
  928MPD2    C313577   3.485   3.934   0.709  0.2261  0.0365 -0.3044
  928MPD2    C413578   3.562   3.833   0.658 -0.0899 -0.2260  0.9770
  928MPD2    C513579   3.688   3.814   0.714 -0.0596 -0.0889  0.8368
  928MPD2     H13580   3.453   4.089   0.849  0.7511  0.1255  0.2090
  928MPD2    H113581   3.527   3.764   0.582  3.3600 -1.6256  0.6753
  928MPD2    H213582   3.819   3.874   0.872 -1.2382 -2.2081  2.2877
  928MPD2    H313583   3.761   3.742   0.679 -1.9740 -0.7973 -1.6641
  928MPD2     N13584   3.365   3.960   0.638 -0.4429 -0.1716  0.0144
  928MPD2    H513585   3.334   3.891   0.570 -1.2687 -0.5851  0.8040
  928MPD2    N113586   3.688   4.056   0.997 -0.4052 -0.3442  0.6477
  928MPD2    H713587   3.776   4.030   1.040  0.4328  1.3800 -0.0340
  929MPD2     C13588   2.281   3.364   9.467 -0.3795  0.0541  0.5629
  929MPD2    C113589   2.199   3.446   9.528 -0.4544 -0.2732 -0.3741
  929MPD2    C213590   2.133   3.536   9.449 -0.9846  0.0174  0.1786
  929MPD2    C313591   2.129   3.539   9.305 -0.5471  0.0707 -0.1011
  929MPD2    C413592   2.220   3.458   9.253 -0.1849  0.4632  0.0501
  929MPD2    C513593   2.296   3.374   9.328 -0.3605 -0.3897 -0.8750
  929MPD2     H13594   2.063   3.599   9.502 -3.3541 -1.5554 -1.0923
  929MPD2    H113595   2.238   3.453   9.147  1.6548  0.8166  0.3384
  929MPD2    H213596   2.350   3.297   9.517 -1.0444 -0.9583  0.1243
  929MPD2    H313597   2.360   3.299   9.282  0.1262 -0.3831 -0.2073
  929MPD2     N13598   2.055   3.615   9.215  0.2106  0.0806  0.4712
  929MPD2    H513599   2.094   3.618   9.121 -1.0298  0.1665 -0.0458
  929MPD2    N113600   2.181   3.431   9.668 -0.0852  0.9320 -0.1799
  929MPD2    H713601   2.231   3.359   9.720  1.0949  0.4501 -1.9576
  930MPD2     C13602   3.762   0.626  14.078 -0.1851  0.4050 -0.8238
  930MPD2    C113603   3.899   0.653  14.061  0.2652 -0.1509  0.3636
  930MPD2    C213604   3.954   0.626  13.939  0.7080  0.2870  0.5195
  930MPD2    C313605   3.880   0.570  13.835  0.3396  0.4109  0.4237
  930MPD2    C413606   3.747   0.539  13.862  0.2420 -1.0917  0.1201
  930MPD2    C513607   3.693   0.564  13.979 -0.2565 -0.0707 -0.0624
  930MPD2     H13608   4.050   0.669  13.915  0.5617  0.1634 -0.2912
  930MPD2    H113609   3.693   0.506  13.773 -0.6148  1.1715 -0.1844
  930MPD2    H213610   3.713   0.646  14.173  0.9138 -0.7008 -0.0285
  930MPD2    H313611   3.585   0.560  13.992 -0.2615 -1.3408 -0.4764
  930MPD2     N13612   3.923   0.575  13.701  0.1682 -0.6066  0.9391
  930MPD2    H513613   3.859   0.566  13.622 -1.6197  1.5865  2.1500
  930MPD2    N113614   3.973   0.732  14.153  0.1929 -0.2946  0.3833
  930MPD2    H713615   3.921   0.763  14.235  0.1946  2.3027 -0.6117
  931MPD2     C13616   4.553   0.211   0.615 -0.5514 -1.1584 -0.0220
  931MPD2    C113617   4.429   0.204   0.671  0.2504  0.5148 -0.2867
  931MPD2    C213618   4.411   0.182   0.810  0.1695 -0.2387 -0.0437
  931MPD2    C313619   4.527   0.175   0.895 -0.1763 -0.3185 -0.1828
  931MPD2    C413620   4.656   0.192   0.839  0.6827  0.0095  0.1155
  931MPD2    C513621   4.663   0.200   0.700 -0.3970 -1.0715 -0.4321
  931MPD2     H13622   4.314   0.152   0.848 -0.5631 -2.6570 -3.8218
  931MPD2    H113623   0.015   0.193   0.902  1.1678  1.0174 -0.5797
  931MPD2    H213624   4.568   0.220   0.508  0.5575 -0.9667  0.1484
  931MPD2    H313625   0.033   0.201   0.655  0.1496  0.2093  0.8017
  931MPD2     N13626   4.522   0.137   1.026  0.0041 -0.6764  0.3660
  931MPD2    H513627   4.613   0.120   1.069  1.6507  1.8583 -2.1050
  931MPD2    N113628   4.325   0.235   0.587 -0.2018 -0.2466 -0.0981
  931MPD2    H713629   4.354   0.237   0.490 -0.4082 -1.1589 -0.1769
  932MPD2     C13630   0.701   3.640  11.290 -0.6648 -0.1284  0.2761
  932MPD2    C113631   0.796   3.712  11.358  0.6898  0.6713 -0.1950
  932MPD2    C213632   0.829   3.678  11.489 -0.1199  0.4820 -0.4164
  932MPD2    C313633   0.749   3.584  11.552 -0.3736 -0.3556 -0.1467
  932MPD2    C413634   0.649   3.518  11.489  0.2018  0.2795 -0.0750
  932MPD2    C513635   0.631   3.545  11.357 -0.5960 -0.4769 -0.4836
  932MPD2     H13636   0.903   3.730  11.547  0.6203 -1.7996  0.6902
  932MPD2    H113637   0.592   3.440  11.537 -1.0524  2.3784  1.8208
  932MPD2    H213638   0.670   3.663  11.189  1.3441  1.2005 -0.0443
  932MPD2    H313639   0.562   3.478  11.307  1.0632 -2.0811 -0.6090
  932MPD2     N13640   0.787   3.542  11.680  0.3365 -0.0303  0.1959
  932MPD2    H513641   0.879   3.570  11.712  0.4138  0.2236 -0.2547
  932MPD2    N113642   0.864   3.826  11.307 -0.4050 -0.2350 -0.0900
  932MPD2    H713643   0.933   3.869  11.369 -0.3795  1.0986 -1.0599
  933MPD2     C13644   3.785   4.434   1.836 -0.1842 -0.5937 -0.3612
  933MPD2    C113645   3.682   4.400   1.749 -0.0999 -0.7524 -0.5215
  933MPD2    C213646   3.554   4.427   1.789 -0.5207  0.3781 -0.3269
  933MPD2    C313647   3.520   4.484   1.906 -0.2630  0.4265  0.2037
  933MPD2    C413648   3.627   4.516   1.989 -0.5133 -0.1409  0.6607
  933MPD2    C513649   3.755   4.491   1.959 -0.5294  0.2490 -0.1524
  933MPD2     H13650   3.473   4.409   1.720 -0.9177 -0.4333  0.3484
  933MPD2    H113651   3.601   4.565   2.083  4.5406  2.8177  0.4988
  933MPD2    H213652   3.891   4.434   1.816 -0.5279 -0.8033 -2.1264
  933MPD2    H313653   3.838   4.523   2.022  0.8927 -0.1619 -1.8361
  933MPD2     N13654   3.384   4.516   1.926  0.1506 -0.3081 -0.2686
  933MPD2    H513655   3.313   4.469   1.870 -0.4150 -0.0642  0.2422
  933MPD2    N113656   3.722   4.363   1.613  0.1067  0.5087 -0.3481
  933MPD2    H713657   3.822   4.359   1.595  0.1660  0.6566 -0.0658
  934MPD2     C13658   3.127   1.290   2.152 -0.0514 -0.4196 -0.1581
  934MPD2    C113659   3.231   1.246   2.066 -0.4651 -0.3965 -0.8886
  934MPD2    C213660   3.199   1.195   1.937  0.0549 -0.2390 -0.2219
  934MPD2    C313661   3.071   1.200   1.893  0.4063  0.5926 -0.0920
  934MPD2    C413662   2.980   1.261   1.967  0.7299  0.1540 -0.1043
  934MPD2    C513663   3.007   1.306   2.093 -0.6759  0.7283  0.0716
  934MPD2     H13664   3.289   1.167   1.883  0.2857  1.5918 -0.7768
  934MPD2    H113665   2.879   1.284   1.935  1.9485  1.5652 -2.9184
  934MPD2    H213666   3.148   1.317   2.255  1.3388  2.4221 -1.2055
  934MPD2    H313667   2.924   1.349   2.148 -0.8603 -0.1255  0.4554
  934MPD2     N13668   3.030   1.140   1.774 -0.6560  0.5883  0.6135
  934MPD2    H513669   2.933   1.147   1.745 -0.1008 -0.3876 -1.4949
  934MPD2    N113670   3.364   1.243   2.106 -0.6174  0.3300  0.3224
  934MPD2    H713671   3.420   1.192   2.039 -1.0240  2.9033 -1.9658
  935MPD2     C13672   3.507   0.434   1.235  0.3069 -0.3505  0.2706
  935MPD2    C113673   3.417   0.492   1.144 -0.2072  0.1079  0.0068
  935MPD2    C213674   3.324   0.580   1.190  0.1861 -0.9941  0.3300
  935MPD2    C313675   3.328   0.627   1.323  0.4432  0.5383  0.2439
  935MPD2    C413676   3.424   0.560   1.404 -0.2627 -0.3787  0.7418
  935MPD2    C513677   3.514   0.468   1.363 -0.1306  0.3988  0.4866
  935MPD2     H13678   3.260   0.621   1.114  1.1253 -1.8084 -0.9152
  935MPD2    H113679   3.435   0.589   1.508  1.5789  1.9698 -0.0945
  935MPD2    H213680   3.589   0.369   1.206  0.1727 -0.0412 -0.8036
  935MPD2    H313681   3.582   0.422   1.434 -2.8034  0.3803  3.0494
  935MPD2     N13682   3.241   0.725   1.383 -0.0229  0.3835  0.1934
  935MPD2    H513683   3.256   0.749   1.481  0.5929 -0.9256  0.4081
  935MPD2    N113684   3.405   0.447   1.009  0.2408  0.2874 -0.0138
  935MPD2    H713685   3.325   0.479   0.955 -0.6872  0.4932  1.4686
  936MPD2     C13686   1.237   2.979  12.749 -0.6912 -0.0931  0.0660
  936MPD2    C113687   1.294   2.889  12.836 -0.2266 -0.9873  0.1343
  936MPD2    C213688   1.428   2.895  12.855 -0.4061  0.1633  0.1829
  936MPD2    C313689   1.512   2.979  12.790 -0.7035 -0.7760 -0.2978
  936MPD2    C413690   1.451   3.057  12.692  0.0574  0.0028  0.1294
  936MPD2    C513691   1.319   3.053  12.670 -0.8484  0.4608 -0.2384
  936MPD2     H13692   1.472   2.823  12.923  0.0579  0.3952  0.1285
  936MPD2    H113693   1.510   3.122  12.628  1.9612 -1.0085  0.8639
  936MPD2    H213694   1.129   2.977  12.738 -0.8350  1.4840  1.1001
  936MPD2    H313695   1.269   3.108  12.591 -1.8366  2.3678  1.6861
  936MPD2     N13696   1.645   2.983  12.833  0.0371 -0.4380 -0.0986
  936MPD2    H513697   1.677   2.909  12.895  2.2123 -0.9842 -1.8747
  936MPD2    N113698   1.231   2.803  12.923  0.0360  0.0549  0.7678
  936MPD2    H713699   1.287   2.730  12.966 -0.2346 -0.7274 -0.2106
  937MPD2     C13700   4.021   3.805  11.392  0.4368  0.6401 -0.2866
  937MPD2    C113701   4.093   3.924  11.422 -0.3009  0.3799  0.2582
  937MPD2    C213702   4.203   3.951  11.343 -0.8000 -0.5116  0.6129
  937MPD2    C313703   4.253   3.861  11.252 -0.0638 -0.2958  0.8393
  937MPD2    C413704   4.185   3.743  11.226  0.9716 -0.6774  0.0982
  937MPD2    C513705   4.067   3.721  11.293 -0.0475  0.3545  0.0591
  937MPD2     H13706   4.258   4.043  11.356 -0.2910 -0.2944 -3.0643
  937MPD2    H113707   4.215   3.672  11.150 -2.1057 -2.4360  0.5727
  937MPD2    H213708   3.928   3.780  11.442  0.2646  0.2441 -0.8049
  937MPD2    H313709   4.005   3.636  11.267  1.2551 -0.6180  0.1561
  937MPD2     N13710   4.362   3.903  11.177 -0.2852  0.3491 -0.2802
  937MPD2    H513711   4.405   3.985  11.218  3.3020 -1.2205 -0.9325
  937MPD2    N113712   4.038   4.033  11.499  0.1391  0.2280 -0.5109
  937MPD2    H713713   4.085   4.122  11.502 -0.0352  0.2838  0.9988
  938MPD2     C13714   2.214   0.887   0.192 -0.1435 -0.2366 -0.6263
  938MPD2    C113715   2.287   0.858   0.310 -0.1904 -0.0659 -0.4015
  938MPD2    C213716   2.221   0.845   0.433  0.0071  0.3103  0.0705
  938MPD2    C313717   2.085   0.868   0.443  0.5661 -0.5472  0.6115
  938MPD2    C413718   2.018   0.907   0.327 -0.5202  0.0074  0.1259
  938MPD2    C513719   2.081   0.905   0.207 -0.2118  1.2439  0.4036
  938MPD2     H13720   2.271   0.810   0.522  1.1318  0.2294 -0.5906
  938MPD2    H113721   1.914   0.936   0.334 -0.8464 -1.4892  1.4818
  938MPD2    H213722   2.258   0.886   0.094 -1.8330  1.2519 -1.4013
  938MPD2    H313723   2.028   0.932   0.116  0.8280  0.6743 -0.3748
  938MPD2     N13724   2.010   0.855   0.572  0.4966  0.1498 -0.2884
  938MPD2    H513725   1.909   0.848   0.568  0.3635  1.8325  0.2541
  938MPD2    N113726   2.423   0.819   0.305 -0.2300 -0.0288 -0.0057
  938MPD2    H713727   2.449   0.777   0.217 -0.8849 -0.3038 -0.0690
  939MPD2     C13728   4.342   2.237   1.163  0.2523 -0.2930  0.5986
  939MPD2    C113729   4.219   2.212   1.103  0.0732  0.7581 -1.1188
  939MPD2    C213730   4.223   2.183   0.969  1.5601  0.8879 -0.1457
  939MPD2    C313731   4.339   2.151   0.899 -0.1684  1.0754  0.0353
  939MPD2    C413732   4.460   2.179   0.956  0.0526  0.2672  0.1760
  939MPD2    C513733   4.455   2.227   1.083 -0.1281  0.3863  0.2551
  939MPD2     H13734   4.132   2.150   0.920  1.2544 -0.0637  1.0608
  939MPD2    H113735   4.550   2.173   0.896 -0.8399 -2.3168 -0.8928
  939MPD2    H213736   4.350   2.277   1.263 -1.3454  0.8427  0.2751
  939MPD2    H313737   4.548   2.239   1.137  0.2598 -0.8717 -0.1520
  939MPD2     N13738   4.335   2.122   0.761 -0.4031  0.7916 -0.0382
  939MPD2    H513739   4.240   2.122   0.725  0.2777  1.2433 -1.8048
  939MPD2    N113740   4.102   2.236   1.173  0.2503 -0.3075  0.1584
  939MPD2    H713741   4.112   2.262   1.271  0.4018 -4.6346  1.3056
  940MPD2     C13742   2.431   3.009  13.061 -0.2841  0.2120  0.2911
  940MPD2    C113743   2.409   2.881  13.095  0.1844 -0.0654  0.3251
  940MPD2    C213744   2.434   2.772  13.013 -0.1293 -0.2296  0.6121
  940MPD2    C313745   2.484   2.787  12.884 -0.4604 -0.5878  0.1695
  940MPD2    C413746   2.513   2.918  12.851  0.3201 -0.1083 -0.7671
  940MPD2    C513747   2.488   3.023  12.939  0.0590  0.0054 -0.5158
  940MPD2     H13748   2.418   2.671  13.048  0.2625  0.4657  2.8108
  940MPD2    H113749   2.557   2.945  12.756  0.1632 -1.2087 -1.1533
  940MPD2    H213750   2.417   3.092  13.129 -0.3581  0.2388  0.2437
  940MPD2    H313751   2.507   3.125  12.907 -0.7877  0.4887  0.5403
  940MPD2     N13752   2.512   2.679  12.791  0.5137  0.0135 -0.8821
  940MPD2    H513753   2.539   2.708  12.698  2.6704 -3.2972 -1.2982
  940MPD2    N113754   2.352   2.849  13.221 -0.5025  0.2963 -0.6073
  940MPD2    H713755   2.358   2.753  13.253 -0.6326  0.5834  0.2884
  941MPD2     C13756   1.495   1.292   9.280 -0.1111 -0.7473 -0.5409
  941MPD2    C113757   1.550   1.236   9.388 -0.4521  0.0271  0.4111
  941MPD2    C213758   1.555   1.096   9.391  0.3910  0.1371  0.3351
  941MPD2    C313759   1.500   1.016   9.296  0.8598 -0.1203 -0.1672
  941MPD2    C413760   1.434   1.075   9.193 -0.0514  0.8248 -0.0541
  941MPD2    C513761   1.433   1.217   9.178 -0.0866  0.6646 -0.6438
  941MPD2     H13762   1.619   1.056   9.469 -1.1483 -0.2807  1.3838
  941MPD2    H113763   1.366   1.017   9.131  0.3315  1.7663 -1.3568
  941MPD2    H213764   1.487   1.399   9.267  1.6159 -0.2895  2.1731
  941MPD2    H313765   1.377   1.271   9.102 -0.7383  2.8454  1.3686
  941MPD2     N13766   1.492   0.870   9.303  0.6007 -0.7947  0.8179
  941MPD2    H513767   1.453   0.824   9.221 -0.9713  0.0997  1.0885
  941MPD2    N113768   1.608   1.316   9.497  0.6534 -0.4836  0.0232
  941MPD2    H713769   1.662   1.257   9.559  1.3301 -0.7477 -0.8183
  942MPD2     C13770   0.926   3.024   9.863  0.4484 -0.1779  0.6467
  942MPD2    C113771   0.956   3.136   9.784  0.9273 -0.5828  0.7042
  942MPD2    C213772   1.044   3.124   9.679  0.4704  0.1194  0.2256
  942MPD2    C313773   1.103   2.999   9.651  0.6460  0.4131 -0.1188
  942MPD2    C413774   1.073   2.890   9.730  0.6714  0.1826  0.6144
  942MPD2    C513775   0.989   2.914   9.835  0.1049 -0.1173 -0.0873
  942MPD2     H13776   1.052   3.209   9.612  0.2685 -1.1198 -1.3725
  942MPD2    H113777   1.121   2.794   9.713 -0.5202  0.0098 -1.7313
  942MPD2    H213778   0.856   3.022   9.946  0.5135  0.6822  0.7280
  942MPD2    H313779   0.959   2.829   9.896 -2.2129 -0.1412 -1.2657
  942MPD2     N13780   1.187   2.978   9.541 -0.0677  1.0709 -0.4278
  942MPD2    H513781   1.226   2.885   9.527  2.8604  2.7862 -3.7267
  942MPD2    N113782   0.907   3.265   9.801 -0.5703  0.4014 -0.0078
  942MPD2    H713783   0.935   3.340   9.739  0.3939  0.5086  0.5609
  943MPD2     C13784   4.672   1.774   9.486 -0.1509  0.6333  0.1734
  943MPD2    C113785   4.567   1.738   9.564 -0.3250  0.9216 -0.0691
  943MPD2    C213786   4.443   1.802   9.539 -0.2740 -0.7890 -0.4212
  943MPD2    C313787   4.423   1.902   9.448  0.3905 -0.2191  0.5533
  943MPD2    C413788   4.531   1.927   9.373  0.8883 -0.5805  0.4508
  943MPD2    C513789   4.659   1.870   9.394  0.0632  0.3920  0.1604
  943MPD2     H13790   4.359   1.775   9.602  1.0758 -1.9408  0.8683
  943MPD2    H113791   4.523   2.008   9.301 -1.0240 -0.3896  0.8797
  943MPD2    H213792   0.039   1.724   9.498 -0.0638  0.5850 -0.6944
  943MPD2    H313793   0.009   1.902   9.326  0.9888 -1.2519  0.4519
  943MPD2     N13794   4.305   1.968   9.417  0.8838  0.1243 -0.3532
  943MPD2    H513795   4.300   2.015   9.327 -3.3369  0.1556 -0.1180
  943MPD2    N113796   4.589   1.646   9.674 -0.1333  0.1121  0.2740
  943MPD2    H713797   4.687   1.622   9.683 -0.8211 -1.9781  2.0448
  944MPD2     C13798   0.283   0.653  11.244  0.4133  0.4790 -0.1896
  944MPD2    C113799   0.203   0.697  11.141 -0.0759  0.3746 -1.1252
  944MPD2    C213800   0.080   0.743  11.172 -0.4709  0.8249 -0.3280
  944MPD2    C313801   0.034   0.741  11.301  0.4823  0.4852 -0.1137
  944MPD2    C413802   0.109   0.684  11.398 -0.5337  0.0032 -0.7806
  944MPD2    C513803   0.237   0.640  11.371  0.4989  0.2693 -0.6001
  944MPD2     H13804   0.023   0.795  11.096 -0.3909 -0.2972 -1.1547
  944MPD2    H113805   0.076   0.662  11.500  0.8360  0.2511 -0.2874
  944MPD2    H213806   0.379   0.609  11.218  1.0793  0.4479  2.2484
  944MPD2    H313807   0.298   0.608  11.455  1.3871 -1.1760 -1.8017
  944MPD2     N13808   4.639   0.801  11.327  0.2629  0.9209 -0.0018
  944MPD2    H513809   4.590   0.843  11.249  1.7200 -1.8264 -2.3906
  944MPD2    N113810   0.256   0.689  11.011 -0.1495 -0.0337 -0.1350
  944MPD2    H713811   0.352   0.654  11.007  0.2817  1.0863  0.2594
    1TCq1    O113812   2.960   1.637  14.067  0.1394  0.2133 -0.6444
    1TCq1    C113813   3.008   1.643  14.190  0.9746 -0.6327  0.5540
    1TCq1    O213814   3.128   1.621  14.219  0.1614  0.1210  0.3278
    1TCq1    C213815   2.905   1.705  14.280  0.0046 -0.5859 -0.1826
    1TCq1    C313816   2.769   1.712  14.249 -0.0437  0.5716  0.1177
    1TCq1    C413817   2.692   1.799  14.322  0.7866 -0.5679 -0.4703
    1TCq1    C513818   2.745   1.874  14.419 -0.1112 -0.0101 -0.3276
    1TCq1    C613819   2.870   1.848  14.463 -0.1598 -0.2671  1.1601
    1TCq1    C713820   2.956   1.767  14.394  0.3429 -0.8827 -0.9723
    1TCq1    C813821   2.923   1.959  14.545 -0.1701  0.4622  0.0497
    1TCq1    O413822   2.879   2.072  14.535 -0.7739 -0.6008  0.9777
    1TCq1    C913823   2.555   1.823  14.278 -0.1517 -0.1796  0.0581
    1TCq1    O513824   2.494   1.917  14.332 -0.0932  0.6182 -0.0520
    1TCq1    O613825   2.508   1.741  14.195 -0.4665  0.2637 -0.0355
    1TCq1    H113826   2.864   1.657  14.055  0.2989  1.7163  0.5276
    1TCq1    H213827   2.722   1.648  14.175 -1.0652  1.2121  0.2056
    1TCq1    H313828   2.682   1.949  14.465 -1.3259 -2.0380  1.3081
    1TCq1    H413829   3.063   1.769  14.412  0.3388  0.5330 -1.0709
    2MPD2     C13830   3.385   2.159  14.702  0.6253 -0.2122  1.2922
    2MPD2    C113831   3.271   2.217  14.654 -0.0364 -0.0665 -0.3289
    2MPD2    C213832   3.157   2.147  14.628 -0.9043 -0.0244  0.4888
    2MPD2    C313833   3.151   2.012  14.644 -0.6456  0.2376  0.2953
    2MPD2    C413834   3.259   1.953  14.694  0.1519 -0.4489 -0.5519
    2MPD2    C513835   3.374   2.021  14.719 -1.0591  0.5051  0.9466
    2MPD2     H13836   3.074   2.202  14.586 -0.4628  0.4390  0.2164
    2MPD2    H113837   3.268   1.846  14.709 -2.2380 -0.4400  1.0191
    2MPD2    H213838   3.481   2.208  14.709  0.1743  0.7362  0.7989
    2MPD2    H313839   3.468   1.974  14.745 -0.1857  1.5010 -0.4203
    2MPD2     N13840   3.036   1.926  14.604 -0.8203  0.7814  0.3292
    2MPD2    H513841   3.043   1.828  14.632  2.0753  0.4836 -1.3812
    2MPD2    N113842   3.274   2.355  14.641 -0.2191  0.0748 -0.5306
    2MPD2    H713843   3.365   2.397  14.628 -0.3694  0.8742  1.0463
    3TMC2    C113844   3.209   2.575  14.594 -0.4006 -0.0496  0.0364
    3TMC2    C213845   3.131   2.675  14.647  1.1143  0.1542 -0.1221
    3TMC2    C313846   3.127   2.795  14.586  0.3141  0.1429  0.6979
    3TMC2    C413847   3.257   2.589  14.465 -0.3383  0.5666 -0.1855
    3TMC2    C513848   3.246   2.712  14.402 -0.6966  0.2033 -0.1876
    3TMC2    C613849   3.192   2.820  14.470  0.3241 -0.3648  0.2462
    3TMC2     C13850   3.172   2.440  14.627 -0.1512 -0.5764 -1.5764
    3TMC2     O13851   3.053   2.410  14.642 -0.6802 -0.1455 -0.8139
    3TMC2     H13852   3.077   2.670  14.742 -3.1859  3.0344 -2.4342
    3TMC2    H113853   3.299   2.508  14.406  1.3962  0.5790  1.0107
    3TMC2    H213854   3.186   2.913  14.415  1.6812 -1.4679 -1.7644
    3TMC2    C713855   3.198   2.699  14.267 -0.6080 -0.0576 -0.4771
    3TMC2    C813856   3.092   2.907  14.665  0.4084 -0.1871  0.1057
    3TMC2    O113857   3.184   2.585  14.226  0.0434  0.5766 -0.1632
    3TMC2    O213858   3.007   2.989  14.621  0.2156  0.3655  0.0099
    3TMC2    O513859   3.216   2.954  14.688  0.6475 -0.2034 -0.6211
    3TMC2    H513860   3.291   2.893  14.706  1.0366  0.2672 -0.6447
    4MPD2     C13861   2.076   3.525  13.849 -0.4406  0.8184 -0.7544
    4MPD2    C113862   2.086   3.432  13.745 -0.4266 -0.8549 -0.6267
    4MPD2    C213863   2.213   3.409  13.686  0.1479  0.1260 -0.2954
    4MPD2    C313864   2.326   3.465  13.741  0.6299 -0.6252  0.1904
    4MPD2    C413865   2.313   3.555  13.841 -0.5525  0.2773 -0.1273
    4MPD2    C513866   2.194   3.583  13.897 -0.2899 -0.3742 -0.2245
    4MPD2     H13867   2.233   3.342  13.604 -0.2168  0.5882 -0.7549
    4MPD2    H113868   2.400   3.605  13.883 -1.7102  1.3566  0.9669
    4MPD2    H213869   1.982   3.562  13.890 -1.4942 -3.3252  0.5640
    4MPD2    H313870   2.184   3.660  13.973 -1.7579 -1.4758  0.6959
    4MPD2     N13871   2.452   3.424  13.692 -0.2440 -0.1685 -0.5346
    4MPD2    H513872   2.450   3.365  13.610  2.0384 -0.0077 -0.7011
    4MPD2    N113873   1.970   3.365  13.707 -0.0967  0.7286 -0.6949
    4MPD2    H713874   1.887   3.380  13.763  0.1655 -0.2643 -0.0299
    5TCq2    C113875   2.564   3.433  13.770 -0.2382 -0.1885 -0.3861
    5TCq2    O213876   2.561   3.451  13.891 -0.6499  0.0955 -0.3246
    5TCq2    C213877   2.682   3.367  13.723 -0.1596  0.0900 -0.3629
    5TCq2    C313878   2.721   3.381  13.595 -0.4749  0.0905 -0.1280
    5TCq2    C413879   2.852   3.349  13.560  0.6583  0.3899 -0.1214
    5TCq2    C513880   2.942   3.304  13.658  0.2093 -0.2969 -0.7958
    5TCq2    C613881   2.903   3.307  13.793 -0.6922  0.8075  0.4823
    5TCq2    C713882   2.773   3.326  13.823  0.3129  0.4869  0.2709
    5TCq2    C813883   2.970   3.218  13.886 -0.3458 -0.1765 -0.1970
    5TCq2    O413884   2.994   3.250  13.997  0.4541 -0.4583 -0.8653
    5TCq2    C913885   2.890   3.365  13.419  0.6935  0.3390 -0.5114
    5TCq2    O513886   3.005   3.315  13.398  0.1848 -0.9155 -0.4379
    5TCq2    O613887   2.820   3.428  13.335  0.2022  0.1296 -0.4889
    5TCq2    H213888   2.653   3.416  13.518 -1.7733 -1.7987  0.1422
    5TCq2    H313889   3.043   3.289  13.622  0.6522 -1.0106  0.7132
    5TCq2    H413890   2.739   3.312  13.925  2.4205 -2.0197  0.6136
    6MPD1     C13891   1.397   4.462  12.653 -0.2355  0.0880 -0.1709
    6MPD1    C113892   1.465   4.362  12.587  0.8194  0.0705 -0.7468
    6MPD1    C213893   1.499   4.249  12.664 -0.2157  0.5097  0.5017
    6MPD1    C313894   1.477   4.240  12.796 -0.9851  0.1958  0.7595
    6MPD1    C413895   1.414   4.346  12.861 -0.0622  0.1043  0.1783
    6MPD1    C513896   1.371   4.457  12.788  0.2145  0.0017 -0.7628
    6MPD1     H13897   1.547   4.164  12.618  1.3036  1.8084 -0.3117
    6MPD1    H113898   1.381   4.339  12.965  1.1030  3.6744  0.7609
    6MPD1    H213899   1.364   4.548  12.595 -2.8400 -1.6603 -1.3036
    6MPD1    H313900   1.323   4.544  12.830 -1.5179 -2.4356  2.3227
    6MPD1     N13901   1.521   4.131  12.881  0.2219  0.3341  0.4287
    6MPD1    H513902   1.490   4.146  12.977 -2.5496  0.8731 -0.5590
    6MPD1    N113903   1.470   4.351  12.452 -0.8328  0.2089  0.0265
    6MPD1    H613904   1.502   4.442  12.419  1.1502 -0.2850  0.6074
    6MPD1    H713905   1.522   4.272  12.415 -0.8837  0.4271 -0.5200
    7MPD2     C13906   1.387   3.648  13.246  0.3101 -0.0451 -0.2404
    7MPD2    C113907   1.462   3.664  13.356  0.0353 -0.2524  0.0111
    7MPD2    C213908   1.474   3.564  13.447  0.0953  0.1426  0.2954
    7MPD2    C313909   1.423   3.437  13.414 -0.2836 -0.7783 -0.0303
    7MPD2    C413910   1.364   3.417  13.295 -0.0554  0.5425 -0.3223
    7MPD2    C513911   1.343   3.521  13.208 -0.2457 -0.4601  1.0574
    7MPD2     H13912   1.533   3.576  13.537 -2.2828  1.0757  1.7301
    7MPD2    H113913   1.330   3.321  13.258  1.5427 -0.0738 -0.1823
    7MPD2    H213914   1.368   3.717  13.164  1.0223  1.2975  0.7120
    7MPD2    H313915   1.300   3.504  13.110 -0.5324 -0.2819  1.1519
    7MPD2     N13916   1.450   3.325  13.496 -0.2871  0.2600  0.1698
    7MPD2    H513917   1.448   3.235  13.448 -1.0162 -1.0060  2.5717
    7MPD2    N113918   1.547   3.775  13.378  0.1164  0.7529 -0.0125
    7MPD2    H713919   1.580   3.791  13.473  0.1163 -0.9397  0.2690
    8TMC3    C113920   1.603   3.222  13.630  0.6999  0.1097  0.9676
    8TMC3    C213921   1.728   3.260  13.674 -0.8470  0.0559  0.2729
    8TMC3    C313922   1.836   3.190  13.631  0.1170  0.7150 -0.6834
    8TMC3    C413923   1.582   3.128  13.537 -0.2641  0.8522 -0.4276
    8TMC3    C513924   1.691   3.063  13.486 -0.1870 -0.2409 -0.1178
    8TMC3    C613925   1.815   3.092  13.540 -0.4931  0.1048 -0.2441
    8TMC3     C13926   1.511   3.332  13.623 -0.0953  0.4957  0.8962
    8TMC3     O13927   1.524   3.423  13.702 -0.2022  0.0675  0.4974
    8TMC3     H13928   1.727   3.338  13.750 -0.2241 -0.0957  0.4349
    8TMC3    H113929   1.485   3.085  13.513  0.3048 -0.5338 -0.2506
    8TMC3    H213930   1.899   3.037  13.497  0.9890  2.8537 -0.8445
    8TMC3    C713931   1.701   3.085  13.343 -0.9714  0.3856  0.4010
    8TMC3    C813932   1.963   3.255  13.620 -0.4915 -0.2027 -0.3300
    8TMC3    O113933   1.814   3.120  13.299  0.3637 -0.1699  0.0882
    8TMC3    O213934   2.052   3.211  13.550 -0.0448  0.0942  0.2182
    9TMC3    C113935   1.614   3.917  12.935 -0.1863 -0.0235 -0.4596
    9TMC3    C213936   1.660   3.793  12.895  0.5334 -0.6330  0.2649
    9TMC3    C313937   1.685   3.693  12.988 -0.6171  0.4806 -0.4775
    9TMC3    C413938   1.582   3.943  13.066  0.2033 -0.2182  0.0196
    9TMC3    C513939   1.600   3.838  13.153 -0.9552  0.6006  0.6134
    9TMC3    C613940   1.663   3.717  13.123  0.2430 -0.2814 -0.0302
    9TMC3     C13941   1.580   4.014  12.833  0.6862  0.5554  0.3858
    9TMC3     O13942   1.613   3.988  12.719  0.1305 -0.3657  0.0022
    9TMC3     H13943   1.689   3.776  12.792 -1.3464  0.2748 -0.4251
    9TMC3    H113944   1.562   4.040  13.108 -0.8462  0.5974 -2.3772
    9TMC3    H213945   1.670   3.637  13.196 -3.1486  1.2606  2.0024
    9TMC3    C713946   1.588   3.872  13.290 -0.1520  0.4207  0.1380
    9TMC3    C813947   1.641   3.567  12.935  0.5302 -0.5674  0.2694
    9TMC3    O113948   1.643   3.980  13.310  0.2429  0.9181  0.0375
    9TMC3    O213949   1.580   3.572  12.830  0.4897  0.2793 -0.3014
   10MPD2     C13950   1.455   3.137  13.081  0.0547  0.3403 -0.2966
   10MPD2    C113951   1.559   3.168  13.171 -0.3003  0.3041  0.0297
   10MPD2    C213952   1.635   3.276  13.134 -0.0941  0.3876  0.4406
   10MPD2    C313953   1.589   3.351  13.030  0.4608 -0.0990  0.7595
   10MPD2    C413954   1.480   3.327  12.953 -0.1205 -0.5712 -0.4364
   10MPD2    C513955   1.406   3.219  12.989 -0.0222  0.6346  0.5642
   10MPD2     H13956   1.721   3.306  13.195 -1.1859 -0.5720  2.4550
   10MPD2    H113957   1.442   3.390  12.873 -0.6928  0.3626  0.5651
   10MPD2    H213958   1.392   3.051  13.103  0.7736 -0.0094  0.3906
   10MPD2    H313959   1.310   3.199  12.943 -1.1153  1.9275  2.3260
   10MPD2     N13960   1.661   3.469  13.024 -0.3766 -0.5338 -0.0759
   10MPD2    H513961   1.744   3.489  13.079  0.8189 -1.2109 -1.6350
   10MPD2    N113962   1.580   3.087  13.281  0.0450 -0.0289  1.0457
   10MPD2    H713963   1.517   3.018  13.320 -2.3321  1.3971 -0.2868
   11MPD2     C13964   3.041   2.712  14.009  0.8668 -0.1965 -0.3107
   11MPD2    C113965   3.088   2.824  14.082 -0.5642  0.5373  0.2106
   11MPD2    C213966   3.064   2.956  14.029 -0.1627  0.3020  0.1393
   11MPD2    C313967   2.999   2.973  13.905 -0.2862  0.6218 -0.5577
   11MPD2    C413968   2.970   2.860  13.839 -0.1127  0.1778  0.4290
   11MPD2    C513969   2.988   2.737  13.885 -0.4693  0.1144  0.4344
   11MPD2     H13970   3.093   3.040  14.090 -0.7469 -1.2846  2.5719
   11MPD2    H113971   2.925   2.867  13.741 -0.9607  0.0593  0.8018
   11MPD2    H213972   3.051   2.610  14.044 -0.1228 -0.0850  0.2844
   11MPD2    H313973   2.957   2.656  13.820 -0.6889  1.2360 -0.8708
   11MPD2     N13974   2.964   3.091  13.841 -0.1128  0.8832 -0.2485
   11MPD2    H513975   2.912   3.087  13.753 -0.3179  0.2135 -0.1007
   11MPD2    N113976   3.155   2.816  14.214 -0.4521 -0.4713  0.2333
   11MPD2    H713977   3.169   2.904  14.262 -3.3165  0.9499 -1.5235
    1MPD1     C13978   0.995   4.461  17.248  0.0690 -0.2320 -0.9068
    1MPD1    C113979   1.104   4.410  17.319 -0.2223 -0.6405 -0.1548
    1MPD1    C213980   1.141   4.284  17.279 -0.1003  1.0862 -1.1730
    1MPD1    C313981   1.058   4.200  17.207  0.1284 -0.0629 -0.7467
    1MPD1    C413982   0.953   4.252  17.143  0.0438  0.3162  0.3483
    1MPD1    C513983   0.912   4.380  17.168 -0.4798  0.2466  0.1531
    1MPD1     H13984   1.233   4.246  17.322 -0.5865  1.9923  0.6702
    1MPD1    H113985   0.901   4.188  17.074  1.0781  0.4224 -0.5335
    1MPD1    H213986   0.960   4.560  17.277 -4.1850 -1.1872 -2.8025
    1MPD1    H313987   0.823   4.423  17.124 -0.3997 -1.4619 -1.6758
    1MPD1     N13988   1.080   4.065  17.180  0.4641 -0.3674 -0.5025
    1MPD1    H513989   1.030   4.015  17.107 -0.0409  1.0668 -1.1394
    1MPD1    N113990   1.192   4.489  17.395  0.1386  0.0821 -0.0357
    1MPD1    H613991   1.235   4.430  17.466  1.9852  0.9729 -0.4278
    1MPD1    H713992   1.153   4.575  17.432  0.6942  1.0793 -1.7852
    2MPD1     C13993   1.931   3.615  17.043 -0.9389 -0.0834  0.0917
    2MPD1    C113994   1.891   3.726  17.113  0.0716 -0.2330  0.1677
    2MPD1    C213995   1.759   3.736  17.159  0.6461 -0.0282 -0.1675
    2MPD1    C313996   1.664   3.645  17.121 -0.5926  0.1018 -0.3996
    2MPD1    C413997   1.709   3.541  17.043 -0.4611 -0.4674  1.0062
    2MPD1    C513998   1.838   3.526  16.999  0.2339 -0.0718  0.2688
    2MPD1     H13999   1.730   3.826  17.212  1.2318 -0.7719  1.4499
    2MPD1    H114000   1.642   3.474  16.990  0.2286  0.0004 -0.4502
    2MPD1    H214001   2.035   3.599  17.016 -0.9991 -0.0799 -0.1432
    2MPD1    H314002   1.873   3.439  16.944 -0.6406  0.1920 -0.6950
    2MPD1     N14003   1.526   3.667  17.154  0.4072  0.2423  0.0527
    2MPD1    H514004   1.511   3.752  17.207  0.5634 -0.1196  0.6761
    2MPD1    N114005   1.985   3.824  17.152  0.2309 -0.3907 -0.3266
    2MPD1    H614006   2.072   3.821  17.098  2.0487 -1.6694  2.6933
    2MPD1    H714007   1.952   3.919  17.168 -1.2738 -0.9157 -0.2939
    3TMC3    C114008   1.294   3.669  17.136  0.4863  0.4602  0.9290
    3TMC3    C214009   1.178   3.598  17.121  0.5479 -0.8304 -0.0586
    3TMC3    C314010   1.061   3.660  17.122 -0.4548 -0.4079 -0.0268
    3TMC3    C414011   1.295   3.798  17.176 -0.3609  0.0701  1.0957
    3TMC3    C514012   1.176   3.859  17.168 -0.0875  0.0624 -0.0257
    3TMC3    C614013   1.055   3.794  17.142  0.3733 -0.3328 -0.4013
    3TMC3     C14014   1.418   3.591  17.116 -0.2485 -0.0487  0.0060
    3TMC3     O14015   1.415   3.486  17.047  0.0175 -0.0605 -0.4289
    3TMC3     H14016   1.192   3.498  17.080  3.0434 -0.6464  0.3704
    3TMC3    H114017   1.382   3.862  17.182  0.7106 -1.3026  0.1898
    3TMC3    H214018   0.962   3.851  17.144 -0.3836 -1.6122  0.4851
    3TMC3    C714019   1.175   3.987  17.236  0.0303 -0.2775 -0.6584
    3TMC3    C814020   0.937   3.603  17.090 -0.0830  0.4021  0.3375
    3TMC3    O114021   1.242   4.003  17.339  1.1472  0.4374 -0.3826
    3TMC3    O214022   0.848   3.683  17.097 -0.3772  0.8157  0.0643
    4MPD1     C14023   0.672   3.179  16.971  0.1503  0.6599  0.1236
    4MPD1    C114024   0.806   3.139  16.985  0.0885  0.0930  0.8140
    4MPD1    C214025   0.891   3.235  17.029  0.0269  0.1642 -0.6092
    4MPD1    C314026   0.854   3.371  17.040 -0.1828 -0.4353 -0.2944
    4MPD1    C414027   0.726   3.404  17.014 -0.0162  0.7950 -0.0526
    4MPD1    C514028   0.631   3.307  16.988 -0.2516  0.2782 -0.3582
    4MPD1     H14029   0.995   3.206  17.038  0.4929  1.6510 -1.2783
    4MPD1    H114030   0.698   3.509  17.017  0.5249  0.9195  0.6008
    4MPD1    H214031   0.601   3.101  16.945  2.0086 -1.4211  1.2870
    4MPD1    H314032   0.535   3.347  16.960 -1.0277 -2.1980 -1.2585
    4MPD1     N14033   0.950   3.467  17.063  0.1282  0.0815 -0.3713
    4MPD1    H514034   1.046   3.437  17.052  1.0453  2.8242  0.0449
    4MPD1    N114035   0.833   3.003  16.973  0.2255  0.3741  0.5515
    4MPD1    H614036   0.924   2.979  16.936  0.6328 -1.7937  2.9194
    4MPD1    H714037   0.771   2.958  16.906 -0.2728  0.1173  1.1782
    1TCq1    O114038   1.264   3.150  10.549  0.5488 -0.0795  0.1886
    1TCq1    C114039   1.327   3.058  10.632 -0.0449  0.2040 -0.9473
    1TCq1    O214040   1.449   3.033  10.627  0.0843  0.4580  0.0454
    1TCq1    C214041   1.249   3.084  10.754  1.1705  0.4677 -0.2631
    1TCq1    C314042   1.117   3.061  10.749 -0.0506 -0.3163  0.3393
    1TCq1    C414043   1.045   3.060  10.867 -0.1536 -0.1354  0.9555
    1TCq1    C514044   1.098   3.100  10.987 -0.0227 -0.4185  0.5162
    1TCq1    C614045   1.234   3.120  10.983 -0.7956  0.2133 -0.3357
    1TCq1    C714046   1.313   3.108  10.871 -0.2823 -0.4291  0.4774
    1TCq1    C814047   1.291   3.152  11.108  0.4284 -0.0771 -0.5714
    1TCq1    O414048   1.228   3.120  11.207  0.1577 -0.2174  0.2763
    1TCq1    C914049   0.901   3.084  10.864 -0.0054  0.1707  0.3584
    1TCq1    O514050   0.841   3.044  10.755 -0.1338 -0.2359  0.0682
    1TCq1    O614051   0.841   3.132  10.966 -0.3433 -0.5888  0.1268
    1TCq1    H114052   1.184   3.190  10.589 -0.0819 -2.6105  1.4604
    1TCq1    H214053   1.064   3.072  10.655  0.3430  1.5200  0.3468
    1TCq1    H314054   1.039   3.127  11.073 -2.1000 -1.5798 -0.5593
    1TCq1    H414055   1.421   3.113  10.871 -0.2318 -0.8189  4.1455
    2MPD1     C14056   1.600   3.431  11.400  0.3322 -0.1827 -0.1556
    2MPD1    C114057   1.626   3.462  11.266  0.3384 -0.5811  1.1405
    2MPD1    C214058   1.569   3.389  11.169  0.3998 -0.0907 -0.8223
    2MPD1    C314059   1.473   3.296  11.200  0.0423 -0.2648  0.1328
    2MPD1    C414060   1.450   3.261  11.329 -0.0455 -0.1105 -0.3104
    2MPD1    C514061   1.511   3.333  11.429 -0.1966  0.3395  0.0962
    2MPD1     H14062   1.606   3.404  11.068 -0.1246 -0.2578 -1.0388
    2MPD1    H114063   1.379   3.185  11.359 -0.8658  0.1591 -1.5774
    2MPD1    H214064   1.651   3.490  11.475  1.4341  0.9465 -1.7937
    2MPD1    H314065   1.492   3.314  11.534 -0.6683 -0.4274 -0.1240
    2MPD1     N14066   1.402   3.233  11.092  0.6617  0.0858 -0.1581
    2MPD1    H514067   1.423   3.253  10.995  0.9054  0.7356  0.0337
    2MPD1    N114068   1.734   3.540  11.216 -0.2964 -0.2679 -0.2735
    2MPD1    H614069   1.714   3.588  11.129  2.5142  2.4712  0.6245
    2MPD1    H714070   1.764   3.606  11.287  0.0547 -3.3097  2.3945
    1TCq1    O114071   0.060   2.193   2.954 -0.4178 -0.8729 -0.6094
    1TCq1    C114072   0.018   2.102   2.860  0.2158  0.9035  0.9219
    1TCq1    O214073   0.092   2.029   2.801 -0.4273 -0.2791  0.0764
    1TCq1    C214074   4.623   2.048   2.922  0.1757  0.0574 -0.0129
    1TCq1    C314075   4.627   1.921   2.963  0.0226 -0.2871 -0.1298
    1TCq1    C414076   4.507   1.875   3.022  0.1403 -0.3612 -0.5169
    1TCq1    C514077   4.397   1.952   3.024 -0.8422 -0.4599  0.1713
    1TCq1    C614078   4.396   2.085   2.988 -0.6923 -0.2989  1.0243
    1TCq1    C714079   4.516   2.135   2.937 -0.1836 -0.1153  0.7277
    1TCq1    C814080   4.284   2.173   3.006 -0.3787 -0.0964 -0.3746
    1TCq1    O414081   4.300   2.293   3.005  0.1085  0.3679  0.2683
    1TCq1    C914082   4.483   1.737   3.015 -0.5643  0.5096 -0.4787
    1TCq1    O514083   4.587   1.667   3.002  0.1644  0.4325 -0.3225
    1TCq1    O614084   4.369   1.719   2.964  0.0379 -0.6342 -0.1746
    1TCq1    H114085   4.721   2.190   3.024 -0.9295 -2.5000 -1.1728
    1TCq1    H214086   4.697   1.851   2.919  0.2901  0.9403 -1.6539
    1TCq1    H314087   4.305   1.904   3.055 -2.6656  1.8597 -1.5853
    1TCq1    H414088   4.527   2.237   2.902 -2.8620  0.5031  1.6749
    2MPD1     C14089   3.783   2.242   2.995 -0.4236  0.2840  0.6591
    2MPD1    C114090   3.801   2.107   2.977 -0.1199 -0.2397  0.0327
    2MPD1    C214091   3.933   2.054   2.975  0.1478  0.0985  0.4986
    2MPD1    C314092   4.035   2.147   2.994 -0.4976 -0.8314  0.2552
    2MPD1    C414093   4.009   2.281   3.019 -0.4254 -0.2318  0.5772
    2MPD1    C514094   3.884   2.334   3.016 -0.4263 -0.5480 -0.2032
    2MPD1     H14095   3.955   1.948   2.972 -0.4433 -0.0331  0.9130
    2MPD1    H114096   4.089   2.352   3.040 -1.0673  1.0292 -1.2264
    2MPD1    H214097   3.687   2.292   3.001  0.2764  1.5916  1.0039
    2MPD1    H314098   3.866   2.441   3.024  1.9701 -0.3117  1.7613
    2MPD1     N14099   4.170   2.098   2.993 -0.1341  0.4457  0.4840
    2MPD1    H514100   4.184   2.000   2.967 -1.1599  0.4266  0.0140
    2MPD1    N114101   3.693   2.012   2.998 -0.1709 -0.1383  0.1787
    2MPD1    H614102   3.609   2.059   2.965 -0.8882 -1.2989  0.3596
    2MPD1    H714103   3.700   1.927   2.943 -0.1353  0.5232 -0.8272
    1MPD1     C14104   2.578   3.946  11.515 -0.0220  0.0568 -0.2472
    1MPD1    C114105   2.664   3.847  11.464 -0.4520 -0.6371 -0.0175
    1MPD1    C214106   2.804   3.864  11.480 -0.1963  0.1831 -0.2392
    1MPD1    C314107   2.852   3.980  11.543 -0.5930  0.3463 -0.0966
    1MPD1    C414108   2.765   4.081  11.579 -0.4020 -0.0874 -0.2986
    1MPD1    C514109   2.632   4.067  11.556  0.2069  0.9291  0.3142
    1MPD1     H14110   2.869   3.781  11.455 -0.0353  0.3495 -0.3791
    1MPD1    H114111   2.801   4.179  11.607  1.1266 -0.8812  0.5121
    1MPD1    H214112   2.471   3.934  11.515  0.0447 -0.5271 -0.8091
    1MPD1    H314113   2.568   4.147  11.591 -1.9482 -0.5587 -0.2149
    1MPD1     N14114   2.987   3.993  11.564  0.2621  0.1604 -0.5383
    1MPD1    H514115   3.044   3.914  11.534  1.1532 -0.7825  3.6742
    1MPD1    N114116   2.613   3.722  11.419 -0.0268  0.0734  0.1406
    1MPD1    H614117   2.517   3.735  11.388  0.3983 -1.4621 -1.8142
    1MPD1    H714118   2.679   3.677  11.356  0.2397  0.3724  0.2079
    2MPD1     C14119   2.845   0.165  11.073  1.0398 -0.3345  0.1830
    2MPD1    C114120   2.755   0.062  11.099  0.4974  0.7199 -0.5223
    2MPD1    C214121   2.790   4.659  11.057 -0.2618  0.3789  0.0496
    2MPD1    C314122   2.901   4.639  10.981  0.5221  0.1487 -0.4372
    2MPD1    C414123   2.979   0.013  10.944 -0.0946  0.8963  0.3773
    2MPD1    C514124   2.953   0.139  10.991  0.6065  0.0928 -0.1546
    2MPD1     H14125   2.715   4.580  11.063 -0.2913  0.5194  1.6918
    2MPD1    H114126   3.068   4.724  10.885  0.5336  3.0764  0.6618
    2MPD1    H214127   2.828   0.268  11.105  0.2643 -0.5724  0.5296
    2MPD1    H314128   3.017   0.225  10.971  0.7496 -0.0650 -0.3677
    2MPD1     N14129   2.929   4.511  10.925  0.0604  0.9164 -0.1890
    2MPD1    H514130   2.995   4.506  10.848 -1.0140 -1.7797 -0.9393
    2MPD1    N114131   2.633   0.079  11.167  0.2174  0.2447  0.3699
    2MPD1    H614132   2.603   0.176  11.161  2.5136  1.0879  2.3494
    2MPD1    H714133   2.572   0.024  11.108  0.7987 -0.5668  0.5225
    3MPD1     C14134   2.586   3.639  10.433 -0.5814  0.0495 -0.0515
    3MPD1    C114135   2.706   3.665  10.371  0.3242 -1.0258 -0.0048
    3MPD1    C214136   2.780   3.766  10.427  0.2421  0.4628 -0.3410
    3MPD1    C314137   2.743   3.820  10.552 -0.0825  0.2460  0.2976
    3MPD1    C414138   2.633   3.772  10.616 -0.1423 -0.0297  0.1104
    3MPD1    C514139   2.553   3.682  10.558 -0.4318  0.7469 -0.1178
    3MPD1     H14140   2.873   3.804  10.388  0.4959  3.0795  2.7888
    3MPD1    H114141   2.599   3.811  10.711  0.2010 -0.1270  0.2743
    3MPD1    H214142   2.513   3.575  10.383  0.3134 -2.4552  1.8587
    3MPD1    H314143   2.453   3.661  10.596 -0.9745 -1.0696 -2.5532
    3MPD1     N14144   2.833   3.911  10.612  0.0824  0.8358 -0.4463
    3MPD1    H514145   2.916   3.935  10.559  0.5577 -1.5232 -0.7783
    3MPD1    N114146   2.739   3.611  10.243 -0.4547 -0.4464  0.1845
    3MPD1    H614147   2.721   3.510  10.243 -1.5977 -0.2324  1.0940
    3MPD1    H714148   2.835   3.634  10.219 -1.3087  0.3580 -2.4575
    4MPD2     C14149   3.582   4.523  11.466 -1.3062  0.0429 -0.8586
    4MPD2    C114150   3.613   4.392  11.474  0.2636  1.1095 -0.0806
    4MPD2    C214151   3.679   4.337  11.367 -0.0519  0.5876  0.8962
    4MPD2    C314152   3.739   4.410  11.266 -0.8286 -0.8623 -0.5414
    4MPD2    C414153   3.708   4.544  11.269 -0.5475  0.3073 -0.1879
    4MPD2    C514154   3.628   4.597  11.363  0.3381  0.1661 -0.2299
    4MPD2     H14155   3.699   4.230  11.371 -0.0547  0.6115  1.5349
    4MPD2    H114156   3.745   4.609  11.190  1.2605 -0.9373 -0.3689
    4MPD2    H214157   3.513   4.573  11.534 -0.4861  1.2564 -0.9288
    4MPD2    H314158   3.592   4.698  11.345 -0.2075  0.0962  0.4808
    4MPD2     N14159   3.829   4.351  11.169  0.6209  0.1011  0.7110
    4MPD2    H514160   3.874   4.413  11.103  0.2863  0.3584  0.7239
    4MPD2    N114161   3.552   4.303  11.573 -0.3961 -0.2894 -0.2779
    4MPD2    H714162   3.573   4.205  11.554 -1.6860 -0.5135 -0.5236
    5TMC3    C114163   3.397   4.198  11.703 -0.8734 -0.2518  0.2288
    5TMC3    C214164   3.257   4.199  11.685  0.3439  0.3351 -0.8989
    5TMC3    C314165   3.198   4.088  11.630 -0.1152 -0.0446  0.4304
    5TMC3    C414166   3.465   4.088  11.662  0.2637  0.0619  1.0834
    5TMC3    C514167   3.405   3.985  11.604 -0.1664  0.7526 -0.0633
    5TMC3    C614168   3.270   3.987  11.574 -1.3076 -0.3377 -0.0534
    5TMC3     C14169   3.453   4.329  11.661  0.3327  0.4066 -0.6096
    5TMC3     O14170   3.407   4.433  11.706 -0.1607  0.2630  0.3616
    5TMC3     H14171   3.203   4.278  11.735  2.1652  1.5390 -0.8038
    5TMC3    H114172   3.573   4.087  11.672  0.4261  0.1398 -0.5583
    5TMC3    H214173   3.230   3.912  11.505  0.8177 -1.2807 -0.2475
    5TMC3    C714174   3.485   3.947  11.492  0.3719  0.1621 -0.2156
    5TMC3    C814175   3.054   4.101  11.622  0.5635 -0.2390  0.4560
    5TMC3    O114176   3.576   4.023  11.472 -0.3152  0.0721 -0.4155
    5TMC3    O214177   3.009   4.199  11.676 -0.1833  0.0060  0.3613
    6TMC3    C114178   2.941   4.281  10.874  0.0605 -1.0525 -0.2087
    6TMC3    C214179   2.861   4.172  10.856 -0.9814  0.4203 -0.6292
    6TMC3    C314180   2.916   4.073  10.784  0.4634  0.2842  0.1009
    6TMC3    C414181   3.065   4.292  10.818 -0.4273  0.2623 -0.0558
    6TMC3    C514182   3.119   4.185  10.758  0.3097 -0.6653 -0.5687
    6TMC3    C614183   3.048   4.070  10.745 -0.3340 -0.1514 -0.0174
    6TMC3     C14184   2.880   4.385  10.955  0.4275 -0.3456  0.0862
    6TMC3     O14185   2.797   4.348  11.041  0.0143  0.3436  0.1364
    6TMC3     H14186   2.757   4.157  10.881  0.1733 -1.1530  3.2268
    6TMC3    H114187   3.136   4.370  10.845  0.2716  1.3585 -5.0399
    6TMC3    H214188   3.081   3.977  10.700 -1.0607 -0.0553 -0.7516
    6TMC3    C714189   3.265   4.181  10.733  0.5681 -0.9194 -0.6251
    6TMC3    C814190   2.821   3.966  10.739 -0.1423  0.0864  0.0919
    6TMC3    O114191   3.338   4.250  10.803 -0.2631 -0.1879 -0.4101
    6TMC3    O214192   2.730   3.951  10.817  0.3678  1.4947 -0.0871
    7MPD2     C14193   3.645   3.662  11.103 -0.1714 -0.3639 -0.4093
    7MPD2    C114194   3.699   3.770  11.165  0.3851  0.0353  0.0941
    7MPD2    C214195   3.632   3.825  11.274 -0.3170 -0.3248 -0.0150
    7MPD2    C314196   3.511   3.778  11.316  0.1338  0.1403  0.2077
    7MPD2    C414197   3.458   3.668  11.253  0.0557 -0.1393 -0.3413
    7MPD2    C514198   3.533   3.601  11.152  0.4413 -0.3383  0.0193
    7MPD2     H14199   3.689   3.899  11.329  0.3757 -1.0259  0.2210
    7MPD2    H114200   3.369   3.621  11.292  1.2607 -0.7521  1.6624
    7MPD2    H214201   3.701   3.613  11.024  0.0998  1.2401 -1.2194
    7MPD2    H314202   3.493   3.511  11.107 -0.5682  0.5386 -0.8360
    7MPD2     N14203   3.440   3.835  11.423  0.5245  0.0759  0.2477
    7MPD2    H514204   3.366   3.778  11.465  0.6526  0.0820  0.4792
    7MPD2    N114205   3.806   3.853  11.109 -0.7331 -0.2693  0.1514
    7MPD2    H714206   3.825   3.935  11.166 -0.5589 -0.2068  0.0012
    8TMC3    C114207   3.967   3.954  10.981 -0.4323 -0.4364  0.8840
    8TMC3    C214208   3.948   4.001  10.853 -0.4518  0.7261 -0.1918
    8TMC3    C314209   3.923   4.138  10.843  0.3559  0.2738  0.3021
    8TMC3    C414210   3.984   4.031  11.085  0.4349 -0.2485  0.0072
    8TMC3    C514211   3.962   4.169  11.069  0.8671 -0.2681 -0.4235
    8TMC3    C614212   3.930   4.220  10.950  0.0165  0.2190 -0.2512
    8TMC3     C14213   3.880   3.832  10.997 -0.1990  0.2978  0.6580
    8TMC3     O14214   3.861   3.754  10.900  0.8683 -0.2149 -0.4110
    8TMC3     H14215   3.912   3.930  10.779 -1.6461  3.0467 -1.8347
    8TMC3    H114216   4.004   3.997  11.186 -0.7839 -1.1616 -0.0618
    8TMC3    H214217   3.875   4.313  10.950  2.2854  1.5672 -0.9054
    8TMC3    C714218   3.883   4.220  11.185 -0.3270 -0.4803 -0.3117
    8TMC3    C814219   3.799   4.168  10.778  0.5598 -0.4544 -0.4084
    8TMC3    O114220   3.884   4.151  11.285  0.2218  0.3578 -0.7251
    8TMC3    O214221   3.710   4.186  10.855  0.8976  0.5222  0.0404
    9MPD2     C14222   3.669   4.085  10.446  0.3781  0.1511  0.6146
    9MPD2    C114223   3.662   4.120  10.576  0.2381 -0.6501  0.2970
    9MPD2    C214224   3.536   4.132  10.634 -0.0078 -0.1356  0.0017
    9MPD2    C314225   3.422   4.119  10.562 -0.1976 -0.4446 -0.3491
    9MPD2    C414226   3.431   4.098  10.427  0.4051  0.5664 -0.8940
    9MPD2    C514227   3.557   4.069  10.379 -0.0129 -0.2108 -0.1206
    9MPD2     H14228   3.522   4.131  10.741 -0.7927 -2.2240 -0.0971
    9MPD2    H114229   3.342   4.065  10.376  0.6705 -0.8362 -0.4463
    9MPD2    H214230   3.757   4.067  10.385  0.7217 -0.1641  1.1983
    9MPD2    H314231   3.573   4.039  10.275  3.5662  0.2342  0.2895
    9MPD2     N14232   3.288   4.127  10.609 -0.2838  0.3899  0.4291
    9MPD2    H514233   3.214   4.101  10.545  1.2319 -2.1788 -0.3135
    9MPD2    N114234   3.787   4.112  10.648  0.0883  0.0240 -0.1687
    9MPD2    H714235   3.875   4.089  10.602  0.0114 -0.0417 -0.2837
    1MPD1     C14236   3.682   3.198  17.120  0.0998  0.2799  0.3426
    1MPD1    C114237   3.560   3.197  17.047  0.8242  0.4294 -0.3102
    1MPD1    C214238   3.520   3.080  16.983 -1.2338 -0.0195 -0.1525
    1MPD1    C314239   3.587   2.960  17.007  0.3497  1.3108 -0.0089
    1MPD1    C414240   3.707   2.965  17.084 -0.2318 -0.3697  0.7634
    1MPD1    C514241   3.749   3.085  17.140 -0.0695 -0.3457 -0.4734
    1MPD1     H14242   3.439   3.086  16.912 -1.9961  0.0241  0.7211
    1MPD1    H114243   3.767   2.877  17.101 -3.0109 -2.4647 -0.2083
    1MPD1    H214244   3.730   3.289  17.156  1.2789 -0.9224  1.7812
    1MPD1    H314245   3.834   3.083  17.207  0.4179 -3.6998 -1.1560
    1MPD1     N14246   3.548   2.834  16.955  0.0755  0.5091 -0.2171
    1MPD1    H514247   3.595   2.753  16.993 -1.4177  1.1669  3.0995
    1MPD1    N114248   3.488   3.313  17.024 -0.3378  0.2353 -0.4589
    1MPD1    H614249   3.480   3.362  17.112  2.5878  2.5255 -1.4622
    1MPD1    H714250   3.392   3.291  16.996 -0.4264 -0.1104  0.1232
    2MPD1     C14251   2.746   2.404  16.452  1.1928  0.7722 -0.0329
    2MPD1    C114252   2.868   2.380  16.381  0.0636 -0.2643  0.3552
    2MPD1    C214253   2.990   2.404  16.443 -0.6246 -0.0071 -0.1838
    2MPD1    C314254   2.998   2.463  16.567  0.3991  0.2868  0.1599
    2MPD1    C414255   2.879   2.496  16.630  0.0326 -0.1544  0.4673
    2MPD1    C514256   2.761   2.464  16.575  0.0267  0.0872 -0.5285
    2MPD1     H14257   3.076   2.390  16.378 -0.7080 -3.5329  0.4802
    2MPD1    H114258   2.882   2.546  16.727 -1.0433 -2.2957  1.5926
    2MPD1    H214259   2.651   2.383  16.404  2.1800 -0.5110 -1.4246
    2MPD1    H314260   2.662   2.481  16.616  0.8246  0.0486  1.3636
    2MPD1     N14261   3.121   2.501  16.632  0.3993 -0.1037  0.0995
    2MPD1    H514262   3.122   2.536  16.727  2.2861 -0.8915  0.3599
    2MPD1    N114263   2.868   2.313  16.251  0.6252 -0.4997 -0.0206
    2MPD1    H614264   2.782   2.335  16.203  1.3781 -1.0721 -1.6103
    2MPD1    H714265   2.943   2.347  16.190 -0.6706  0.7622 -0.8983
    3TCq2    C114266   3.247   2.487  16.581  0.1082  0.3962 -0.9765
    3TCq2    O214267   3.279   2.434  16.477 -0.0598  0.0359 -0.2879
    3TCq2    C214268   3.357   2.544  16.662 -0.4771  0.1793 -0.4370
    3TCq2    C314269   3.469   2.465  16.672  0.2369 -0.6905  0.4742
    3TCq2    C414270   3.557   2.486  16.775  0.1629 -0.5488 -0.6475
    3TCq2    C514271   3.536   2.595  16.849  0.3602  0.2055 -0.5677
    3TCq2    C614272   3.428   2.676  16.833  0.4904  0.5673 -1.0467
    3TCq2    C714273   3.331   2.654  16.742 -0.1972 -0.2663  0.2482
    3TCq2    C814274   3.446   2.813  16.864 -0.2672 -0.5355 -0.1800
    3TCq2    O414275   3.374   2.897  16.813  0.0832 -0.0744 -0.0447
    3TCq2    C914276   3.690   2.422  16.784 -0.1669  0.1621 -0.1057
    3TCq2    O514277   3.732   2.370  16.682  0.7497  0.0572 -0.3984
    3TCq2    O614278   3.753   2.454  16.887  0.2786  0.1057 -0.7486
    3TCq2    H214279   3.494   2.386  16.602 -0.5523  0.8129 -1.5172
    3TCq2    H314280   3.613   2.615  16.923 -0.6373 -2.1963  1.1019
    3TCq2    H414281   3.239   2.712  16.733 -0.5484 -0.2370  4.0726
    1TCq1    O114282   0.328   2.270  12.546 -0.2029 -0.1532  0.4800
    1TCq1    C114283   0.276   2.244  12.671  0.8530 -0.2571  0.3164
    1TCq1    O214284   0.154   2.248  12.691 -0.0466  0.4811 -0.0913
    1TCq1    C214285   0.374   2.189  12.758  0.5279  0.6798 -0.0327
    1TCq1    C314286   0.342   2.078  12.824  0.4918  0.2075  0.5803
    1TCq1    C414287   0.435   2.014  12.898  0.4767  0.9372  0.1953
    1TCq1    C514288   0.563   2.060  12.901  0.5144 -0.1538 -0.1721
    1TCq1    C614289   0.590   2.181  12.845 -0.7278 -0.2903 -0.7133
    1TCq1    C714290   0.501   2.243  12.768 -0.0435  0.2232  0.2138
    1TCq1    C814291   0.732   2.220  12.841  0.0255  1.1451 -0.3514
    1TCq1    O414292   0.768   2.285  12.749 -0.4448  0.0460  0.4716
    1TCq1    C914293   0.395   1.896  12.970  0.4916 -0.4667 -0.5386
    1TCq1    O514294   0.270   1.864  12.965 -0.1829  1.0292  0.9107
    1TCq1    O614295   0.490   1.825  13.011  0.4285  0.1166 -0.0875
    1TCq1    H114296   0.412   2.223  12.527 -1.3081 -0.7304 -2.9395
    1TCq1    H214297   0.243   2.036  12.816  0.2132  1.6140 -3.3201
    1TCq1    H314298   0.634   2.010  12.965 -0.0669  1.0789  1.4441
    1TCq1    H414299   0.519   2.337  12.718 -0.6597  0.9214  1.2913
    2MPD2     C14300   1.015   2.292  12.898 -0.3532 -0.9497  0.5293
    2MPD2    C114301   0.938   2.217  12.979 -0.5573  0.1537 -0.3385
    2MPD2    C214302   1.000   2.159  13.090  0.4108 -0.3529  0.2923
    2MPD2    C314303   1.135   2.169  13.122  0.1635  0.1683  0.4163
    2MPD2    C414304   1.209   2.243  13.038  0.7521 -0.5831  0.0597
    2MPD2    C514305   1.144   2.308  12.933 -0.2021 -0.3658  0.0048
    2MPD2     H14306   0.933   2.111  13.161  1.0955 -0.2534  1.0083
    2MPD2    H114307   1.317   2.247  13.041  0.7847 -2.3616  1.2428
    2MPD2    H214308   0.985   2.333  12.802  1.5715  1.0484  0.7749
    2MPD2    H314309   1.209   2.357  12.861  1.3604 -1.8869  0.3940
    2MPD2     N14310   1.186   2.111  13.243 -0.2399 -0.5489 -0.1713
    2MPD2    H514311   1.124   2.054  13.300 -1.3928  1.2113  0.3163
    2MPD2    N114312   0.800   2.198  12.953  0.0549 -0.8697 -0.1278
    2MPD2    H714313   0.756   2.148  13.030 -1.0514 -0.2769 -0.3583
    3TCq1    O114314   1.691   2.227  13.700 -1.0421  0.0249 -0.0633
    3TCq1    C114315   1.656   2.128  13.609 -0.3034 -0.2609  0.2644
    3TCq1    O214316   1.728   2.041  13.563  0.2921 -0.7162  0.2686
    3TCq1    C214317   1.517   2.132  13.582 -0.1278  0.1269 -0.8130
    3TCq1    C314318   1.433   2.182  13.676 -1.2925  0.8094 -0.0975
    3TCq1    C414319   1.298   2.184  13.642 -0.0967 -0.0326 -0.0509
    3TCq1    C514320   1.251   2.147  13.520 -0.9226 -0.2058 -0.6189
    3TCq1    C614321   1.345   2.101  13.425 -0.4482  0.8422  0.1322
    3TCq1    C714322   1.480   2.090  13.462  0.2646  0.2328  0.0404
    3TCq1    C814323   1.311   2.146  13.293  0.8272  0.3188  0.0477
    3TCq1    O414324   1.411   2.187  13.238  0.1398  1.0597  0.3490
    3TCq1    C914325   1.205   2.237  13.742 -0.0274  0.5145  0.1650
    3TCq1    O514326   1.243   2.252  13.863  0.0729 -0.5994 -0.0030
    3TCq1    O614327   1.104   2.299  13.692 -0.5605  0.0431 -0.2416
    3TCq1    H114328   1.634   2.307  13.703 -2.1149 -0.7072 -1.1058
    3TCq1    H214329   1.452   2.192  13.782  1.2525  3.0454 -0.7560
    3TCq1    H314330   1.146   2.155  13.493 -1.0634 -0.2175 -0.0783
    3TCq1    H414331   1.558   2.077  13.388  1.4616 -1.1750  1.5519
    1MPD2     C14332   0.134   2.820  15.677 -0.9245 -0.0716 -0.3294
    1MPD2    C114333   0.070   2.713  15.614  0.4808 -0.0311 -0.5767
    1MPD2    C214334   0.150   2.635  15.543  0.9845 -0.9196  0.1188
    1MPD2    C314335   0.287   2.653  15.519 -0.6371  0.2978  0.3441
    1MPD2    C414336   0.348   2.755  15.586 -0.0281 -0.2290 -0.1795
    1MPD2    C514337   0.272   2.840  15.664  0.4854 -0.5067 -0.4584
    1MPD2     H14338   0.106   2.556  15.483  1.9090 -2.2205  1.1601
    1MPD2    H114339   0.455   2.769  15.590  0.3760 -3.2863 -0.0730
    1MPD2    H214340   0.075   2.885  15.740  2.0422  1.5590  0.7321
    1MPD2    H314341   0.330   2.920  15.709 -1.6820 -0.2035  1.8119
    1MPD2     N14342   0.351   2.560  15.437 -0.1506 -0.5692 -0.0904
    1MPD2    H514343   0.301   2.482  15.396 -1.5220  1.3454 -2.0536
    1MPD2    N114344   4.657   2.699  15.618 -0.1691 -0.3271 -0.6699
    1MPD2    H714345   4.607   2.765  15.677  0.2542 -1.8144  1.3632
    2TMC3    C114346   4.441   2.614  15.552  0.0952  0.0083 -0.2150
    2TMC3    C214347   4.378   2.491  15.543  0.1043 -0.8458  0.9453
    2TMC3    C314348   4.263   2.474  15.460  1.0534  0.0884  0.2579
    2TMC3    C414349   4.397   2.714  15.474  0.3379 -0.1585 -0.1947
    2TMC3    C514350   4.291   2.691  15.389 -0.8337 -0.2813  0.1556
    2TMC3    C614351   4.213   2.579  15.391 -0.0418 -0.4716 -0.2319
    2TMC3     C14352   4.587   2.597  15.556 -0.1563  0.2871  0.5144
    2TMC3     O14353   4.628   2.496  15.499 -0.1213 -0.2197  0.3260
    2TMC3     H14354   4.417   2.413  15.608 -1.2666 -2.2594  0.0688
    2TMC3    H114355   4.425   2.818  15.484 -0.7220  0.4383 -3.6694
    2TMC3    H214356   4.126   2.569  15.327  0.1501  0.9966 -0.7259
    2TMC3    C714357   4.273   2.783  15.279 -0.3453 -0.1069  0.2811
    2TMC3    C814358   4.309   2.372  15.367 -0.0302 -0.1335  0.2659
    2TMC3    O114359   4.155   2.809  15.249  0.7687 -0.1048 -0.1520
    2TMC3    O214360   4.219   2.320  15.301  0.2405  0.1098 -0.2866
    3TCq1    O114361   0.520   3.391  14.819  0.0325 -0.2898 -0.8314
    3TCq1    C114362   0.455   3.325  14.724  0.2906 -0.1056  0.1982
    3TCq1    O214363   0.406   3.358  14.619 -0.3498  0.4792  0.2084
    3TCq1    C214364   0.393   3.216  14.801 -0.1798 -0.2844 -0.6393
    3TCq1    C314365   0.472   3.113  14.845 -0.0416 -0.5869  0.5381
    3TCq1    C414366   0.417   2.999  14.898 -0.0356  0.2585  0.2454
    3TCq1    C514367   0.279   2.991  14.904  0.7787  0.4600 -0.1719
    3TCq1    C614368   0.200   3.086  14.852 -0.1116 -0.1789 -0.7889
    3TCq1    C714369   0.254   3.204  14.794  0.0425 -0.1369  0.1299
    3TCq1    C814370   0.055   3.094  14.857 -0.5213 -0.1984 -0.6849
    3TCq1    O414371   4.728   3.154  14.766 -0.0777  0.8180 -0.1804
    3TCq1    C914372   0.506   2.899  14.960  1.0045 -0.0148  0.0954
    3TCq1    O514373   0.453   2.803  15.019  0.4964 -0.5150 -0.0297
    3TCq1    O614374   0.627   2.928  14.966 -0.2510  0.2756  0.9666
    3TCq1    H114375   0.503   3.354  14.908 -2.1531  0.0837 -1.1024
    3TCq1    H214376   0.581   3.118  14.846 -0.1822  2.4082  1.3065
    3TCq1    H314377   0.243   2.895  14.939 -1.4674  0.4036 -2.6101
    3TCq1    H414378   0.189   3.283  14.757 -0.7626 -0.8617 -0.0215
    4MPD2     C14379   4.494   3.025  14.906 -0.1826 -0.6345  0.1881
    4MPD2    C114380   4.597   2.987  14.988 -0.2285 -0.0213 -0.2582
    4MPD2    C214381   4.564   2.915  15.097 -0.4885 -0.1452  0.0041
    4MPD2    C314382   4.431   2.901  15.133  0.3202  0.2062 -0.0285
    4MPD2    C414383   4.335   2.966  15.056  0.6459  0.8320  0.7296
    4MPD2    C514384   4.364   3.024  14.940 -0.0552  0.3314  0.2128
    4MPD2     H14385   4.644   2.864  15.148  1.0436  2.2386 -0.0261
    4MPD2    H114386   4.232   2.975  15.088 -0.3977 -0.7985 -2.1313
    4MPD2    H214387   4.523   3.050  14.805 -1.7321 -0.5993 -0.2416
    4MPD2    H314388   4.283   3.063  14.880  0.4712 -2.3018 -2.2169
    4MPD2     N14389   4.397   2.817  15.240 -0.4828  0.1848  0.0528
    4MPD2    H514390   4.474   2.769  15.286 -0.3015  1.4598  1.0833
    4MPD2    N114391   0.006   3.018  14.958  0.2071  0.4051 -0.0674
    4MPD2    H714392   0.075   2.981  15.023  0.2090  0.7093  0.1056
    5TMC2    C114393   0.360   2.301  15.192  0.3908 -0.0791  0.3870
    5TMC2    C214394   0.374   2.362  15.067  0.0669  0.5002 -0.2976
    5TMC2    C314395   0.460   2.466  15.048  0.5147 -0.1133  0.3396
    5TMC2    C414396   0.430   2.350  15.298 -0.0365  0.3619 -0.6836
    5TMC2    C514397   0.499   2.468  15.279  0.3731 -0.4997  0.3609
    5TMC2    C614398   0.524   2.519  15.156  0.3085 -0.5062  0.4854
    5TMC2     C14399   0.219   2.292  15.239  0.0362  0.1577 -0.7061
    5TMC2     O14400   0.198   2.365  15.338  0.1965 -0.3664  0.0668
    5TMC2     H14401   0.313   2.327  14.984  2.2410 -0.7353 -1.3897
    5TMC2    H114402   0.407   2.309  15.396 -0.7622  1.6156 -0.3266
    5TMC2    H214403   0.586   2.608  15.159 -1.5088  0.7880  0.0155
    5TMC2    C714404   0.472   2.573  15.382 -0.4228  0.0674 -0.1389
    5TMC2    C814405   0.490   2.492  14.908  0.7120 -0.1216 -1.2647
    5TMC2    O114406   0.555   2.663  15.400  0.3087  0.4108  0.2970
    5TMC2    O214407   0.493   2.399  14.830  0.3790 -0.0855  0.0746
    5TMC2    O514408   0.556   2.606  14.900 -0.4312  0.3184  0.2558
    5TMC2    H514409   0.526   2.675  14.964  0.9657 -0.8172  2.1363
    6MPD2     C14410   4.458   2.224  15.140 -0.1961 -0.0598  0.2857
    6MPD2    C114411   4.518   2.286  15.248  0.9468 -0.9201 -0.0778
    6MPD2    C214412   4.656   2.288  15.254  0.0163  0.0812 -0.2368
    6MPD2    C314413   4.726   2.214  15.158 -0.4259 -0.4515 -0.0242
    6MPD2    C414414   4.671   2.135  15.066 -0.1250 -0.2737 -0.1262
    6MPD2    C514415   4.535   2.146  15.055  0.4982 -0.5484 -0.2729
    6MPD2     H14416   4.698   2.354  15.328 -0.1083  1.4210 -1.3582
    6MPD2    H114417   4.720   2.095  14.978 -0.7086 -3.3648  0.9415
    6MPD2    H214418   4.352   2.225  15.116  0.1436 -0.2736 -1.2421
    6MPD2    H314419   4.488   2.075  14.988 -0.8160  0.3120 -0.2538
    6MPD2     N14420   0.134   2.225  15.148 -0.2501  0.1422  0.5355
    6MPD2    H514421   0.180   2.175  15.072 -1.0574  0.7483 -0.3461
    6MPD2    N114422   4.450   2.374  15.344 -0.0087 -0.0521  0.7624
    6MPD2    H714423   4.508   2.424  15.411 -0.9457  1.3544  0.5296
  945NH4     N114424   2.552   0.419  16.372  0.3338 -0.2378  0.1838
  945NH4     H214425   2.493   0.441  16.455 -1.2005  1.9287 -1.4851
  945NH4     H314426   2.614   0.500  16.349 -1.1967  1.4426  2.0012
  945NH4     H414427   2.483   0.405  16.296 -2.0018  1.7029  1.9374
  945NH4     H514428   2.613   0.336  16.384 -1.0274 -1.6038 -2.4483
  946SOD     NA14429   0.901   0.573  10.703 -0.0574 -0.0866  0.2154
  947SOD     NA14430   3.647   4.717   0.716 -0.4745  0.3361 -0.0032
  948SOD     NA14431   1.862   3.047   6.649  0.7151 -0.2345  0.0843
  949SOD     NA14432   3.725   3.035  14.544 -0.4838 -0.4487 -0.5157
  950SOD     NA14433   3.886   2.445  16.563 -0.0047 -0.1831  0.2155
  951SOD     NA14434   1.086   2.530  10.339  0.1438 -0.2839  0.1883
  952SOD     NA14435   2.907   2.403  14.811  0.1169 -0.3889  0.2176
  953SOD     NA14436   4.441   2.589  13.781  0.4553 -0.4595 -0.0406
  954SOD     NA14437   1.450   1.277  12.243  0.2024  0.1798 -0.2210
  955SOD     NA14438   0.440   4.718  11.832 -0.0371 -0.0204 -0.2872
  956SOD     NA14439   0.101   1.809  12.832 -0.6876  0.5491 -0.6478
  957SOD     NA14440   4.084   1.410  13.230 -0.1730  0.2488 -0.1115
  958SOD     NA14441   3.140   2.837  15.527 -0.1201  0.1356 -0.1484
  959SOD     NA14442   1.624   3.697   9.814 -0.1578 -0.0200 -0.4055
  960SOD     NA14443   2.210   3.259  13.394  0.1731  0.0059 -0.0089
  961SOD     NA14444   0.450   0.507   8.297 -0.3388  0.0879 -0.2866
  962SOD     NA14445   0.304   1.028   2.735  0.3243 -0.1122  0.0923
  963SOD     NA14446   0.397   1.746   3.034 -0.4250 -0.0259  0.0985
  964SOD     NA14447   2.271   4.306   0.944 -0.3164 -0.1402 -0.5196
  965SOD     NA14448   0.336   1.256  10.042 -0.2165  0.1484 -0.0449
  966SOD     NA14449   3.329   2.429   4.935  0.1078  0.1197  0.0558
  967SOD     NA14450   2.880   3.643  11.824 -0.1915 -0.4018 -0.5407
  968SOD     NA14451   1.200   3.087  11.669  0.0931 -0.1002  0.1161
  969SOD     NA14452   0.811   2.818  15.049 -0.0897 -0.0776  0.2919
  970SOD     NA14453   3.403   2.932   6.905 -0.2011 -0.4395  0.0369
  971SOD     NA14454   3.614   2.255  10.950 -0.3661  0.3891 -0.1631
  972SOD     NA14455   2.957   0.361  13.961 -0.5690  0.7047 -0.0014
  973SOD     NA14456   2.283   1.949  11.505 -0.0407  0.3763  0.0995
  974SOD     NA14457   2.524   2.677  11.000  0.4418 -0.3155 -0.0266
  975SOD     NA14458   3.638   2.678   1.632  0.1505  0.1154  0.1060
  976SOD     NA14459   2.483   1.728  13.985  0.5871 -0.2584 -0.2103
  977SOD     NA14460   0.632   1.246   8.990  0.3306 -0.1237 -0.0256
  978SOD     NA14461   0.804   2.593   8.550  0.0919 -0.5125  0.3226
  979SOD     NA14462   4.067   1.776  10.730  0.3752  0.0626 -0.3152
  980SOD     NA14463   2.871   2.276  14.471 -0.6164 -0.1515  0.1455
  981SOD     NA14464   0.245   1.408  10.302 -0.1663 -0.2272  0.3586
  982SOD     NA14465   3.584   4.435   2.429 -0.4214  0.4915  0.2209
  983SOD     NA14466   3.004   3.771   3.221 -0.0546  0.0221  0.2777
  984SOD     NA14467   0.437   4.474   9.990  0.1688  0.0231 -0.2069
  985SOD     NA14468   1.571   1.235   5.352  0.4793 -0.2816  0.0338
  986SOD     NA14469   0.919   3.152  14.959  0.0117 -0.1798  0.2897
  987SOD     NA14470   2.180   1.843  14.007  0.1035 -0.1427  0.1834
  988SOD     NA14471   3.908   1.843   1.531 -0.2490  0.0011  0.6693
  989SOD     NA14472   0.150   2.756   3.398  0.0938 -0.1767 -0.3207
  990SOD     NA14473   3.822   2.687   0.075 -0.4376 -0.2556 -0.3682
  991SOD     NA14474   3.061   1.626   5.406 -0.1658  0.3487 -0.1749
  992SOD     NA14475   4.291   0.734  13.896  0.1846 -0.1816 -0.2870
  993SOD     NA14476   2.170   2.645  15.016  0.2167  0.2761 -0.1144
  994SOD     NA14477   4.622   1.819  14.784  0.1934 -0.3949  0.0611
  995SOD     NA14478   4.552   4.728   9.332 -0.2242 -0.6216  0.2865
  996SOD     NA14479   1.086   1.967  11.494 -0.0890 -0.7003 -0.3316
  997SOD     NA14480   4.444   1.218   0.340 -0.3736  0.2971 -0.2489
  998SOD     NA14481   1.129   1.096  10.248  0.8272 -0.1417  0.2377
  999SOD     NA14482   1.730   1.099  16.577 -0.5738  0.5673 -0.4008
 1000SOD     NA14483   0.418   1.632  10.039  0.3560 -0.1037  0.1739
 1001SOD     NA14484   2.820   4.187  14.057  0.6338  0.1051  0.1161
 1002SOD     NA14485   2.653   3.642  16.635  0.4461 -0.0395  0.2265
 1003SOD     NA14486   0.345   2.060   0.964 -0.0660  0.0245  0.0695
 1004SOD     NA14487   3.759   0.645   0.101  0.7510  0.2816 -0.2564
 1005SOD     NA14488   2.798   0.780   2.522 -0.3077 -0.1881 -0.5414
 1006SOD     NA14489   0.388   3.660  10.938  0.5887  0.5730 -0.1632
 1007SOD     NA14490   1.698   4.259   7.915 -0.1179  0.6013 -0.0514
 1008SOD     NA14491   3.417   0.874   2.302  0.8865  0.7121 -0.0342
 1009SOD     NA14492   0.918   2.161  12.346 -0.1911 -0.6128  0.0034
 1010SOD     NA14493   2.431   3.587  11.817  0.4065 -0.5214  0.4950
 1011SOL     OW14494   1.636   2.814   8.810  0.0162  1.0410  0.1124
 1011SOL    HW114495   1.568   2.882   8.812 -1.0077 -0.0082  0.5824
 1011SOL    HW214496   1.713   2.870   8.802  0.0733  0.7837 -1.0731
 1012SOL     OW14497   4.367   3.488   7.466 -0.5944  0.5677 -0.1890
 1012SOL    HW114498   4.375   3.425   7.394 -2.0657 -1.9259  1.8027
 1012SOL    HW214499   4.439   3.547   7.444 -0.7406  0.6707 -0.3956
 1013SOL     OW14500   2.493   0.324  10.024  0.4370 -0.2951 -0.3237
 1013SOL    HW114501   2.557   0.316   9.953 -0.8345  0.6276 -1.5595
 1013SOL    HW214502   2.515   0.414  10.046  1.1057 -0.4605 -0.2980
 1014SOL     OW14503   1.783   3.092  12.418 -0.9007 -0.0240 -0.4630
 1014SOL    HW114504   1.765   3.111  12.510 -1.8558 -0.7465 -0.4945
 1014SOL    HW214505   1.818   3.004  12.433  0.6863 -0.1019 -4.5344
 1015SOL     OW14506   2.284   3.706  14.520  0.0421 -0.1635 -0.4191
 1015SOL    HW114507   2.346   3.756  14.468  0.5109 -1.1026 -0.7650
 1015SOL    HW214508   2.331   3.624  14.504  0.8724  0.3758 -0.7506
 1016SOL     OW14509   2.159   1.344   8.662 -0.2757  0.4865  0.3864
 1016SOL    HW114510   2.166   1.438   8.678 -1.2183  0.4627  0.9048
 1016SOL    HW214511   2.077   1.324   8.707  0.0189  0.7227  1.0280
 1017SOL     OW14512   2.533   1.665   1.198 -0.3079  0.0754 -0.0657
 1017SOL    HW114513   2.505   1.756   1.195  0.4610  0.3181  0.1352
 1017SOL    HW214514   2.452   1.625   1.230 -0.5622 -1.3803 -2.5098
 1018SOL     OW14515   1.662   1.310  11.673 -0.7658 -0.0732  0.1909
 1018SOL    HW114516   1.581   1.283  11.630 -0.6684 -2.6673  1.5794
 1018SOL    HW214517   1.719   1.299  11.597 -1.2918  0.0619 -0.2251
 1019SOL     OW14518   1.191   2.650   9.533  0.2294  0.3709  0.4720
 1019SOL    HW114519   1.245   2.649   9.612  1.1359 -0.5822 -0.1469
 1019SOL    HW214520   1.110   2.628   9.577  0.1753 -0.1556  0.1007
 1020SOL     OW14521   2.420   3.119   6.475  0.1556 -0.1320 -0.5861
 1020SOL    HW114522   2.416   3.107   6.570 -3.3464  0.2516 -0.7035
 1020SOL    HW214523   2.359   3.050   6.449 -0.4399  0.1590  0.0453
 1021SOL     OW14524   1.740   3.591   8.053 -0.1506  0.4549  0.2347
 1021SOL    HW114525   1.694   3.543   8.122 -2.0737  2.3228  0.2568
 1021SOL    HW214526   1.793   3.647   8.110  0.1046 -0.8793  1.3219
 1022SOL     OW14527   4.509   3.255  12.093 -0.1671 -0.1396 -0.2995
 1022SOL    HW114528   4.567   3.267  12.168 -2.3121  2.1540  1.0261
 1022SOL    HW214529   4.538   3.326  12.037  0.2280  0.3732  0.5583
 1023SOL     OW14530   1.317   1.597   3.867 -0.2534 -0.4808  0.3942
 1023SOL    HW114531   1.293   1.640   3.785  1.6058  0.0572  0.1195
 1023SOL    HW214532   1.394   1.652   3.881 -0.0157  0.0038 -2.7307
 1024SOL     OW14533   1.591   1.176   7.737 -0.1687 -0.0815  0.2885
 1024SOL    HW114534   1.596   1.227   7.656  2.5905  1.0078  1.1578
 1024SOL    HW214535   1.572   1.251   7.793 -2.6661 -1.8078  1.7366
 1025SOL     OW14536   3.082   2.946   7.560  0.1154  0.6358  0.4230
 1025SOL    HW114537   3.155   2.931   7.619  1.5864  1.6794 -1.1163
 1025SOL    HW214538   3.044   2.859   7.550 -0.0918  0.6769  0.8667
 1026SOL     OW14539   1.915   3.020  13.956  0.0360 -0.0572  0.1729
 1026SOL    HW114540   1.900   3.111  13.981 -1.8085 -0.4888  0.6565
 1026SOL    HW214541   2.000   3.028  13.912  0.3636  0.2371  0.8645
 1027SOL     OW14542   3.400   1.560   7.579  0.4870 -0.2774 -0.5119
 1027SOL    HW114543   3.434   1.476   7.548 -1.4879 -1.3475  0.2532
 1027SOL    HW214544   3.452   1.565   7.659 -0.5725  0.2849  0.1447
 1028SOL     OW14545   2.786   4.198   3.394 -0.0722 -0.9635 -0.1952
 1028SOL    HW114546   2.795   4.166   3.304  0.5002  1.6682 -1.0671
 1028SOL    HW214547   2.880   4.213   3.399  0.0928 -1.9314 -0.3002
 1029SOL     OW14548   0.815   0.834  14.689  0.1014 -0.3032 -0.2381
 1029SOL    HW114549   0.785   0.778  14.760  1.6302 -1.1928 -0.2914
 1029SOL    HW214550   0.831   0.918  14.732  2.5153 -0.7218 -0.3262
 1030SOL     OW14551   0.175   4.622  16.961 -0.4693 -0.0664  0.3236
 1030SOL    HW114552   0.162   4.636  16.867  0.5265 -1.4207 -0.0141
 1030SOL    HW214553   0.253   4.674  16.980 -0.5577 -0.0026  0.5056
 1031SOL     OW14554   4.518   4.018   4.173  0.0500  0.1538  0.0862
 1031SOL    HW114555   4.432   3.979   4.189  1.1666 -3.1055 -1.7723
 1031SOL    HW214556   4.512   4.113   4.158 -0.5198 -0.3191 -2.7631
 1032SOL     OW14557   0.352   4.684   9.986 -0.5250 -0.1549 -0.4466
 1032SOL    HW114558   0.269   4.725  10.009 -0.0602  0.4733  0.0880
 1032SOL    HW214559   0.410   0.029   9.968 -1.6259  0.7330 -0.3904
 1033SOL     OW14560   0.253   0.613   8.225 -0.1705 -0.2955  0.4174
 1033SOL    HW114561   0.221   0.689   8.273 -0.3040 -1.1024  1.5832
 1033SOL    HW214562   0.229   0.633   8.134  0.9991  1.4265  0.4801
 1034SOL     OW14563   0.773   0.389   4.624  0.1346  0.1859 -0.4471
 1034SOL    HW114564   0.754   0.325   4.693  1.1119  1.0789  0.6744
 1034SOL    HW214565   0.777   0.469   4.677  2.3481  0.3797 -0.8823
 1035SOL     OW14566   3.988   3.932  16.670  0.2419  0.0975  0.2041
 1035SOL    HW114567   4.005   4.026  16.669  0.4096  0.0717  1.0379
 1035SOL    HW214568   3.916   3.937  16.732 -0.8645 -0.8842 -0.9949
 1036SOL     OW14569   1.357   0.568   0.226 -0.1976 -0.8638  0.4814
 1036SOL    HW114570   1.397   0.647   0.263 -1.6907 -1.3269  3.0773
 1036SOL    HW214571   1.387   0.501   0.288 -1.6811 -1.9206  0.0515
 1037SOL     OW14572   1.684   1.192   1.450 -0.0987  0.4600 -0.6332
 1037SOL    HW114573   1.765   1.191   1.500 -0.0223 -0.5774 -0.7661
 1037SOL    HW214574   1.615   1.201   1.515  1.5401  0.1225  1.1713
 1038SOL     OW14575   2.015   1.665   6.561  0.6369 -0.1456 -0.4447
 1038SOL    HW114576   1.922   1.678   6.580  0.3715 -3.8762  0.7556
 1038SOL    HW214577   2.026   1.604   6.635  0.2387  1.1662  0.7031
 1039SOL     OW14578   1.365   4.348   8.986 -0.7338 -0.6777 -0.1868
 1039SOL    HW114579   1.364   4.351   9.081 -0.7868  1.0989 -0.2395
 1039SOL    HW214580   1.349   4.436   8.950 -3.7039 -0.9588  0.4770
 1040SOL     OW14581   4.710   2.738   3.020 -0.5945  0.1346  0.1779
 1040SOL    HW114582   4.626   2.736   3.066 -0.1269 -0.7910  0.9870
 1040SOL    HW214583   0.048   2.697   3.075 -1.5513 -1.9110 -0.1886
 1041SOL     OW14584   0.337   0.395   8.479  0.3245  0.1334 -0.0214
 1041SOL    HW114585   0.249   0.433   8.478 -0.9161 -2.7232 -0.2678
 1041SOL    HW214586   0.316   0.316   8.529 -1.2301  1.6308  1.7107
 1042SOL     OW14587   0.221   3.330   6.023 -0.2481  0.2063  0.3034
 1042SOL    HW114588   0.257   3.291   6.103  0.4710  0.8435  0.2896
 1042SOL    HW214589   0.301   3.370   5.989 -0.2925  1.6775  1.9159
 1043SOL     OW14590   1.517   1.060   3.779 -0.3854  0.5447 -0.7723
 1043SOL    HW114591   1.519   1.063   3.683  1.6998  1.0406 -0.7326
 1043SOL    HW214592   1.425   1.078   3.797 -0.1491  0.9045  0.0719
 1044SOL     OW14593   2.130   1.863   4.865  0.5956  0.3175 -0.0265
 1044SOL    HW114594   2.142   1.771   4.888 -0.2423 -0.3071 -2.1045
 1044SOL    HW214595   2.140   1.896   4.954 -3.5027 -1.5909  1.1353
 1045SOL     OW14596   3.782   0.488   1.750  0.1240  0.2992 -0.8466
 1045SOL    HW114597   3.719   0.440   1.696  0.8912 -1.0933 -0.5082
 1045SOL    HW214598   3.843   0.416   1.766 -1.1174 -0.1213  2.0605
 1046SOL     OW14599   2.856   3.378  17.313 -0.1647  0.6957 -0.5219
 1046SOL    HW114600   2.791   3.448  17.316 -1.3270 -0.4594  1.1317
 1046SOL    HW214601   2.928   3.409  17.368 -1.0855  0.2399  0.9319
 1047SOL     OW14602   3.492   3.247   5.215  0.5105  0.2105 -0.8560
 1047SOL    HW114603   3.478   3.249   5.310  2.1871 -0.8166 -0.5910
 1047SOL    HW214604   3.402   3.257   5.184  0.0374  3.5673  1.5264
 1048SOL     OW14605   0.940   1.995  11.960 -0.1414 -1.2674 -0.2111
 1048SOL    HW114606   0.953   2.019  12.052 -2.3906  3.8294 -1.2544
 1048SOL    HW214607   1.024   2.020  11.921 -0.9101  2.2542  0.4311
 1049SOL     OW14608   0.905   0.081   6.889 -0.0290 -0.0518  0.1934
 1049SOL    HW114609   0.997   0.068   6.910  0.1905 -0.6589 -1.1598
 1049SOL    HW214610   0.881   0.029   6.812  0.3442  1.3580 -0.8640
 1050SOL     OW14611   1.255   1.188   3.811 -0.1320 -0.0758  0.2109
 1050SOL    HW114612   1.185   1.187   3.746 -0.4138 -1.1015  0.5288
 1050SOL    HW214613   1.230   1.263   3.865 -0.8445 -1.6105  2.0260
 1051SOL     OW14614   0.544   2.239   6.135  0.3322 -0.1202  0.1615
 1051SOL    HW114615   0.502   2.180   6.073 -2.0472 -0.8226  2.4618
 1051SOL    HW214616   0.472   2.295   6.164  0.8522 -0.3115  1.8515
 1052SOL     OW14617   0.323   2.959  16.497  0.4907 -0.2667  0.2601
 1052SOL    HW114618   0.278   2.899  16.557  1.3970 -0.8723  0.3342
 1052SOL    HW214619   0.279   2.954  16.413 -0.1812 -0.9978  0.6518
 1053SOL     OW14620   2.748   2.662  11.858  0.2641 -0.4797  0.1233
 1053SOL    HW114621   2.797   2.676  11.777  1.2538  1.4677  1.0464
 1053SOL    HW214622   2.821   2.642  11.917  1.0659  2.6188  0.2074
 1054SOL     OW14623   1.727   0.490  16.990 -0.2338 -0.4901 -0.2897
 1054SOL    HW114624   1.784   0.562  17.018 -1.3141  0.4944 -0.6083
 1054SOL    HW214625   1.682   0.476  17.073  1.4663 -1.7962  0.4072
 1055SOL     OW14626   4.510   3.773  16.022 -0.3093 -0.1272  0.6264
 1055SOL    HW114627   4.541   3.863  16.035 -0.8911  0.0713  0.5968
 1055SOL    HW214628   4.454   3.790  15.947  1.1791  2.2092  0.0249
 1056SOL     OW14629   4.235   3.712   5.642  0.4349  0.3138 -0.0436
 1056SOL    HW114630   4.280   3.796   5.649  0.4923  0.1621  1.3414
 1056SOL    HW214631   4.313   3.657   5.645  1.2852  1.4492 -1.1833
 1057SOL     OW14632   4.541   1.617   7.372  0.1902  0.4724  0.0049
 1057SOL    HW114633   4.616   1.558   7.364  0.4632  0.4923  2.3250
 1057SOL    HW214634   4.513   1.604   7.463 -1.3708 -2.0261 -0.8494
 1058SOL     OW14635   3.873   1.129   5.744 -0.0236 -0.6693  0.2356
 1058SOL    HW114636   3.828   1.118   5.660  1.2439  1.7276 -0.7777
 1058SOL    HW214637   3.853   1.049   5.792 -1.2175 -0.5267 -0.0273
 1059SOL     OW14638   2.575   4.426   2.133 -0.4082 -0.4485  0.6173
 1059SOL    HW114639   2.560   4.517   2.105 -0.1988  0.1055  2.3421
 1059SOL    HW214640   2.598   4.434   2.225 -2.2924  1.9316  0.8663
 1060SOL     OW14641   1.709   2.185  15.193  0.3884  0.8070 -0.2207
 1060SOL    HW114642   1.712   2.171  15.287 -3.2998 -1.8029 -0.4767
 1060SOL    HW214643   1.641   2.252  15.188 -0.9064 -0.4395  0.6416
 1061SOL     OW14644   0.782   1.213   0.743 -0.0011  0.0972 -0.3691
 1061SOL    HW114645   0.774   1.119   0.732  1.7308  0.1224 -1.7646
 1061SOL    HW214646   0.852   1.240   0.684  0.3576  1.7593  0.7900
 1062SOL     OW14647   2.742   3.213   5.671  0.9921 -0.0741  0.4281
 1062SOL    HW114648   2.650   3.239   5.680  1.0359  0.4763 -0.7098
 1062SOL    HW214649   2.740   3.198   5.765  0.3393 -0.8523  0.2896
 1063SOL     OW14650   3.725   3.371  10.956 -0.6993 -0.1691 -0.0450
 1063SOL    HW114651   3.776   3.425  11.016  0.2736 -1.4264  0.2702
 1063SOL    HW214652   3.792   3.308  10.929 -1.7853 -1.5758  0.5275
 1064SOL     OW14653   3.269   2.315  14.142 -0.0834 -0.5057  1.1496
 1064SOL    HW114654   3.235   2.365  14.216 -2.3129  0.5956 -0.6196
 1064SOL    HW214655   3.197   2.254  14.128  0.3958 -0.4375 -1.6353
 1065SOL     OW14656   3.573   4.531  12.153 -0.7107  0.0049  0.3214
 1065SOL    HW114657   3.485   4.496  12.164 -1.5010  1.4688 -1.3484
 1065SOL    HW214658   3.609   4.465  12.093  1.3761  0.5957  0.9341
 1066SOL     OW14659   2.929   0.092  10.616  0.1859 -0.0916  0.4825
 1066SOL    HW114660   2.900   0.183  10.612  1.9162  0.4680  0.7158
 1066SOL    HW214661   3.007   0.113  10.668 -0.8358  0.5925  1.7687
 1067SOL     OW14662   2.074   0.640   2.207 -0.1931 -0.1178  0.0877
 1067SOL    HW114663   2.007   0.618   2.142 -0.3235  0.4641  0.0210
 1067SOL    HW214664   2.044   0.584   2.279 -0.8271  0.9778  0.6824
 1068SOL     OW14665   0.444   0.836   7.978  0.1490 -0.3005  0.1092
 1068SOL    HW114666   0.397   0.920   7.970 -1.1940 -0.9531  1.2885
 1068SOL    HW214667   0.532   0.872   7.964 -0.4121  0.1886 -2.1291
 1069SOL     OW14668   0.348   4.369   5.420 -0.0357  0.0721  0.7408
 1069SOL    HW114669   0.418   4.434   5.426 -0.2312  0.6384 -3.7786
 1069SOL    HW214670   0.295   4.404   5.349 -0.5581 -0.3552  0.9237
 1070SOL     OW14671   2.481   1.452   3.053 -0.1406  0.7094 -0.1191
 1070SOL    HW114672   2.430   1.385   3.008  0.0491  1.3622 -1.3013
 1070SOL    HW214673   2.555   1.401   3.087 -1.3614 -0.2662  1.1069
 1071SOL     OW14674   3.366   0.833   6.889  0.4294 -0.7944 -0.2928
 1071SOL    HW114675   3.301   0.768   6.916 -0.5456  1.0729  1.7984
 1071SOL    HW214676   3.368   0.888   6.967  2.8881  1.6042 -2.0626
 1072SOL     OW14677   0.502   0.481   8.671  0.6504  0.2865 -0.2056
 1072SOL    HW114678   0.458   0.464   8.588  0.7965  0.2543 -0.2758
 1072SOL    HW214679   0.450   0.555   8.702  1.6620 -0.2554  2.8158
 1073SOL     OW14680   3.810   1.388   9.113  0.2470 -0.4357 -0.1710
 1073SOL    HW114681   3.745   1.348   9.171 -0.1823  0.8941  0.2762
 1073SOL    HW214682   3.845   1.463   9.162  0.0019  0.6928 -1.7373
 1074SOL     OW14683   4.145   4.423  15.805 -0.0955 -0.0319  0.3046
 1074SOL    HW114684   4.106   4.350  15.758 -0.0711 -0.4367  0.9063
 1074SOL    HW214685   4.125   4.499  15.750 -1.8615 -0.3741  0.4634
 1075SOL     OW14686   3.445   2.694   2.323 -0.5643 -0.2502 -0.5174
 1075SOL    HW114687   3.358   2.690   2.364  1.1339 -0.4131  3.1033
 1075SOL    HW214688   3.444   2.786   2.297 -0.0237 -0.0517  0.1572
 1076SOL     OW14689   2.948   4.405   3.022  0.3874  0.3395  0.2924
 1076SOL    HW114690   3.009   4.422   3.094 -1.4758 -0.5899  2.0736
 1076SOL    HW214691   3.013   4.409   2.952 -1.0912  0.2338 -1.0794
 1077SOL     OW14692   1.284   1.467  16.361  0.2258 -0.3376 -0.1074
 1077SOL    HW114693   1.279   1.373  16.344  1.2115 -0.7577  1.8987
 1077SOL    HW214694   1.327   1.458  16.446  0.1909  1.4468  0.1149
 1078SOL     OW14695   3.833   2.016   8.304  0.0087 -0.3590 -0.1146
 1078SOL    HW114696   3.784   2.080   8.355 -0.4968 -0.0452 -0.9839
 1078SOL    HW214697   3.789   2.017   8.219 -1.6628 -0.3054  0.7679
 1079SOL     OW14698   2.849   3.490   0.923 -0.0220 -0.0595  0.5696
 1079SOL    HW114699   2.854   3.394   0.917  1.2307 -0.1597  2.8954
 1079SOL    HW214700   2.876   3.505   0.833  1.1065  0.2506  0.9520
 1080SOL     OW14701   1.992   1.285   4.259  0.2274  0.7080 -0.5235
 1080SOL    HW114702   2.057   1.302   4.192  1.2121  0.6046  0.4076
 1080SOL    HW214703   1.934   1.361   4.250  0.1243  0.6557 -0.3161
 1081SOL     OW14704   2.532   0.612  10.075  0.3826 -0.1047 -0.3759
 1081SOL    HW114705   2.519   0.682  10.139  1.1432 -0.5983  0.3207
 1081SOL    HW214706   2.489   0.660  10.005 -0.1667  0.2059  0.1789
 1082SOL     OW14707   1.139   3.759   1.983 -0.0899  0.3346  0.3794
 1082SOL    HW114708   1.084   3.823   1.938 -0.4434  0.7433  1.4057
 1082SOL    HW214709   1.212   3.816   2.007 -0.6779  0.4042  1.9801
 1083SOL     OW14710   4.172   1.831   2.842 -0.2556 -0.5563 -0.0645
 1083SOL    HW114711   4.253   1.798   2.880 -0.2072 -1.1511 -0.7077
 1083SOL    HW214712   4.203   1.887   2.771 -0.4551 -1.0023 -0.4974
 1084SOL     OW14713   3.535   3.067  13.398  0.3262 -0.4336 -0.5891
 1084SOL    HW114714   3.626   3.077  13.424 -0.7440  0.8018  2.7072
 1084SOL    HW214715   3.494   3.145  13.436  0.4799 -0.4021 -0.4869
 1085SOL     OW14716   3.686   3.375   4.510  0.0635  0.4715 -0.0979
 1085SOL    HW114717   3.738   3.302   4.543 -1.7236 -1.4797 -1.6204
 1085SOL    HW214718   3.610   3.320   4.489  0.7297 -1.4045  2.3869
 1086SOL     OW14719   2.170   2.363   1.529 -0.6356 -0.5726  0.0931
 1086SOL    HW114720   2.149   2.448   1.568 -1.6984 -0.5691 -0.4775
 1086SOL    HW214721   2.234   2.396   1.467  1.6863 -2.8032  1.2651
 1087SOL     OW14722   1.292   4.178   4.635 -0.2027 -0.1252  0.1187
 1087SOL    HW114723   1.267   4.089   4.613 -0.5614  0.9380 -3.7934
 1087SOL    HW214724   1.230   4.199   4.705  2.0439  1.5335  1.6408
 1088SOL     OW14725   0.351   3.946   2.967  0.4840 -0.0841 -0.1518
 1088SOL    HW114726   0.290   3.966   3.038  0.5494  0.5920 -0.2789
 1088SOL    HW214727   0.292   3.927   2.893  0.1488 -1.4066  0.4667
 1089SOL     OW14728   3.309   0.239   5.701  0.2217  0.3018  0.3937
 1089SOL    HW114729   3.233   0.202   5.655 -0.2388 -0.6378  1.9072
 1089SOL    HW214730   3.337   0.164   5.753 -1.2297  0.1506  0.9764
 1090SOL     OW14731   0.682   4.065   7.801  0.0111 -0.5512 -0.2061
 1090SOL    HW114732   0.698   3.990   7.743 -1.7573 -0.0972 -1.2854
 1090SOL    HW214733   0.592   4.091   7.782  0.3730  0.8477 -0.0280
 1091SOL     OW14734   0.896   0.101   7.226 -0.0623  0.6059  0.1664
 1091SOL    HW114735   0.868   0.056   7.146  0.6262  1.4912 -0.5681
 1091SOL    HW214736   0.822   0.078   7.282 -1.2948  4.3818  0.1167
 1092SOL     OW14737   1.576   0.208   0.573  0.3727 -0.3691  0.1594
 1092SOL    HW114738   1.485   0.182   0.556  0.9907 -1.7133 -0.9986
 1092SOL    HW214739   1.569   0.275   0.642 -2.1324 -0.1734 -0.2732
 1093SOL     OW14740   3.276   2.424   0.275 -0.4598  0.1218 -0.1252
 1093SOL    HW114741   3.366   2.452   0.290  0.0847 -3.1991  2.7432
 1093SOL    HW214742   3.238   2.412   0.361 -0.0156  2.5574  0.4225
 1094SOL     OW14743   0.004   4.140   0.521 -0.4037  0.1771 -0.1611
 1094SOL    HW114744   0.047   4.153   0.606 -0.3041  0.8188 -0.3144
 1094SOL    HW214745   4.658   4.081   0.531 -1.0289  0.9616 -0.1965
 1095SOL     OW14746   3.854   2.138   8.688  0.1614  0.2559 -0.8243
 1095SOL    HW114747   3.884   2.220   8.727 -0.0597 -1.7494  3.6341
 1095SOL    HW214748   3.814   2.171   8.608 -1.8708  2.3526  1.0725
 1096SOL     OW14749   3.736   4.361   6.041  0.8515  0.0088 -0.1214
 1096SOL    HW114750   3.707   4.444   6.004  2.0291  1.2215  1.7013
 1096SOL    HW214751   3.819   4.356   5.995  1.5688 -0.5936  1.2400
 1097SOL     OW14752   3.961   0.041   0.690 -0.2685  0.2914  0.7914
 1097SOL    HW114753   4.008   0.108   0.739  1.2870 -0.2096 -0.0006
 1097SOL    HW214754   3.880   0.086   0.668  0.2974  1.3174  0.7809
 1098SOL     OW14755   2.983   0.461  11.126  0.2161 -0.0896  0.0462
 1098SOL    HW114756   3.051   0.442  11.191 -0.0383  0.5210  0.4907
 1098SOL    HW214757   2.923   0.512  11.180 -1.3592 -3.2443  1.3324
 1099SOL     OW14758   2.043   1.748   1.626 -0.6488 -0.1612  0.2445
 1099SOL    HW114759   1.971   1.804   1.598 -0.5716  1.4470  3.2539
 1099SOL    HW214760   1.999   1.665   1.611  1.7578 -1.7759  1.9841
 1100SOL     OW14761   1.955   3.535  17.370 -0.6670  0.2202  0.1794
 1100SOL    HW114762   1.863   3.513  17.387 -0.2449 -1.6048  0.1815
 1100SOL    HW214763   1.954   3.599  17.299  2.1301  0.0970  0.0121
 1101SOL     OW14764   4.687   0.719   5.197 -0.3256 -0.1466 -0.8549
 1101SOL    HW114765   4.704   0.680   5.283 -1.8091  2.8707  0.7874
 1101SOL    HW214766   0.001   0.803   5.213 -0.1970 -0.1926 -0.9464
 1102SOL     OW14767   1.591   4.334   0.597 -0.5417  0.4069  0.5001
 1102SOL    HW114768   1.516   4.326   0.538  1.4162  0.5073 -2.0136
 1102SOL    HW214769   1.662   4.366   0.541 -0.8356 -1.7597 -1.1194
 1103SOL     OW14770   1.998   3.664   3.165 -0.0433 -0.3517  0.4892
 1103SOL    HW114771   1.945   3.662   3.085 -0.2742 -0.4652  0.6443
 1103SOL    HW214772   1.930   3.678   3.231 -0.9353 -0.2057 -0.4465
 1104SOL     OW14773   1.442   2.834   4.296 -0.4809 -0.1917  0.2558
 1104SOL    HW114774   1.482   2.920   4.309 -0.6583 -0.2871  1.4066
 1104SOL    HW214775   1.499   2.777   4.348 -0.7747 -0.5649  0.1716
 1105SOL     OW14776   0.179   1.198   4.550  0.1302  0.1019 -0.0220
 1105SOL    HW114777   0.243   1.235   4.489  2.0395 -3.0284  0.1299
 1105SOL    HW214778   0.181   1.104   4.536  2.0771 -0.0777  1.3936
 1106SOL     OW14779   2.843   3.628   4.603  0.0748 -0.3059  0.0301
 1106SOL    HW114780   2.919   3.602   4.655  0.5110 -2.4080 -1.6480
 1106SOL    HW214781   2.819   3.542   4.568  2.1364 -2.2403  3.3609
 1107SOL     OW14782   3.989   1.246  11.011 -0.1102 -0.0048  0.2666
 1107SOL    HW114783   4.065   1.213  10.963  1.5327  1.2202  2.0333
 1107SOL    HW214784   4.002   1.340  10.996  1.6505 -0.8576 -3.5753
 1108SOL     OW14785   2.308   3.814   7.279 -0.0874  0.2333 -0.2548
 1108SOL    HW114786   2.276   3.725   7.293  1.2811 -0.4557 -1.5608
 1108SOL    HW214787   2.334   3.811   7.187 -0.2997  0.2916 -0.3167
 1109SOL     OW14788   3.040   3.363   5.934 -0.2419 -0.0921 -0.1672
 1109SOL    HW114789   3.026   3.419   5.858 -0.6386  0.4094  0.2818
 1109SOL    HW214790   3.133   3.339   5.926  0.1996  1.6051 -0.1536
 1110SOL     OW14791   2.899   2.633  12.081 -0.0777  0.3142 -0.0506
 1110SOL    HW114792   2.831   2.594  12.137  2.2348  0.6964  3.0093
 1110SOL    HW214793   2.932   2.706  12.132  2.1269 -0.4883 -0.3357
 1111SOL     OW14794   0.900   2.698   4.826  0.5681 -0.1759 -0.7233
 1111SOL    HW114795   0.844   2.688   4.903  1.8713 -0.6455  0.1740
 1111SOL    HW214796   0.887   2.616   4.779  0.4228 -0.5263 -0.0688
 1112SOL     OW14797   3.435   0.250   4.081  0.4957 -0.7652  0.4717
 1112SOL    HW114798   3.508   0.196   4.111  1.0573 -0.0752  0.3462
 1112SOL    HW214799   3.441   0.324   4.142 -0.5716 -1.4621  1.4460
 1113SOL     OW14800   0.135   2.359   7.596  0.5175 -0.0330 -0.0978
 1113SOL    HW114801   0.115   2.398   7.681  2.8866 -0.9503  0.8948
 1113SOL    HW214802   0.082   2.279   7.602  1.6057 -0.9403 -2.4392
 1114SOL     OW14803   3.499   1.591  16.987  0.2939  0.4392 -0.3012
 1114SOL    HW114804   3.490   1.552  16.900 -0.8728  0.8374 -0.3556
 1114SOL    HW214805   3.521   1.682  16.966  1.5543  0.0623 -0.6195
 1115SOL     OW14806   0.925   1.087   9.215  0.1756 -0.1520 -0.2492
 1115SOL    HW114807   0.998   1.086   9.276 -0.4139  3.2992  0.4780
 1115SOL    HW214808   0.858   1.139   9.259  0.8181 -0.4618  1.0958
 1116SOL     OW14809   1.175   1.368   0.440 -0.0670 -0.0862 -0.3804
 1116SOL    HW114810   1.176   1.462   0.461 -0.2503 -0.3269  0.6841
 1116SOL    HW214811   1.268   1.355   0.424 -0.4376 -0.4122 -2.2961
 1117SOL     OW14812   1.080   3.101   4.919 -0.5383  0.4048 -0.6559
 1117SOL    HW114813   1.136   3.121   4.844 -2.2594 -0.4933 -2.1838
 1117SOL    HW214814   1.146   3.110   4.988 -0.0166 -1.1105 -0.9437
 1118SOL     OW14815   1.103   1.797   6.365 -0.5017 -0.3702  0.0363
 1118SOL    HW114816   1.144   1.788   6.451  0.0042 -0.7505 -0.2400
 1118SOL    HW214817   1.010   1.781   6.376 -0.4113 -0.8019  0.1734
 1119SOL     OW14818   3.903   2.253   9.656  0.3545  0.0914  0.1838
 1119SOL    HW114819   3.856   2.299   9.587  1.5821 -0.6251 -1.1191
 1119SOL    HW214820   3.832   2.249   9.721  1.3366 -1.5328  1.1525
 1120SOL     OW14821   1.366   1.417  17.461 -0.6849 -0.0524  0.0011
 1120SOL    HW114822   1.287   1.405  17.515 -0.4165 -0.0037  0.4078
 1120SOL    HW214823   1.436   1.410  17.526 -1.9110  1.8512  1.5478
 1121SOL     OW14824   1.811   0.543   0.043 -0.3150 -0.2160 -0.3082
 1121SOL    HW114825   1.884   0.536   0.104  0.1706  3.5637 -0.4030
 1121SOL    HW214826   1.746   0.602   0.082 -0.5105 -0.4027 -0.3495
 1122SOL     OW14827   4.166   1.538   7.536 -0.1752 -0.3305 -0.3004
 1122SOL    HW114828   4.183   1.595   7.611  2.7791  0.5433 -1.6281
 1122SOL    HW214829   4.136   1.604   7.473 -0.4663 -0.7284 -0.5828
 1123SOL     OW14830   3.518   1.498   0.155 -0.1169 -0.0701 -0.8108
 1123SOL    HW114831   3.569   1.502   0.074  0.0547 -0.1328 -0.7055
 1123SOL    HW214832   3.443   1.444   0.132 -0.7101  0.1175  0.7051
 1124SOL     OW14833   3.608   3.945   5.171 -0.2946 -0.5466  0.5867
 1124SOL    HW114834   3.569   4.000   5.104  0.0189 -1.2114 -0.1386
 1124SOL    HW214835   3.571   3.992   5.246  0.7573 -1.0628  1.4328
 1125SOL     OW14836   3.880   0.977   9.987  0.0679  0.4679  0.3434
 1125SOL    HW114837   3.876   0.938  10.074  1.0856  0.5516  0.4341
 1125SOL    HW214838   3.943   1.046  10.007  1.3672 -0.8254  0.6770
 1126SOL     OW14839   1.273   2.012  17.435  0.4774 -0.0980 -1.2919
 1126SOL    HW114840   1.260   1.918  17.447  1.0950 -0.2541 -1.8422
 1126SOL    HW214841   1.243   2.042  17.521 -3.1533 -2.7685 -1.6500
 1127SOL     OW14842   0.502   1.435   7.142 -0.9138 -0.0806 -0.1253
 1127SOL    HW114843   0.561   1.509   7.138  0.0426 -0.7555  1.5781
 1127SOL    HW214844   0.418   1.479   7.126 -0.2957  1.1433  0.0625
 1128SOL     OW14845   4.546   3.183   4.002 -0.0181 -0.0266 -0.0989
 1128SOL    HW114846   4.632   3.173   4.043 -0.3766  3.0488  1.4574
 1128SOL    HW214847   4.483   3.188   4.074 -1.7846 -0.0376 -1.6493
 1129SOL     OW14848   3.623   1.316   0.680 -0.2470  0.2794 -0.6546
 1129SOL    HW114849   3.576   1.348   0.757 -1.8274 -0.3693 -1.3480
 1129SOL    HW214850   3.553   1.271   0.633 -1.0664  0.2892  0.5755
 1130SOL     OW14851   2.943   4.350   8.756 -0.3079 -0.1622 -0.8156
 1130SOL    HW114852   2.871   4.413   8.753  0.7364  1.0846  0.7995
 1130SOL    HW214853   2.921   4.288   8.825  2.2103 -1.2700 -0.9909
 1131SOL     OW14854   3.147   3.490   1.756  0.4775 -0.0887 -0.1522
 1131SOL    HW114855   3.092   3.426   1.710 -0.7540  1.3842 -0.7338
 1131SOL    HW214856   3.148   3.464   1.848  0.2687  0.3700 -0.0226
 1132SOL     OW14857   3.722   3.846  14.292  0.2099 -0.1464 -0.0473
 1132SOL    HW114858   3.663   3.786  14.247  1.8868 -2.0564  0.2989
 1132SOL    HW214859   3.790   3.852  14.224  0.7085  0.2030  0.4808
 1133SOL     OW14860   0.093   4.029   8.684  0.0911  0.2097  0.3497
 1133SOL    HW114861   0.070   3.939   8.707  1.3470 -0.3932 -0.7787
 1133SOL    HW214862   0.010   4.067   8.655  0.0861 -1.8819 -2.3951
 1134SOL     OW14863   3.274   2.752   5.283  0.0776 -0.0136  0.8123
 1134SOL    HW114864   3.259   2.819   5.349 -1.9015 -0.6342  0.9872
 1134SOL    HW214865   3.226   2.678   5.321  0.2797 -0.7107 -0.2669
 1135SOL     OW14866   0.586   1.490   6.404 -0.0197 -0.5856 -0.0945
 1135SOL    HW114867   0.586   1.582   6.381  0.2224 -0.3110  0.9892
 1135SOL    HW214868   0.558   1.499   6.495  1.7598  1.7538  0.2285
 1136SOL     OW14869   2.618   2.665   8.011 -0.4945 -0.2646 -0.2496
 1136SOL    HW114870   2.569   2.736   7.970  0.9870  2.0430  1.9549
 1136SOL    HW214871   2.639   2.693   8.100  2.2374  1.2962 -1.3964
 1137SOL     OW14872   1.200   3.806   0.862  0.3714  0.2093  0.3672
 1137SOL    HW114873   1.198   3.746   0.936  2.9002  1.2531  1.2525
 1137SOL    HW214874   1.139   3.752   0.812 -0.8694  1.0308  0.9910
 1138SOL     OW14875   3.283   4.394   7.548 -0.8014  0.2050  0.3790
 1138SOL    HW114876   3.276   4.305   7.514 -1.8031  0.3744  0.1334
 1138SOL    HW214877   3.205   4.388   7.603 -0.0018 -0.0831  1.4745
 1139SOL     OW14878   1.526   4.289   0.227  0.1702  0.0659  0.0420
 1139SOL    HW114879   1.518   4.290   0.132  0.4873  0.8149  0.0277
 1139SOL    HW214880   1.602   4.342   0.252  0.3253 -0.2428  0.2369
 1140SOL     OW14881   2.149   1.034   7.389  0.6673 -0.3906  0.0945
 1140SOL    HW114882   2.239   1.066   7.381  0.5823  1.1452  5.2145
 1140SOL    HW214883   2.132   1.044   7.483 -2.6427 -1.3592 -0.4148
 1141SOL     OW14884   2.641   3.020   7.877 -0.1173 -0.1573  0.1769
 1141SOL    HW114885   2.661   3.023   7.970  1.6129  0.1270 -0.1981
 1141SOL    HW214886   2.559   2.974   7.893  0.1227 -0.6615 -0.0305
 1142SOL     OW14887   2.828   4.510   7.860  0.4572 -1.1719  0.3335
 1142SOL    HW114888   2.746   4.507   7.910 -0.7623 -1.8886 -1.6848
 1142SOL    HW214889   2.888   4.564   7.911  1.5412 -2.3735  0.3122
 1143SOL     OW14890   0.619   1.675   2.916  0.0773 -0.3022  0.5314
 1143SOL    HW114891   0.702   1.691   2.871 -0.5268 -0.3764 -0.6202
 1143SOL    HW214892   0.657   1.700   3.000  0.0941  0.5942  0.2534
 1144SOL     OW14893   0.179   0.267  11.903  0.1936 -0.4286 -0.2141
 1144SOL    HW114894   0.176   0.215  11.983  1.5836  0.0374  0.1418
 1144SOL    HW214895   0.264   0.311  11.910  0.0430 -0.5343  2.1292
 1145SOL     OW14896   1.063   0.551   0.166 -0.1089  0.2966  0.1536
 1145SOL    HW114897   1.027   0.638   0.185 -0.8891  0.2233 -1.0064
 1145SOL    HW214898   1.152   0.560   0.199  0.7631  0.0864 -2.1504
 1146SOL     OW14899   3.556   0.436   6.723 -0.3248 -0.3061  0.1717
 1146SOL    HW114900   3.550   0.505   6.656 -1.3967 -0.2662  0.3171
 1146SOL    HW214901   3.581   0.356   6.677 -2.6391 -0.8694 -0.0619
 1147SOL     OW14902   2.673   3.853   7.250  0.2771 -0.8348 -0.3366
 1147SOL    HW114903   2.728   3.776   7.265 -0.2199 -1.1954 -0.3633
 1147SOL    HW214904   2.615   3.846   7.326 -1.5775  1.4501 -1.5550
 1148SOL     OW14905   1.357   1.092  12.601 -0.1283  0.0228  0.1443
 1148SOL    HW114906   1.290   1.090  12.669  0.1558 -1.7365  0.3634
 1148SOL    HW214907   1.408   1.167  12.632 -0.8035  0.4243  0.2839
 1149SOL     OW14908   3.498   0.535   9.278 -0.1423 -0.3851 -0.3719
 1149SOL    HW114909   3.553   0.458   9.272 -0.2866 -0.5175  0.0101
 1149SOL    HW214910   3.536   0.585   9.205 -0.6625  1.4728  0.6314
 1150SOL     OW14911   3.995   1.574   9.265  0.7256  0.1975 -0.3570
 1150SOL    HW114912   3.931   1.610   9.326 -0.6496 -0.3325 -1.5014
 1150SOL    HW214913   4.073   1.567   9.321  0.5722 -2.7806 -0.5323
 1151SOL     OW14914   0.126   3.527   5.676  0.3325  0.3795  0.2494
 1151SOL    HW114915   0.220   3.509   5.674  0.4438  0.6492  3.3298
 1151SOL    HW214916   0.094   3.437   5.671  0.3707  0.4207 -0.6709
 1152SOL     OW14917   2.518   3.250  16.020 -0.6461  0.3442 -0.1337
 1152SOL    HW114918   2.565   3.167  16.029 -0.4060  0.4191 -0.6674
 1152SOL    HW214919   2.560   3.282  15.940  0.6806  0.6902  0.6924
 1153SOL     OW14920   0.368   3.883   1.199 -0.0518  0.6172 -0.4319
 1153SOL    HW114921   0.339   3.819   1.133  1.3630 -1.1309  0.6430
 1153SOL    HW214922   0.352   3.834   1.279  1.6532  0.3133 -0.2727
 1154SOL     OW14923   4.290   0.334   7.328 -0.2896 -0.0280  0.1758
 1154SOL    HW114924   4.321   0.408   7.381  0.0356 -1.0869  1.4713
 1154SOL    HW214925   4.338   0.335   7.246 -0.9222  0.8743 -0.1795
 1155SOL     OW14926   0.145   0.413   4.818  0.1570 -0.1931  0.1812
 1155SOL    HW114927   0.163   0.468   4.741 -1.0341 -0.0561 -0.0052
 1155SOL    HW214928   0.127   0.481   4.883 -0.6784 -1.4999  1.3235
 1156SOL     OW14929   0.865   1.340   3.016  0.7125  0.1909 -0.4685
 1156SOL    HW114930   0.787   1.367   2.967  0.4905 -0.3595 -0.4218
 1156SOL    HW214931   0.881   1.424   3.059  0.0403 -0.5117  1.1540
 1157SOL     OW14932   2.810   1.443   4.758  0.0806  0.4153  0.1932
 1157SOL    HW114933   2.832   1.514   4.698 -2.2288  0.7233 -0.2861
 1157SOL    HW214934   2.716   1.446   4.776  0.4186 -1.3357  2.2191
 1158SOL     OW14935   0.275   4.490   2.598 -0.4550  0.5837  0.0835
 1158SOL    HW114936   0.232   4.407   2.577 -0.3678  0.3239  0.9247
 1158SOL    HW214937   0.351   4.452   2.643  0.4138 -0.4692 -2.2634
 1159SOL     OW14938   2.629   3.736   5.422  0.7501 -0.4079 -0.0501
 1159SOL    HW114939   2.678   3.681   5.483 -2.2551 -0.3189  2.4695
 1159SOL    HW214940   2.594   3.803   5.481 -1.0096  0.9707 -2.6966
 1160SOL     OW14941   1.399   1.421  11.134  0.4821  0.5146 -0.4384
 1160SOL    HW114942   1.439   1.481  11.071  1.0427  3.2949  2.5479
 1160SOL    HW214943   1.447   1.451  11.211 -0.8442  1.2580  0.1101
 1161SOL     OW14944   4.004   2.698  17.640  0.1000  0.2226 -0.1247
 1161SOL    HW114945   4.099   2.691  17.640  0.0783 -0.1521  0.5838
 1161SOL    HW214946   3.993   2.755  17.564  0.5639  1.7786  0.9831
 1162SOL     OW14947   2.590   4.136   6.391  0.4271  0.4531 -0.4995
 1162SOL    HW114948   2.653   4.066   6.408  0.8195  0.5598 -1.4958
 1162SOL    HW214949   2.562   4.156   6.480  2.2153  0.4617  0.0552
 1163SOL     OW14950   0.030   2.815   3.572  0.4053 -0.8509 -0.2970
 1163SOL    HW114951   0.016   2.909   3.575 -0.5125 -0.9585 -1.1950
 1163SOL    HW214952   0.052   2.784   3.661  0.9794  0.8466  0.1597
 1164SOL     OW14953   0.165   3.763   9.043 -0.2206 -0.3865 -0.1375
 1164SOL    HW114954   0.097   3.828   9.028  1.8573  2.3620  2.2869
 1164SOL    HW214955   0.217   3.757   8.963  1.0590 -0.7737  0.7180
 1165SOL     OW14956   2.143   1.500   0.485  0.0158 -0.7363 -0.1232
 1165SOL    HW114957   2.132   1.501   0.390 -0.7809 -0.2577 -0.0314
 1165SOL    HW214958   2.053   1.469   0.495 -0.3898 -0.1496 -2.1091
 1166SOL     OW14959   2.954   2.453   2.178  0.7402 -0.6195 -0.3189
 1166SOL    HW114960   2.888   2.460   2.246  1.5571  1.7131  0.2245
 1166SOL    HW214961   2.901   2.414   2.108 -0.9668  0.0352  0.6175
 1167SOL     OW14962   0.690   2.941   4.933  0.2951 -0.0986  0.6613
 1167SOL    HW114963   0.675   3.016   4.876 -0.5640  0.9977  2.3430
 1167SOL    HW214964   0.646   2.871   4.886  0.0199  3.1597 -3.9349
 1168SOL     OW14965   1.833   0.426  14.171  0.1890  0.3616 -0.0414
 1168SOL    HW114966   1.927   0.413  14.162  0.1801  0.1500  0.1787
 1168SOL    HW214967   1.818   0.520  14.161  0.9963  0.7302  2.1302
 1169SOL     OW14968   3.652   3.504  11.450 -0.5881 -0.2810  0.1276
 1169SOL    HW114969   3.657   3.571  11.519 -0.8929  1.4574 -1.5537
 1169SOL    HW214970   3.618   3.559  11.380  1.9299  1.5326  0.3417
 1170SOL     OW14971   2.518   3.321  17.460  0.3340  0.7897 -0.0677
 1170SOL    HW114972   2.504   3.337  17.367  1.1925 -0.4627 -0.4061
 1170SOL    HW214973   2.552   3.410  17.476 -0.3692  0.8882  0.8949
 1171SOL     OW14974   1.144   2.069   6.968 -0.0424  0.4160 -0.6606
 1171SOL    HW114975   1.179   2.156   6.948  2.3004 -0.0423  1.5468
 1171SOL    HW214976   1.161   2.032   6.881 -1.3988  2.1233 -1.6323
 1172SOL     OW14977   3.500   3.984   2.425  0.6254 -0.3172  0.1870
 1172SOL    HW114978   3.592   3.982   2.399  1.5046  0.3236  3.3297
 1172SOL    HW214979   3.502   3.902   2.474  1.1851  0.9290  2.2490
 1173SOL     OW14980   4.319   4.593   6.206  0.3599  0.1834 -0.6263
 1173SOL    HW114981   4.273   4.556   6.130  1.7360 -0.7165 -1.0188
 1173SOL    HW214982   4.309   4.516   6.262 -1.9051  0.6150 -0.4270
 1174SOL     OW14983   4.250   2.588   5.643  0.1171  0.1309 -0.3422
 1174SOL    HW114984   4.190   2.617   5.574 -0.3278  0.0088 -0.0063
 1174SOL    HW214985   4.276   2.665   5.695  0.7902 -0.6493  0.4681
 1175SOL     OW14986   3.044   1.537   8.350 -0.0208 -0.0733 -0.0446
 1175SOL    HW114987   3.067   1.589   8.273 -2.1424  1.1368  0.1139
 1175SOL    HW214988   2.954   1.506   8.342 -0.2657 -0.1975  3.3311
 1176SOL     OW14989   1.281   3.417   8.779  0.0359 -0.6365 -0.2434
 1176SOL    HW114990   1.200   3.388   8.738 -0.8639 -0.2810  1.3111
 1176SOL    HW214991   1.305   3.330   8.811 -0.6426 -1.4639 -1.9501
 1177SOL     OW14992   4.466   3.173  17.676 -0.2219 -0.0669  0.5168
 1177SOL    HW114993   4.524   3.236   0.005 -1.6776  1.1917  0.6255
 1177SOL    HW214994   4.530   3.102  17.666  0.5953  0.4500  2.0529
 1178SOL     OW14995   2.852   1.263   5.008 -0.5701 -0.1240 -0.1378
 1178SOL    HW114996   2.806   1.346   4.995 -0.1505  0.3498  1.3291
 1178SOL    HW214997   2.933   1.276   4.958  0.8457  0.7752  2.3793
 1179SOL     OW14998   3.320   4.157   8.321 -0.2585 -0.9328  0.0031
 1179SOL    HW114999   3.280   4.076   8.355 -0.9119 -0.7905 -0.4241
 1179SOL    HW215000   3.337   4.195   8.408  1.0364 -1.0346 -0.2166
 1180SOL     OW15001   1.268   3.071   2.260  0.2412  0.0720  0.1560
 1180SOL    HW115002   1.324   3.087   2.184 -0.4085 -2.7613 -0.9488
 1180SOL    HW215003   1.221   3.153   2.268  1.4580  1.0771 -2.7816
 1181SOL     OW15004   3.785   3.560   0.888  0.5306  0.1204  0.0849
 1181SOL    HW115005   3.744   3.486   0.842  0.7413  1.5002 -2.3637
 1181SOL    HW215006   3.720   3.586   0.952  0.3430  0.7006 -0.3396
 1182SOL     OW15007   3.577   2.866   6.265 -0.0799 -0.3172  0.1570
 1182SOL    HW115008   3.662   2.903   6.240  0.6045 -1.8579  0.1690
 1182SOL    HW215009   3.519   2.938   6.240 -0.1298  1.0217  4.1106
 1183SOL     OW15010   4.652   4.617   4.697  0.5021 -0.3672 -0.0112
 1183SOL    HW115011   4.602   4.696   4.716  0.5689 -0.6813  1.4512
 1183SOL    HW215012   4.595   4.577   4.631  0.7155  0.6360 -0.8149
 1184SOL     OW15013   2.975   4.535  10.639 -0.1189  0.1685 -0.4509
 1184SOL    HW115014   2.959   4.629  10.642  0.0868  0.2248 -1.1399
 1184SOL    HW215015   3.064   4.526  10.605  0.3502 -0.6070  0.9901
 1185SOL     OW15016   3.982   2.536  16.763 -0.2529 -0.3983  0.2377
 1185SOL    HW115017   4.052   2.575  16.815  0.8074 -1.8970 -0.0896
 1185SOL    HW215018   3.907   2.534  16.823  0.4421 -1.0816  1.0911
 1186SOL     OW15019   4.233   4.475  16.166  0.0249  0.1108 -0.1747
 1186SOL    HW115020   4.216   4.392  16.123 -0.5143  0.1777 -0.0897
 1186SOL    HW215021   4.198   4.537  16.102 -2.5374 -1.3151 -0.1233
 1187SOL     OW15022   3.770   2.562  14.880  0.0093  0.8711  0.4658
 1187SOL    HW115023   3.723   2.640  14.849 -2.0131 -0.6935 -0.3622
 1187SOL    HW215024   3.780   2.513  14.799  0.4602 -1.5497  1.9983
 1188SOL     OW15025   4.356   0.648   4.366 -0.1317  0.2833  0.4490
 1188SOL    HW115026   4.450   0.651   4.347 -0.1257 -0.9534  0.3169
 1188SOL    HW215027   4.356   0.577   4.430  0.6487  0.3899  0.5767
 1189SOL     OW15028   0.113   4.711   9.774 -0.0508  0.0171  0.1806
 1189SOL    HW115029   0.150   0.050   9.830 -0.8470  0.0352  0.6881
 1189SOL    HW215030   0.174   4.724   9.702 -0.9924  1.9808 -0.2740
 1190SOL     OW15031   4.726   1.166   6.154  0.2770  0.1055  0.6807
 1190SOL    HW115032   4.648   1.153   6.208  0.0690 -0.2338  0.3024
 1190SOL    HW215033   0.064   1.157   6.222  0.4177  1.5587  0.7311
 1191SOL     OW15034   0.329   1.908   0.785  0.3124  0.9147  0.6353
 1191SOL    HW115035   0.254   1.889   0.728  0.8616 -1.9277  0.8777
 1191SOL    HW215036   0.404   1.898   0.727  0.1620  1.1545  0.4051
 1192SOL     OW15037   4.202   3.016  16.830 -0.6450  0.1453  0.4173
 1192SOL    HW115038   4.215   3.022  16.925 -0.6012 -0.1251  0.4287
 1192SOL    HW215039   4.114   3.053  16.816 -0.5541  0.3620  0.4154
 1193SOL     OW15040   3.742   3.323  14.726  0.0812 -0.8471  0.1820
 1193SOL    HW115041   3.683   3.343  14.654  0.1170  2.5616  1.0959
 1193SOL    HW215042   3.677   3.311  14.795  0.1358 -0.9367  0.2182
 1194SOL     OW15043   0.010   2.942   3.279 -0.0019 -0.9689  0.4300
 1194SOL    HW115044   4.723   2.984   3.194  0.0549  2.3697  2.0688
 1194SOL    HW215045   0.052   3.014   3.326 -2.3775  0.3735  0.4779
 1195SOL     OW15046   2.990   3.532   7.595 -0.1490 -0.1308 -0.2656
 1195SOL    HW115047   2.953   3.538   7.683  0.1993  3.5856 -0.3662
 1195SOL    HW215048   3.070   3.584   7.607  0.6369 -1.0060 -1.6660
 1196SOL     OW15049   1.944   2.299   5.482 -0.2840 -0.2566  0.3063
 1196SOL    HW115050   1.856   2.295   5.520 -0.0810 -1.2375  0.6729
 1196SOL    HW215051   1.935   2.358   5.407 -1.4033 -0.9763 -0.1399
 1197SOL     OW15052   3.850   1.680  10.712 -0.1796 -0.4223  0.3456
 1197SOL    HW115053   3.778   1.741  10.701  1.0775  0.6774 -1.6641
 1197SOL    HW215054   3.876   1.647  10.626  1.0237 -0.0981  0.5802
 1198SOL     OW15055   3.595   1.508   3.163  0.9435  0.2237  0.1030
 1198SOL    HW115056   3.612   1.601   3.146 -0.1578  0.3515 -0.2657
 1198SOL    HW215057   3.526   1.482   3.102  1.4269 -0.6288 -0.0821
 1199SOL     OW15058   3.840   2.047   1.483 -0.0413 -0.0184  0.2899
 1199SOL    HW115059   3.765   2.106   1.475  0.9574  0.9713 -1.8058
 1199SOL    HW215060   3.913   2.109   1.479  0.4961 -0.6478  0.2210
 1200SOL     OW15061   4.139   2.428   8.583 -0.3290 -0.1960  0.0516
 1200SOL    HW115062   4.168   2.505   8.632  1.3293 -1.1459  0.5718
 1200SOL    HW215063   4.061   2.405   8.635  0.6652 -1.0435  1.1853
 1201SOL     OW15064   0.101   4.721   6.855 -0.4714  0.2392  0.3484
 1201SOL    HW115065   0.058   4.639   6.879  0.1618  0.8003  3.4428
 1201SOL    HW215066   0.180   4.710   6.908  0.1272  2.1466 -0.1461
 1202SOL     OW15067   4.371   2.708  10.651  0.2782 -0.0645  0.5358
 1202SOL    HW115068   4.293   2.693  10.597  0.8489  1.6265 -0.7411
 1202SOL    HW215069   4.385   2.621  10.689 -0.4303 -0.0096  0.9318
 1203SOL     OW15070   0.394   3.828  17.158  0.5837 -0.6365 -0.3136
 1203SOL    HW115071   0.456   3.827  17.086  1.2347 -0.9779  0.2536
 1203SOL    HW215072   0.424   3.742  17.189  1.4717 -0.6208 -1.1391
 1204SOL     OW15073   4.433   3.230   5.448 -0.2214 -0.1351  0.4197
 1204SOL    HW115074   4.339   3.215   5.445 -0.0965 -0.4419 -1.6437
 1204SOL    HW215075   4.437   3.300   5.514 -3.9645 -1.1825  1.7578
 1205SOL     OW15076   0.237   0.409   5.107 -0.8647  0.1201  0.4172
 1205SOL    HW115077   0.296   0.483   5.116 -0.8441  0.4750 -2.4591
 1205SOL    HW215078   0.151   0.448   5.092 -0.0419  1.1637 -1.6524
 1206SOL     OW15079   2.714   1.781   7.409 -0.4363 -0.1317  0.2942
 1206SOL    HW115080   2.801   1.761   7.444  0.8518 -0.0443 -2.8347
 1206SOL    HW215081   2.708   1.705   7.351  0.6011 -1.2888  1.6947
 1207SOL     OW15082   0.299   0.101   4.981  0.2245  0.4571 -0.7855
 1207SOL    HW115083   0.232   0.112   4.914  0.5707 -1.7416 -1.4795
 1207SOL    HW215084   0.343   0.185   4.967 -0.1918  1.1214  1.8830
 1208SOL     OW15085   4.636   3.683   6.411  0.1776 -0.2853 -0.6229
 1208SOL    HW115086   4.691   3.646   6.342  2.9357 -1.7328  2.3673
 1208SOL    HW215087   4.704   3.719   6.467  1.2617 -1.6413 -1.0667
 1209SOL     OW15088   2.418   4.279   2.394  0.2795 -0.1951  0.0413
 1209SOL    HW115089   2.328   4.268   2.425  1.0796 -1.1747  2.0343
 1209SOL    HW215090   2.455   4.344   2.454  0.9893 -0.4065 -0.1755
 1210SOL     OW15091   4.159   3.676   7.891 -0.1611 -0.1244 -0.2058
 1210SOL    HW115092   4.100   3.741   7.852 -0.1260  0.0599  0.0475
 1210SOL    HW215093   4.101   3.626   7.948  2.3652 -1.8901  0.7939
 1211SOL     OW15094   0.462   4.417   7.430 -0.2916  0.0835  0.2503
 1211SOL    HW115095   0.405   4.415   7.506  0.7584 -1.8540  0.9681
 1211SOL    HW215096   0.498   4.506   7.435 -1.9727  0.6434  2.2312
 1212SOL     OW15097   2.014   0.269   3.907 -0.1345 -0.4970 -0.2429
 1212SOL    HW115098   2.032   0.232   3.820  1.1580  0.5314 -0.4182
 1212SOL    HW215099   1.991   0.185   3.947 -0.8393 -0.9663 -1.6401
 1213SOL     OW15100   2.138   2.019  14.145  0.1775 -0.4378  0.0144
 1213SOL    HW115101   2.089   2.100  14.130 -1.2822 -1.4920 -0.9088
 1213SOL    HW215102   2.136   2.002  14.239 -0.4393  0.8649  0.2423
 1214SOL     OW15103   2.898   2.319   4.978  0.4696 -0.0032 -0.3398
 1214SOL    HW115104   2.897   2.227   4.950  0.9775  0.5470 -2.1641
 1214SOL    HW215105   2.813   2.340   4.939  1.0751 -0.2994 -1.8480
 1215SOL     OW15106   1.322   4.016  11.343  0.1704  0.0588 -0.9125
 1215SOL    HW115107   1.260   3.945  11.324 -0.6293  0.5073 -0.0058
 1215SOL    HW215108   1.342   4.012  11.436  1.6757  2.5953 -1.1319
 1216SOL     OW15109   2.811   2.477   4.352  0.3637 -0.5022 -0.0346
 1216SOL    HW115110   2.767   2.487   4.268  1.9759  1.8047 -0.6118
 1216SOL    HW215111   2.853   2.393   4.333  0.6505 -0.8179  2.0225
 1217SOL     OW15112   0.755   0.673   5.344 -0.0906 -0.3487 -0.3052
 1217SOL    HW115113   0.784   0.756   5.381  0.6933 -0.5853 -0.3779
 1217SOL    HW215114   0.834   0.645   5.298 -1.4347 -0.2394 -2.6601
 1218SOL     OW15115   2.845   4.196   8.205 -0.3833 -0.0593  0.2561
 1218SOL    HW115116   2.839   4.180   8.111  0.3725 -1.4032  0.4363
 1218SOL    HW215117   2.912   4.264   8.210 -0.6731  0.0288  2.9816
 1219SOL     OW15118   3.061   1.664  12.030  0.6283  0.1864 -0.4178
 1219SOL    HW115119   3.114   1.590  12.000 -0.2512 -0.8727  0.6388
 1219SOL    HW215120   3.071   1.660  12.125 -0.8207 -2.0099 -0.3433
 1220SOL     OW15121   0.491   2.616  12.762  0.0722  0.3314 -0.7309
 1220SOL    HW115122   0.503   2.612  12.857  0.4156  2.3484 -0.6876
 1220SOL    HW215123   0.399   2.640  12.750 -0.4833 -1.3032  0.1935
 1221SOL     OW15124   1.187   3.232   8.431  1.0227 -0.3206  0.0085
 1221SOL    HW115125   1.172   3.227   8.526 -0.3703 -0.1241 -0.2050
 1221SOL    HW215126   1.115   3.288   8.403  1.1367  0.0598  0.4811
 1222SOL     OW15127   4.490   3.537   8.448  0.3101 -0.4844 -0.4053
 1222SOL    HW115128   4.433   3.569   8.378  0.0847  0.3549  0.1616
 1222SOL    HW215129   4.433   3.543   8.524 -2.4023 -0.3492 -2.4873
 1223SOL     OW15130   0.466   0.414   6.449  0.6389  0.3257  0.1332
 1223SOL    HW115131   0.491   0.419   6.357  4.6050  3.5375  1.3684
 1223SOL    HW215132   0.434   0.502   6.472  1.2630  0.6830 -0.3975
 1224SOL     OW15133   0.090   4.222   6.029 -0.6231  0.1658 -0.1751
 1224SOL    HW115134   0.181   4.250   6.031  0.1894 -2.3547 -1.4024
 1224SOL    HW215135   0.080   4.141   5.979  1.5170 -1.1605  1.5731
 1225SOL     OW15136   0.240   3.187   7.427 -0.1248 -0.1118 -0.2713
 1225SOL    HW115137   0.290   3.109   7.402 -0.7273 -0.7620  0.5516
 1225SOL    HW215138   0.283   3.209   7.509 -1.7818 -0.8068  0.7795
 1226SOL     OW15139   4.140   2.531   6.036 -0.1043  0.3658 -0.4206
 1226SOL    HW115140   4.088   2.605   6.066 -0.7357 -0.5684  0.8148
 1226SOL    HW215141   4.078   2.497   5.971  0.5622 -1.7673  0.0514
 1227SOL     OW15142   0.259   2.347   8.796  0.2756  0.2724 -0.0002
 1227SOL    HW115143   0.273   2.412   8.727 -2.0367  1.4147  0.6098
 1227SOL    HW215144   0.248   2.277   8.730  2.4335  0.5704 -0.6742
 1228SOL     OW15145   1.125   1.895   4.923 -0.2893 -0.8004  0.0116
 1228SOL    HW115146   1.045   1.850   4.951 -1.8754  0.7397 -2.0345
 1228SOL    HW215147   1.090   1.947   4.851  3.8816 -1.2273 -2.3484
 1229SOL     OW15148   3.293   4.182   3.315 -0.0612 -0.2710 -0.5418
 1229SOL    HW115149   3.323   4.177   3.225  1.8149  0.1845  0.0589
 1229SOL    HW215150   3.376   4.168   3.360 -0.5589  0.6470  0.6615
 1230SOL     OW15151   0.585   0.534   3.674  0.2799  0.1101  0.0950
 1230SOL    HW115152   0.639   0.573   3.605 -2.1037  0.1927 -1.7415
 1230SOL    HW215153   0.506   0.519   3.622 -0.0692  1.3209  0.2802
 1231SOL     OW15154   3.389   2.950   8.447 -0.5896  0.0517  0.0610
 1231SOL    HW115155   3.296   2.953   8.428 -0.5422  0.6189 -0.0661
 1231SOL    HW215156   3.386   2.907   8.533 -4.1943  0.2797  0.0422
 1232SOL     OW15157   0.843   0.559   2.514 -0.2962 -0.2819 -0.1851
 1232SOL    HW115158   0.844   0.547   2.419 -2.1271  0.3990 -0.2810
 1232SOL    HW215159   0.930   0.524   2.535  0.1573  0.7530 -0.3384
 1233SOL     OW15160   2.374   0.148   4.067  0.6581  0.2641  0.1337
 1233SOL    HW115161   2.419   0.125   4.149  0.2060  1.1485  0.6254
 1233SOL    HW215162   2.431   0.203   4.014 -0.3007  1.4383  0.3277
 1234SOL     OW15163   4.197   2.998   3.327  0.0940 -0.4446 -0.6565
 1234SOL    HW115164   4.186   2.973   3.419  0.0879  0.0604 -0.5189
 1234SOL    HW215165   4.284   2.959   3.317  0.4632  0.2627 -0.2603
 1235SOL     OW15166   3.149   4.647  17.284 -0.7599 -0.3325 -0.5022
 1235SOL    HW115167   3.179   4.686  17.366  0.9862  0.8859 -1.7109
 1235SOL    HW215168   3.126   4.723  17.231 -0.7252 -0.1098 -0.1978
 1236SOL     OW15169   0.106   4.642  15.910 -0.1719  0.2423 -0.0280
 1236SOL    HW115170   0.026   4.665  15.863 -0.0425 -1.6066 -1.1407
 1236SOL    HW215171   0.157   4.589  15.849  0.2349  3.8285 -2.8253
 1237SOL     OW15172   0.001   3.826   9.368 -0.4088  0.2332 -0.2408
 1237SOL    HW115173   4.711   3.815   9.461  0.8011  1.3212  0.1345
 1237SOL    HW215174   4.658   3.773   9.334 -0.9089 -0.1635  1.3970
 1238SOL     OW15175   4.010   3.536   8.063  0.1275 -0.3370  0.3448
 1238SOL    HW115176   4.006   3.441   8.078  2.8067 -0.6100 -0.6482
 1238SOL    HW215177   3.921   3.566   8.082  0.0980 -0.6791  0.7491
 1239SOL     OW15178   2.495   3.361  11.917  0.0778  0.1077 -0.6581
 1239SOL    HW115179   2.535   3.292  11.864 -3.1062 -0.6621 -2.1298
 1239SOL    HW215180   2.456   3.318  11.994 -0.6646  1.9440 -0.0106
 1240SOL     OW15181   3.234   2.756   6.920  0.7562 -0.3153 -0.0254
 1240SOL    HW115182   3.207   2.763   7.011  0.3930  2.0883 -0.3157
 1240SOL    HW215183   3.230   2.661   6.914  0.1376 -0.2694 -0.3263
 1241SOL     OW15184   4.157   2.186  10.739  0.5104 -0.2181  0.2009
 1241SOL    HW115185   4.225   2.146  10.794  0.4965  0.9528  1.0684
 1241SOL    HW215186   4.099   2.113  10.718  0.8038  0.0674 -1.5661
 1242SOL     OW15187   0.412   3.054  11.448 -0.3854 -0.2947 -0.6275
 1242SOL    HW115188   0.381   3.145  11.446 -1.5365 -0.7115 -1.7597
 1242SOL    HW215189   0.349   3.017  11.387  1.1982 -2.1919 -1.1349
 1243SOL     OW15190   3.293   2.848  15.859 -0.2083  0.2764 -0.1122
 1243SOL    HW115191   3.346   2.898  15.921 -2.1062  1.2980  0.6782
 1243SOL    HW215192   3.203   2.872  15.880  0.5460  1.3554  1.8574
 1244SOL     OW15193   0.584   3.047   3.194 -0.1196 -1.2757  0.0615
 1244SOL    HW115194   0.652   2.985   3.220  2.2180  1.2828  0.0345
 1244SOL    HW215195   0.606   3.078   3.106  0.1668 -3.1408 -0.5343
 1245SOL     OW15196   1.944   2.721   2.344  0.1275 -0.0519 -0.1655
 1245SOL    HW115197   1.949   2.689   2.435 -0.6883  0.1890 -0.0412
 1245SOL    HW215198   1.978   2.810   2.347  0.8373 -0.3982  2.2917
 1246SOL     OW15199   2.039   0.900  15.734  0.4503 -0.5152 -0.4879
 1246SOL    HW115200   2.124   0.928  15.698 -0.4310  1.6555 -0.8965
 1246SOL    HW215201   2.070   0.863  15.816  0.6443 -1.0772 -0.8173
 1247SOL     OW15202   3.312   1.168   6.741 -0.2850 -0.6174  0.4580
 1247SOL    HW115203   3.248   1.097   6.736 -0.3122 -0.3976 -1.9764
 1247SOL    HW215204   3.359   1.146   6.661  0.7888 -0.9241  1.1709
 1248SOL     OW15205   3.306   1.149   8.070 -0.0650 -0.4698  0.3538
 1248SOL    HW115206   3.368   1.150   8.143  1.6625  1.1555 -1.1365
 1248SOL    HW215207   3.247   1.075   8.083 -1.5235  0.5575 -0.4841
 1249SOL     OW15208   3.613   2.796  12.307  0.7615  0.3553 -0.1667
 1249SOL    HW115209   3.679   2.727  12.296  1.2488  0.6532  0.8976
 1249SOL    HW215210   3.540   2.752  12.350 -1.5429  3.7078 -0.6245
 1250SOL     OW15211   0.412   4.314   2.190 -0.8017 -0.1311 -0.0139
 1250SOL    HW115212   0.322   4.338   2.211 -1.5176 -0.6585 -2.5043
 1250SOL    HW215213   0.439   4.367   2.115 -0.0585 -1.2979 -0.5649
 1251SOL     OW15214   1.915   0.435   8.272  0.0852 -0.2063 -0.0115
 1251SOL    HW115215   1.965   0.448   8.353  0.7013 -2.1705 -0.0998
 1251SOL    HW215216   1.955   0.508   8.225 -1.7235  0.9374  0.2172
 1252SOL     OW15217   1.612   0.889   7.298 -0.0311 -0.0731  0.5107
 1252SOL    HW115218   1.698   0.857   7.326  0.3941 -0.4921 -1.2181
 1252SOL    HW215219   1.637   0.898   7.206 -0.3852 -1.5838  0.2725
 1253SOL     OW15220   4.723   1.770   5.065  0.0952  0.4624 -0.5994
 1253SOL    HW115221   4.633   1.770   5.099  1.5874 -0.0766  3.3518
 1253SOL    HW215222   4.717   1.683   5.026  0.6119  0.6430 -1.0904
 1254SOL     OW15223   1.553   2.505  11.874 -0.7660  0.1523 -0.9345
 1254SOL    HW115224   1.461   2.483  11.859 -1.3444  1.6297  0.4754
 1254SOL    HW215225   1.574   2.472  11.961  1.3743 -1.5176 -2.1004
 1255SOL     OW15226   4.646   4.340   9.272  0.0186 -0.0773 -0.2804
 1255SOL    HW115227   4.701   4.263   9.256 -0.1431 -0.2445 -0.0213
 1255SOL    HW215228   4.629   4.317   9.363  1.2621 -1.1385 -0.3083
 1256SOL     OW15229   3.435   3.962   9.394 -0.8527 -0.0260  0.4367
 1256SOL    HW115230   3.461   3.894   9.332 -1.3401  1.7373 -1.7053
 1256SOL    HW215231   3.502   4.025   9.368  0.2505 -2.1777 -1.9532
 1257SOL     OW15232   0.157   0.689   4.975  0.0290 -0.1754  0.1361
 1257SOL    HW115233   0.188   0.744   5.047  1.3597  1.0409 -1.3595
 1257SOL    HW215234   0.193   0.739   4.901  0.3759  0.1921  0.5465
 1258SOL     OW15235   4.108   0.640   8.363  0.6279  0.3612  0.2403
 1258SOL    HW115236   4.123   0.716   8.419 -0.0251  2.0564 -1.9239
 1258SOL    HW215237   4.113   0.686   8.280  0.5853  2.5683  1.4579
 1259SOL     OW15238   2.915   1.945  11.421 -0.1200  0.0730 -0.5126
 1259SOL    HW115239   2.896   2.003  11.347 -0.0294 -1.0276 -1.3906
 1259SOL    HW215240   2.920   1.859  11.380  1.1874 -1.1979  2.2975
 1260SOL     OW15241   4.444   0.427   8.877  0.6597  0.2540 -0.1633
 1260SOL    HW115242   4.509   0.489   8.845 -0.0511 -0.2395 -2.6071
 1260SOL    HW215243   4.490   0.344   8.862  0.1451  0.1033 -0.9739
 1261SOL     OW15244   1.256   0.584   9.871  0.0479 -0.2249  0.2933
 1261SOL    HW115245   1.226   0.508   9.921 -0.1760  0.3629  1.0415
 1261SOL    HW215246   1.291   0.541   9.793  1.5152  1.6297 -0.0882
 1262SOL     OW15247   2.227   3.584   3.020 -0.0042  0.4020  0.3884
 1262SOL    HW115248   2.176   3.617   3.095 -2.0138  1.1926 -1.3348
 1262SOL    HW215249   2.165   3.527   2.974 -0.7534 -0.0171  1.8784
 1263SOL     OW15250   3.451   3.589   6.412  0.8858 -0.1979  0.2725
 1263SOL    HW115251   3.513   3.629   6.350 -1.4152  1.7368 -0.7518
 1263SOL    HW215252   3.384   3.560   6.350  1.6613 -0.5905 -0.3829
 1264SOL     OW15253   2.244   3.123  15.336 -0.0085  0.5469  0.3539
 1264SOL    HW115254   2.239   3.217  15.355  2.4817  1.3024 -2.6198
 1264SOL    HW215255   2.205   3.111  15.249 -2.0089 -0.2592  1.3585
 1265SOL     OW15256   1.488   1.860  11.402  0.0243 -0.2765 -0.7276
 1265SOL    HW115257   1.401   1.860  11.442 -0.3240  0.6006 -1.4898
 1265SOL    HW215258   1.525   1.894  11.484  0.0018 -0.7197 -0.5371
 1266SOL     OW15259   2.716   1.763   8.197  0.3131 -0.2225  0.4018
 1266SOL    HW115260   2.751   1.677   8.219 -2.9701 -1.7756 -0.4792
 1266SOL    HW215261   2.658   1.789   8.269 -0.1613  2.0589 -0.7921
 1267SOL     OW15262   3.615   2.885   1.738 -0.1293 -0.1568 -0.1739
 1267SOL    HW115263   3.665   2.953   1.693  2.7892 -1.7447  0.6319
 1267SOL    HW215264   3.655   2.889   1.825  3.8127 -0.3615 -1.9838
 1268SOL     OW15265   2.572   2.606   6.195 -0.7616 -0.3808  0.1316
 1268SOL    HW115266   2.506   2.537   6.196 -0.8134 -0.2562  3.4414
 1268SOL    HW215267   2.591   2.616   6.288 -1.3040 -0.8489  0.2882
 1269SOL     OW15268   4.312   3.827   7.283  0.6880 -0.3340 -0.0619
 1269SOL    HW115269   4.295   3.762   7.351  0.5316 -0.9786 -0.7170
 1269SOL    HW215270   4.332   3.906   7.333 -1.1648  0.7678 -1.0354
 1270SOL     OW15271   3.093   0.932  10.700 -0.1389 -0.1184  0.6777
 1270SOL    HW115272   3.179   0.892  10.686  0.4407  0.8544  1.4526
 1270SOL    HW215273   3.074   0.961  10.610  1.1875  1.9099  1.0459
 1271SOL     OW15274   1.984   0.547   7.605 -0.0851  0.0196  0.1714
 1271SOL    HW115275   2.013   0.605   7.675  2.5161  1.9801 -2.5364
 1271SOL    HW215276   1.911   0.600   7.573 -0.1247 -0.1101  0.0476
 1272SOL     OW15277   0.462   1.645   5.617  0.7821 -0.0919  0.4656
 1272SOL    HW115278   0.501   1.730   5.596  1.4466 -0.4648  0.1583
 1272SOL    HW215279   0.371   1.665   5.640  1.8983  2.0336  2.9800
 1273SOL     OW15280   1.463   3.408   8.494 -0.1234  0.1598 -0.0122
 1273SOL    HW115281   1.386   3.451   8.531  0.8302  3.0488 -1.3906
 1273SOL    HW215282   1.432   3.324   8.459  1.5660 -1.2028  1.7274
 1274SOL     OW15283   3.427   1.271   5.654  0.0875 -0.3509  0.4427
 1274SOL    HW115284   3.412   1.305   5.566  0.6553 -0.2080  0.4050
 1274SOL    HW215285   3.430   1.358   5.694  2.7228 -0.5540  0.6939
 1275SOL     OW15286   1.160   4.442   4.207  0.1816 -0.0796  0.0089
 1275SOL    HW115287   1.192   4.359   4.171  1.1234 -0.3336  1.4297
 1275SOL    HW215288   1.228   4.462   4.270 -0.1087 -0.7148  0.5271
 1276SOL     OW15289   1.219   4.676   0.746 -0.0547  0.9167 -0.1388
 1276SOL    HW115290   1.138   4.628   0.764  0.2287  0.7523  0.7032
 1276SOL    HW215291   1.278   4.634   0.809 -0.8254  1.2421  0.7994
 1277SOL     OW15292   4.011   0.175   4.999 -0.3108  0.3802  0.3354
 1277SOL    HW115293   3.933   0.228   4.986  0.6037  1.5754 -0.2255
 1277SOL    HW215294   4.028   0.133   4.915  0.2279 -0.8308  1.0387
 1278SOL     OW15295   0.601   4.713   6.640  0.1627 -0.4052  0.6913
 1278SOL    HW115296   0.558   0.054   6.689 -0.2897 -1.0205  1.1604
 1278SOL    HW215297   0.557   4.637   6.678 -1.9261  1.2110  1.4963
 1279SOL     OW15298   2.678   3.176   5.931 -0.5394 -0.3304 -0.2425
 1279SOL    HW115299   2.704   3.250   5.985 -1.3860 -0.6520  0.6159
 1279SOL    HW215300   2.647   3.116   5.998 -2.5468  0.0825 -0.7726
 1280SOL     OW15301   3.442   3.248   4.464  0.0264  0.6322 -0.1131
 1280SOL    HW115302   3.386   3.206   4.398 -0.0962  0.6833 -0.0417
 1280SOL    HW215303   3.389   3.326   4.480  0.1285  0.8044 -0.6335
 1281SOL     OW15304   1.066   2.326   9.489  0.9530 -0.1120  0.2714
 1281SOL    HW115305   1.082   2.331   9.395  0.8953 -4.7478  0.0468
 1281SOL    HW215306   1.041   2.417   9.507 -1.3575 -0.7974  0.5328
 1282SOL     OW15307   0.206   3.652   2.922  0.1339 -0.1323  0.1140
 1282SOL    HW115308   0.300   3.636   2.936  0.3733  0.1675 -1.2149
 1282SOL    HW215309   0.210   3.669   2.828  0.4360  0.2378  0.1929
 1283SOL     OW15310   4.143   2.565  17.295 -0.4845  0.1354  0.0001
 1283SOL    HW115311   4.149   2.505  17.221 -0.1256 -0.5921  0.6100
 1283SOL    HW215312   4.052   2.573  17.323 -0.5221  0.2280 -0.1503
 1284SOL     OW15313   4.507   0.647  13.084  0.0955  0.2578  0.0590
 1284SOL    HW115314   4.580   0.602  13.041  0.3079  1.0452 -0.4090
 1284SOL    HW215315   4.554   0.702  13.147  0.0967  0.3189  0.0056
 1285SOL     OW15316   2.517   0.437   3.896  0.0550 -0.1431  0.0369
 1285SOL    HW115317   2.443   0.495   3.908 -1.0172 -1.4984 -0.0361
 1285SOL    HW215318   2.581   0.477   3.954  0.4759 -0.6546 -0.0671
 1286SOL     OW15319   4.210   1.888   3.371 -0.2712 -0.0916  0.4380
 1286SOL    HW115320   4.274   1.845   3.428  0.4333  1.0362  0.5032
 1286SOL    HW215321   4.196   1.817   3.309 -0.0588  0.1201  0.1488
 1287SOL     OW15322   2.883   1.693   7.155 -0.2307 -0.1319  0.5763
 1287SOL    HW115323   2.915   1.694   7.245  1.2658 -0.2320  0.0377
 1287SOL    HW215324   2.916   1.605   7.134  0.1179 -0.2496  1.6346
 1288SOL     OW15325   4.569   3.495   1.816 -0.2063 -0.2969  0.3862
 1288SOL    HW115326   4.527   3.508   1.901 -0.4703  0.5970  0.1188
 1288SOL    HW215327   4.649   3.450   1.844 -1.2715 -1.5333  1.4047
 1289SOL     OW15328   4.596   2.845  10.544  0.1685 -0.3906 -0.2901
 1289SOL    HW115329   4.655   2.802  10.482  2.3174 -2.2180  3.0118
 1289SOL    HW215330   4.531   2.777  10.562 -1.4009  1.0492 -0.5408
 1290SOL     OW15331   3.056   3.219  13.173 -0.3064 -0.0358  0.0234
 1290SOL    HW115332   3.030   3.291  13.116  0.6001  0.2924  0.0265
 1290SOL    HW215333   3.042   3.262  13.257 -0.1210 -2.0026  1.0774
 1291SOL     OW15334   0.760   1.695   3.347  0.1127 -0.0244 -0.6632
 1291SOL    HW115335   0.834   1.680   3.289  0.1161 -0.2252 -0.6077
 1291SOL    HW215336   0.746   1.788   3.331 -0.5824 -0.2030 -1.0997
 1292SOL     OW15337   3.306   4.344   6.847  0.2547  0.5439  0.7242
 1292SOL    HW115338   3.300   4.436   6.876 -0.2080  0.7429 -0.0189
 1292SOL    HW215339   3.365   4.352   6.772 -0.3374  0.7960  0.2893
 1293SOL     OW15340   2.622   3.571   6.718  0.8005 -0.4368  0.0634
 1293SOL    HW115341   2.643   3.665   6.716 -2.1416  0.2190 -0.3947
 1293SOL    HW215342   2.603   3.564   6.811  2.7940  1.7107  0.6508
 1294SOL     OW15343   0.507   1.402   9.108  0.0966  0.4599  0.0197
 1294SOL    HW115344   0.449   1.352   9.165 -1.1888 -0.9726 -2.5181
 1294SOL    HW215345   0.452   1.476   9.083  2.1973  1.1973 -2.3705
 1295SOL     OW15346   1.924   2.323  10.150  0.7294  0.3355 -0.5918
 1295SOL    HW115347   1.886   2.389  10.092  0.5615  2.3287  1.7850
 1295SOL    HW215348   1.872   2.243  10.143  1.8466 -0.0833 -3.8524
 1296SOL     OW15349   2.266   1.973   1.313  0.2080  0.4487  0.3036
 1296SOL    HW115350   2.207   2.008   1.381 -1.4763 -1.7130 -0.0607
 1296SOL    HW215351   2.210   1.920   1.256 -1.0427 -0.0539  1.9780
 1297SOL     OW15352   1.577   0.616   8.810  0.3748 -0.2810  0.1113
 1297SOL    HW115353   1.573   0.562   8.889 -0.0959 -0.3093  0.0675
 1297SOL    HW215354   1.642   0.562   8.765 -0.3601  0.7999 -2.2493
 1298SOL     OW15355   0.682   0.988   7.309 -0.3100  0.0690 -0.0304
 1298SOL    HW115356   0.752   1.049   7.287  0.2240  0.0109  1.5136
 1298SOL    HW215357   0.713   0.958   7.395  0.6745 -1.0760 -0.8016
 1299SOL     OW15358   3.023   3.593   6.543  0.4183  0.2939 -0.1795
 1299SOL    HW115359   3.028   3.520   6.604  1.3839  1.4296  1.1039
 1299SOL    HW215360   3.116   3.613   6.532  0.0595  2.4270  0.6659
 1300SOL     OW15361   2.758   2.243   5.664  0.3694 -0.0067  0.5182
 1300SOL    HW115362   2.762   2.293   5.583 -0.0391 -2.6538 -1.1677
 1300SOL    HW215363   2.681   2.280   5.708  1.2006  2.3479 -0.0356
 1301SOL     OW15364   3.984   3.843   9.940  0.1689  0.1467  0.2415
 1301SOL    HW115365   4.037   3.898   9.998 -0.6136 -1.1475  2.1973
 1301SOL    HW215366   4.050   3.797   9.889  0.0654  0.7028 -0.3928
 1302SOL     OW15367   2.056   2.478  11.425  0.2204  1.1810 -0.1417
 1302SOL    HW115368   1.982   2.494  11.484  0.2568 -1.2185  0.5303
 1302SOL    HW215369   2.022   2.395  11.392  0.9836 -0.4299  3.1741
 1303SOL     OW15370   0.429   3.565  10.717 -0.2862 -0.3003  0.8477
 1303SOL    HW115371   0.518   3.562  10.683 -0.4918  2.5553  0.1123
 1303SOL    HW215372   0.381   3.499  10.667  0.2952 -1.6638  2.0914
 1304SOL     OW15373   4.665   1.349  17.302  0.5755 -0.0898  0.3352
 1304SOL    HW115374   4.595   1.288  17.278  1.4371 -0.4752 -1.1920
 1304SOL    HW215375   4.607   1.425  17.301 -1.2786 -1.4816  0.0918
 1305SOL     OW15376   2.450   0.425   4.963 -0.4652  0.0558 -0.1645
 1305SOL    HW115377   2.359   0.421   4.993 -0.4378 -1.2473 -0.2366
 1305SOL    HW215378   2.491   0.351   5.008  1.6239  0.8426 -0.7912
 1306SOL     OW15379   2.397   0.480   0.483 -0.0841  0.0026 -0.1373
 1306SOL    HW115380   2.443   0.398   0.500  0.8211  0.7656  1.0533
 1306SOL    HW215381   2.436   0.542   0.545  0.5743 -1.2292  0.6780
 1307SOL     OW15382   2.182   0.940  14.683  0.4775 -0.1875 -0.2713
 1307SOL    HW115383   2.094   0.950  14.647  0.5132 -1.1344 -0.6261
 1307SOL    HW215384   2.173   0.902  14.770 -0.9387 -1.0481 -0.7946
 1308SOL     OW15385   0.558   4.626   2.262  0.5276  0.1835  0.4730
 1308SOL    HW115386   0.605   4.544   2.249 -0.1135 -0.0280 -0.5087
 1308SOL    HW215387   0.631   4.677   2.298  0.0155  2.0392 -1.1341
 1309SOL     OW15388   1.026   2.851   2.110 -0.6904 -0.3024 -0.0523
 1309SOL    HW115389   1.054   2.763   2.135 -1.0073 -0.6368 -0.8738
 1309SOL    HW215390   1.042   2.846   2.016  1.3288  0.7347  0.2491
 1310SOL     OW15391   3.920   3.242  14.079 -0.6513  0.1986  0.2895
 1310SOL    HW115392   4.010   3.266  14.100 -0.9636  1.7123 -0.1104
 1310SOL    HW215393   3.930   3.169  14.018 -1.3021  0.0709  0.3387
 1311SOL     OW15394   0.956   3.392  11.014 -0.1700  0.1866 -0.3506
 1311SOL    HW115395   0.943   3.445  10.936 -1.8427  2.6969  1.6172
 1311SOL    HW215396   0.921   3.306  10.990  2.4869 -0.8300 -0.5977
 1312SOL     OW15397   0.920   0.487   0.493 -0.1092  0.1470  0.4144
 1312SOL    HW115398   0.979   0.411   0.500  0.2278  0.2294 -1.5522
 1312SOL    HW215399   0.976   0.557   0.527 -1.2459  2.9730 -3.6997
 1313SOL     OW15400   3.973   1.048   7.983 -0.1569  0.2291 -0.0356
 1313SOL    HW115401   3.878   1.056   7.992  0.0637  2.3411  0.4207
 1313SOL    HW215402   3.994   0.961   7.948  0.2702 -0.4970  2.0136
 1314SOL     OW15403   1.287   0.495   3.620  0.0746  0.7262  0.2849
 1314SOL    HW115404   1.227   0.532   3.683 -0.3775 -0.6707  0.6706
 1314SOL    HW215405   1.370   0.486   3.668  1.7217  0.9632 -2.4680
 1315SOL     OW15406   3.771   0.529   8.105  0.4327 -0.0202 -0.3127
 1315SOL    HW115407   3.864   0.511   8.095  0.8453  0.8539  1.7631
 1315SOL    HW215408   3.767   0.609   8.052  1.1012 -0.5114 -1.0866
 1316SOL     OW15409   2.558   2.059   5.501 -0.0874  0.1970 -0.5501
 1316SOL    HW115410   2.490   2.117   5.468  2.0123  0.8245 -3.7236
 1316SOL    HW215411   2.559   2.079   5.595 -1.6453  1.4435 -0.7910
 1317SOL     OW15412   0.863   1.105   9.577 -0.1270  0.4033 -0.0136
 1317SOL    HW115413   0.904   1.162   9.643  1.3138 -0.9494  0.2675
 1317SOL    HW215414   0.940   1.059   9.543 -0.2617 -0.3140  0.6514
 1318SOL     OW15415   3.604   0.205   6.292  0.2351  0.0613  0.4547
 1318SOL    HW115416   3.599   0.183   6.385  1.8612 -0.6603  0.3805
 1318SOL    HW215417   3.566   0.128   6.249  0.9237  0.3463 -0.6649
 1319SOL     OW15418   3.517   0.184   8.106  0.2983 -0.2368  0.1834
 1319SOL    HW115419   3.484   0.227   8.027  0.6372 -1.7849 -0.7997
 1319SOL    HW215420   3.604   0.220   8.119  0.1897  0.3564 -0.7173
 1320SOL     OW15421   1.357   3.291   3.154  0.0568 -0.2210 -0.6603
 1320SOL    HW115422   1.301   3.226   3.198 -0.2985  0.2674 -0.3807
 1320SOL    HW215423   1.395   3.349   3.221 -2.2459  3.2872 -2.3468
 1321SOL     OW15424   2.399   1.045   1.949  0.7268  0.3394 -0.3710
 1321SOL    HW115425   2.396   0.957   1.909 -2.0186  0.1022  0.3524
 1321SOL    HW215426   2.394   1.035   2.044 -1.8746 -1.6284 -0.7191
 1322SOL     OW15427   2.606   4.338   8.232 -0.1612  0.0101  0.7244
 1322SOL    HW115428   2.545   4.269   8.205  0.6496 -0.8282  1.0221
 1322SOL    HW215429   2.691   4.295   8.243 -0.4701 -0.9138 -0.5014
 1323SOL     OW15430   3.897   1.887   0.158  0.2814 -0.0382 -0.3786
 1323SOL    HW115431   3.886   1.949   0.086  1.3613 -0.9444 -1.3166
 1323SOL    HW215432   3.969   1.925   0.210 -0.8087  2.1398 -0.4612
 1324SOL     OW15433   2.273   2.566  15.967  0.3633 -0.2545 -0.2844
 1324SOL    HW115434   2.267   2.478  15.931  2.5605 -0.4547 -0.1548
 1324SOL    HW215435   2.283   2.540  16.059 -4.0102  1.2981  0.6136
 1325SOL     OW15436   4.068   4.235   9.554  0.5255 -0.0889 -0.1995
 1325SOL    HW115437   3.989   4.250   9.501  0.4470 -2.9885 -0.9187
 1325SOL    HW215438   4.122   4.305   9.517  0.4367  0.3714  0.5375
 1326SOL     OW15439   1.670   0.845   5.894 -0.2421  0.1218  0.0098
 1326SOL    HW115440   1.581   0.878   5.879 -0.6791 -0.3383  1.5563
 1326SOL    HW215441   1.678   0.766   5.841  0.4646  1.7121 -2.2423
 1327SOL     OW15442   2.775   4.103  14.256  0.2434 -1.0312  0.3113
 1327SOL    HW115443   2.843   4.075  14.317 -0.1423 -0.0892  1.1714
 1327SOL    HW215444   2.701   4.113  14.315  0.5073  2.7697  0.0124
 1328SOL     OW15445   4.588   0.636   3.034  0.2724 -0.2665  0.0506
 1328SOL    HW115446   4.663   0.695   3.044  1.7737 -2.1272 -0.4700
 1328SOL    HW215447   4.637   0.555   3.031  2.4202  1.0670 -0.8688
 1329SOL     OW15448   0.771   0.592   6.765  0.0501 -0.1726 -0.0088
 1329SOL    HW115449   0.752   0.519   6.706  0.7495 -0.2284 -0.1746
 1329SOL    HW215450   0.713   0.563   6.835 -2.7089 -2.8385 -3.4409
 1330SOL     OW15451   2.680   4.511   5.430 -0.4530  0.1002 -0.0663
 1330SOL    HW115452   2.598   4.543   5.467 -0.3381  0.0963  0.1871
 1330SOL    HW215453   2.671   4.545   5.341 -1.4066 -1.9627 -0.7576
 1331SOL     OW15454   4.162   3.162  13.842  0.0284 -0.1186 -0.2986
 1331SOL    HW115455   4.197   3.251  13.854  1.5393 -1.1356  2.7626
 1331SOL    HW215456   4.248   3.130  13.813  1.1021 -0.2186  2.9605
 1332SOL     OW15457   1.249   4.457  15.686 -0.0249  0.3947  0.4622
 1332SOL    HW115458   1.188   4.383  15.684 -0.4850  0.8055 -0.3671
 1332SOL    HW215459   1.205   4.519  15.744  0.2098  0.4050  0.6321
 1333SOL     OW15460   1.836   2.444   4.059  0.2191 -0.2323 -0.1825
 1333SOL    HW115461   1.915   2.391   4.053  1.0973  1.3693 -2.9039
 1333SOL    HW215462   1.824   2.451   4.153  0.5289  1.2685 -0.2602
 1334SOL     OW15463   1.761   2.185  14.476 -0.0870  0.0910  0.0664
 1334SOL    HW115464   1.714   2.229  14.548 -0.9484 -1.6210  0.5461
 1334SOL    HW215465   1.847   2.226  14.486 -0.4124  0.3299  2.0470
 1335SOL     OW15466   3.515   0.709   2.680  0.1054  0.0011  0.4686
 1335SOL    HW115467   3.465   0.763   2.619 -0.7649  0.0745  1.2420
 1335SOL    HW215468   3.603   0.733   2.650  0.3951 -1.5308  0.0811
 1336SOL     OW15469   2.154   0.112   8.077  0.5115  0.2834 -0.7397
 1336SOL    HW115470   2.203   0.091   8.156  3.1900  0.2042 -2.4259
 1336SOL    HW215471   2.062   0.091   8.092  0.4856  1.8767  1.2249
 1337SOL     OW15472   0.987   3.858   5.264 -0.9468 -0.0015 -0.3422
 1337SOL    HW115473   0.896   3.881   5.281  0.1435  2.5704  2.1369
 1337SOL    HW215474   1.014   3.878   5.354 -3.3382  0.2586  0.3089
 1338SOL     OW15475   1.804   3.355   0.782  0.3068  0.4407 -0.4303
 1338SOL    HW115476   1.871   3.412   0.744 -0.1877 -1.4288 -4.1544
 1338SOL    HW215477   1.762   3.405   0.851  0.2740  0.5693 -0.5428
 1339SOL     OW15478   1.090   0.911   0.728 -0.2226  0.9570  0.3981
 1339SOL    HW115479   1.108   0.940   0.817 -1.3316 -1.4081  1.3889
 1339SOL    HW215480   0.995   0.899   0.728 -0.1868  0.6579 -2.5135
 1340SOL     OW15481   2.178   2.227  13.712 -0.2104 -0.0703 -0.1936
 1340SOL    HW115482   2.196   2.189  13.627  0.7940  1.3150 -0.6081
 1340SOL    HW215483   2.114   2.293  13.686  0.2765  0.7348  0.6148
 1341SOL     OW15484   4.682   4.724   8.575  0.2937 -0.2104  0.2907
 1341SOL    HW115485   0.005   4.655   8.616 -1.2216 -2.3135 -1.3385
 1341SOL    HW215486   4.709   0.065   8.636  0.9408 -1.1844  1.1265
 1342SOL     OW15487   0.162   3.414   9.855  0.0970 -0.4002  0.1218
 1342SOL    HW115488   0.256   3.404   9.868  0.1083  0.4021  0.6689
 1342SOL    HW215489   0.136   3.403   9.946 -1.5396 -0.0904 -0.3126
 1343SOL     OW15490   4.020   4.665   8.574 -0.2685  0.3748  0.0141
 1343SOL    HW115491   4.047   0.023   8.542 -1.7845  1.2463  1.0767
 1343SOL    HW215492   3.926   4.682   8.581 -0.5305 -1.6656  1.3995
 1344SOL     OW15493   0.338   3.097   8.635 -0.1191 -0.1316 -0.0186
 1344SOL    HW115494   0.430   3.070   8.639  0.1295  0.8382  0.6408
 1344SOL    HW215495   0.345   3.191   8.618 -0.0875 -0.3494 -1.2064
 1345SOL     OW15496   2.662   0.101   4.521  0.5433 -0.4238  0.4657
 1345SOL    HW115497   2.647   0.086   4.614  0.3714 -0.2619  0.4640
 1345SOL    HW215498   2.755   0.127   4.527  0.0116  1.7348 -0.5526
 1346SOL     OW15499   4.702   3.605   4.618  0.0909 -0.4745 -0.6339
 1346SOL    HW115500   0.054   3.609   4.670 -0.4619  1.6323  0.0454
 1346SOL    HW215501   0.019   3.604   4.534 -0.9520  2.3655 -1.2263
 1347SOL     OW15502   1.680   3.363  12.552  0.1294  0.3219 -0.1182
 1347SOL    HW115503   1.726   3.294  12.599  0.2366 -0.3427 -1.1931
 1347SOL    HW215504   1.601   3.319  12.519 -0.2175  0.8250  0.0344
 1348SOL     OW15505   3.114   0.009   9.266 -0.0354 -0.1092  0.1816
 1348SOL    HW115506   3.073   4.676   9.206  1.8052  0.6995 -1.9322
 1348SOL    HW215507   3.162   0.056   9.197  0.8634  0.0893  0.9405
 1349SOL     OW15508   0.558   0.614   2.740  0.3208 -0.1760 -1.1456
 1349SOL    HW115509   0.603   0.569   2.811 -1.7248 -0.2953  0.0587
 1349SOL    HW215510   0.491   0.662   2.787  2.2513  0.3095  1.0986
 1350SOL     OW15511   1.601   0.842  15.258  0.0795  0.1659  0.1999
 1350SOL    HW115512   1.622   0.839  15.165  0.5528 -1.5598  0.3614
 1350SOL    HW215513   1.629   0.752  15.276 -2.2974 -0.4550  0.8710
 1351SOL     OW15514   2.125   1.294   4.824  0.0478 -0.1888  0.0205
 1351SOL    HW115515   2.071   1.292   4.904 -0.4205 -0.4998 -0.2982
 1351SOL    HW215516   2.102   1.216   4.773  0.3013 -0.5024  0.3815
 1352SOL     OW15517   0.912   3.784  10.818  0.5476 -0.6399 -0.6548
 1352SOL    HW115518   0.977   3.855  10.816  0.5708 -0.7022 -1.8201
 1352SOL    HW215519   0.870   3.802  10.902  2.2326 -1.2872  0.3366
 1353SOL     OW15520   1.731   1.597  16.984  0.0542 -0.3234  0.7139
 1353SOL    HW115521   1.713   1.538  17.056 -1.1957  1.0779  1.5527
 1353SOL    HW215522   1.662   1.572  16.923 -1.8572 -2.3012  3.7088
 1354SOL     OW15523   2.235   2.665   4.491 -0.1554  0.1435  0.3583
 1354SOL    HW115524   2.259   2.676   4.583  2.5056  0.3121 -0.3462
 1354SOL    HW215525   2.317   2.675   4.443  0.2251 -1.9369  0.5714
 1355SOL     OW15526   1.190   2.773   3.005 -0.4694 -0.3439 -0.1693
 1355SOL    HW115527   1.200   2.857   2.959 -2.0786  0.3478  0.7774
 1355SOL    HW215528   1.099   2.756   2.981 -0.6021  0.5879 -0.3577
 1356SOL     OW15529   1.451   1.155   2.092  0.7474  0.3182  0.5751
 1356SOL    HW115530   1.435   1.084   2.030 -1.4324  0.1643  1.2986
 1356SOL    HW215531   1.443   1.099   2.170  0.1272  0.0728  0.3295
 1357SOL     OW15532   2.258   2.861   7.291  0.0164  0.0758  0.3284
 1357SOL    HW115533   2.243   2.806   7.214  2.5173  0.4115 -0.4058
 1357SOL    HW215534   2.248   2.795   7.359  1.6697  1.9003  2.3086
 1358SOL     OW15535   2.118   3.474  15.710 -0.0818  0.2661  0.1595
 1358SOL    HW115536   2.083   3.563  15.717 -1.6162 -0.3417  0.3602
 1358SOL    HW215537   2.208   3.503  15.698  1.0829 -2.7187  1.6097
 1359SOL     OW15538   4.383   1.669   5.478  0.2876 -0.3138 -0.0195
 1359SOL    HW115539   4.360   1.749   5.526  1.2278  1.4349 -2.4649
 1359SOL    HW215540   4.302   1.618   5.482 -0.2039  0.3838 -0.9552
 1360SOL     OW15541   2.390   1.826   6.489  0.1257  0.7509 -0.9122
 1360SOL    HW115542   2.322   1.811   6.423 -2.3761  2.7897  1.1743
 1360SOL    HW215543   2.329   1.874   6.546  0.7026  1.3930 -0.8444
 1361SOL     OW15544   0.666   0.397   9.919  0.5094 -0.8392 -0.4693
 1361SOL    HW115545   0.604   0.326   9.900  2.0299 -2.4312  0.5971
 1361SOL    HW215546   0.616   0.447   9.983 -1.0982  0.2649 -2.5881
 1362SOL     OW15547   4.485   2.999   1.591  0.2234  0.5389 -0.0303
 1362SOL    HW115548   4.497   3.083   1.635 -0.9736  1.2474 -1.0668
 1362SOL    HW215549   4.390   3.009   1.580  0.1151 -0.2963  0.1324
 1363SOL     OW15550   3.715   1.394   6.875 -0.5544  0.0875  0.3707
 1363SOL    HW115551   3.633   1.349   6.900  0.4568 -2.0483 -0.1382
 1363SOL    HW215552   3.730   1.352   6.790 -0.2660 -0.1443  0.5392
 1364SOL     OW15553   2.604   4.163   8.690  0.1363 -0.0636  0.5544
 1364SOL    HW115554   2.576   4.231   8.751  0.7304  0.5140  0.1832
 1364SOL    HW215555   2.553   4.089   8.723 -0.1093 -1.5087 -3.0758
 1365SOL     OW15556   3.390   4.179   8.991  0.5640  0.2493 -0.2446
 1365SOL    HW115557   3.455   4.110   8.977  0.6833  0.4561 -0.7038
 1365SOL    HW215558   3.383   4.203   8.899  1.2161  0.6562 -0.1858
 1366SOL     OW15559   2.278   4.014   7.755 -0.2086 -0.0213 -0.3191
 1366SOL    HW115560   2.233   3.943   7.801  0.2981  0.1628  0.4670
 1366SOL    HW215561   2.340   3.970   7.696  0.1483  2.1717 -1.5780
 1367SOL     OW15562   0.661   0.603   3.008  0.2318  0.4448 -0.0740
 1367SOL    HW115563   0.721   0.650   3.066 -0.6235 -1.9428  2.7262
 1367SOL    HW215564   0.642   0.525   3.059 -0.9981  0.4508 -0.5159
 1368SOL     OW15565   0.045   4.557   7.699  0.5181  0.2283 -0.3575
 1368SOL    HW115566   0.093   4.636   7.721  2.0368 -0.5306 -0.9362
 1368SOL    HW215567   4.723   4.594   7.627 -1.1374 -0.6381  0.3436
 1369SOL     OW15568   1.740   3.483   1.894 -0.2700 -0.1703  0.2418
 1369SOL    HW115569   1.709   3.400   1.858  0.4703 -0.4572  0.2568
 1369SOL    HW215570   1.799   3.528   1.833 -0.5962  1.5865  1.2245
 1370SOL     OW15571   4.534   4.654  17.077 -0.4175 -0.3440  0.1039
 1370SOL    HW115572   4.537   4.567  17.117  0.0904 -0.8186 -0.9580
 1370SOL    HW215573   4.488   4.634  16.995  0.5527 -1.8512 -0.0896
 1371SOL     OW15574   1.963   3.944   7.076 -0.4275  0.3234  0.4151
 1371SOL    HW115575   1.919   4.016   7.031  1.2176  1.3217  0.4114
 1371SOL    HW215576   2.031   3.918   7.014  0.8869 -1.7378  2.7185
 1372SOL     OW15577   3.225   0.058   2.821 -0.3819 -0.4735  0.1833
 1372SOL    HW115578   3.283   0.122   2.864 -1.6425  0.1955  0.8932
 1372SOL    HW215579   3.169   0.016   2.886 -0.1531  2.2119  2.1139
 1373SOL     OW15580   1.818   1.315   2.535  0.0953  0.3522  0.0078
 1373SOL    HW115581   1.783   1.404   2.548 -2.4430 -0.4733 -1.1817
 1373SOL    HW215582   1.773   1.292   2.454 -0.6781 -1.7856  1.0499
 1374SOL     OW15583   2.286   0.849   7.584 -0.0027 -0.1795 -0.3463
 1374SOL    HW115584   2.218   0.915   7.599 -0.7369 -0.4688 -2.4012
 1374SOL    HW215585   2.253   0.779   7.639 -1.5098  1.3372  0.6639
 1375SOL     OW15586   4.264   3.624   4.118  0.4144 -0.1280 -0.1421
 1375SOL    HW115587   4.208   3.601   4.191 -0.4312  0.4150 -0.6213
 1375SOL    HW215588   4.253   3.547   4.061 -0.5320  0.2026 -0.3996
 1376SOL     OW15589   2.045   3.545   0.019  0.0556 -0.6665 -0.9483
 1376SOL    HW115590   2.105   3.601  17.685 -0.9103  1.1083 -0.0979
 1376SOL    HW215591   2.015   3.608   0.085 -1.1018 -2.3439  0.1356
 1377SOL     OW15592   1.758   2.781  17.557  0.1184 -0.1205 -0.2020
 1377SOL    HW115593   1.785   2.798  17.466  2.6868 -0.3739  0.5020
 1377SOL    HW215594   1.817   2.846  17.596  0.1521  0.9817 -2.0572
 1378SOL     OW15595   2.942   3.004   4.017  0.4469  0.0512  0.4132
 1378SOL    HW115596   2.858   3.046   4.000  0.7959  0.7184  0.3477
 1378SOL    HW215597   2.989   3.001   3.934  1.8163  3.0271  1.0852
 1379SOL     OW15598   0.038   0.264   6.388 -0.0465  0.0625  0.2617
 1379SOL    HW115599   0.063   0.223   6.305  0.8382  0.6305  0.2473
 1379SOL    HW215600   0.122   0.253   6.432  0.5071  1.5159 -0.4346
 1380SOL     OW15601   0.235   1.225   2.844  0.2674  0.2341  0.4863
 1380SOL    HW115602   0.188   1.298   2.803 -1.0718 -0.3790  0.9545
 1380SOL    HW215603   0.238   1.248   2.936 -1.2504 -1.0821  0.8724
 1381SOL     OW15604   3.275   0.858  14.506 -0.0996  0.4534 -0.1877
 1381SOL    HW115605   3.236   0.877  14.591  2.2069 -1.7338  1.3347
 1381SOL    HW215606   3.345   0.795  14.523 -0.6047  0.4241  1.7513
 1382SOL     OW15607   0.812   0.604   2.257 -0.0284  0.2741 -0.8556
 1382SOL    HW115608   0.846   0.678   2.207  0.2382  1.4327  1.0297
 1382SOL    HW215609   0.764   0.568   2.182 -1.8188 -1.5724  1.1886
 1383SOL     OW15610   3.147   1.620   4.760  0.0020  0.4672  0.6052
 1383SOL    HW115611   3.071   1.671   4.787  0.8776  0.8773  2.3163
 1383SOL    HW215612   3.166   1.665   4.678  2.4840  0.7270  1.3164
 1384SOL     OW15613   2.032   1.844  13.317  0.4907  0.1398 -0.5013
 1384SOL    HW115614   2.029   1.786  13.240  1.7394 -1.3714  0.5865
 1384SOL    HW215615   2.120   1.835  13.354  0.7600  0.0799 -1.1613
 1385SOL     OW15616   2.475   0.996  16.257  0.3698  0.2958 -0.3219
 1385SOL    HW115617   2.451   0.984  16.165  1.7119  2.7023 -1.0034
 1385SOL    HW215618   2.456   1.088  16.274  0.8733  0.4824 -0.7838
 1386SOL     OW15619   2.157   3.756  16.088  0.4167  0.0810 -0.2872
 1386SOL    HW115620   2.073   3.774  16.045  1.4627  0.2814 -2.2666
 1386SOL    HW215621   2.221   3.807  16.039 -0.2832 -0.3120 -1.6252
 1387SOL     OW15622   2.916   2.213  17.623 -0.4284  0.4607 -0.2405
 1387SOL    HW115623   2.936   2.203  17.530  3.8185 -1.3097  0.8464
 1387SOL    HW215624   2.865   2.293  17.638  1.2078  1.0780  2.1413
 1388SOL     OW15625   3.458   2.745   6.471  0.1022  0.4158  0.2579
 1388SOL    HW115626   3.495   2.656   6.467  1.2816  0.9081  0.3777
 1388SOL    HW215627   3.512   2.798   6.413 -0.8157  1.4734  0.3655
 1389SOL     OW15628   0.783   2.693   7.653  0.5200  0.3553  0.0233
 1389SOL    HW115629   0.803   2.610   7.610  1.7891  1.0044 -0.6405
 1389SOL    HW215630   0.828   2.686   7.737  3.3923 -0.7391 -1.6001
 1390SOL     OW15631   3.826   3.194   4.658  0.1140 -0.3811  0.2366
 1390SOL    HW115632   3.788   3.251   4.724 -0.6796 -0.2277 -0.3651
 1390SOL    HW215633   3.856   3.120   4.711  0.2391 -0.0542  0.6220
 1391SOL     OW15634   1.784   4.231  17.666 -0.7853  0.1894  0.5726
 1391SOL    HW115635   1.798   4.232  17.572  0.4214  1.7738  0.7664
 1391SOL    HW215636   1.863   4.185  17.695 -0.8683 -2.0150 -2.7187
 1392SOL     OW15637   0.226   4.380   1.877  0.4431 -0.3539 -0.6117
 1392SOL    HW115638   0.289   4.445   1.848 -0.2450  1.5532  2.2593
 1392SOL    HW215639   0.166   4.376   1.802 -1.2421 -0.4860  0.7444
 1393SOL     OW15640   4.021   0.145   8.016  0.0890  0.4142  0.3863
 1393SOL    HW115641   4.110   0.180   8.024 -0.2010  0.8408  1.7539
 1393SOL    HW215642   3.992   0.153   8.106  0.4238  2.4887  0.3199
 1394SOL     OW15643   2.134   0.521   0.558  0.2707  0.2969 -0.3578
 1394SOL    HW115644   2.212   0.509   0.504  0.9882  0.8988  0.5443
 1394SOL    HW215645   2.078   0.466   0.505 -1.5889  2.1049 -0.2449
 1395SOL     OW15646   0.852   2.350   9.808  0.7237  0.2131  0.1434
 1395SOL    HW115647   0.830   2.274   9.861  0.1379 -1.0020 -1.8450
 1395SOL    HW215648   0.842   2.418   9.875 -3.3872 -1.8987  1.7029
 1396SOL     OW15649   3.892   1.800  17.119  0.4453  0.1307  0.1898
 1396SOL    HW115650   3.825   1.813  17.051  1.6811 -1.0107 -1.2591
 1396SOL    HW215651   3.924   1.889  17.135  2.5620 -0.4674 -0.7937
 1397SOL     OW15652   1.824   3.286   8.340 -0.1636  0.1331 -0.4068
 1397SOL    HW115653   1.911   3.277   8.299 -0.3566  3.4438 -1.5189
 1397SOL    HW215654   1.831   3.361   8.399  1.8973 -0.7677  0.5043
 1398SOL     OW15655   0.046   4.210   1.164 -0.3721 -0.0608 -0.0809
 1398SOL    HW115656   0.136   4.223   1.194 -0.1103 -1.7608 -0.1027
 1398SOL    HW215657   0.026   4.287   1.111 -0.0355 -0.6624 -1.0826
 1399SOL     OW15658   3.923   4.701  15.453 -0.5336  0.1785 -0.4884
 1399SOL    HW115659   3.885   4.653  15.379  1.2778 -0.2095 -1.1723
 1399SOL    HW215660   3.927   0.061  15.416  1.8843 -0.4413 -1.7257
 1400SOL     OW15661   0.718   0.371   3.837  0.2142 -0.1550 -0.2138
 1400SOL    HW115662   0.789   0.428   3.865 -0.4829  1.0647 -0.9605
 1400SOL    HW215663   0.656   0.428   3.791 -0.3690  0.7443  1.6822
 1401SOL     OW15664   0.928   0.604  11.763  0.6485 -0.8638 -0.4045
 1401SOL    HW115665   0.980   0.652  11.827 -0.7662  0.8664 -0.5496
 1401SOL    HW215666   0.976   0.618  11.682 -1.1413 -0.9070 -1.4810
 1402SOL     OW15667   3.789   3.173   6.770 -0.2601 -0.2529 -0.0905
 1402SOL    HW115668   3.858   3.109   6.749 -1.9533 -2.1571  0.1630
 1402SOL    HW215669   3.835   3.254   6.790  0.3293 -0.6294  0.1012
 1403SOL     OW15670   1.080   2.933   8.075 -0.3281 -0.1983  0.3825
 1403SOL    HW115671   1.174   2.939   8.095 -0.5205  2.2111  0.6543
 1403SOL    HW215672   1.075   2.982   7.993 -2.7612 -3.6486 -1.4569
 1404SOL     OW15673   0.667   0.305  16.723 -0.4066 -0.4182  0.3303
 1404SOL    HW115674   0.627   0.389  16.703 -0.5928 -0.5359  0.2161
 1404SOL    HW215675   0.601   0.248  16.683 -0.7647  0.7741 -0.7501
 1405SOL     OW15676   1.243   0.556   6.176  0.4096 -0.5617 -0.2205
 1405SOL    HW115677   1.280   0.637   6.212 -2.8050  2.2504 -3.1786
 1405SOL    HW215678   1.227   0.505   6.256  0.7978 -0.7833 -0.2858
 1406SOL     OW15679   3.026   3.772   6.007  0.6138 -0.0364 -0.2468
 1406SOL    HW115680   3.107   3.766   6.057 -0.1207  1.1823  1.0949
 1406SOL    HW215681   3.052   3.821   5.930 -1.2300 -1.2104 -1.6172
 1407SOL     OW15682   1.030   2.768   6.712 -0.1144 -0.0694 -0.0970
 1407SOL    HW115683   0.945   2.728   6.692 -0.6134  0.9815 -0.0814
 1407SOL    HW215684   1.016   2.793   6.804 -0.0090 -0.8279  0.1251
 1408SOL     OW15685   4.081   4.102   3.407 -0.0223 -0.5619 -1.0276
 1408SOL    HW115686   4.083   4.057   3.323  2.8720 -0.4180 -1.0437
 1408SOL    HW215687   4.118   4.185   3.377  1.3649 -0.5630  0.6523
 1409SOL     OW15688   1.436   3.009   4.803  0.1522  0.2059 -0.0849
 1409SOL    HW115689   1.447   2.919   4.833  2.0712  0.5192  0.1434
 1409SOL    HW215690   1.511   3.048   4.848 -0.2391  1.0049 -0.1182
 1410SOL     OW15691   1.468   4.384  15.809 -0.2226  0.0020 -0.4891
 1410SOL    HW115692   1.394   4.393  15.750 -2.3452 -3.5691  1.6679
 1410SOL    HW215693   1.431   4.379  15.897 -0.6865 -0.9384 -0.7477
 1411SOL     OW15694   1.619   1.795   2.196 -0.2494  0.7239  0.7054
 1411SOL    HW115695   1.570   1.820   2.118  0.6088  0.3403  0.0588
 1411SOL    HW215696   1.625   1.879   2.243  0.7910  0.4434  1.0509
 1412SOL     OW15697   0.208   0.755   0.691 -0.0698  0.4161  0.5186
 1412SOL    HW115698   0.161   0.835   0.715  0.1073  0.4718  0.6736
 1412SOL    HW215699   0.245   0.734   0.776 -2.0195  0.0985  1.2811
 1413SOL     OW15700   1.612   3.840   6.180 -0.3994  0.3014  0.4058
 1413SOL    HW115701   1.532   3.880   6.147  0.8919  2.4733 -0.1270
 1413SOL    HW215702   1.658   3.921   6.204  0.0173 -0.0120  0.6744
 1414SOL     OW15703   3.140   0.696   4.826  0.4072  0.3027 -0.0271
 1414SOL    HW115704   3.141   0.693   4.921  1.1829 -0.0059 -0.0435
 1414SOL    HW215705   3.052   0.672   4.797  0.0720  2.9660 -1.2436
 1415SOL     OW15706   3.228   2.493   6.897  0.0199  0.3320 -0.0366
 1415SOL    HW115707   3.263   2.488   6.808 -2.0432 -0.5837 -0.7936
 1415SOL    HW215708   3.136   2.467   6.891  0.2386 -0.5718  0.6250
 1416SOL     OW15709   1.018   0.011   5.611  0.2826  0.2074  0.3158
 1416SOL    HW115710   0.954   0.003   5.539  0.4909  1.6758 -0.0394
 1416SOL    HW215711   1.089   0.059   5.568  0.7447 -0.4281  0.3710
 1417SOL     OW15712   1.161   0.880   8.499  0.5713 -0.8834 -0.0895
 1417SOL    HW115713   1.130   0.796   8.532  2.7761 -1.0016  1.7278
 1417SOL    HW215714   1.208   0.917   8.574  0.4828  0.3072 -0.6232
 1418SOL     OW15715   0.445   3.486   9.323  0.0190 -0.0862 -0.4352
 1418SOL    HW115716   0.454   3.398   9.288 -1.9683 -0.1926 -0.6505
 1418SOL    HW215717   0.373   3.478   9.385 -0.6360 -0.3369 -1.2311
 1419SOL     OW15718   2.193   4.188   0.112 -0.1388  0.0842  0.3633
 1419SOL    HW115719   2.239   4.254   0.164 -0.4785  0.0267  0.7394
 1419SOL    HW215720   2.261   4.121   0.106  0.6212  0.8813  0.0515
 1420SOL     OW15721   1.616   4.386  16.790  0.0260  0.0030 -0.0140
 1420SOL    HW115722   1.535   4.392  16.841  0.4681  0.3702  0.6431
 1420SOL    HW215723   1.677   4.371  16.862  2.1819  0.1557 -1.8010
 1421SOL     OW15724   4.544   0.926  11.058 -0.5893 -0.0081  0.2818
 1421SOL    HW115725   4.532   0.916  10.963 -3.3534 -1.9465  0.8217
 1421SOL    HW215726   4.535   1.020  11.071  0.0876  0.2303 -0.9330
 1422SOL     OW15727   4.530   1.465   3.759 -0.5620 -0.1065  0.1456
 1422SOL    HW115728   4.485   1.502   3.835 -1.7163 -1.3228  0.0651
 1422SOL    HW215729   4.491   1.379   3.743 -0.5465 -0.7666  3.6475
 1423SOL     OW15730   0.916   1.954  15.264  0.2062  0.0767  0.1291
 1423SOL    HW115731   0.990   1.997  15.221 -1.2255  1.4396 -0.9848
 1423SOL    HW215732   0.917   2.006  15.345  0.0433  1.3724 -0.6894
 1424SOL     OW15733   3.485   2.718   8.180 -0.0319 -0.2905 -0.1512
 1424SOL    HW115734   3.400   2.761   8.179 -0.7476 -1.6973  1.2564
 1424SOL    HW215735   3.503   2.703   8.273 -0.4600  2.4139  0.3574
 1425SOL     OW15736   2.021   3.241   1.171 -0.2956  0.3682  0.2136
 1425SOL    HW115737   2.003   3.333   1.153 -1.2166 -0.2651 -2.0081
 1425SOL    HW215738   2.052   3.201   1.090  1.0650  1.1322  0.3550
 1426SOL     OW15739   1.279   2.769   8.474  0.5063  0.0333 -0.1424
 1426SOL    HW115740   1.317   2.843   8.427 -1.1682 -0.2562 -1.9518
 1426SOL    HW215741   1.262   2.810   8.559  0.4107  0.5020 -0.3895
 1427SOL     OW15742   1.258   2.209   1.484 -0.0325 -0.1716  0.4872
 1427SOL    HW115743   1.171   2.226   1.448 -0.4610  1.1194  2.1146
 1427SOL    HW215744   1.235   2.199   1.576  0.9613 -0.7956  0.6787
 1428SOL     OW15745   3.633   2.687   4.891 -0.1052 -0.3359 -0.3438
 1428SOL    HW115746   3.624   2.757   4.826  1.1270 -0.3803 -0.5603
 1428SOL    HW215747   3.653   2.611   4.836 -0.1167 -0.3876 -0.2763
 1429SOL     OW15748   2.740   1.500   7.349 -1.0168  0.1339 -0.1206
 1429SOL    HW115749   2.691   1.465   7.275 -1.7622  0.8454  0.0412
 1429SOL    HW215750   2.813   1.437   7.349 -1.3443 -0.2542  0.7769
 1430SOL     OW15751   4.527   2.916   8.234 -0.2095  0.3817  0.4178
 1430SOL    HW115752   4.608   2.956   8.203 -0.4512  0.8926  0.4447
 1430SOL    HW215753   4.564   2.836   8.270  2.7860  1.2803 -0.6528
 1431SOL     OW15754   0.046   3.727   1.181  0.0457 -0.1128 -0.0721
 1431SOL    HW115755   0.102   3.692   1.250 -0.1779 -0.7500 -0.2040
 1431SOL    HW215756   0.102   3.705   1.107 -2.2823  0.0640 -1.8900
 1432SOL     OW15757   4.632   3.314   6.743 -0.7283 -0.2771 -0.1492
 1432SOL    HW115758   4.573   3.327   6.817 -0.9862  1.0847 -0.6078
 1432SOL    HW215759   4.707   3.271   6.783 -0.2420 -0.9744 -1.7901
 1433SOL     OW15760   4.341   3.521   4.889  0.2842 -0.3371 -0.1895
 1433SOL    HW115761   4.247   3.504   4.877  0.0520  0.7629  0.0370
 1433SOL    HW215762   4.374   3.504   4.801  1.7140  0.5818  0.1641
 1434SOL     OW15763   0.997   4.513   7.572 -0.0422 -0.0324  0.2424
 1434SOL    HW115764   0.937   4.448   7.608  1.5384 -1.2339  0.7252
 1434SOL    HW215765   1.086   4.498   7.603  0.0102  1.6252  0.8642
 1435SOL     OW15766   4.593   4.120   8.604 -0.2898 -0.6048 -0.2549
 1435SOL    HW115767   4.539   4.085   8.533 -0.9474  0.0444 -0.0782
 1435SOL    HW215768   4.535   4.190   8.634  1.1532  0.4980 -0.0531
 1436SOL     OW15769   1.253   2.819   4.143  0.3911 -0.6295 -0.0527
 1436SOL    HW115770   1.268   2.892   4.083 -0.6997  0.7728  1.4021
 1436SOL    HW215771   1.323   2.841   4.204  0.3738  0.4976 -0.4323
 1437SOL     OW15772   4.114   0.211   9.854 -0.2181  0.0840 -0.2120
 1437SOL    HW115773   4.112   0.200   9.759  0.7535  0.3205 -0.2623
 1437SOL    HW215774   4.191   0.269   9.851 -1.0232  1.2699  2.1088
 1438SOL     OW15775   2.764   2.737   6.049  0.1600  0.2745  0.3538
 1438SOL    HW115776   2.780   2.672   5.981  0.8465  0.3981  0.4011
 1438SOL    HW215777   2.691   2.698   6.098  0.2669 -0.8938 -0.4195
 1439SOL     OW15778   1.445   4.683   4.433  0.7375  0.0902 -0.3106
 1439SOL    HW115779   1.500   4.691   4.511  0.8772  0.7910 -0.4817
 1439SOL    HW215780   1.415   4.592   4.427  1.7338 -0.4213  2.1870
 1440SOL     OW15781   3.953   1.698   2.852 -0.5114  0.0025  0.4133
 1440SOL    HW115782   3.993   1.619   2.816  0.1984 -0.5124  2.3044
 1440SOL    HW215783   4.032   1.752   2.859 -0.4410 -0.0619  0.1165
 1441SOL     OW15784   1.107   1.083   2.153  0.1507 -0.2120  0.0659
 1441SOL    HW115785   1.108   1.138   2.075  2.2299  1.3837  1.2226
 1441SOL    HW215786   1.195   1.048   2.162  0.0291 -0.4402  0.3646
 1442SOL     OW15787   0.144   0.511   1.740  0.0848  0.1017  0.4533
 1442SOL    HW115788   0.091   0.476   1.813 -0.4535 -0.4579 -0.2073
 1442SOL    HW215789   0.231   0.501   1.779  0.8104  0.5826 -1.0688
 1443SOL     OW15790   1.759   2.229   7.133 -0.3253  0.4241  0.0689
 1443SOL    HW115791   1.754   2.315   7.174  0.7512  1.0649 -1.1148
 1443SOL    HW215792   1.717   2.240   7.048  1.6648  2.2051 -0.6958
 1444SOL     OW15793   0.115   2.379   9.856 -0.6182 -0.3252 -0.2436
 1444SOL    HW115794   0.121   2.288   9.886 -0.5684  0.1625  1.2176
 1444SOL    HW215795   0.119   2.358   9.763  1.1003 -2.0899  0.2432
 1445SOL     OW15796   1.048   1.995   3.635  0.4289  0.2730  0.2963
 1445SOL    HW115797   0.981   2.062   3.651 -0.4578  0.0256 -2.5367
 1445SOL    HW215798   1.042   1.985   3.540 -1.7133  0.5646  0.4186
 1446SOL     OW15799   2.224   1.335   7.207 -0.1461 -0.3389 -0.4318
 1446SOL    HW115800   2.236   1.423   7.174  1.9415  0.4398  2.4301
 1446SOL    HW215801   2.129   1.332   7.215 -0.0469 -1.5185  0.3579
 1447SOL     OW15802   3.971   3.778   2.206 -0.1783  0.0699  0.2830
 1447SOL    HW115803   3.983   3.683   2.212  0.0102 -0.0094 -1.5703
 1447SOL    HW215804   3.935   3.792   2.119  0.6392 -0.8773 -0.2025
 1448SOL     OW15805   0.168   2.801  16.652  0.4280 -0.4043 -0.2311
 1448SOL    HW115806   0.147   2.713  16.685  1.7601 -0.0883  1.4880
 1448SOL    HW215807   0.130   2.862  16.716  1.4821  2.4116 -2.3042
 1449SOL     OW15808   2.650   2.081  16.354  0.1202 -0.3834 -0.2821
 1449SOL    HW115809   2.698   2.157  16.386 -1.2970 -0.0979  1.1450
 1449SOL    HW215810   2.691   2.073  16.268 -1.1940 -1.7412 -0.7800
 1450SOL     OW15811   1.740   4.263   5.179 -0.2333 -0.2379  0.2060
 1450SOL    HW115812   1.823   4.300   5.207  0.1133  0.6371 -1.9941
 1450SOL    HW215813   1.772   4.220   5.100 -0.1852 -0.6221  0.4377
 1451SOL     OW15814   2.496   4.047  17.403  0.3974  0.0690 -0.4868
 1451SOL    HW115815   2.450   4.130  17.390  0.0549  0.0201  0.4298
 1451SOL    HW215816   2.434   3.985  17.363  0.0485  0.5528 -0.7066
 1452SOL     OW15817   2.212   0.145   3.113  0.2583 -0.5171  0.0108
 1452SOL    HW115818   2.196   0.131   3.020  0.0541 -0.0294 -0.0263
 1452SOL    HW215819   2.283   0.209   3.112 -0.0571 -0.1303  1.6250
 1453SOL     OW15820   4.037   0.894   5.198  0.2737 -0.0705 -0.3607
 1453SOL    HW115821   3.974   0.944   5.250  0.0570 -1.7185  0.9522
 1453SOL    HW215822   4.102   0.885   5.267  1.9030 -1.0769 -2.0308
 1454SOL     OW15823   1.336   3.439   4.992  0.2792  0.2193 -0.4169
 1454SOL    HW115824   1.320   3.486   4.911 -1.7543 -1.3030 -0.8613
 1454SOL    HW215825   1.270   3.472   5.053  0.6423  1.0920 -0.4937
 1455SOL     OW15826   3.824   2.468  14.599 -0.1065 -0.3621  0.3220
 1455SOL    HW115827   3.858   2.397  14.545 -1.6266 -1.8672  1.3732
 1455SOL    HW215828   3.908   2.515  14.599  0.1141 -0.7694 -1.0999
 1456SOL     OW15829   1.457   0.298  11.540  0.5958 -0.8780  0.1172
 1456SOL    HW115830   1.384   0.250  11.580 -2.3416  2.3571 -1.4143
 1456SOL    HW215831   1.481   0.237  11.471 -1.4830 -1.9235  0.3026
 1457SOL     OW15832   1.868   2.976   3.213  0.1162  0.1227 -0.3066
 1457SOL    HW115833   1.885   3.041   3.145  0.8457 -0.6274 -0.8341
 1457SOL    HW215834   1.955   2.979   3.252 -0.5380 -0.0785  1.1754
 1458SOL     OW15835   1.443   1.223   7.291 -0.0221  0.2087  0.3081
 1458SOL    HW115836   1.425   1.158   7.223  1.0584  1.4183 -1.1338
 1458SOL    HW215837   1.421   1.159   7.359 -0.4087  0.3830  0.3478
 1459SOL     OW15838   2.316   4.721   7.412 -0.1262  0.2913  0.0961
 1459SOL    HW115839   2.260   0.067   7.391  0.2173  0.2796 -0.8658
 1459SOL    HW215840   2.393   0.024   7.459 -0.7308  0.9764  0.6281
 1460SOL     OW15841   2.601   1.045   2.303 -0.4638  0.2717 -0.3897
 1460SOL    HW115842   2.597   1.138   2.282 -0.3043 -0.0705 -1.9223
 1460SOL    HW215843   2.511   1.021   2.280  0.0663 -2.1384  0.0113
 1461SOL     OW15844   1.662   0.037  14.091  0.4698  0.0926  0.2449
 1461SOL    HW115845   1.704   4.723  14.016  1.6497 -0.8014  1.4045
 1461SOL    HW215846   1.576   0.055  14.052  0.9474  0.7476 -0.5169
 1462SOL     OW15847   3.951   3.716   0.433 -0.2241 -0.1758 -0.2812
 1462SOL    HW115848   3.902   3.798   0.423 -0.3883  0.0493  2.3905
 1462SOL    HW215849   3.888   3.672   0.490  1.2303  1.4126  2.5785
 1463SOL     OW15850   2.054   2.683   1.951 -0.5997 -0.6314  0.4226
 1463SOL    HW115851   2.074   2.691   1.858  0.0498  1.3063  0.7244
 1463SOL    HW215852   1.992   2.611   1.958 -2.3750  0.6166 -2.2904
 1464SOL     OW15853   3.269   0.584   5.863  0.0513 -0.0904  0.1682
 1464SOL    HW115854   3.319   0.506   5.888 -1.5653 -1.6321 -1.3580
 1464SOL    HW215855   3.268   0.583   5.767  0.0888 -0.9837  0.1810
 1465SOL     OW15856   0.837   1.938  12.754 -0.6383 -0.8739 -0.7087
 1465SOL    HW115857   0.815   1.901  12.840 -3.8037  0.1340 -1.0870
 1465SOL    HW215858   0.928   1.968  12.758 -0.7079 -0.6097 -1.0930
 1466SOL     OW15859   1.798   4.349  16.996  0.1926 -0.0532 -0.1497
 1466SOL    HW115860   1.768   4.434  17.027  2.0551  0.1596  1.0531
 1466SOL    HW215861   1.867   4.379  16.937 -0.8610 -1.6291 -2.2035
 1467SOL     OW15862   4.435   3.829   6.024  0.5507 -0.0108  0.1684
 1467SOL    HW115863   4.445   3.759   5.960  1.5631 -0.1904  0.5213
 1467SOL    HW215864   4.505   3.797   6.079  1.1506  0.7241 -0.1648
 1468SOL     OW15865   0.728   1.768   0.716  0.0444  0.3676  0.1883
 1468SOL    HW115866   0.662   1.763   0.785  0.8186  3.4185  1.1524
 1468SOL    HW215867   0.670   1.791   0.644  1.6897 -1.2901 -1.6647
 1469SOL     OW15868   1.310   1.328   7.742  0.4426 -0.1023  0.2229
 1469SOL    HW115869   1.354   1.321   7.658  0.1312 -1.1839  0.1474
 1469SOL    HW215870   1.390   1.345   7.790  0.1728 -2.5175  1.5153
 1470SOL     OW15871   1.021   3.626   9.102 -1.1017 -0.3903 -0.4963
 1470SOL    HW115872   0.982   3.652   9.185  1.0906  2.1677 -0.2828
 1470SOL    HW215873   1.054   3.710   9.071 -1.3835  0.7008  2.1802
 1471SOL     OW15874   2.582   2.078  16.649 -0.0946 -0.1821  0.4722
 1471SOL    HW115875   2.556   2.084  16.557  2.6881  1.2142 -0.2187
 1471SOL    HW215876   2.678   2.084  16.648 -0.1088 -0.4991 -3.8095
 1472SOL     OW15877   2.878   1.257  16.351 -0.2852 -0.0295 -0.3590
 1472SOL    HW115878   2.942   1.326  16.335  0.0702 -0.3993 -0.5216
 1472SOL    HW215879   2.934   1.185  16.380 -0.3988 -0.4863 -1.2713
 1473SOL     OW15880   3.577   2.281   3.632 -0.3694  0.0449 -0.6424
 1473SOL    HW115881   3.625   2.347   3.682  2.5805 -1.6225 -1.2861
 1473SOL    HW215882   3.547   2.217   3.697 -3.1002  0.5164 -1.4475
 1474SOL     OW15883   1.620   2.495   8.588 -0.3900  0.0312  0.5167
 1474SOL    HW115884   1.686   2.444   8.541  2.4822  1.7410  2.6833
 1474SOL    HW215885   1.661   2.499   8.674 -0.9441  1.5857  0.7155
 1475SOL     OW15886   4.032   4.269  13.276  0.2623  0.2666 -0.3456
 1475SOL    HW115887   4.113   4.219  13.282 -0.2879 -0.6113 -0.1841
 1475SOL    HW215888   3.978   4.214  13.334  1.3657  0.9715  1.3642
 1476SOL     OW15889   2.718   1.033   3.506  0.0388  0.2258 -0.4841
 1476SOL    HW115890   2.749   0.957   3.457  0.9695  2.6090 -3.5941
 1476SOL    HW215891   2.630   1.037   3.468 -0.2887 -1.1492  0.1175
 1477SOL     OW15892   3.089   0.904   9.759 -0.2686  0.1907  0.8304
 1477SOL    HW115893   3.043   0.836   9.809 -0.2650 -0.0129  0.5563
 1477SOL    HW215894   3.168   0.909   9.813  0.5468  1.5634 -0.5049
 1478SOL     OW15895   0.784   0.436   0.261 -0.6432 -0.3746  0.3293
 1478SOL    HW115896   0.821   0.456   0.347 -0.9828 -2.2645  0.9174
 1478SOL    HW215897   0.870   0.406   0.230 -0.7336  2.3695 -2.5659
 1479SOL     OW15898   2.442   4.700   6.456  0.2146 -0.2442 -0.3095
 1479SOL    HW115899   2.532   4.706   6.489 -0.2311 -2.2792  1.2520
 1479SOL    HW215900   2.393   4.639   6.512 -1.8272  0.2224 -1.6032
 1480SOL     OW15901   4.070   2.493  12.543 -0.6902  0.1741 -0.7865
 1480SOL    HW115902   4.122   2.545  12.482  1.5914 -0.2011  0.8399
 1480SOL    HW215903   3.991   2.473  12.494 -2.2418  2.0763  0.9731
 1481SOL     OW15904   2.061   0.767   3.966  0.2931 -0.0901 -0.0188
 1481SOL    HW115905   1.979   0.810   3.988  1.9270  2.3204  1.3293
 1481SOL    HW215906   2.027   0.677   3.973  1.1161 -0.4809 -0.9727
 1482SOL     OW15907   0.302   3.878   9.366 -0.1174  0.6726 -0.5904
 1482SOL    HW115908   0.218   3.838   9.344 -0.9537  1.6845  0.7789
 1482SOL    HW215909   0.284   3.920   9.450  0.1660 -0.9280  0.2662
 1483SOL     OW15910   1.069   4.569   7.314 -0.6068 -0.2564 -0.6432
 1483SOL    HW115911   1.110   4.656   7.313  1.8520 -1.3828  1.5063
 1483SOL    HW215912   1.022   4.573   7.397 -0.6302  0.9841 -0.7070
 1484SOL     OW15913   2.686   2.797  16.924  0.2436  0.1219 -0.1913
 1484SOL    HW115914   2.688   2.840  17.009 -0.2419 -1.5122  0.6515
 1484SOL    HW215915   2.779   2.783  16.906 -0.3811 -2.1726 -1.6704
 1485SOL     OW15916   3.659   3.887   6.006  0.1978 -0.2807  0.0039
 1485SOL    HW115917   3.578   3.927   5.974  0.8210 -0.5114 -1.9096
 1485SOL    HW215918   3.702   3.961   6.049 -0.0317  0.8912 -1.7615
 1486SOL     OW15919   1.160   2.712   5.452 -0.6203  0.4205  0.4909
 1486SOL    HW115920   1.222   2.771   5.494  0.2194 -1.2042  1.5264
 1486SOL    HW215921   1.182   2.628   5.491 -0.8447  0.3633  0.4959
 1487SOL     OW15922   2.701   4.188   2.787  0.3154  0.2242  0.1480
 1487SOL    HW115923   2.724   4.176   2.879  1.1818  1.0609  0.0368
 1487SOL    HW215924   2.618   4.140   2.775  0.5432 -0.4652  1.3481
 1488SOL     OW15925   1.427   2.952  17.181  0.5350  0.2530  0.0556
 1488SOL    HW115926   1.498   2.888  17.195  0.0649  0.0784  1.5882
 1488SOL    HW215927   1.390   2.926  17.097 -1.9328 -1.7860  1.7602
 1489SOL     OW15928   3.361   2.863  15.574  0.2252 -0.3898  0.0780
 1489SOL    HW115929   3.416   2.786  15.593  0.0101  0.0600  2.5501
 1489SOL    HW215930   3.354   2.897  15.663  0.7079 -0.5983  0.1986
 1490SOL     OW15931   4.028   0.504   8.057 -0.1490  0.3934  0.0599
 1490SOL    HW115932   4.087   0.452   8.112 -0.6894 -0.7496 -0.4360
 1490SOL    HW215933   4.055   0.594   8.075  3.5641 -0.5515 -0.8092
 1491SOL     OW15934   1.549   3.756   8.856 -0.4253 -0.3869 -0.0230
 1491SOL    HW115935   1.622   3.736   8.914 -0.7817  0.2764  0.6537
 1491SOL    HW215936   1.527   3.842   8.891  1.4540 -0.5354  1.5034
 1492SOL     OW15937   3.404   2.025   2.616 -0.4363  0.3324 -0.3549
 1492SOL    HW115938   3.381   2.081   2.541  1.7137  0.0213 -1.2233
 1492SOL    HW215939   3.451   1.958   2.567 -1.3791  0.2195 -1.1126
 1493SOL     OW15940   2.601   0.831   7.845  0.1365 -0.5280 -0.0922
 1493SOL    HW115941   2.680   0.798   7.802  0.2451 -1.1297  0.5736
 1493SOL    HW215942   2.538   0.759   7.844  0.1626 -0.4889 -2.8467
 1494SOL     OW15943   1.706   1.784  13.444 -0.3999  0.5690  0.0287
 1494SOL    HW115944   1.733   1.797  13.535 -1.1069 -0.3784  0.3720
 1494SOL    HW215945   1.724   1.867  13.401 -0.1901  0.6398  0.2485
 1495SOL     OW15946   0.545   2.670   9.113 -0.1920  0.1064 -0.0401
 1495SOL    HW115947   0.514   2.731   9.046  1.6988  0.0836 -0.9274
 1495SOL    HW215948   0.474   2.676   9.178  0.8021 -0.1497  1.0801
 1496SOL     OW15949   0.075   0.400  11.674 -0.4363  0.2891  0.2030
 1496SOL    HW115950   0.119   0.357  11.747  1.2423 -0.5038 -1.2682
 1496SOL    HW215951   4.711   0.389  11.693 -1.0058  0.1612 -2.5908
 1497SOL     OW15952   4.305   3.564  11.722 -0.5594  0.6576 -0.0625
 1497SOL    HW115953   4.273   3.512  11.796  0.3943  1.8784  1.2227
 1497SOL    HW215954   4.227   3.616  11.703 -0.5528  0.3435 -0.9262
 1498SOL     OW15955   0.783   3.606   2.164  0.4395  0.0659  0.3316
 1498SOL    HW115956   0.768   3.535   2.227 -2.0285 -1.2756 -1.7634
 1498SOL    HW215957   0.875   3.598   2.139  0.6119  2.3833  0.2693
 1499SOL     OW15958   1.648   2.743   8.245  0.0617  0.3875  0.0873
 1499SOL    HW115959   1.662   2.770   8.336  0.0935  0.7752 -0.0328
 1499SOL    HW215960   1.632   2.824   8.196  0.1644 -0.1747 -0.8653
 1500SOL     OW15961   0.492   0.933   9.626  0.4169  0.3969  0.5131
 1500SOL    HW115962   0.535   0.890   9.700 -0.3984  1.3050  1.5252
 1500SOL    HW215963   0.546   0.894   9.558 -1.1077 -0.8394  0.0045
 1501SOL     OW15964   3.720   0.307   3.303 -0.1482  0.3843  0.2111
 1501SOL    HW115965   3.737   0.368   3.231 -2.6608  2.4846  1.4229
 1501SOL    HW215966   3.806   0.286   3.339  0.2471  0.3622 -0.7363
 1502SOL     OW15967   0.645   1.919  10.981  0.2496  0.0264  0.0606
 1502SOL    HW115968   0.734   1.924  11.015  0.4670  0.9694 -0.6468
 1502SOL    HW215969   0.644   1.832  10.940  2.0994 -0.5788  1.2900
 1503SOL     OW15970   3.587   0.077   4.265 -0.0188  0.0518 -0.1532
 1503SOL    HW115971   3.556   4.717   4.248  1.9070 -0.3999 -1.3270
 1503SOL    HW215972   3.538   0.083   4.347 -1.8740 -1.6196 -1.1437
 1504SOL     OW15973   2.147   2.432  16.953  0.1513 -0.2737 -0.0599
 1504SOL    HW115974   2.112   2.365  16.894  0.4648 -0.1311 -0.4135
 1504SOL    HW215975   2.236   2.402  16.973  0.0814 -0.3362  0.1510
 1505SOL     OW15976   1.123   2.274  10.918 -0.4599  0.1870  1.2986
 1505SOL    HW115977   1.057   2.340  10.934 -0.9684 -0.1707  0.6601
 1505SOL    HW215978   1.182   2.318  10.857  0.8678 -1.4420  1.3869
 1506SOL     OW15979   0.816   0.103  15.511  0.2562 -1.1993  0.0766
 1506SOL    HW115980   0.849   0.084  15.423 -1.8034  0.3125 -1.0204
 1506SOL    HW215981   0.895   0.133  15.555  0.0074 -0.1688 -0.1692
 1507SOL     OW15982   1.881   3.081  17.563 -0.2340 -0.3732  0.0605
 1507SOL    HW115983   1.911   3.170  17.544  2.0365 -1.9668 -3.6986
 1507SOL    HW215984   1.816   3.099  17.631  0.2068 -0.2644  0.4546
 1508SOL     OW15985   3.049   3.736   5.346 -0.0656 -0.0363  0.2246
 1508SOL    HW115986   2.990   3.810   5.362 -1.1791 -1.0408  0.7319
 1508SOL    HW215987   3.089   3.764   5.264  0.7970 -1.6757  0.0850
 1509SOL     OW15988   2.343   0.446   8.702 -0.1977  0.3439  0.4582
 1509SOL    HW115989   2.317   0.525   8.655 -0.0497 -0.4941 -1.0262
 1509SOL    HW215990   2.292   0.450   8.783 -2.8042 -1.0557 -1.1244
 1510SOL     OW15991   0.057   3.282   0.489 -0.5446 -0.3980  0.1914
 1510SOL    HW115992   0.044   3.242   0.403 -1.7664  0.0415  0.1754
 1510SOL    HW215993   0.083   3.207   0.543  0.8107  0.4971  0.7950
 1511SOL     OW15994   4.490   3.275   7.283 -0.2251  0.5875  0.1884
 1511SOL    HW115995   4.538   3.234   7.355 -2.3313 -3.2632 -0.6335
 1511SOL    HW215996   4.419   3.212   7.270 -1.0241  2.2516 -3.5787
 1512SOL     OW15997   1.732   1.900  14.081 -0.5925 -0.3687  0.4821
 1512SOL    HW115998   1.721   1.995  14.073 -0.4284 -0.4540 -0.7199
 1512SOL    HW215999   1.711   1.897  14.174  2.8948  0.5331  1.2925
 1513SOL     OW16000   4.597   3.426  11.915 -0.1439 -0.1149  0.4930
 1513SOL    HW116001   4.571   3.502  11.864  0.7116 -0.3271 -0.2597
 1513SOL    HW216002   4.686   3.416  11.880  0.0905 -0.9548  1.3230
 1514SOL     OW16003   3.582   4.049   7.952  0.0522 -1.2389  0.5789
 1514SOL    HW116004   3.657   4.064   7.894  0.4181  4.6103  2.5158
 1514SOL    HW216005   3.622   4.099   8.023 -0.1615  1.9187 -1.5210
 1515SOL     OW16006   2.897   0.916   5.968  0.0240  0.5285  0.4396
 1515SOL    HW116007   2.984   0.942   5.998  0.4372  0.7025 -0.9121
 1515SOL    HW216008   2.912   0.887   5.878 -0.9530 -0.6361  0.6500
 1516SOL     OW16009   0.117   2.504  13.484 -0.1978 -0.7751 -0.0743
 1516SOL    HW116010   0.166   2.485  13.403 -1.1465  0.6765 -0.9871
 1516SOL    HW216011   0.146   2.439  13.548  2.0607 -0.0881 -0.3954
 1517SOL     OW16012   4.194   2.016   0.019 -0.6337 -0.0239 -0.1743
 1517SOL    HW116013   4.136   2.021   0.096 -0.8228 -1.3023 -0.2281
 1517SOL    HW216014   4.273   2.067   0.033 -1.5231  1.3175 -0.0098
 1518SOL     OW16015   1.369   0.080   5.203  0.6855 -0.2624  0.3172
 1518SOL    HW116016   1.325   4.724   5.194  0.7446 -0.2502 -0.0904
 1518SOL    HW216017   1.417   0.087   5.120 -1.8159  1.2631 -0.9948
 1519SOL     OW16018   4.466   2.871   3.313  0.1202 -0.2662  0.7578
 1519SOL    HW116019   4.473   2.833   3.401  0.7775 -0.7664  0.4896
 1519SOL    HW216020   4.551   2.914   3.321 -0.5537  1.5073 -1.7686
 1520SOL     OW16021   3.230   2.051   6.256 -0.3222 -0.3263  0.1960
 1520SOL    HW116022   3.171   2.019   6.325 -0.5906 -0.7472 -0.2263
 1520SOL    HW216023   3.188   2.134   6.236  0.6901 -0.0901 -0.8959
 1521SOL     OW16024   3.467   3.034   8.195  0.2659  0.3372 -0.3048
 1521SOL    HW116025   3.448   2.998   8.281  2.2531 -1.8737 -0.7946
 1521SOL    HW216026   3.441   2.963   8.136 -0.5418  1.0860 -0.8456
 1522SOL     OW16027   3.478   1.415   2.930  0.0222 -0.5900 -0.1013
 1522SOL    HW116028   3.561   1.419   2.882 -0.4514  2.1695 -0.6704
 1522SOL    HW216029   3.449   1.324   2.922 -1.4429 -0.1539  0.3053
 1523SOL     OW16030   0.241   2.346   4.888  0.2270  0.3239 -0.2402
 1523SOL    HW116031   0.194   2.323   4.968  0.2558  5.4298  1.2610
 1523SOL    HW216032   0.184   2.417   4.860 -0.4529  0.4293  1.3967
 1524SOL     OW16033   1.608   2.742   2.720  0.3594 -0.0583  0.4501
 1524SOL    HW116034   1.596   2.806   2.789  0.9718  1.8230 -1.2010
 1524SOL    HW216035   1.594   2.801   2.647 -1.8244  0.4482  1.2839
 1525SOL     OW16036   2.404   1.447  11.908  0.4295  0.8908 -0.6459
 1525SOL    HW116037   2.372   1.374  11.856 -0.4072 -0.1469  1.3288
 1525SOL    HW216038   2.404   1.412  11.997 -1.0146  0.2200 -0.9167
 1526SOL     OW16039   2.333   4.003   6.401  0.5370  0.3147  0.1135
 1526SOL    HW116040   2.347   3.943   6.328 -1.3816 -1.2421  1.0419
 1526SOL    HW216041   2.403   4.069   6.404  1.9942 -1.2876  1.1828
 1527SOL     OW16042   1.930   2.058   2.898  0.1309  0.0278  0.5385
 1527SOL    HW116043   1.925   1.968   2.930 -2.1472  0.4739  1.4685
 1527SOL    HW216044   1.878   2.055   2.818  2.9690  0.9968 -1.3416
 1528SOL     OW16045   3.776   2.857   3.519 -0.1134 -0.0937  0.0481
 1528SOL    HW116046   3.814   2.769   3.522  1.6841  0.6930  0.0948
 1528SOL    HW216047   3.687   2.831   3.544 -0.5705  0.8167 -0.6066
 1529SOL     OW16048   0.648   1.403   3.591  0.1541  0.0838  0.1116
 1529SOL    HW116049   0.730   1.452   3.582  1.5600 -2.8330 -2.8517
 1529SOL    HW216050   0.609   1.459   3.659  1.1947 -1.2852  1.8464
 1530SOL     OW16051   3.938   0.526  13.346 -0.3281 -0.6557  0.5853
 1530SOL    HW116052   3.955   0.438  13.381 -1.8962 -0.7919  0.9928
 1530SOL    HW216053   3.851   0.541  13.383 -0.2325  0.4312  0.3662
 1531SOL     OW16054   3.660   3.964   4.823 -0.3575 -0.3133 -0.3813
 1531SOL    HW116055   3.681   3.874   4.848 -0.9695 -0.5980 -0.8941
 1531SOL    HW216056   3.711   3.965   4.742 -0.3404  2.1699 -0.3372
 1532SOL     OW16057   3.930   3.853   1.463  0.6235 -0.4892  0.2223
 1532SOL    HW116058   3.964   3.942   1.457  0.8945 -0.5333  1.0680
 1532SOL    HW216059   4.007   3.802   1.489  2.2902  0.6376 -2.4102
 1533SOL     OW16060   3.272   1.808  15.482  0.2434  0.0055  0.2063
 1533SOL    HW116061   3.330   1.778  15.412 -0.0237 -0.0191 -0.0051
 1533SOL    HW216062   3.263   1.726  15.531 -2.2635  0.2524  0.1608
 1534SOL     OW16063   2.066   0.235  12.924 -0.1534  0.2696 -0.6285
 1534SOL    HW116064   2.022   0.208  13.005  0.6894 -2.7927 -1.2211
 1534SOL    HW216065   2.156   0.219  12.951 -0.1875 -0.2419 -0.8308
 1535SOL     OW16066   2.721   1.028   6.635 -0.1575  0.1066  0.4923
 1535SOL    HW116067   2.693   1.014   6.544  2.6191 -1.0151 -0.1928
 1535SOL    HW216068   2.734   1.122   6.626  0.4203 -0.0476 -0.3162
 1536SOL     OW16069   2.656   1.674  11.525 -0.1908 -0.0604  0.1609
 1536SOL    HW116070   2.675   1.767  11.509  0.1672  0.2322  2.2532
 1536SOL    HW216071   2.664   1.668  11.620 -1.1794  2.3934  0.4006
 1537SOL     OW16072   3.843   3.573   8.912 -0.7069  0.0887 -0.5536
 1537SOL    HW116073   3.870   3.482   8.924 -0.1259  0.2852 -0.3287
 1537SOL    HW216074   3.766   3.581   8.968 -0.0865 -2.6687  0.7257
 1538SOL     OW16075   4.070   1.503   8.885 -0.0219 -0.7988 -0.0649
 1538SOL    HW116076   4.004   1.524   8.951 -1.5248  0.4441 -1.9535
 1538SOL    HW216077   4.099   1.591   8.863  0.4920 -0.6207  1.3475
 1539SOL     OW16078   1.595   2.625  11.611 -0.0955  0.0576  0.1900
 1539SOL    HW116079   1.600   2.611  11.706  0.2108 -1.0195  0.0199
 1539SOL    HW216080   1.589   2.720  11.606 -1.4902 -0.0789 -0.6585
 1540SOL     OW16081   2.880   1.408   3.327  0.3663  0.2347  0.2990
 1540SOL    HW116082   2.973   1.391   3.343  0.8427  1.7482 -0.8568
 1540SOL    HW216083   2.870   1.494   3.286 -1.1999 -0.0082  0.1557
 1541SOL     OW16084   3.502   3.092  16.637 -0.4377 -0.6204  0.0218
 1541SOL    HW116085   3.580   3.052  16.675 -0.5821 -0.4638  0.4903
 1541SOL    HW216086   3.434   3.037  16.676 -1.5133  0.5130 -0.2088
 1542SOL     OW16087   2.789   0.544   9.822  0.4350  0.1442 -0.0423
 1542SOL    HW116088   2.804   0.563   9.915 -0.6798  0.8828 -0.0126
 1542SOL    HW216089   2.783   0.637   9.798  1.4054  0.7713  2.1027
 1543SOL     OW16090   1.410   0.762   6.085 -0.5103 -0.0561 -0.4253
 1543SOL    HW116091   1.337   0.823   6.093 -3.0566 -3.0274 -0.7229
 1543SOL    HW216092   1.486   0.809   6.119  0.5170 -0.6777 -1.8692
 1544SOL     OW16093   1.314   0.051  11.552 -0.2135 -0.6123  1.0590
 1544SOL    HW116094   1.307   0.112  11.626  1.2020 -1.5428  1.9648
 1544SOL    HW216095   1.268   4.699  11.576 -4.1578  1.6774  1.0292
 1545SOL     OW16096   0.580   3.137   7.287  0.3419  0.3058  0.1587
 1545SOL    HW116097   0.534   3.076   7.229 -0.3390  1.1195 -0.1574
 1545SOL    HW216098   0.662   3.153   7.239  0.4365 -0.0627  0.1962
 1546SOL     OW16099   2.559   3.506   5.762  0.0723 -0.0078  0.0010
 1546SOL    HW116100   2.520   3.457   5.690 -0.4491  0.5143 -0.0680
 1546SOL    HW216101   2.643   3.536   5.729  0.8236 -1.2987  0.7371
 1547SOL     OW16102   2.772   4.260   8.498  0.7445 -0.0294 -0.7076
 1547SOL    HW116103   2.727   4.212   8.568  1.7657 -0.1470 -0.1371
 1547SOL    HW216104   2.704   4.311   8.454 -0.6592  0.2307  1.7639
 1548SOL     OW16105   4.064   4.273   3.751 -0.5528  0.8786 -0.1148
 1548SOL    HW116106   3.984   4.227   3.774 -0.0341 -0.1592 -0.3872
 1548SOL    HW216107   4.110   4.284   3.834  1.4262  0.9452 -1.2048
 1549SOL     OW16108   3.127   3.152   2.793  0.3603  0.7364  0.4260
 1549SOL    HW116109   3.169   3.087   2.849  0.5040  0.3456 -0.1276
 1549SOL    HW216110   3.205   3.195   2.757  0.3368 -1.6492 -2.5362
 1550SOL     OW16111   4.059   4.482   6.649 -0.1658 -0.0957  0.4573
 1550SOL    HW116112   4.104   4.555   6.606  1.1915 -0.8484  0.6133
 1550SOL    HW216113   4.132   4.426   6.672  0.1308 -0.3757 -1.1351
 1551SOL     OW16114   2.739   0.154   4.781  0.3022 -0.2225 -0.4142
 1551SOL    HW116115   2.825   0.196   4.779 -0.4413  1.2952 -0.8190
 1551SOL    HW216116   2.726   0.165   4.875 -1.8848  1.6310 -0.9117
 1552SOL     OW16117   0.678   4.083  12.206 -0.3866  0.0193  0.3912
 1552SOL    HW116118   0.748   4.145  12.187  0.4103 -0.9732  0.1044
 1552SOL    HW216119   0.733   4.018  12.250  0.7352 -0.2513 -1.4429
 1553SOL     OW16120   1.767   1.143   7.377  0.1091  0.4187 -0.0247
 1553SOL    HW116121   1.785   1.077   7.444 -0.3855  0.7379  0.4186
 1553SOL    HW216122   1.702   1.115   7.313 -0.6660 -0.2850  1.0858
 1554SOL     OW16123   1.455   0.615  14.560 -0.2207 -0.5312 -0.3274
 1554SOL    HW116124   1.365   0.641  14.581  0.6631 -0.6659  3.6145
 1554SOL    HW216125   1.469   0.629  14.466 -1.5734 -3.6811 -1.0083
 1555SOL     OW16126   2.990   2.795  11.388  0.2502 -0.2472 -0.1087
 1555SOL    HW116127   2.985   2.843  11.470 -0.6927 -0.4702 -0.0414
 1555SOL    HW216128   2.963   2.710  11.424  1.9212 -0.1918  1.2346
 1556SOL     OW16129   4.047   4.439   2.272  0.1280  0.3396  0.1011
 1556SOL    HW116130   4.052   4.428   2.177 -0.5227  2.8589 -0.2254
 1556SOL    HW216131   4.138   4.464   2.287  0.2211 -0.6539  1.1290
 1557SOL     OW16132   3.969   1.966  10.674 -0.7263  0.3454  0.8801
 1557SOL    HW116133   3.995   2.015  10.597  0.6305 -0.6748  0.6976
 1557SOL    HW216134   3.874   1.958  10.664 -0.5352 -0.4838 -0.2504
 1558SOL     OW16135   1.972   0.397   1.469  0.3715 -0.5542 -0.2953
 1558SOL    HW116136   1.909   0.389   1.540 -1.3330  0.7081 -1.6568
 1558SOL    HW216137   2.003   0.487   1.477 -2.6668  0.3451  1.1442
 1559SOL     OW16138   3.967   3.293  10.584 -0.1379  0.2627 -0.0621
 1559SOL    HW116139   4.022   3.217  10.567 -1.7117 -0.4596 -1.9937
 1559SOL    HW216140   4.031   3.362  10.602 -2.1363  2.0167  0.3815
 1560SOL     OW16141   4.471   1.181   5.060 -0.0762  0.2463 -0.3045
 1560SOL    HW116142   4.397   1.237   5.037 -0.9885  0.3017  2.7911
 1560SOL    HW216143   4.436   1.105   5.107  0.9072 -0.6118 -0.9684
 1561SOL     OW16144   3.915   0.900   2.395  0.0478 -0.2406 -0.0891
 1561SOL    HW116145   3.967   0.980   2.394 -2.6962  1.5434  0.0988
 1561SOL    HW216146   3.989   0.843   2.373  1.1910  1.6076 -1.0026
 1562SOL     OW16147   0.726   3.480   6.051  0.1396 -0.1570 -0.1194
 1562SOL    HW116148   0.663   3.486   6.123 -0.2899  0.4710 -0.5420
 1562SOL    HW216149   0.695   3.395   6.020 -2.2365  0.4236  0.6295
 1563SOL     OW16150   0.435   1.067   1.060 -0.4487  0.0023  0.4438
 1563SOL    HW116151   0.408   1.009   1.131  1.3109 -1.6015 -0.2010
 1563SOL    HW216152   0.526   1.038   1.064 -0.0924  1.1542  0.6829
 1564SOL     OW16153   3.866   1.536   1.134  0.5424 -0.1787 -0.3175
 1564SOL    HW116154   3.773   1.515   1.123  0.1685  0.5324  1.3904
 1564SOL    HW216155   3.885   1.579   1.051  1.3030 -0.3991 -0.2579
 1565SOL     OW16156   2.865   3.935   4.780 -0.6364 -0.8360 -0.0208
 1565SOL    HW116157   2.879   3.892   4.864 -0.1472 -0.7818 -0.0793
 1565SOL    HW216158   2.824   4.015   4.812 -0.3671 -0.6784 -0.0741
 1566SOL     OW16159   3.865   3.522  11.793  0.7664  0.8307  0.3496
 1566SOL    HW116160   3.909   3.444  11.827 -0.2693 -0.6454 -1.6999
 1566SOL    HW216161   3.804   3.535  11.866 -1.1293  0.9593 -1.2717
 1567SOL     OW16162   3.445   1.449   4.730 -0.4169 -0.1482 -0.1783
 1567SOL    HW116163   3.370   1.390   4.740  1.2092 -2.1896  0.0058
 1567SOL    HW216164   3.405   1.535   4.721 -1.7929 -0.6917  0.7101
 1568SOL     OW16165   2.631   2.420   8.747 -0.2332 -0.1523 -0.1013
 1568SOL    HW116166   2.566   2.435   8.678 -0.4996 -0.3098  0.1157
 1568SOL    HW216167   2.679   2.503   8.752 -1.6629  0.7838 -1.7920
 1569SOL     OW16168   3.955   0.609   0.009 -0.7606 -0.4474  0.1539
 1569SOL    HW116169   3.952   0.623  17.630  2.2293  0.8037  0.2441
 1569SOL    HW216170   4.037   0.559   0.010 -0.6543 -0.2553  2.0754
 1570SOL     OW16171   4.320   0.678   3.559 -0.2384  0.5101  0.9609
 1570SOL    HW116172   4.352   0.661   3.471  2.1963 -0.7594  2.1121
 1570SOL    HW216173   4.324   0.773   3.569 -0.1576  0.4427  1.5577
 1571SOL     OW16174   1.887   1.726  15.055  0.3021 -0.0478  0.3355
 1571SOL    HW116175   1.935   1.685  15.126  0.9699  1.7114  0.9043
 1571SOL    HW216176   1.954   1.785  15.021 -0.7035  0.3231 -0.9915
 1572SOL     OW16177   4.466   0.973   8.676 -0.8875 -0.1654  0.0036
 1572SOL    HW116178   4.438   0.986   8.767 -0.2209 -1.4318  0.3790
 1572SOL    HW216179   4.400   1.026   8.632 -0.7567  1.3298  1.6059
 1573SOL     OW16180   0.473   2.811   9.467 -0.1847  0.2510 -0.2188
 1573SOL    HW116181   0.406   2.785   9.404  0.3785 -0.2933 -0.5996
 1573SOL    HW216182   0.414   2.864   9.521 -0.6256  1.6361 -2.1023
 1574SOL     OW16183   4.107   0.323  12.291 -0.2830  0.2724 -0.5973
 1574SOL    HW116184   4.175   0.384  12.265  1.8219 -0.9491  2.0103
 1574SOL    HW216185   4.028   0.370  12.263  0.0672  1.2863  0.1230
 1575SOL     OW16186   2.421   1.629  12.430 -0.0349 -0.0206 -0.4372
 1575SOL    HW116187   2.479   1.698  12.463  0.5230 -0.6753 -0.0475
 1575SOL    HW216188   2.443   1.621  12.337  1.4017  0.1572 -0.1124
 1576SOL     OW16189   1.520   2.216   2.811  0.4980 -0.1092  0.3362
 1576SOL    HW116190   1.484   2.156   2.876 -0.5173 -0.6223 -0.6947
 1576SOL    HW216191   1.444   2.273   2.812  0.5482 -0.0650  1.2271
 1577SOL     OW16192   3.048   2.018   4.628  1.0216  0.5816 -0.1575
 1577SOL    HW116193   3.096   1.976   4.556  1.2229 -4.0493  2.6403
 1577SOL    HW216194   3.102   2.096   4.636 -0.0760  1.2604  0.5743
 1578SOL     OW16195   3.747   0.053  10.917 -0.8975 -0.2615  0.8439
 1578SOL    HW116196   3.806   0.114  10.963  2.6335 -3.3740  0.4410
 1578SOL    HW216197   3.683   0.052  10.989 -2.4694  0.1474 -0.5623
 1579SOL     OW16198   1.274   1.400   9.533 -0.3774  0.2532  0.3425
 1579SOL    HW116199   1.279   1.490   9.567  2.6091  0.4199 -0.5212
 1579SOL    HW216200   1.365   1.383   9.507 -0.8512 -2.2649  0.4220
 1580SOL     OW16201   3.701   3.053  16.204 -0.0523 -0.5549  0.0049
 1580SOL    HW116202   3.676   3.106  16.279  0.4160  0.2150 -0.3793
 1580SOL    HW216203   3.683   3.114  16.132 -0.4133 -0.9903 -0.2735
 1581SOL     OW16204   4.508   2.292   8.518 -0.3031  0.0965  0.2710
 1581SOL    HW116205   4.423   2.312   8.481  0.2446  0.2072 -0.9113
 1581SOL    HW216206   4.475   2.227   8.580 -0.3096 -0.4585 -0.3236
 1582SOL     OW16207   0.455   3.338   4.473  0.4165 -0.5472 -0.5196
 1582SOL    HW116208   0.471   3.277   4.545  1.9377  1.9750  1.2815
 1582SOL    HW216209   0.544   3.361   4.447 -0.5018  1.2608 -2.0123
 1583SOL     OW16210   3.435   2.939   3.757  0.4756 -0.3887 -0.3688
 1583SOL    HW116211   3.350   2.971   3.726  0.8495 -0.8278 -1.8559
 1583SOL    HW216212   3.501   3.003   3.731 -0.8555  1.2637  0.3020
 1584SOL     OW16213   0.408   3.167   9.654 -0.2456  0.3647  0.2377
 1584SOL    HW116214   0.458   3.124   9.722 -1.3825 -1.7590 -0.2814
 1584SOL    HW216215   0.350   3.094   9.635  0.0176  0.2817 -0.2483
 1585SOL     OW16216   1.723   1.473   5.901 -0.1931 -0.2641  0.1604
 1585SOL    HW116217   1.737   1.456   5.994  0.2639  1.7749  0.4766
 1585SOL    HW216218   1.653   1.408   5.893 -0.8221  0.4869 -0.4514
 1586SOL     OW16219   2.854   2.912   7.158 -0.2439  0.5496  0.5156
 1586SOL    HW116220   2.781   2.859   7.190  0.5197 -0.1391  1.1000
 1586SOL    HW216221   2.810   2.991   7.125 -1.5511  0.2474  1.5568
 1587SOL     OW16222   2.588   0.241   5.679  0.2133 -0.3197  0.5644
 1587SOL    HW116223   2.509   0.258   5.729 -0.5635 -0.3289 -0.6575
 1587SOL    HW216224   2.594   0.146   5.692  1.4680  0.0028  2.2916
 1588SOL     OW16225   3.501   3.818   9.158  0.3570  0.0095 -0.1783
 1588SOL    HW116226   3.450   3.769   9.093  0.4367 -1.6346  1.0042
 1588SOL    HW216227   3.563   3.864   9.101  0.0991 -0.4307 -0.8205
 1589SOL     OW16228   2.889   3.574   3.614  0.1526 -0.1298 -0.1196
 1589SOL    HW116229   2.868   3.481   3.619 -1.3845  0.0597 -2.6587
 1589SOL    HW216230   2.852   3.597   3.529 -1.8381  2.4199  1.4320
 1590SOL     OW16231   2.011   0.302   0.405  0.3338 -0.0481  0.1880
 1590SOL    HW116232   2.027   0.282   0.313  0.6406  0.8253  0.0544
 1590SOL    HW216233   1.985   0.217   0.440 -0.8112 -0.0528 -0.6804
 1591SOL     OW16234   3.860   0.456   9.294 -0.2380 -0.3187  0.1467
 1591SOL    HW116235   3.773   0.432   9.263 -0.7828 -1.3742  2.4336
 1591SOL    HW216236   3.840   0.462   9.388  0.6626  0.3657  0.2905
 1592SOL     OW16237   2.080   0.994   4.447 -0.8928 -0.7038 -1.0979
 1592SOL    HW116238   2.170   1.014   4.420 -0.7822 -0.5021 -0.5801
 1592SOL    HW216239   2.078   0.899   4.453 -0.4902 -0.7838 -2.2756
 1593SOL     OW16240   0.151   1.121  10.209 -0.4105  0.3544  0.0519
 1593SOL    HW116241   0.089   1.179  10.253  0.7074  1.9044 -0.4061
 1593SOL    HW216242   0.229   1.153  10.255  1.0241 -3.3173  0.1568
 1594SOL     OW16243   2.340   1.669   5.424 -0.4395 -0.4331  0.7466
 1594SOL    HW116244   2.272   1.651   5.359 -0.3410 -0.6343  0.7025
 1594SOL    HW216245   2.363   1.585   5.462  0.3862 -0.2048  0.7380
 1595SOL     OW16246   2.706   0.366   7.339 -0.2397 -1.0293 -0.3093
 1595SOL    HW116247   2.718   0.272   7.326 -1.5570 -1.2021 -0.3331
 1595SOL    HW216248   2.785   0.399   7.296 -0.4580 -1.9331 -1.3860
 1596SOL     OW16249   1.618   3.741   1.971 -0.4301  0.5528  0.3494
 1596SOL    HW116250   1.693   3.697   2.012 -1.0437 -1.1523 -0.3545
 1596SOL    HW216251   1.664   3.770   1.892  0.3924 -0.3939  0.4752
 1597SOL     OW16252   0.587   0.693   8.363 -0.1190  0.1482  0.2809
 1597SOL    HW116253   0.607   0.774   8.317 -0.0134  1.0906  1.9780
 1597SOL    HW216254   0.662   0.641   8.334 -0.7325 -2.0690  2.6152
 1598SOL     OW16255   2.632   0.764   6.631  0.0634  0.0751 -0.1382
 1598SOL    HW116256   2.680   0.846   6.617  1.5784 -1.1325 -2.0171
 1598SOL    HW216257   2.691   0.693   6.604 -0.0896 -0.3774  0.7351
 1599SOL     OW16258   2.635   2.816   5.510 -0.2414 -0.2724 -0.0402
 1599SOL    HW116259   2.719   2.858   5.494  0.1359 -0.5562  1.1775
 1599SOL    HW216260   2.642   2.821   5.606 -0.9408  2.6602 -0.1367
 1600SOL     OW16261   1.093   0.499   7.178 -0.4890  0.3019  0.0466
 1600SOL    HW116262   1.157   0.564   7.208 -0.1894 -0.3448  0.8090
 1600SOL    HW216263   1.077   0.466   7.266  1.5538  0.7961  0.6104
 1601SOL     OW16264   3.662   4.201   7.017 -0.2100 -0.5991 -0.2366
 1601SOL    HW116265   3.662   4.292   6.987  0.3647 -1.0752 -1.6860
 1601SOL    HW216266   3.637   4.156   6.936  0.2760 -0.2907 -0.5551
 1602SOL     OW16267   0.534   1.019   3.330 -0.2209  0.3941 -0.2562
 1602SOL    HW116268   0.590   1.070   3.389 -0.5361 -0.7880  1.0758
 1602SOL    HW216269   0.449   1.063   3.335 -1.2278 -1.3559 -2.0201
 1603SOL     OW16270   3.818   1.878   8.751  0.1560  0.1415  0.3013
 1603SOL    HW116271   3.747   1.905   8.809 -2.1167 -0.2663 -2.2419
 1603SOL    HW216272   3.840   1.970   8.733  0.1901 -0.2846 -1.9215
 1604SOL     OW16273   3.374   4.661   6.597  0.4078  0.0581 -0.2575
 1604SOL    HW116274   3.365   4.650   6.502 -3.7376 -1.0511  0.2784
 1604SOL    HW216275   3.290   4.705   6.610  0.2806 -0.3935  0.4327
 1605SOL     OW16276   1.744   3.058   3.768  0.0822 -1.1709 -0.3166
 1605SOL    HW116277   1.720   3.092   3.682  0.1598 -0.6671 -0.1383
 1605SOL    HW216278   1.838   3.045   3.757  0.4500  0.7162  0.6752
 1606SOL     OW16279   2.867   2.972   2.930  0.5537 -0.2274  0.3641
 1606SOL    HW116280   2.780   2.946   2.958  0.0856  0.3941 -0.5152
 1606SOL    HW216281   2.871   2.926   2.847  0.4812  1.6199 -0.6703
 1607SOL     OW16282   1.476   0.156   1.916 -0.2120  0.1063 -0.6949
 1607SOL    HW116283   1.515   0.072   1.891  2.1701  1.5405 -1.8377
 1607SOL    HW216284   1.386   0.134   1.938  1.1197 -2.7214  1.9064
 1608SOL     OW16285   2.437   3.181   6.839 -0.3997  0.0013  0.0984
 1608SOL    HW116286   2.490   3.242   6.789  0.9424 -1.7274 -0.5849
 1608SOL    HW216287   2.366   3.242   6.860 -0.1287  0.6864 -1.0096
 1609SOL     OW16288   2.626   4.326   9.320  0.6046  0.2650  0.4172
 1609SOL    HW116289   2.678   4.406   9.311  1.0164 -0.1517 -0.9427
 1609SOL    HW216290   2.648   4.272   9.244  3.2198  1.5017  0.2890
 1610SOL     OW16291   1.387   1.434   2.142  0.0377  0.0381  0.1667
 1610SOL    HW116292   1.465   1.467   2.186  0.3118  1.5935 -1.4656
 1610SOL    HW216293   1.384   1.338   2.140  1.3611  0.0236 -1.8299
 1611SOL     OW16294   4.533   2.801   1.203  0.2254  0.0062 -0.6647
 1611SOL    HW116295   4.510   2.733   1.140 -0.1396  1.0630 -1.6764
 1611SOL    HW216296   4.472   2.779   1.274  1.5790 -0.2511  0.4164
 1612SOL     OW16297   4.245   1.268   0.715  0.1837 -0.1693  0.2229
 1612SOL    HW116298   4.301   1.337   0.748  1.0414 -0.9216  0.3471
 1612SOL    HW216299   4.219   1.309   0.633 -0.2986 -2.4269 -0.7768
 1613SOL     OW16300   0.861   0.748   9.288  0.2053  0.3578  0.0537
 1613SOL    HW116301   0.912   0.766   9.367  0.4854 -0.8557  0.1538
 1613SOL    HW216302   0.846   0.654   9.291 -2.0203  0.6820 -1.2632
 1614SOL     OW16303   1.033   0.318   9.023 -0.7394  0.4639  0.4842
 1614SOL    HW116304   1.016   0.360   8.938 -1.0768 -0.9755 -0.1595
 1614SOL    HW216305   0.990   0.235   9.001  1.2200 -0.4312  0.0603
 1615SOL     OW16306   2.552   1.373   7.192  0.6256 -0.3955  0.4062
 1615SOL    HW116307   2.491   1.339   7.258  1.3441 -2.6146 -0.0608
 1615SOL    HW216308   2.583   1.297   7.142 -1.5776 -1.6001  0.9028
 1616SOL     OW16309   0.120   0.057   8.360 -0.1373 -0.3646 -0.0117
 1616SOL    HW116310   0.170   0.111   8.420 -1.6943  1.4927 -0.4015
 1616SOL    HW216311   0.035   0.041   8.400  0.1259  0.6752  0.9577
 1617SOL     OW16312   2.462   4.603  16.416 -0.2070 -0.5703  0.3526
 1617SOL    HW116313   2.541   4.590  16.363  0.0240  0.5459  0.4222
 1617SOL    HW216314   2.404   4.620  16.342 -0.9167  0.8160  1.2339
 1618SOL     OW16315   2.328   4.222  12.874  0.1317 -0.4230 -0.6750
 1618SOL    HW116316   2.281   4.139  12.862  0.4605 -0.8078  0.6187
 1618SOL    HW216317   2.419   4.192  12.873  0.3039 -0.0009  0.8497
 1619SOL     OW16318   2.315   0.430   4.208 -0.4533 -0.3342 -0.6019
 1619SOL    HW116319   2.274   0.388   4.132  0.5965 -1.2986 -0.6381
 1619SOL    HW216320   2.409   0.414   4.202 -0.1396  0.4596  2.6177
 1620SOL     OW16321   4.037   1.831   4.074  0.2371 -0.4133  0.1414
 1620SOL    HW116322   3.967   1.838   4.138  1.5011  2.2504  1.2385
 1620SOL    HW216323   4.035   1.916   4.030  0.3288  0.3544  1.6353
 1621SOL     OW16324   0.334   0.648   2.279 -0.1024 -0.6078 -0.2637
 1621SOL    HW116325   0.239   0.649   2.289 -0.1262 -0.1629 -0.5306
 1621SOL    HW216326   0.361   0.595   2.354  2.4596 -0.9580 -1.4511
 1622SOL     OW16327   1.596   3.803   3.720 -0.7132 -0.3428 -0.2331
 1622SOL    HW116328   1.659   3.841   3.781  1.0217 -3.8403  0.1153
 1622SOL    HW216329   1.530   3.870   3.700 -0.0994  0.8006  1.5481
 1623SOL     OW16330   2.538   0.002  13.592 -0.0887 -0.1521 -0.3888
 1623SOL    HW116331   2.580   4.645  13.602  0.9086  0.5814  1.6198
 1623SOL    HW216332   2.607   0.061  13.621 -0.4921  0.1275 -0.0019
 1624SOL     OW16333   1.429   2.535   2.703 -0.0188 -0.1289 -0.1861
 1624SOL    HW116334   1.460   2.621   2.733  0.7014 -0.0528 -1.1334
 1624SOL    HW216335   1.492   2.521   2.633 -0.1833 -0.5205 -0.2540
 1625SOL     OW16336   2.420   1.058  12.203  0.1426 -0.2127 -0.5964
 1625SOL    HW116337   2.405   1.021  12.290  0.7884  1.1375  0.0871
 1625SOL    HW216338   2.507   1.025  12.181  1.3097  1.9627  0.7838
 1626SOL     OW16339   2.467   4.580   5.917 -0.0478 -0.1591  0.5585
 1626SOL    HW116340   2.422   4.515   5.864 -0.0828  2.2499 -2.3236
 1626SOL    HW216341   2.518   4.528   5.980  0.3025 -0.6207 -0.1078
 1627SOL     OW16342   3.526   0.041  11.105  0.2314 -0.2764 -0.6070
 1627SOL    HW116343   3.447   0.025  11.155  0.3798 -1.2827 -0.6800
 1627SOL    HW216344   3.506   0.123  11.061 -1.4064 -0.4640 -0.1872
 1628SOL     OW16345   3.511   0.633   5.004 -0.1136  0.7633 -0.1064
 1628SOL    HW116346   3.431   0.684   5.010 -0.5857  0.0561 -0.4535
 1628SOL    HW216347   3.576   0.703   4.999  0.1358  0.5015 -0.5752
 1629SOL     OW16348   4.094   2.303   7.088  0.3620  0.3985  0.4482
 1629SOL    HW116349   4.159   2.336   7.150  1.1722 -0.1622 -0.1033
 1629SOL    HW216350   4.092   2.210   7.108  0.9590  0.1143 -0.8388
 1630SOL     OW16351   4.635   3.149  16.032 -0.6028  0.0904 -0.5781
 1630SOL    HW116352   4.690   3.165  16.108 -0.3451 -0.3395 -0.6744
 1630SOL    HW216353   4.572   3.088  16.071 -0.0329 -0.2562 -0.2124
 1631SOL     OW16354   2.123   1.165   3.541 -0.3692 -0.3998 -0.4462
 1631SOL    HW116355   2.079   1.205   3.466  2.1697 -0.1891 -1.8404
 1631SOL    HW216356   2.059   1.098   3.566 -1.3128 -0.2936 -2.5875
 1632SOL     OW16357   4.578   4.637  10.073 -0.5605  0.0667  0.5067
 1632SOL    HW116358   4.536   4.653   9.988  2.0319 -0.8985 -0.9651
 1632SOL    HW216359   4.555   4.712  10.126 -2.1616  0.7997 -1.2303
 1633SOL     OW16360   4.418   3.235  17.261  0.5532  0.6972 -0.4189
 1633SOL    HW116361   4.387   3.215  17.350  0.0326  1.4245 -0.4374
 1633SOL    HW216362   4.371   3.315  17.239  0.5309  0.3897 -1.4757
 1634SOL     OW16363   0.411   4.702  17.045 -0.0442  0.0455 -0.1859
 1634SOL    HW116364   0.491   4.712  17.096  0.4178  1.3819 -1.1695
 1634SOL    HW216365   0.452   4.691  16.959 -0.4350  2.7884 -0.7464
 1635SOL     OW16366   4.485   1.802   8.625  0.3463  0.0126 -0.1417
 1635SOL    HW116367   4.392   1.803   8.603  0.1635  1.0779  0.6766
 1635SOL    HW216368   4.483   1.850   8.708 -0.3406 -0.7259  0.2680
 1636SOL     OW16369   1.389   3.535  12.363  0.4943 -0.0926  0.1471
 1636SOL    HW116370   1.405   3.568  12.451 -1.2516  0.6526  0.1902
 1636SOL    HW216371   1.405   3.442  12.380 -1.0403 -0.1162  1.4814
 1637SOL     OW16372   2.028   1.683   5.830 -0.0082 -0.3694 -0.4243
 1637SOL    HW116373   2.113   1.681   5.787  1.3458 -2.4621  2.3307
 1637SOL    HW216374   2.023   1.598   5.874  1.9573 -0.0277  0.4710
 1638SOL     OW16375   4.642   2.411  14.832  0.4307  0.3346  0.5041
 1638SOL    HW116376   4.570   2.416  14.770  1.1804 -1.5480 -0.5185
 1638SOL    HW216377   4.603   2.432  14.917 -0.2517  2.7823 -0.4354
 1639SOL     OW16378   3.322   4.099   2.799  0.0042  0.2858 -0.0662
 1639SOL    HW116379   3.335   4.167   2.734  1.9079  0.4979  0.5365
 1639SOL    HW216380   3.354   4.019   2.758  3.4742  1.3434  0.5695
 1640SOL     OW16381   3.046   2.987   3.154 -0.0812  0.9794  0.1208
 1640SOL    HW116382   2.976   2.978   3.090  2.3544  0.1316 -2.4223
 1640SOL    HW216383   3.072   2.895   3.151  0.9616  1.3437 -1.6906
 1641SOL     OW16384   4.239   3.595   3.475 -0.9740  0.2081  0.1463
 1641SOL    HW116385   4.270   3.676   3.516  0.3491 -0.4377  0.4379
 1641SOL    HW216386   4.181   3.634   3.410 -1.2876  1.3999  1.1581
 1642SOL     OW16387   2.780   2.323   6.415  0.1886  0.4493 -0.7406
 1642SOL    HW116388   2.789   2.416   6.392  2.0952  0.5301  0.3728
 1642SOL    HW216389   2.864   2.297   6.454 -1.1633 -0.3888  1.6183
 1643SOL     OW16390   1.446   4.022   3.671 -0.2133 -0.4274  0.5794
 1643SOL    HW116391   1.508   4.059   3.609 -0.4977  1.4111  1.3886
 1643SOL    HW216392   1.442   4.080   3.747  1.9031  0.9407 -0.3558
 1644SOL     OW16393   1.950   3.980  12.875 -0.4172  0.1996  0.3379
 1644SOL    HW116394   1.941   4.075  12.867  0.7775  0.1675 -1.2913
 1644SOL    HW216395   1.925   3.964  12.966  0.1431 -0.2075  0.4188
 1645SOL     OW16396   3.611   0.512  13.168  0.1650 -0.0084  0.2128
 1645SOL    HW116397   3.658   0.592  13.192  1.2703 -0.6485  0.2173
 1645SOL    HW216398   3.548   0.503  13.240  1.4586 -3.1865  0.9613
 1646SOL     OW16399   0.045   0.969   6.538  0.2240  0.7701 -0.2003
 1646SOL    HW116400   0.015   0.884   6.508 -0.6641  0.9410  0.2097
 1646SOL    HW216401   0.077   0.951   6.626  2.2150 -0.0008 -1.0729
 1647SOL     OW16402   3.280   3.493   6.205  0.2461 -0.3089 -0.1901
 1647SOL    HW116403   3.272   3.414   6.258  1.0650 -0.6187 -0.5390
 1647SOL    HW216404   3.315   3.457   6.124 -0.1248 -2.0822  0.4550
 1648SOL     OW16405   2.278   3.235  17.240  0.1374 -0.2725  0.4511
 1648SOL    HW116406   2.247   3.317  17.278 -0.8774  0.0001 -0.9864
 1648SOL    HW216407   2.194   3.191  17.229  0.2280  0.2779 -2.2806
 1649SOL     OW16408   3.480   1.742  12.892 -0.5566  0.0446 -0.0137
 1649SOL    HW116409   3.574   1.765  12.894 -0.9152  1.7267 -1.5376
 1649SOL    HW216410   3.466   1.745  12.986 -0.2161  1.7740 -0.0127
 1650SOL     OW16411   2.278   1.718   5.742  0.2649  0.6483 -0.1676
 1650SOL    HW116412   2.299   1.654   5.673 -2.9684 -1.9876  1.2761
 1650SOL    HW216413   2.336   1.706   5.817  0.7994  1.6860 -0.4233
 1651SOL     OW16414   3.829   4.062   1.682  0.1375 -0.1273  0.4774
 1651SOL    HW116415   3.768   4.078   1.755 -1.2740 -1.6621 -0.3875
 1651SOL    HW216416   3.788   3.986   1.642 -0.0509  1.0872 -1.6354
 1652SOL     OW16417   3.068   4.012  10.443  0.2595 -0.1398  0.1015
 1652SOL    HW116418   3.110   3.926  10.451 -1.8595 -1.2484 -0.6764
 1652SOL    HW216419   3.104   4.053  10.364  0.7360  2.5071  1.7121
 1653SOL     OW16420   2.718   1.167   4.426 -0.1217  0.2493 -0.3877
 1653SOL    HW116421   2.679   1.097   4.374  1.6225 -1.0133  0.0104
 1653SOL    HW216422   2.791   1.197   4.373 -0.5521 -0.7655 -1.5372
 1654SOL     OW16423   1.835   3.869  17.536 -0.2422 -0.5442 -0.0317
 1654SOL    HW116424   1.767   3.877  17.469 -1.2099 -0.4001  0.9629
 1654SOL    HW216425   1.816   3.943  17.595  2.7946  0.2750 -0.1202
 1655SOL     OW16426   3.982   3.809   7.521 -0.4986 -0.4303  0.2531
 1655SOL    HW116427   3.969   3.903   7.537  0.5258 -0.2465  0.0404
 1655SOL    HW216428   3.960   3.806   7.427 -2.9645  0.4996  0.7950
 1656SOL     OW16429   0.680   0.913   7.571 -0.6042  0.2926 -0.3470
 1656SOL    HW116430   0.598   0.963   7.572  0.1965  1.5100  3.6883
 1656SOL    HW216431   0.667   0.849   7.641  0.5090 -0.5354 -0.9083
 1657SOL     OW16432   4.109   1.209   8.172  0.5885 -0.4642  0.2514
 1657SOL    HW116433   4.053   1.165   8.108  1.4922 -1.6578  0.2657
 1657SOL    HW216434   4.055   1.222   8.250 -0.3385  2.0176 -0.8128
 1658SOL     OW16435   3.148   2.150   1.291  0.2376  0.2351 -0.5355
 1658SOL    HW116436   3.159   2.061   1.324 -0.4931 -0.0847 -1.1602
 1658SOL    HW216437   3.226   2.161   1.236  1.8980  0.2786  1.8349
 1659SOL     OW16438   3.533   3.732   8.400  0.0615 -0.6428  0.2357
 1659SOL    HW116439   3.534   3.791   8.325 -2.4698 -0.6521  0.2116
 1659SOL    HW216440   3.598   3.668   8.371  0.6923  0.4132 -0.6845
 1660SOL     OW16441   1.152   1.743   2.400 -0.2417 -0.2021  0.0616
 1660SOL    HW116442   1.212   1.671   2.418  0.8847  1.2526  2.1282
 1660SOL    HW216443   1.125   1.721   2.311  1.2698 -1.7234 -0.0216
 1661SOL     OW16444   0.620   0.260  11.520 -0.1927  0.0355 -0.1985
 1661SOL    HW116445   0.656   0.331  11.574 -1.6840  0.9116 -0.3614
 1661SOL    HW216446   0.652   0.187  11.573 -0.3772  0.9586  1.1945
 1662SOL     OW16447   3.914   1.851   6.242 -0.0781  0.5237  0.0939
 1662SOL    HW116448   3.909   1.802   6.324 -1.7886 -1.3441 -1.1158
 1662SOL    HW216449   3.936   1.935   6.282  1.6039  0.4960 -0.7444
 1663SOL     OW16450   0.408   0.918   2.554  0.2618  0.4081  0.7130
 1663SOL    HW116451   0.481   0.869   2.516 -0.4560  0.0382 -0.1827
 1663SOL    HW216452   0.355   0.940   2.478  0.4859 -1.4309  0.0175
 1664SOL     OW16453   4.457   3.289   1.180 -0.4155  0.6445  0.2073
 1664SOL    HW116454   4.419   3.323   1.099  0.6372 -0.3633 -0.7093
 1664SOL    HW216455   4.424   3.199   1.184  0.5463  0.3199  0.8760
 1665SOL     OW16456   3.009   2.345   6.795 -0.5662 -0.6189 -0.1969
 1665SOL    HW116457   2.968   2.271   6.839  1.7920 -1.5845  0.4137
 1665SOL    HW216458   3.030   2.301   6.712 -0.6069 -2.0275  0.5366
 1666SOL     OW16459   1.482   0.880  11.199 -0.0554 -0.5854  0.0334
 1666SOL    HW116460   1.526   0.903  11.281  1.2748  0.2786 -0.9288
 1666SOL    HW216461   1.391   0.872  11.228 -0.1042 -0.6731 -0.1430
 1667SOL     OW16462   2.478   1.014   8.805 -0.5056  0.2529  0.5174
 1667SOL    HW116463   2.438   1.068   8.738 -1.0247 -2.0850 -1.0565
 1667SOL    HW216464   2.431   1.040   8.884  1.5100 -0.4148  1.9298
 1668SOL     OW16465   3.945   1.151   9.079  0.5298 -0.2784  0.2715
 1668SOL    HW116466   3.893   1.232   9.078  1.3611  0.2297 -0.8290
 1668SOL    HW216467   3.969   1.149   9.172 -0.1173  1.0753  0.4768
 1669SOL     OW16468   1.941   0.020   2.269 -0.3076 -0.1275  0.5235
 1669SOL    HW116469   1.861   4.722   2.315  0.6804  0.1045  2.3968
 1669SOL    HW216470   1.921   4.724   2.179 -0.6905 -0.8986  0.8167
 1670SOL     OW16471   4.048   4.116  15.213  0.0223 -0.5226  0.6778
 1670SOL    HW116472   4.122   4.168  15.244 -0.1237  0.6095 -0.8679
 1670SOL    HW216473   4.087   4.044  15.164  0.7780  1.3024 -1.3461
 1671SOL     OW16474   4.406   3.568   7.929  0.2105  0.3588 -0.1082
 1671SOL    HW116475   4.474   3.632   7.909 -0.4566  0.9417 -0.5296
 1671SOL    HW216476   4.332   3.629   7.925 -1.1671 -1.3781 -1.3863
 1672SOL     OW16477   0.561   3.855   2.829  0.0832 -0.2896  0.3499
 1672SOL    HW116478   0.489   3.889   2.882  0.7420  1.6994 -0.0287
 1672SOL    HW216479   0.552   3.925   2.764  2.2767 -1.4373 -1.1783
 1673SOL     OW16480   2.125   1.008   3.070 -0.0277  0.7303 -0.4287
 1673SOL    HW116481   2.035   1.022   3.100  0.4673  0.0266  1.4005
 1673SOL    HW216482   2.102   0.986   2.980 -1.5563  1.0157 -0.1067
 1674SOL     OW16483   3.323   3.260   8.176 -0.7110 -0.3810 -0.3912
 1674SOL    HW116484   3.407   3.234   8.213  0.0648  0.9952 -1.1822
 1674SOL    HW216485   3.261   3.205   8.224  0.9170  0.1867  2.3553
 1675SOL     OW16486   4.472   3.102  14.524  0.3617 -0.0481  0.0738
 1675SOL    HW116487   4.532   3.175  14.540  0.7880 -0.5630  0.8382
 1675SOL    HW216488   4.504   3.094  14.434  2.4165  0.2821  0.7703
 1676SOL     OW16489   1.693   1.463   6.680 -0.0523  0.0106  0.0313
 1676SOL    HW116490   1.757   1.393   6.665  0.6317  0.3869  1.2176
 1676SOL    HW216491   1.618   1.404   6.693  0.3202  0.3085  3.6087
 1677SOL     OW16492   0.745   1.116  10.019  0.0422  0.2875  0.0899
 1677SOL    HW116493   0.666   1.132  10.071 -1.2671  0.7306 -2.0544
 1677SOL    HW216494   0.735   1.191   9.960  1.8827 -1.0465 -1.9262
 1678SOL     OW16495   4.077   3.367  17.373  0.2098 -0.1050  0.3936
 1678SOL    HW116496   4.140   3.305  17.411  0.1673 -1.4682 -1.7636
 1678SOL    HW216497   4.061   3.335  17.284  0.6105 -0.3488  0.4062
 1679SOL     OW16498   2.732   0.995   2.528  0.5891 -0.0158  0.0520
 1679SOL    HW116499   2.712   1.010   2.436 -1.3792 -0.5881  0.3918
 1679SOL    HW216500   2.667   1.062   2.548  0.9945  0.5292 -0.4539
 1680SOL     OW16501   1.655   1.996   1.749 -0.2026  0.5182 -0.3713
 1680SOL    HW116502   1.672   1.988   1.843 -1.1809 -1.1634 -0.3556
 1680SOL    HW216503   1.560   1.997   1.753 -0.2779  0.2676 -1.8885
 1681SOL     OW16504   0.396   1.332   7.727  0.1773 -0.2910  0.0929
 1681SOL    HW116505   0.322   1.356   7.783 -1.9461 -3.7464 -1.2029
 1681SOL    HW216506   0.422   1.416   7.690  0.3549 -1.4518 -2.4093
 1682SOL     OW16507   1.834   0.274   4.583 -0.3140  0.1124 -0.4258
 1682SOL    HW116508   1.874   0.187   4.590  2.2951  1.1781 -1.9746
 1682SOL    HW216509   1.802   0.281   4.493 -0.7228  1.6137 -0.1560
 1683SOL     OW16510   2.920   4.282   4.474  0.3359 -0.1807 -0.1669
 1683SOL    HW116511   2.847   4.303   4.416 -2.1127 -0.0207  2.9620
 1683SOL    HW216512   2.907   4.344   4.546  2.0466  0.9970 -0.8869
 1684SOL     OW16513   0.385   2.484  11.673  0.0591  0.9840 -0.4931
 1684SOL    HW116514   0.352   2.449  11.590 -2.6652 -1.9762  1.8120
 1684SOL    HW216515   0.352   2.573  11.661 -1.3486  0.3608 -1.3092
 1685SOL     OW16516   4.090   3.194   5.104  0.1294  0.5210  0.1870
 1685SOL    HW116517   4.031   3.262   5.137  0.3136 -0.0820  1.7908
 1685SOL    HW216518   4.124   3.232   5.023  1.9522 -0.6248  0.4009
 1686SOL     OW16519   1.192   1.672  14.046  0.3967  0.3059  0.0697
 1686SOL    HW116520   1.134   1.734  14.002 -2.2729  0.3724  3.7027
 1686SOL    HW216521   1.195   1.619  13.966 -0.3234  0.9879 -0.4027
 1687SOL     OW16522   1.958   1.292  17.197 -0.1099  0.1823  0.0368
 1687SOL    HW116523   1.870   1.318  17.171 -0.4525 -1.3046 -0.2789
 1687SOL    HW216524   1.943   1.243  17.278 -0.9399 -1.3396 -1.0471
 1688SOL     OW16525   0.008   2.338   1.911 -0.4246  0.0408  0.1247
 1688SOL    HW116526   4.648   2.313   1.885  0.7553 -2.6581 -1.3354
 1688SOL    HW216527   4.710   2.374   1.996  0.0850 -3.6462  1.8856
 1689SOL     OW16528   2.660   0.010   3.597  0.1205  0.6304 -0.2264
 1689SOL    HW116529   2.711   0.045   3.670  0.9331 -0.1495 -0.4222
 1689SOL    HW216530   2.578   0.059   3.593 -0.1645  0.3577  2.1621
 1690SOL     OW16531   0.278   2.126   6.358 -0.0988  0.1459 -0.2983
 1690SOL    HW116532   0.202   2.119   6.417 -1.7411 -0.4261 -2.5029
 1690SOL    HW216533   0.347   2.133   6.424 -1.4343  0.7153  1.0624
 1691SOL     OW16534   1.843   0.462   6.320 -0.0052 -0.0658  0.4235
 1691SOL    HW116535   1.767   0.432   6.369 -0.9234  1.8102  0.1502
 1691SOL    HW216536   1.797   0.516   6.256  0.2662  0.4311  0.6559
 1692SOL     OW16537   4.145   1.077   9.270  0.1855 -0.1044 -0.6142
 1692SOL    HW116538   4.097   1.086   9.352 -0.0437 -1.3049 -0.6163
 1692SOL    HW216539   4.236   1.064   9.297  0.2856 -0.5804 -1.1646
 1693SOL     OW16540   0.823   2.727   3.888  0.0463 -0.0683  0.2252
 1693SOL    HW116541   0.895   2.788   3.901  1.7027 -2.1067  0.6024
 1693SOL    HW216542   0.878   2.668   3.836  2.0258  0.3240  1.8587
 1694SOL     OW16543   0.975   1.621   7.892  0.1107 -0.4152 -0.7574
 1694SOL    HW116544   0.932   1.606   7.976  1.1227 -0.3942 -0.2361
 1694SOL    HW216545   1.029   1.542   7.891  2.1730  0.9719 -0.6810
 1695SOL     OW16546   3.297   0.195   7.191  0.0071 -0.3523 -0.3187
 1695SOL    HW116547   3.287   0.123   7.253 -0.3590 -0.7367 -0.8270
 1695SOL    HW216548   3.386   0.225   7.209 -0.2786 -0.9125  2.0037
 1696SOL     OW16549   1.645   2.300   1.968 -0.0538  0.0654  0.5422
 1696SOL    HW116550   1.703   2.268   1.898 -0.5522  1.5866 -0.5708
 1696SOL    HW216551   1.609   2.215   1.991 -0.8210 -0.0647 -1.1177
 1697SOL     OW16552   0.401   3.531   8.781 -0.1974 -0.2877 -0.1058
 1697SOL    HW116553   0.476   3.471   8.781  0.6110  0.7116  0.7078
 1697SOL    HW216554   0.360   3.497   8.861  2.1064 -3.8024 -0.4219
 1698SOL     OW16555   1.728   2.560   8.834 -0.5390  0.0823  0.7748
 1698SOL    HW116556   1.805   2.578   8.889 -0.4210 -1.2795  1.0488
 1698SOL    HW216557   1.700   2.650   8.819 -1.3412  0.2455  3.2372
 1699SOL     OW16558   0.524   2.027   2.094 -0.3061  0.2804  0.4786
 1699SOL    HW116559   0.527   1.970   2.018 -1.0878  2.7093 -1.3929
 1699SOL    HW216560   0.465   1.986   2.157 -0.8370  1.2632  0.6211
 1700SOL     OW16561   0.979   1.686   6.641 -0.7723  0.1758 -0.0153
 1700SOL    HW116562   0.902   1.694   6.584 -0.9213  2.4986  0.4802
 1700SOL    HW216563   0.942   1.706   6.727 -0.4852  1.1842 -0.1271
 1701SOL     OW16564   1.279   2.367  12.363 -0.7548  0.0325  0.2571
 1701SOL    HW116565   1.328   2.341  12.285 -2.8982 -1.1907 -0.6993
 1701SOL    HW216566   1.223   2.290  12.373  1.3829 -1.5040  0.3394
 1702SOL     OW16567   4.144   1.895   7.935  0.0744  0.3912 -0.3032
 1702SOL    HW116568   4.124   1.899   8.028  1.7690  1.5997  0.0131
 1702SOL    HW216569   4.210   1.964   7.931  1.3594 -0.8820 -0.9194
 1703SOL     OW16570   1.064   1.092   5.949  0.3944 -0.4026  0.0940
 1703SOL    HW116571   1.098   1.002   5.947 -0.0318 -0.6061  2.0042
 1703SOL    HW216572   0.969   1.083   5.961  0.0015  0.9276 -2.0146
 1704SOL     OW16573   3.069   2.496   7.783 -0.5706 -0.0637  0.1574
 1704SOL    HW116574   3.037   2.406   7.793  0.0336 -0.3511 -0.4660
 1704SOL    HW216575   3.107   2.508   7.870 -0.4520  1.4514 -0.0990
 1705SOL     OW16576   1.487   1.287   6.667 -0.0161  0.2754 -0.0691
 1705SOL    HW116577   1.532   1.245   6.593 -1.1275 -3.9973  1.6374
 1705SOL    HW216578   1.396   1.268   6.643  0.9279 -2.1832 -1.7081
 1706SOL     OW16579   2.288   3.638   6.870  0.5303 -0.1713  0.1243
 1706SOL    HW116580   2.356   3.703   6.890 -1.5626  2.4895 -1.4469
 1706SOL    HW216581   2.209   3.686   6.896  0.7212 -0.2905  0.9196
 1707SOL     OW16582   0.879   3.091   6.316 -0.6166 -0.0121  0.1130
 1707SOL    HW116583   0.865   3.043   6.234 -1.0425  0.1973  0.0631
 1707SOL    HW216584   0.810   3.157   6.308  0.6737  1.3323  0.1309
 1708SOL     OW16585   1.301   2.365   0.887 -0.2575  0.3632  0.1271
 1708SOL    HW116586   1.291   2.271   0.875 -0.5778  0.4356 -0.2041
 1708SOL    HW216587   1.350   2.387   0.807 -1.7124  0.8261 -0.6448
 1709SOL     OW16588   0.404   3.458  11.973  0.5152 -0.0580 -0.2465
 1709SOL    HW116589   0.439   3.402  12.042 -0.7556 -0.2450  0.2486
 1709SOL    HW216590   0.481   3.468  11.916  1.3155 -3.1864  0.3030
 1710SOL     OW16591   0.712   1.988   7.629  0.3697 -0.1355  0.0424
 1710SOL    HW116592   0.804   1.980   7.605 -0.1746 -1.5730 -1.5765
 1710SOL    HW216593   0.715   1.920   7.697 -1.7995  0.8797  1.1692
 1711SOL     OW16594   2.910   3.153   2.160 -0.4877 -0.2643 -0.1192
 1711SOL    HW116595   2.940   3.244   2.156 -3.8937  0.9954  1.9838
 1711SOL    HW216596   2.872   3.137   2.074 -0.1616  0.2851 -0.3639
 1712SOL     OW16597   4.553   4.374  17.102 -0.2466  0.0991  0.0529
 1712SOL    HW116598   4.532   4.399  17.013  0.7870  1.3252  0.1532
 1712SOL    HW216599   4.630   4.317  17.100 -1.6334 -1.8212  1.2751
 1713SOL     OW16600   4.666   0.777   9.534  0.3362  0.5037  0.8463
 1713SOL    HW116601   4.640   0.687   9.553  0.2849  0.3232 -0.0972
 1713SOL    HW216602   0.031   0.767   9.547  0.8274  0.7927 -2.5164
 1714SOL     OW16603   4.547   0.141   8.944  0.1158 -0.0808 -0.5391
 1714SOL    HW116604   4.611   0.155   9.014 -1.2542  0.6764  0.5598
 1714SOL    HW216605   4.605   0.155   8.869 -1.0718  0.2824 -1.3796
 1715SOL     OW16606   1.860   1.035  13.666 -0.2991 -0.1650 -0.3339
 1715SOL    HW116607   1.889   1.071  13.583 -1.3835 -1.4982 -1.2923
 1715SOL    HW216608   1.783   0.985  13.640 -0.9266  1.3974 -1.4256
 1716SOL     OW16609   3.259   0.765  14.889  0.3884 -0.2410  0.6626
 1716SOL    HW116610   3.195   0.730  14.952 -1.1588  1.0824 -0.1531
 1716SOL    HW216611   3.222   0.851  14.869  1.3869 -0.3764 -1.7538
 1717SOL     OW16612   3.104   0.733  15.707 -0.6390  0.2468  0.0409
 1717SOL    HW116613   3.173   0.688  15.659 -0.5937  0.4807 -0.1137
 1717SOL    HW216614   3.117   0.826  15.689  1.3386 -0.1994 -0.7937
 1718SOL     OW16615   3.157   1.957   7.401  0.1600 -0.5517 -0.2920
 1718SOL    HW116616   3.139   1.977   7.309 -0.6281  1.0060  0.2001
 1718SOL    HW216617   3.248   1.930   7.413 -0.6931 -3.4077 -0.2868
 1719SOL     OW16618   2.106   0.113   3.366 -0.5246 -0.1831  0.3755
 1719SOL    HW116619   2.155   0.102   3.284 -1.0900 -0.7496  0.1158
 1719SOL    HW216620   2.111   0.208   3.373  1.8410 -0.4486  2.3691
 1720SOL     OW16621   3.153   2.531   3.590 -0.6200 -0.0883 -0.1603
 1720SOL    HW116622   3.178   2.511   3.500  0.1204  1.8816 -0.3950
 1720SOL    HW216623   3.184   2.457   3.642 -0.4539 -0.5714 -0.9438
 1721SOL     OW16624   0.776   0.108   7.565  0.1875  0.5480 -0.0802
 1721SOL    HW116625   0.803   0.143   7.649 -0.5569  0.4860  0.1908
 1721SOL    HW216626   0.771   0.192   7.520 -1.4819 -0.0274 -1.0093
 1722SOL     OW16627   0.683   4.320   4.911 -0.4179 -0.1692 -0.1871
 1722SOL    HW116628   0.619   4.390   4.898 -1.4798 -0.5913  2.6802
 1722SOL    HW216629   0.774   4.349   4.916  0.4201 -2.5053 -1.7129
 1723SOL     OW16630   4.203   1.181   7.080 -0.1890 -0.4935  0.1860
 1723SOL    HW116631   4.215   1.087   7.061 -0.5739 -0.7488  1.2233
 1723SOL    HW216632   4.291   1.215   7.066  0.0530 -1.4162 -0.5916
 1724SOL     OW16633   1.743   3.489   4.693 -0.1967 -0.4216 -0.4967
 1724SOL    HW116634   1.743   3.562   4.755 -1.3164  0.4509 -1.5338
 1724SOL    HW216635   1.786   3.430   4.755  0.1313 -0.4456 -0.7469
 1725SOL     OW16636   2.939   2.917   6.206  0.0655 -0.3038  0.0578
 1725SOL    HW116637   2.960   3.001   6.166 -1.4231 -0.6983 -1.5665
 1725SOL    HW216638   2.889   2.862   6.145 -0.7307  0.9023 -0.3614
 1726SOL     OW16639   2.761   2.374  13.481  0.2196  0.2798  0.1378
 1726SOL    HW116640   2.778   2.427  13.404  0.0287  1.8839  1.2064
 1726SOL    HW216641   2.680   2.419  13.504  1.7689  2.3840  1.4209
 1727SOL     OW16642   0.679   4.681   7.147  1.0678  0.0039  0.0702
 1727SOL    HW116643   0.645   0.033   7.184 -1.6801 -1.3730  0.5236
 1727SOL    HW216644   0.659   4.613   7.212  0.1485 -1.8244 -2.1205
 1728SOL     OW16645   1.338   0.274   2.585 -0.6256  0.3123 -0.2284
 1728SOL    HW116646   1.417   0.267   2.638 -0.3751  0.7737 -0.5348
 1728SOL    HW216647   1.285   0.205   2.626  0.4746  0.0080  0.6594
 1729SOL     OW16648   0.878   2.443   8.387 -0.3003  0.2810 -0.4884
 1729SOL    HW116649   0.829   2.362   8.372  0.5543 -0.3044 -0.0647
 1729SOL    HW216650   0.966   2.407   8.385 -0.4886 -0.1702 -0.7802
 1730SOL     OW16651   3.223   1.829   1.382  0.0897 -0.5829  0.0477
 1730SOL    HW116652   3.134   1.844   1.351  0.2065 -0.5535 -0.2735
 1730SOL    HW216653   3.247   1.749   1.336  0.0825 -0.5772  0.0337
 1731SOL     OW16654   2.640   0.946   5.833 -0.4844 -0.2865 -0.3231
 1731SOL    HW116655   2.717   0.931   5.887 -1.1899  0.7596  0.9661
 1731SOL    HW216656   2.570   0.924   5.894 -0.4596 -0.9955 -0.5494
 1732SOL     OW16657   3.828   3.488   7.639 -0.0517 -0.2855 -0.0356
 1732SOL    HW116658   3.804   3.396   7.648 -1.4760  0.0441 -0.5853
 1732SOL    HW216659   3.744   3.520   7.607 -0.2411 -2.2216 -1.4150
 1733SOL     OW16660   4.148   1.613   9.498 -0.1991  0.0327 -0.2837
 1733SOL    HW116661   4.136   1.708   9.504  1.8291  0.2804 -0.2278
 1733SOL    HW216662   4.242   1.614   9.511 -0.0765 -1.5238 -1.0605
 1734SOL     OW16663   0.468   0.996   2.917 -0.2072 -0.2360  0.1158
 1734SOL    HW116664   0.480   1.061   2.987  0.1813 -0.1236 -0.0561
 1734SOL    HW216665   0.558   0.978   2.890 -0.1159  0.3933  0.0030
 1735SOL     OW16666   2.872   0.357   5.928  0.3960 -0.0726 -0.3081
 1735SOL    HW116667   2.907   0.280   5.882  2.0516  0.1797  0.5306
 1735SOL    HW216668   2.945   0.379   5.985  0.4759  2.3597 -1.3750
 1736SOL     OW16669   0.869   3.805   4.005  0.6177 -0.3551  0.1300
 1736SOL    HW116670   0.898   3.717   3.981  2.3006 -0.0701  1.1487
 1736SOL    HW216671   0.885   3.853   3.924  0.2197  2.5119  1.7538
 1737SOL     OW16672   1.257   3.165   4.700  0.2063  0.1190 -0.1056
 1737SOL    HW116673   1.308   3.088   4.724  2.6372  0.9422 -2.5004
 1737SOL    HW216674   1.331   3.226   4.686 -1.2191  1.6460 -0.9985
 1738SOL     OW16675   0.359   4.328  11.382 -0.6280  0.0859  0.0206
 1738SOL    HW116676   0.310   4.319  11.463 -0.5718 -1.0787 -0.0702
 1738SOL    HW216677   0.288   4.350  11.321  1.7417  3.9681 -1.3528
 1739SOL     OW16678   1.472   0.766   5.253  0.2138 -0.0736  0.4968
 1739SOL    HW116679   1.468   0.807   5.340  1.7229  0.5942  0.2418
 1739SOL    HW216680   1.393   0.712   5.257 -0.0377  0.3059  0.6480
 1740SOL     OW16681   0.535   4.440   3.796  0.7104  0.3363 -0.0115
 1740SOL    HW116682   0.467   4.413   3.734  1.9830 -1.9704 -0.3878
 1740SOL    HW216683   0.612   4.444   3.739  1.3854  0.1765  0.8766
 1741SOL     OW16684   1.251   4.320   3.526  0.3523 -0.6730  0.4834
 1741SOL    HW116685   1.219   4.410   3.535  3.8819  0.6158  0.2387
 1741SOL    HW216686   1.310   4.313   3.601  1.3030 -1.4306 -0.3278
 1742SOL     OW16687   0.916   2.044   2.057  0.1589  0.2397 -0.5134
 1742SOL    HW116688   0.911   2.027   1.963 -0.9024 -0.7631 -0.2792
 1742SOL    HW216689   0.897   2.138   2.058 -0.4448  0.0880  1.2520
 1743SOL     OW16690   0.161   0.181   3.892  0.1125 -0.8972 -0.2103
 1743SOL    HW116691   0.158   0.116   3.963 -0.2216  0.3447  0.9079
 1743SOL    HW216692   0.255   0.197   3.882 -0.0436  0.6402  0.7243
 1744SOL     OW16693   2.894   2.065   4.991 -0.4685 -0.5594 -0.0364
 1744SOL    HW116694   2.923   1.976   4.973  0.8136  0.0054 -0.8057
 1744SOL    HW216695   2.944   2.066   5.073  0.6503 -0.3507 -0.7194
 1745SOL     OW16696   4.362   4.505   3.840  0.0151  0.0209 -0.2902
 1745SOL    HW116697   4.304   4.573   3.806 -0.7732 -0.9433 -0.8595
 1745SOL    HW216698   4.329   4.485   3.928  0.4246  3.0556  0.5636
 1746SOL     OW16699   2.405   1.420   4.230  0.0491  0.5726  0.0127
 1746SOL    HW116700   2.480   1.479   4.236  0.1872  0.4350 -0.4282
 1746SOL    HW216701   2.431   1.335   4.197  0.8179  0.0098  2.0396
 1747SOL     OW16702   2.287   1.311   7.616  1.0721  0.0339 -0.2617
 1747SOL    HW116703   2.279   1.406   7.623  1.1225  0.0259 -0.1083
 1747SOL    HW216704   2.291   1.281   7.706 -0.7416  1.4272  0.2931
 1748SOL     OW16705   1.605   3.952   6.506 -0.1418  0.1092 -0.4560
 1748SOL    HW116706   1.518   3.911   6.502 -1.6681  3.2731  0.3257
 1748SOL    HW216707   1.601   4.038   6.465 -0.1476 -0.6732 -2.0663
 1749SOL     OW16708   0.851   1.381   3.335  0.0440 -0.1668 -0.4299
 1749SOL    HW116709   0.823   1.473   3.330  0.9624  0.0747 -1.1606
 1749SOL    HW216710   0.781   1.343   3.387 -0.2135 -1.4819 -1.7698
 1750SOL     OW16711   4.400   0.909   1.754 -0.2391  0.5204 -0.5640
 1750SOL    HW116712   4.436   0.967   1.687 -1.3300 -0.9356 -2.4249
 1750SOL    HW216713   4.485   0.870   1.775  0.5328  2.8344  0.6111
 1751SOL     OW16714   1.661   4.331   3.158 -0.1549 -0.3613 -0.0919
 1751SOL    HW116715   1.729   4.362   3.218 -0.8414 -0.7631  0.8898
 1751SOL    HW216716   1.585   4.326   3.216 -0.7784 -0.9177 -0.9697
 1752SOL     OW16717   4.069   3.975   1.810  0.0653  0.4709 -0.1341
 1752SOL    HW116718   4.005   4.000   1.744  0.3862  1.3496 -0.1122
 1752SOL    HW216719   4.134   4.040   1.784  3.4739 -2.7861  0.2531
 1753SOL     OW16720   3.714   1.191   6.694 -0.2637 -0.6864 -0.4174
 1753SOL    HW116721   3.630   1.207   6.651 -0.4955 -0.1547  0.2364
 1753SOL    HW216722   3.699   1.099   6.717 -0.9519  0.0370  1.9847
 1754SOL     OW16723   0.512   2.601   0.546  0.0191  0.1721  0.1019
 1754SOL    HW116724   0.574   2.595   0.619 -2.3059 -0.2672  2.0337
 1754SOL    HW216725   0.540   2.684   0.507  1.0486 -0.5914 -0.7843
 1755SOL     OW16726   0.265   0.902   9.253  0.1005  0.1576  0.3662
 1755SOL    HW116727   0.247   0.866   9.166 -1.5550  1.5424  0.1491
 1755SOL    HW216728   0.306   0.825   9.293  0.6706  0.6682  0.7538
 1756SOL     OW16729   0.278   4.169  12.285  0.4195 -0.1351  0.1111
 1756SOL    HW116730   0.217   4.104  12.250 -0.2403  1.6580 -2.0764
 1756SOL    HW216731   0.250   4.175  12.376  0.1729  1.6880 -0.0948
 1757SOL     OW16732   3.702   1.568   4.799 -0.4688 -0.0669 -0.8694
 1757SOL    HW116733   3.649   1.640   4.765 -0.2079  0.4837 -0.0942
 1757SOL    HW216734   3.643   1.493   4.787 -0.1317 -0.5476  0.4527
 1758SOL     OW16735   1.812   4.519   6.204  0.3736  0.2189  0.7250
 1758SOL    HW116736   1.887   4.509   6.146 -0.7337 -0.2833 -0.6264
 1758SOL    HW216737   1.862   4.548   6.280 -0.5424  0.0717  1.3904
 1759SOL     OW16738   3.778   0.991  12.079  0.2397  0.4141 -0.2545
 1759SOL    HW116739   3.828   0.984  12.160  1.7186  2.3711 -1.0130
 1759SOL    HW216740   3.697   0.943  12.099  1.1581 -1.3090 -0.6734
 1760SOL     OW16741   4.357   0.809  10.718 -0.4533  0.2649 -0.0445
 1760SOL    HW116742   4.358   0.735  10.778 -0.6133 -1.3307 -1.9974
 1760SOL    HW216743   4.417   0.870  10.760  0.5177  0.2786 -1.4531
 1761SOL     OW16744   1.000   0.461   7.433  0.6913 -0.1048 -0.3862
 1761SOL    HW116745   0.978   0.488   7.522  0.9559 -0.6567 -0.1530
 1761SOL    HW216746   0.933   0.393   7.424  0.1023  0.5855 -1.2605
 1762SOL     OW16747   0.135   3.800   6.571  0.1510  0.0770  0.0736
 1762SOL    HW116748   0.150   3.763   6.658 -0.7729 -2.2753 -0.7551
 1762SOL    HW216749   0.220   3.773   6.534 -1.0296 -0.1094 -2.5233
 1763SOL     OW16750   0.381   4.724  11.439 -0.6114  0.3007 -0.3693
 1763SOL    HW116751   0.366   0.022  11.529  2.4580 -2.2454  0.8854
 1763SOL    HW216752   0.289   4.726  11.412 -0.9583 -0.0117  0.7786
 1764SOL     OW16753   1.929   4.125   5.489  0.7448  0.5696 -0.2608
 1764SOL    HW116754   1.984   4.157   5.417  1.7336  0.0247  0.2443
 1764SOL    HW216755   1.990   4.105   5.560  0.4886  0.9837  0.0786
 1765SOL     OW16756   2.035   1.949  13.591 -0.1805  0.5897  0.1562
 1765SOL    HW116757   2.094   2.011  13.547 -0.6405  1.3541  0.6099
 1765SOL    HW216758   1.978   1.927  13.518  1.1763  0.6691 -0.9324
 1766SOL     OW16759   2.963   3.550  15.562 -0.1119 -0.4264  0.5453
 1766SOL    HW116760   2.892   3.569  15.623 -1.1824  2.4016 -1.5684
 1766SOL    HW216761   2.937   3.460  15.546 -0.7052 -0.2229  0.3765
 1767SOL     OW16762   4.565   0.075   6.443 -0.6012 -0.5229  0.1896
 1767SOL    HW116763   4.581   0.036   6.357  0.4821 -1.8510  0.9868
 1767SOL    HW216764   4.621   0.151   6.431  0.1023 -0.8361  1.4447
 1768SOL     OW16765   4.537   3.609  17.542  0.4815  0.9723  0.1917
 1768SOL    HW116766   4.548   3.546  17.614  0.3925  0.5517 -0.1594
 1768SOL    HW216767   4.554   3.550  17.468 -0.7930  1.6701 -0.6622
 1769SOL     OW16768   2.628   4.309   1.095 -0.1945  0.1411  0.2339
 1769SOL    HW116769   2.575   4.326   1.018  0.0843 -0.7067 -0.1476
 1769SOL    HW216770   2.597   4.221   1.116 -0.0019 -0.2532 -1.1599
 1770SOL     OW16771   3.802   0.742   4.559 -0.2311  0.1743 -0.0529
 1770SOL    HW116772   3.755   0.678   4.611 -1.1564 -0.5371 -1.7570
 1770SOL    HW216773   3.866   0.695   4.506  1.1097 -0.4786  2.1586
 1771SOL     OW16774   3.235   0.992   3.000 -0.1787 -0.5309 -0.2514
 1771SOL    HW116775   3.167   1.051   2.967  0.2207 -1.1078 -2.1040
 1771SOL    HW216776   3.308   1.050   2.976  0.2271 -0.8688  0.1639
 1772SOL     OW16777   4.236   3.280   0.271  0.3066 -0.4076  0.4190
 1772SOL    HW116778   4.271   3.254   0.356  0.0523 -1.9835  0.0454
 1772SOL    HW216779   4.178   3.353   0.292  0.2299  0.4840 -2.9718
 1773SOL     OW16780   2.704   1.419   6.883 -0.4004  0.2705 -0.3750
 1773SOL    HW116781   2.672   1.357   6.949  0.8354  0.5921  0.5267
 1773SOL    HW216782   2.657   1.498   6.909  1.2208  1.3920 -0.8816
 1774SOL     OW16783   0.500   4.545   3.206 -0.4186 -0.1986 -0.1319
 1774SOL    HW116784   0.411   4.528   3.175  0.6327 -1.0059 -2.6783
 1774SOL    HW216785   0.540   4.458   3.206  0.5638  0.2465  1.1934
 1775SOL     OW16786   3.484   3.367   7.091  0.2661  0.3619  0.5883
 1775SOL    HW116787   3.404   3.315   7.081  0.8503 -0.3906 -0.2494
 1775SOL    HW216788   3.458   3.414   7.170  2.0098  0.8820  0.8423
 1776SOL     OW16789   2.781   2.882   6.423 -0.6241  0.0020  0.0873
 1776SOL    HW116790   2.842   2.897   6.351 -0.7738 -1.8203 -0.4062
 1776SOL    HW216791   2.733   2.963   6.404 -0.3348 -0.2838 -1.8496
 1777SOL     OW16792   4.074   2.543  16.470  0.0728 -0.6212  0.1183
 1777SOL    HW116793   4.135   2.534  16.543  0.7963  2.1532 -0.1415
 1777SOL    HW216794   4.141   2.564  16.405 -1.1215  0.2685 -0.8253
 1778SOL     OW16795   1.013   2.701   3.438 -0.0536  0.3092 -0.2218
 1778SOL    HW116796   1.037   2.732   3.351 -0.6916 -2.1360 -1.2855
 1778SOL    HW216797   1.089   2.644   3.454  1.1346  1.0436 -3.2734
 1779SOL     OW16798   0.344   1.862   9.330  0.1879 -0.0739  0.2701
 1779SOL    HW116799   0.351   1.791   9.393 -0.1328 -1.3204 -1.1049
 1779SOL    HW216800   0.432   1.901   9.331  1.1678 -2.2335 -1.3666
 1780SOL     OW16801   3.005   2.860  12.188  0.3699 -0.6863 -0.0672
 1780SOL    HW116802   3.007   2.952  12.215 -0.5713 -1.2356  1.8836
 1780SOL    HW216803   3.097   2.834  12.193  0.3586 -0.8439 -0.6618
 1781SOL     OW16804   2.011   1.128  10.505 -0.3872 -0.2395  0.1631
 1781SOL    HW116805   2.062   1.183  10.564 -0.1682 -2.8669  2.4208
 1781SOL    HW216806   1.936   1.092  10.553  0.1998  0.2649  1.4378
 1782SOL     OW16807   4.032   0.976   4.403  0.3631 -0.5085 -0.4429
 1782SOL    HW116808   3.957   1.033   4.394  0.3331 -0.3042  1.0732
 1782SOL    HW216809   4.023   0.957   4.497 -0.6448 -0.1126 -0.4687
 1783SOL     OW16810   3.746   0.047  10.102  0.0589  0.1146 -0.2772
 1783SOL    HW116811   3.763   0.039  10.008 -1.5724 -1.4203 -0.4395
 1783SOL    HW216812   3.670   4.722  10.123  0.7647 -1.2517 -1.1724
 1784SOL     OW16813   2.467   4.294   0.827  0.1318 -0.0235 -0.7108
 1784SOL    HW116814   2.546   4.347   0.812 -0.6444  1.5935  0.9850
 1784SOL    HW216815   2.502   4.206   0.814  0.9094  0.2293 -0.3754
 1785SOL     OW16816   3.606   0.282   8.568 -0.6247  0.7195 -0.5761
 1785SOL    HW116817   3.605   0.324   8.654 -1.2899 -0.3693 -0.0500
 1785SOL    HW216818   3.526   0.229   8.574 -0.5291  0.5618 -0.6679
 1786SOL     OW16819   0.576   0.193  11.864  0.1070  0.1118 -0.1632
 1786SOL    HW116820   0.537   0.272  11.899 -1.0057 -0.5826  0.1673
 1786SOL    HW216821   0.665   0.212  11.893  0.1287 -1.0286  0.5431
 1787SOL     OW16822   0.079   0.660   3.719  0.3740 -0.0912 -0.1849
 1787SOL    HW116823   0.040   0.724   3.660  2.2011  0.2718 -1.0154
 1787SOL    HW216824   0.045   0.578   3.684 -0.2928 -0.5927  1.6462
 1788SOL     OW16825   2.482   0.113   2.736  0.2504 -0.1934 -0.4177
 1788SOL    HW116826   2.506   0.054   2.807  3.8516 -0.6691 -2.0289
 1788SOL    HW216827   2.509   0.191   2.785  2.3716  0.9683 -3.4391
 1789SOL     OW16828   1.483   0.883   3.012 -0.4092 -0.1596  0.0605
 1789SOL    HW116829   1.388   0.896   3.005 -0.2432  1.9990  2.0261
 1789SOL    HW216830   1.503   0.909   3.101 -2.0019  2.4968 -0.3388
 1790SOL     OW16831   3.814   3.957   4.580  0.4190 -0.3306 -0.3444
 1790SOL    HW116832   3.865   3.881   4.553  2.7106  0.2361  2.3207
 1790SOL    HW216833   3.877   4.029   4.576  0.5881 -0.4108  0.7735
 1791SOL     OW16834   3.600   1.553   1.381 -0.1654 -0.8914  0.2765
 1791SOL    HW116835   3.668   1.509   1.431  1.5509 -0.1110 -1.3762
 1791SOL    HW216836   3.620   1.517   1.294 -1.6804  1.3538 -1.0102
 1792SOL     OW16837   3.445   0.281  14.810  0.1681  0.3656 -0.4178
 1792SOL    HW116838   3.478   0.295  14.898 -0.7348  0.2475 -0.0637
 1792SOL    HW216839   3.361   0.328  14.819 -0.3329  0.1381 -3.7158
 1793SOL     OW16840   3.833   2.777   6.718  0.2129 -0.1437 -0.0810
 1793SOL    HW116841   3.741   2.791   6.739 -0.1536  1.2456 -2.5450
 1793SOL    HW216842   3.857   2.710   6.781 -0.0586  1.4118  1.6554
 1794SOL     OW16843   2.951   4.059   7.348 -0.0363  0.4003 -0.3164
 1794SOL    HW116844   2.921   4.149   7.340 -1.4726 -0.0673 -0.2536
 1794SOL    HW216845   2.892   4.019   7.413  1.5663  2.2923  2.3328
 1795SOL     OW16846   4.358   4.445   9.837  0.1796 -0.4273 -0.4227
 1795SOL    HW116847   4.263   4.452   9.830  0.6542  3.8697 -2.8916
 1795SOL    HW216848   4.386   4.525   9.793 -0.6573 -0.1066 -0.3738
 1796SOL     OW16849   4.571   3.359   3.281  0.4963 -0.0593 -0.9089
 1796SOL    HW116850   4.544   3.361   3.189 -2.5581  2.7924  0.0113
 1796SOL    HW216851   4.576   3.454   3.294 -2.1260 -0.2028  1.0881
 1797SOL     OW16852   2.347   0.136  16.493 -0.3460  0.1725  0.0905
 1797SOL    HW116853   2.338   0.131  16.588  2.4398 -1.0698  0.2873
 1797SOL    HW216854   2.415   0.069  16.491  1.0412  1.5229  2.5754
 1798SOL     OW16855   4.249   2.198   6.380 -0.2012  0.3029  0.3789
 1798SOL    HW116856   4.259   2.269   6.316 -2.1820  1.4738  1.3895
 1798SOL    HW216857   4.165   2.158   6.355 -0.8347  0.6268  1.9994
 1799SOL     OW16858   3.164   0.298   4.228 -0.1955 -0.0200 -0.2426
 1799SOL    HW116859   3.208   0.344   4.156  0.8664 -0.0800  0.3685
 1799SOL    HW216860   3.148   0.371   4.288  0.4422  0.2123 -0.3577
 1800SOL     OW16861   4.686   0.762   2.517  0.1144 -0.0962 -0.3764
 1800SOL    HW116862   4.696   0.672   2.549  1.6064 -0.8177 -2.8650
 1800SOL    HW216863   4.673   0.803   2.603 -0.2195  1.2360 -1.0677
 1801SOL     OW16864   0.047   4.154  17.128  0.0989 -0.0700 -0.1557
 1801SOL    HW116865   0.098   4.177  17.050  0.4532  2.9112  0.9700
 1801SOL    HW216866   0.112   4.129  17.193  0.0602  1.3080  0.4138
 1802SOL     OW16867   2.415   0.146   5.226  0.1702 -0.2013  0.3216
 1802SOL    HW116868   2.460   0.202   5.289  1.7094 -0.5967 -0.4114
 1802SOL    HW216869   2.328   0.128   5.262 -0.1680 -0.5219 -0.6440
 1803SOL     OW16870   4.236   0.458   8.642 -0.2587 -0.0138 -0.2778
 1803SOL    HW116871   4.289   0.456   8.721  0.2144  1.1795 -0.5558
 1803SOL    HW216872   4.284   0.525   8.592 -1.7323 -0.5895 -2.4941
 1804SOL     OW16873   3.222   2.622   8.743 -0.0924  0.3701  0.4060
 1804SOL    HW116874   3.190   2.661   8.661 -0.6786 -0.7861  0.0920
 1804SOL    HW216875   3.195   2.530   8.740 -1.3269  0.7902 -1.8296
 1805SOL     OW16876   1.768   1.720   1.905  0.3253  0.1275  0.1640
 1805SOL    HW116877   1.736   1.704   1.816 -0.0311 -1.2121  0.5352
 1805SOL    HW216878   1.780   1.815   1.910  1.2663  0.0238 -0.1599
 1806SOL     OW16879   0.910   3.156  15.847  0.2814 -0.1212  0.2351
 1806SOL    HW116880   0.904   3.231  15.787  0.4605 -0.7393 -0.5522
 1806SOL    HW216881   0.992   3.190  15.883  1.3696  0.9482 -3.2705
 1807SOL     OW16882   0.790   1.381   7.214 -0.3629  0.0931 -0.8683
 1807SOL    HW116883   0.796   1.410   7.306  0.5346  2.0107 -1.5248
 1807SOL    HW216884   0.699   1.352   7.220  0.1070 -1.1882  0.0739
 1808SOL     OW16885   2.318   1.137   8.139 -0.2104 -0.2043 -0.3326
 1808SOL    HW116886   2.356   1.222   8.161  1.7068 -1.0460 -0.3875
 1808SOL    HW216887   2.355   1.113   8.054  1.4170  1.7518 -0.1635
 1809SOL     OW16888   3.895   1.771   8.435 -0.5640  0.0891  0.7694
 1809SOL    HW116889   3.832   1.753   8.504 -2.0494 -0.5166 -0.7417
 1809SOL    HW216890   3.859   1.832   8.371  1.0106  2.0237  1.7353
 1810SOL     OW16891   1.117   1.076  12.736 -0.5200 -0.0348  0.9412
 1810SOL    HW116892   1.063   1.126  12.675 -1.2045 -3.0094 -0.9057
 1810SOL    HW216893   1.060   1.001  12.756  0.2175 -0.5536  1.0865
 1811SOL     OW16894   4.431   2.119   0.049  0.6431 -0.5320  0.6368
 1811SOL    HW116895   4.516   2.076   0.052  0.8691 -0.1513 -0.2862
 1811SOL    HW216896   4.431   2.185   0.119  0.2626 -2.7358  2.7216
 1812SOL     OW16897   4.717   0.504   1.968 -0.2524 -0.7964  0.1326
 1812SOL    HW116898   0.008   0.531   2.058 -0.1425 -0.9579  0.1572
 1812SOL    HW216899   4.650   0.437   1.979 -1.0761 -0.1607 -1.0300
 1813SOL     OW16900   0.098   3.335   8.641 -0.8933 -0.1045  0.0629
 1813SOL    HW116901   0.175   3.333   8.584  0.7147  0.3243  2.2238
 1813SOL    HW216902   0.072   3.425   8.660 -2.2428 -0.4994  0.0561
 1814SOL     OW16903   1.500   1.873   4.385 -0.3730 -0.3243 -0.5474
 1814SOL    HW116904   1.506   1.961   4.350  1.4698 -0.0060  0.5459
 1814SOL    HW216905   1.591   1.850   4.402 -0.2763  0.4924  0.0235
 1815SOL     OW16906   3.291   4.571  13.423  0.5318 -0.2295 -0.0752
 1815SOL    HW116907   3.259   4.602  13.339 -0.6918 -3.4734 -0.8217
 1815SOL    HW216908   3.310   4.479  13.402 -0.7900 -0.3095 -0.8765
 1816SOL     OW16909   0.273   0.669   3.911 -0.5792  0.8731 -0.0573
 1816SOL    HW116910   0.308   0.759   3.913  0.8156  0.3364 -0.1234
 1816SOL    HW216911   0.209   0.667   3.840 -3.9623  3.7125  2.9312
 1817SOL     OW16912   3.956   1.617   5.680 -0.6298 -0.2751  1.1852
 1817SOL    HW116913   3.906   1.555   5.733 -0.3919  0.5217  2.3511
 1817SOL    HW216914   3.936   1.705   5.714  1.1509  0.5514  0.0896
 1818SOL     OW16915   2.767   3.324  16.923 -0.3417 -0.0147  0.0590
 1818SOL    HW116916   2.712   3.249  16.901  0.0239 -0.3637  0.3250
 1818SOL    HW216917   2.803   3.302  17.009 -0.7653 -1.2566 -0.0852
 1819SOL     OW16918   1.511   4.700   9.911 -0.1103  0.2908  0.2033
 1819SOL    HW116919   1.514   0.066   9.899 -2.3446  0.6509  2.3716
 1819SOL    HW216920   1.591   4.688   9.961 -0.3737  3.4893  1.3556
 1820SOL     OW16921   1.504   0.922  12.454  0.2310  0.3216  0.3557
 1820SOL    HW116922   1.490   0.977  12.377  5.3756  1.5272  0.2446
 1820SOL    HW216923   1.440   0.959  12.515  0.6586  1.5704  0.0539
 1821SOL     OW16924   0.818   1.541   8.141 -0.0060  0.6759 -0.4357
 1821SOL    HW116925   0.751   1.550   8.209 -0.5673 -1.3276 -0.7256
 1821SOL    HW216926   0.861   1.459   8.166 -0.2539  1.1930  1.6584
 1822SOL     OW16927   0.955   0.214   5.790 -0.3778  0.5281  0.0137
 1822SOL    HW116928   0.873   0.243   5.751 -1.6311 -0.1956  2.1158
 1822SOL    HW216929   0.981   0.150   5.724  0.0595  1.6184 -0.8709
 1823SOL     OW16930   0.520   3.723   5.066 -0.3834  0.4318  0.2885
 1823SOL    HW116931   0.427   3.710   5.048 -0.1723 -0.2359 -0.3117
 1823SOL    HW216932   0.555   3.761   4.985  0.2174 -0.4306  0.1481
 1824SOL     OW16933   0.849   2.021   1.247  0.0922 -0.1472  0.0548
 1824SOL    HW116934   0.762   2.013   1.209  0.8020  1.7869 -1.9951
 1824SOL    HW216935   0.905   2.036   1.170  1.1217  1.3709  1.1034
 1825SOL     OW16936   4.532   2.566  15.034 -0.4708 -0.9948 -0.0711
 1825SOL    HW116937   4.583   2.564  15.115 -0.6747  2.6449  0.1718
 1825SOL    HW216938   4.542   2.659  15.013 -0.6966 -1.1937 -1.0319
 1826SOL     OW16939   1.767   0.169   9.846  0.0129  0.2583  0.2956
 1826SOL    HW116940   1.782   0.083   9.884 -1.0021 -0.0933 -0.1104
 1826SOL    HW216941   1.760   0.225   9.923  5.8851  3.0318 -1.1506
 1827SOL     OW16942   2.109   2.521   2.830  0.0593  0.2982  0.0390
 1827SOL    HW116943   2.044   2.500   2.896 -1.3657 -0.1686 -1.5270
 1827SOL    HW216944   2.186   2.495   2.881  0.9472 -0.8731 -1.8882
 1828SOL     OW16945   3.466   0.668   1.922 -0.1301  0.3748 -0.6922
 1828SOL    HW116946   3.491   0.730   1.853 -0.0143 -0.6627 -1.5910
 1828SOL    HW216947   3.425   0.736   1.975 -0.1036 -1.2008  1.3560
 1829SOL     OW16948   0.784   4.577  11.359 -1.0064  0.0718  0.2795
 1829SOL    HW116949   0.752   4.657  11.317 -0.1593  0.0448 -0.4139
 1829SOL    HW216950   0.697   4.554  11.391 -1.3761  0.0201 -0.7534
 1830SOL     OW16951   1.830   0.495   0.365 -0.2579  0.2166 -0.5509
 1830SOL    HW116952   1.906   0.522   0.313 -1.3897  1.2899 -1.6546
 1830SOL    HW216953   1.857   0.404   0.378 -1.9584 -0.2362 -0.2467
 1831SOL     OW16954   0.111   4.703  11.378  0.4398 -0.2848 -0.0176
 1831SOL    HW116955   0.069   4.617  11.369  1.8636 -1.1093  1.2053
 1831SOL    HW216956   0.032   0.025  11.397  1.0950  0.6882  0.0946
 1832SOL     OW16957   1.322   2.290   5.187  0.0310 -0.6603 -0.6285
 1832SOL    HW116958   1.360   2.354   5.127  3.9333 -1.0649  1.4096
 1832SOL    HW216959   1.274   2.229   5.131  0.4450  0.4057 -2.1344
 1833SOL     OW16960   3.040   2.386  15.238  0.7197  0.3206  0.3581
 1833SOL    HW116961   3.051   2.335  15.318 -1.0203 -0.0737  0.3484
 1833SOL    HW216962   2.944   2.390  15.234  0.7407 -1.6562 -2.2696
 1834SOL     OW16963   1.115   1.070   0.975  0.6284 -0.4534 -0.1289
 1834SOL    HW116964   1.029   1.089   1.012  0.4992  0.5417 -0.9196
 1834SOL    HW216965   1.166   1.039   1.050  1.8510 -1.4846 -1.3844
 1835SOL     OW16966   0.069   2.087  17.498 -0.2456  0.2741 -0.0324
 1835SOL    HW116967   0.094   2.145  17.570  0.7657  0.9159 -0.8927
 1835SOL    HW216968   0.070   1.998  17.534  0.6052  1.2383  2.3311
 1836SOL     OW16969   4.696   1.795  16.150 -0.1836  0.0800  0.5717
 1836SOL    HW116970   0.057   1.799  16.183  1.2915 -2.9139 -3.0963
 1836SOL    HW216971   4.691   1.878  16.102 -2.9152 -0.0551  0.6383
 1837SOL     OW16972   3.465   2.380  13.326 -0.3964  0.0372  0.2255
 1837SOL    HW116973   3.521   2.447  13.365 -0.6938 -0.5280  1.6110
 1837SOL    HW216974   3.519   2.366  13.247 -0.8685  0.3193 -0.1485
 1838SOL     OW16975   3.413   0.544   8.088  0.3938  0.0358  0.3276
 1838SOL    HW116976   3.494   0.536   8.138  0.1003 -1.6531  0.5262
 1838SOL    HW216977   3.394   0.454   8.062 -2.0460  0.4490  0.6305
 1839SOL     OW16978   1.039   2.307   2.459  0.1455  0.3292  0.2126
 1839SOL    HW116979   0.945   2.323   2.450  0.5075  0.5476 -3.0291
 1839SOL    HW216980   1.042   2.216   2.428  2.2620  0.2505  0.6610
 1840SOL     OW16981   2.932   2.957   1.280  0.0204 -0.1550  1.0060
 1840SOL    HW116982   2.973   2.896   1.341 -0.4540  0.3979  1.8699
 1840SOL    HW216983   2.855   2.986   1.329 -0.0689 -0.9177  1.3149
 1841SOL     OW16984   1.547   2.343   0.358  0.3661  0.2108 -0.3004
 1841SOL    HW116985   1.604   2.292   0.301  0.0909 -0.7975  0.3188
 1841SOL    HW216986   1.465   2.312   0.319  1.3220 -1.1371 -1.2098
 1842SOL     OW16987   3.427   3.591   3.950 -0.0831  0.0057  0.1946
 1842SOL    HW116988   3.362   3.661   3.960 -2.1895 -1.6752 -1.7225
 1842SOL    HW216989   3.450   3.578   4.042  1.8287 -2.3207 -0.6021
 1843SOL     OW16990   1.345   3.027   8.071 -0.0901 -0.6042  0.2842
 1843SOL    HW116991   1.348   3.119   8.043 -0.4085 -0.8461 -0.5294
 1843SOL    HW216992   1.440   3.013   8.078  0.0133  0.0424  0.1808
 1844SOL     OW16993   2.499   1.668   3.997  0.0181 -0.4050  0.0083
 1844SOL    HW116994   2.572   1.690   4.055  0.8876 -0.5352 -1.0261
 1844SOL    HW216995   2.532   1.698   3.912  1.1849  0.3836  0.7385
 1845SOL     OW16996   4.716   1.721   7.841  0.1802 -0.0316 -0.0010
 1845SOL    HW116997   0.041   1.784   7.794  0.4931  1.0006  1.7313
 1845SOL    HW216998   0.017   1.722   7.933  0.3530  0.1953 -0.0588
 1846SOL     OW16999   4.074   2.641   3.757 -0.2726  0.2361 -0.2114
 1846SOL    HW117000   4.002   2.693   3.793  0.2139  2.0535 -1.8117
 1846SOL    HW217001   4.071   2.569   3.820 -0.9230 -1.1956 -1.8882
 1847SOL     OW17002   2.805   1.599   8.913  0.5926 -0.3235  0.6927
 1847SOL    HW117003   2.748   1.644   8.975  1.5291  1.1252  0.4982
 1847SOL    HW217004   2.754   1.519   8.896  0.1763  0.8066 -3.3138
 1848SOL     OW17005   2.846   2.987   2.357  0.0177  0.4434 -0.0104
 1848SOL    HW117006   2.874   3.060   2.302  0.2931 -1.7495 -2.7581
 1848SOL    HW217007   2.923   2.968   2.411  0.0745 -1.6830 -0.8653
 1849SOL     OW17008   2.073   4.441   6.134 -0.3858  0.4676 -0.1522
 1849SOL    HW117009   2.121   4.488   6.203 -3.0553 -0.0054  2.0285
 1849SOL    HW217010   2.129   4.445   6.057  0.3524  2.0136  0.4700
 1850SOL     OW17011   3.879   1.620   5.975  0.2591  0.2714 -0.2976
 1850SOL    HW117012   3.903   1.561   5.905 -0.5271  2.1573 -2.1680
 1850SOL    HW217013   3.892   1.569   6.055 -0.7410 -0.8784 -0.8827
 1851SOL     OW17014   1.152   3.484   5.463  0.9358  0.4753  0.5677
 1851SOL    HW117015   1.063   3.517   5.473 -0.0654 -1.5805 -1.5125
 1851SOL    HW217016   1.162   3.484   5.368 -1.6936  0.3697  0.3092
 1852SOL     OW17017   3.993   4.182   6.552 -0.0657  0.0383  0.5790
 1852SOL    HW117018   4.050   4.176   6.475 -0.9364  0.6891 -0.1191
 1852SOL    HW217019   3.933   4.248   6.520 -0.4063 -0.9488 -0.8230
 1853SOL     OW17020   1.767   2.766   0.926  0.5681 -0.2112  0.5850
 1853SOL    HW117021   1.783   2.681   0.886 -2.3798 -0.0518 -0.9090
 1853SOL    HW217022   1.799   2.764   1.016  1.1471 -1.2170  0.3429
 1854SOL     OW17023   3.417   3.464   2.943  0.2606  0.0168 -0.2215
 1854SOL    HW117024   3.465   3.423   3.015  0.2716 -0.0232 -0.2522
 1854SOL    HW217025   3.468   3.543   2.926  0.5114 -0.3241 -1.0133
 1855SOL     OW17026   3.426   0.217   3.500  0.1567 -0.1316  0.5453
 1855SOL    HW117027   3.495   0.179   3.553  2.8869  1.4432 -1.8695
 1855SOL    HW217028   3.463   0.198   3.413 -1.6485 -0.6217 -0.1141
 1856SOL     OW17029   1.136   0.865   4.908  0.2015  0.0364  0.8914
 1856SOL    HW117030   1.183   0.906   4.836 -2.0549 -0.3580 -0.8288
 1856SOL    HW217031   1.048   0.860   4.869  0.4442  0.1177  0.3346
 1857SOL     OW17032   3.672   2.015   8.078 -0.0074 -0.4601  0.0948
 1857SOL    HW117033   3.597   1.991   8.132  0.2427 -3.1691 -0.7770
 1857SOL    HW217034   3.637   2.095   8.040  0.7945  0.1295  0.6053
 1858SOL     OW17035   1.140   1.434  10.537 -0.5157  0.2593  0.4103
 1858SOL    HW117036   1.050   1.431  10.571 -1.0336  1.7974 -0.7982
 1858SOL    HW217037   1.135   1.523  10.500  1.0317 -1.3048 -3.5467
 1859SOL     OW17038   4.422   1.841  14.871 -0.2253  0.7433  0.5724
 1859SOL    HW117039   4.345   1.881  14.912 -0.2797  0.6610  0.5512
 1859SOL    HW217040   4.384   1.761  14.836  0.4703  0.8760 -0.4751
 1860SOL     OW17041   4.475   0.286   8.547 -0.6406 -0.4365  0.6900
 1860SOL    HW117042   4.484   0.200   8.587  2.6435 -0.7220 -0.6856
 1860SOL    HW217043   4.391   0.318   8.581  0.1929  2.0890  0.3336
 1861SOL     OW17044   3.115   2.669   8.490  0.0912 -0.1244 -0.1138
 1861SOL    HW117045   3.115   2.583   8.448 -0.6188  1.0012 -2.4386
 1861SOL    HW217046   3.127   2.736   8.423 -1.8166 -1.6882 -2.0013
 1862SOL     OW17047   0.803   4.707   3.889  0.4387  0.0528  0.1644
 1862SOL    HW117048   0.819   4.622   3.847  0.4774 -0.7599  1.7972
 1862SOL    HW217049   0.816   0.031   3.811 -0.3570 -0.9211 -0.6312
 1863SOL     OW17050   1.023   2.670   8.558  0.3324  0.1475 -0.5879
 1863SOL    HW117051   1.067   2.702   8.637  1.4296 -0.6501 -0.8864
 1863SOL    HW217052   1.079   2.704   8.488  0.5732  1.0373  0.0220
 1864SOL     OW17053   0.123   1.070   3.582 -0.0781 -0.1055 -0.5894
 1864SOL    HW117054   0.212   1.036   3.588  0.1881  1.0064  1.7577
 1864SOL    HW217055   0.081   1.034   3.660  0.1578 -1.3011 -1.0240
 1865SOL     OW17056   0.977   1.731   7.091  0.3801  0.6223  0.0403
 1865SOL    HW117057   1.044   1.768   7.034  0.1040 -1.3612 -1.5587
 1865SOL    HW217058   0.912   1.734   7.021 -1.6323 -0.9791  1.8552
 1866SOL     OW17059   1.508   4.392   5.423 -0.3086  0.4516  0.3166
 1866SOL    HW117060   1.571   4.322   5.410 -0.5654  0.4854 -1.0831
 1866SOL    HW217061   1.516   4.425   5.513  0.1902  0.4288  0.2759
 1867SOL     OW17062   1.694   0.142   5.223 -0.3916 -0.3613 -0.4675
 1867SOL    HW117063   1.656   0.055   5.228 -0.0456 -0.5347 -0.8135
 1867SOL    HW217064   1.752   0.149   5.299 -1.0831  1.1936 -0.0761
 1868SOL     OW17065   3.197   3.329   4.130 -0.4746  0.4521 -0.1810
 1868SOL    HW117066   3.286   3.316   4.098 -0.5078 -1.4274  0.4657
 1868SOL    HW217067   3.199   3.251   4.187 -1.1366  1.0343  0.6410
 1869SOL     OW17068   1.741   0.100   0.408 -0.2793  0.0520 -0.5933
 1869SOL    HW117069   1.799   0.061   0.474 -1.4005 -0.7505 -0.0884
 1869SOL    HW217070   1.676   0.140   0.466 -2.5377 -1.5544 -2.0136
 1870SOL     OW17071   4.312   0.515   9.287 -0.0317 -0.6428 -0.6150
 1870SOL    HW117072   4.285   0.437   9.337 -2.6020 -0.2573 -1.4200
 1870SOL    HW217073   4.237   0.573   9.300  0.4377  0.3611 -2.4672
 1871SOL     OW17074   4.634   1.221   2.569  0.0510  0.4679  0.5998
 1871SOL    HW117075   4.554   1.266   2.541 -0.1620  0.2569  0.8634
 1871SOL    HW217076   4.604   1.136   2.538  1.1575  0.3530 -0.1282
 1872SOL     OW17077   3.991   1.736   3.697 -0.3297 -0.6111 -0.2777
 1872SOL    HW117078   3.904   1.696   3.699  0.3815 -2.0148  3.3948
 1872SOL    HW217079   3.960   1.826   3.704 -0.7511 -0.7584 -0.2836
 1873SOL     OW17080   2.513   2.202   1.372  0.1009  0.2462 -0.4118
 1873SOL    HW117081   2.601   2.188   1.337  0.7249  1.3102  0.7354
 1873SOL    HW217082   2.474   2.126   1.327 -1.1390 -0.6220  2.1562
 1874SOL     OW17083   2.064   3.801   8.862 -0.0699  0.2657  0.2415
 1874SOL    HW117084   2.033   3.814   8.952 -0.7718 -1.1183  0.2068
 1874SOL    HW217085   2.153   3.771   8.883  0.1788  0.4623 -0.5445
 1875SOL     OW17086   0.515   0.222   3.548 -0.5315 -0.2055 -0.2887
 1875SOL    HW117087   0.508   0.143   3.602 -2.3191  1.1664  1.5071
 1875SOL    HW217088   0.599   0.211   3.505 -0.4801 -0.2514 -0.1762
 1876SOL     OW17089   1.424   1.816   0.960  0.6440 -0.3954 -0.0049
 1876SOL    HW117090   1.437   1.733   0.914  0.4463 -0.9260  0.9023
 1876SOL    HW217091   1.416   1.868   0.880  1.4301  0.9410  0.8007
 1877SOL     OW17092   1.362   4.260   6.110  0.1004  0.1537  0.0839
 1877SOL    HW117093   1.328   4.251   6.021 -0.6843  1.3995  0.2624
 1877SOL    HW217094   1.346   4.353   6.127  1.0179  0.1915  0.7279
 1878SOL     OW17095   2.272   4.115   5.036  0.0866  0.3087  0.1571
 1878SOL    HW117096   2.268   4.028   4.996 -0.5017 -0.3454  1.6516
 1878SOL    HW217097   2.335   4.155   4.976 -1.3259  1.2193 -0.7476
 1879SOL     OW17098   2.744   4.617   4.291  0.3090 -0.3632  0.2488
 1879SOL    HW117099   2.827   4.637   4.334  0.5111 -0.4441 -0.0959
 1879SOL    HW217100   2.779   4.571   4.214  1.2101  1.3101 -0.3243
 1880SOL     OW17101   2.486   3.506   6.384  0.0064  0.0764  0.6472
 1880SOL    HW117102   2.576   3.482   6.366  1.1699  4.9603 -0.1351
 1880SOL    HW217103   2.492   3.548   6.471  0.8419  0.4795  0.3897
 1881SOL     OW17104   3.157   3.075   1.129  0.1404 -0.3686 -0.2839
 1881SOL    HW117105   3.210   3.003   1.162 -0.7880 -0.9935 -0.1460
 1881SOL    HW217106   3.073   3.058   1.172  0.4075 -1.4267 -0.1856
 1882SOL     OW17107   2.810   2.977   8.123 -0.3581 -0.1113 -0.4162
 1882SOL    HW117108   2.855   3.061   8.131 -0.8443  0.1465 -0.4295
 1882SOL    HW217109   2.878   2.922   8.083  0.5841  1.8961 -1.5600
 1883SOL     OW17110   2.637   1.872   2.128  0.2900  0.3616 -0.0256
 1883SOL    HW117111   2.679   1.841   2.048 -0.2843 -0.0629 -0.1589
 1883SOL    HW217112   2.668   1.962   2.137  1.2463 -0.1551  1.7361
 1884SOL     OW17113   3.329   3.706   3.496  0.1797 -0.4531  0.3557
 1884SOL    HW117114   3.278   3.770   3.446 -0.3606 -1.0128  0.1994
 1884SOL    HW217115   3.261   3.674   3.555 -0.2966  0.3261  0.2261
 1885SOL     OW17116   4.278   2.580   5.200  0.2581  0.0869 -0.3170
 1885SOL    HW117117   4.303   2.655   5.145 -0.6220 -0.1410 -1.0360
 1885SOL    HW217118   4.234   2.528   5.132  0.6470 -1.0606  0.3032
 1886SOL     OW17119   4.341   3.162   1.949 -0.1788  0.7822  0.1477
 1886SOL    HW117120   4.393   3.198   1.877 -1.9425 -0.1390 -1.5982
 1886SOL    HW217121   4.257   3.136   1.911  0.0690 -1.5424  1.2511
 1887SOL     OW17122   3.273   3.768   8.426  0.1611  0.1027 -0.4149
 1887SOL    HW117123   3.368   3.767   8.440 -0.1577 -0.1058  1.7738
 1887SOL    HW217124   3.252   3.846   8.478  1.1037 -0.2277  0.4666
 1888SOL     OW17125   4.028   3.496   0.663  0.1062 -0.3818 -0.2819
 1888SOL    HW117126   3.998   3.459   0.746  0.6132 -1.9258 -0.7871
 1888SOL    HW217127   3.957   3.451   0.618  0.8478 -0.8672 -0.9587
 1889SOL     OW17128   1.214   4.719   3.851 -0.6977 -0.1282 -0.2464
 1889SOL    HW117129   1.165   0.062   3.810 -0.2881  0.4494  0.2679
 1889SOL    HW217130   1.257   0.046   3.917 -0.5098 -0.8045  0.2046
 1890SOL     OW17131   3.164   3.505   5.338  0.3053  0.4511  0.2669
 1890SOL    HW117132   3.122   3.592   5.342 -0.3887  0.1774 -1.4016
 1890SOL    HW217133   3.092   3.448   5.311  0.7253 -0.3109  0.7468
 1891SOL     OW17134   2.166   0.187  14.332 -0.3586 -0.4709  0.1554
 1891SOL    HW117135   2.168   0.092  14.341 -1.1568 -0.3755  1.3097
 1891SOL    HW217136   2.138   0.201  14.241  0.3980 -1.7662 -0.2717
 1892SOL     OW17137   0.674   3.049   5.855  0.0813 -0.4899 -0.2735
 1892SOL    HW117138   0.726   3.063   5.776 -1.2029  0.8058 -0.8867
 1892SOL    HW217139   0.648   2.960   5.830  0.1033 -1.0370  1.6251
 1893SOL     OW17140   4.350   4.225   8.624  0.5959 -0.1712  0.5000
 1893SOL    HW117141   4.291   4.245   8.697 -0.7154  2.0967 -1.1502
 1893SOL    HW217142   4.358   4.310   8.580  0.1032 -0.4963 -0.2039
 1894SOL     OW17143   1.592   0.589   2.218  0.1262  0.0755  0.3895
 1894SOL    HW117144   1.619   0.555   2.133  0.9681 -0.8492  1.0277
 1894SOL    HW217145   1.615   0.514   2.273 -1.9798 -0.0490  1.0701
 1895SOL     OW17146   3.650   2.831   0.002  0.1740  0.0826  0.1885
 1895SOL    HW117147   3.603   2.880   0.069 -2.9114 -0.3069 -1.6621
 1895SOL    HW217148   3.575   2.776  17.695 -0.4051  0.9533 -0.0308
 1896SOL     OW17149   4.067   0.380   6.888 -0.0585  0.5975 -0.6316
 1896SOL    HW117150   3.985   0.334   6.868  0.0490  0.4591 -0.7525
 1896SOL    HW217151   4.076   0.428   6.805  0.9086  0.3094 -0.6910
 1897SOL     OW17152   1.824   3.458   2.759  0.4667  0.3551  0.2182
 1897SOL    HW117153   1.755   3.503   2.711  0.0005 -1.2642 -0.6341
 1897SOL    HW217154   1.806   3.365   2.745  0.8720  0.4095 -0.6213
 1898SOL     OW17155   0.455   1.538  15.813 -0.7916 -0.2575  0.8576
 1898SOL    HW117156   0.445   1.611  15.752  0.2515 -0.5925  0.2800
 1898SOL    HW217157   0.481   1.587  15.891 -2.0801 -1.6865  2.1909
 1899SOL     OW17158   4.012   4.267  15.987 -0.5770  0.0623  0.0271
 1899SOL    HW117159   4.092   4.253  16.038 -0.8410 -0.3106  0.3348
 1899SOL    HW217160   4.033   4.347  15.937 -1.7786  0.6593  0.4833
 1900SOL     OW17161   3.488   3.400  14.638 -0.5595 -0.2550 -0.6464
 1900SOL    HW117162   3.478   3.459  14.712 -4.0200 -0.9260 -0.5821
 1900SOL    HW217163   3.426   3.328  14.649 -0.6348 -0.2180 -0.8366
 1901SOL     OW17164   4.238   1.798   7.407  0.3651 -0.1183  0.0881
 1901SOL    HW117165   4.223   1.858   7.481  0.6941  0.0348  0.0285
 1901SOL    HW217166   4.332   1.782   7.406  0.4040  0.0852  0.5110
 1902SOL     OW17167   3.665   4.187   2.951 -0.7307 -0.5344  0.2677
 1902SOL    HW117168   3.619   4.265   2.923 -2.2937 -1.1632  1.0967
 1902SOL    HW217169   3.670   4.137   2.869 -0.7201  0.8774 -0.5910
 1903SOL     OW17170   0.083   2.089   5.835  0.3512 -0.5997  0.3355
 1903SOL    HW117171   0.096   2.037   5.756  1.2476  0.5362 -0.2680
 1903SOL    HW217172   0.166   2.138   5.828 -1.0981  1.5754 -1.6273
 1904SOL     OW17173   3.513   1.020   1.988 -0.5324 -0.0101 -0.2232
 1904SOL    HW117174   3.458   0.949   2.021 -0.5922  0.4972  0.7705
 1904SOL    HW217175   3.545   0.991   1.903 -2.3628 -1.4782 -0.4036
 1905SOL     OW17176   0.669   1.022   8.355 -0.6245 -0.1772  0.2103
 1905SOL    HW117177   0.712   0.961   8.295 -0.4034 -1.3250  1.5296
 1905SOL    HW217178   0.622   1.062   8.283 -1.1091 -1.4545 -0.1687
 1906SOL     OW17179   1.257   2.330   8.547  0.4257  0.2227 -0.5116
 1906SOL    HW117180   1.204   2.283   8.612 -2.6737  2.2161 -1.5967
 1906SOL    HW217181   1.270   2.415   8.588 -0.0370  0.0171  0.0658
 1907SOL     OW17182   1.210   4.071   8.067  0.1643  0.8572 -0.3672
 1907SOL    HW117183   1.266   4.038   7.997 -0.6253  0.5241 -0.8389
 1907SOL    HW217184   1.221   4.164   8.047  0.2420  1.3507  1.9007
 1908SOL     OW17185   4.032   3.586   3.893 -0.0595  0.2118 -0.1294
 1908SOL    HW117186   4.110   3.641   3.878 -0.1532 -0.1778 -1.9412
 1908SOL    HW217187   3.976   3.653   3.933  0.5501  0.3583  0.4912
 1909SOL     OW17188   0.001   0.280   3.398 -0.3602  0.7805  1.1156
 1909SOL    HW117189   0.079   0.236   3.432 -0.8897  1.7338  3.5488
 1909SOL    HW217190   4.681   0.200   3.378  0.2302  0.4930  0.8162
 1910SOL     OW17191   4.424   4.555   3.204  0.1131  0.3917  0.3747
 1910SOL    HW117192   4.433   4.605   3.123 -0.2616 -1.8431 -1.0353
 1910SOL    HW217193   4.460   4.471   3.175 -1.6781 -1.8724  4.6394
 1911SOL     OW17194   0.311   0.891   3.561  0.1699 -0.0268 -0.3252
 1911SOL    HW117195   0.295   0.803   3.525 -1.0281  0.7299 -1.6572
 1911SOL    HW217196   0.403   0.879   3.583 -0.0842  0.2066  0.8608
 1912SOL     OW17197   1.766   1.233  10.390 -0.3772 -0.9087 -0.6172
 1912SOL    HW117198   1.798   1.321  10.410 -0.2233 -0.8409 -1.1704
 1912SOL    HW217199   1.848   1.183  10.394  0.6671  0.8736 -0.0143
 1913SOL     OW17200   0.614   3.886   4.842  0.1396  0.2168  0.4757
 1913SOL    HW117201   0.689   3.927   4.798  0.5980 -1.6771 -0.4837
 1913SOL    HW217202   0.572   3.963   4.881 -2.3239  0.7108 -3.1388
 1914SOL     OW17203   3.663   2.332  10.742 -0.1320  0.0450  0.4985
 1914SOL    HW117204   3.737   2.331  10.681 -1.2086 -0.2759 -0.8032
 1914SOL    HW217205   3.610   2.383  10.682  1.1519  0.6508 -0.1053
 1915SOL     OW17206   3.759   0.140   1.089  0.1606  0.1745 -0.2907
 1915SOL    HW117207   3.734   0.228   1.059  0.0333  0.0507 -0.5468
 1915SOL    HW217208   3.849   0.134   1.058 -0.4781 -0.9178 -1.8785
 1916SOL     OW17209   4.552   3.259   4.779 -0.4387 -0.2911 -0.5872
 1916SOL    HW117210   4.500   3.183   4.754 -0.5169  0.0564 -1.4685
 1916SOL    HW217211   4.559   3.255   4.874 -1.7339 -1.2287 -0.5251
 1917SOL     OW17212   1.709   1.427   6.170  0.0369 -0.1096  0.1680
 1917SOL    HW117213   1.753   1.497   6.218  0.6545  0.6146 -1.4175
 1917SOL    HW217214   1.625   1.409   6.212 -0.1199  2.0363  0.8025
 1918SOL     OW17215   1.957   0.997   6.973 -0.8130 -0.3371  0.3754
 1918SOL    HW117216   1.922   1.013   6.885 -1.7003  0.6292  0.8991
 1918SOL    HW217217   2.044   1.035   6.957 -1.7835  1.7852  0.0784
 1919SOL     OW17218   4.631   2.253   5.271  0.3267  0.2411 -0.0393
 1919SOL    HW117219   4.703   2.249   5.334  1.7873  0.2906 -1.6847
 1919SOL    HW217220   4.572   2.290   5.337 -1.3316  1.3416 -2.1295
 1920SOL     OW17221   3.230   3.029   6.006 -0.8133 -0.5228 -0.3361
 1920SOL    HW117222   3.210   3.005   5.916 -0.8201 -1.2445 -0.1427
 1920SOL    HW217223   3.148   3.064   6.040 -0.2900  0.3555  0.0344
 1921SOL     OW17224   0.687   3.609   8.190  0.1044  0.1231 -0.5049
 1921SOL    HW117225   0.754   3.586   8.125  1.1083  0.9173  0.2329
 1921SOL    HW217226   0.735   3.691   8.204 -2.1580  1.0378  1.7743
 1922SOL     OW17227   0.393   2.506   7.953 -0.3430  0.1608  0.8985
 1922SOL    HW117228   0.322   2.532   8.012 -0.4842  0.8350  0.4367
 1922SOL    HW217229   0.449   2.445   8.001 -0.4230 -0.8248 -0.2620
 1923SOL     OW17230   1.096   2.412   3.192  0.4341 -0.3281 -0.1997
 1923SOL    HW117231   1.159   2.452   3.252  0.4009 -2.1046  1.0553
 1923SOL    HW217232   1.159   2.398   3.121  1.3125  1.4016  0.2536
 1924SOL     OW17233   1.125   1.812   2.982  0.1931 -0.4896 -0.1693
 1924SOL    HW117234   1.155   1.864   3.056  1.4903 -1.2215 -0.1763
 1924SOL    HW217235   1.208   1.790   2.939 -0.1933  0.1042 -1.2231
 1925SOL     OW17236   2.881   0.763   4.304 -0.4811  0.1066 -0.3586
 1925SOL    HW117237   2.936   0.743   4.379  0.2795  2.5515 -0.2763
 1925SOL    HW217238   2.910   0.850   4.278 -1.3044  0.3897 -0.3295
 1926SOL     OW17239   2.076   2.484   6.001  0.3385  0.2272 -0.1388
 1926SOL    HW117240   2.024   2.546   6.053  0.5656 -1.5459  2.2130
 1926SOL    HW217241   2.086   2.422   6.073  0.8324 -0.1968 -0.5725
 1927SOL     OW17242   2.224   2.104   4.533 -0.0511 -0.4661 -0.2745
 1927SOL    HW117243   2.302   2.160   4.526 -1.8257  2.0786  0.2624
 1927SOL    HW217244   2.264   2.036   4.588  0.6855 -2.1995 -2.9698
 1928SOL     OW17245   1.200   0.711  14.636  0.1292  0.2269  0.1179
 1928SOL    HW117246   1.117   0.727  14.683 -0.9106 -4.0041 -0.2815
 1928SOL    HW217247   1.187   0.781  14.572  0.9036  1.7780  1.6485
 1929SOL     OW17248   3.410   4.142   3.062  0.2388 -0.2231  0.1533
 1929SOL    HW117249   3.501   4.163   3.044 -0.6094  1.6504 -2.0692
 1929SOL    HW217250   3.376   4.111   2.977  0.3595 -1.9606  0.7487
 1930SOL     OW17251   1.509   2.363  15.154  0.6213  0.0209  0.5920
 1930SOL    HW117252   1.503   2.382  15.061  1.1528  0.6519  0.6885
 1930SOL    HW217253   1.475   2.443  15.193 -1.1786  0.0084 -0.9511
 1931SOL     OW17254   0.967   2.562   9.642  0.1086  0.2412 -0.4872
 1931SOL    HW117255   0.879   2.595   9.623  0.3320 -0.1803 -2.3144
 1931SOL    HW217256   0.938   2.504   9.712  0.4425 -0.7445 -1.1652
 1932SOL     OW17257   1.193   0.325   4.349  0.1611  0.5285 -0.1706
 1932SOL    HW117258   1.245   0.319   4.429 -0.4395  0.0736  0.1855
 1932SOL    HW217259   1.101   0.315   4.373  0.0480  2.2912  0.0946
 1933SOL     OW17260   1.916   2.851  13.718  0.0164 -0.2472  0.2328
 1933SOL    HW117261   1.890   2.894  13.799 -0.9786 -0.1550 -0.1269
 1933SOL    HW217262   1.985   2.800  13.761 -0.4610 -0.3086  0.9218
 1934SOL     OW17263   1.404   4.474   2.483 -0.1621 -0.1888  0.1883
 1934SOL    HW117264   1.339   4.470   2.413 -2.7303  0.4169  2.5293
 1934SOL    HW217265   1.482   4.458   2.431 -2.6440  1.7988 -4.0893
 1935SOL     OW17266   3.113   3.858   1.246 -0.0885  0.1502 -0.4061
 1935SOL    HW117267   3.190   3.850   1.303 -1.0589  1.7849  1.1290
 1935SOL    HW217268   3.156   3.879   1.163  1.2941  1.0090  0.5384
 1936SOL     OW17269   0.187   1.352   8.386  0.1431 -0.2350 -0.1469
 1936SOL    HW117270   0.192   1.435   8.433 -0.4617 -1.0646  1.4096
 1936SOL    HW217271   0.111   1.322   8.436 -0.0799 -1.9540 -1.5042
 1937SOL     OW17272   2.013   1.330  16.431 -0.6926 -0.0087  0.4396
 1937SOL    HW117273   2.043   1.266  16.367  0.1664  1.9028 -1.0875
 1937SOL    HW217274   2.005   1.278  16.511  0.5103 -1.0351 -0.1102
 1938SOL     OW17275   3.779   0.073   2.161 -0.2772 -0.5464  0.8761
 1938SOL    HW117276   3.720   0.125   2.105  2.3163 -0.5206 -1.8000
 1938SOL    HW217277   3.851   0.063   2.100  0.3860 -2.6480  2.0219
 1939SOL     OW17278   0.448   4.466   9.742  0.6063 -1.0013 -0.3019
 1939SOL    HW117279   0.490   4.442   9.659  0.8878 -0.8513 -0.2015
 1939SOL    HW217280   0.404   4.544   9.709 -0.7913 -1.8519 -0.4700
 1940SOL     OW17281   2.120   2.475   4.718 -1.0543 -0.1453  0.0239
 1940SOL    HW117282   2.144   2.567   4.707 -2.1987  0.2612  0.9699
 1940SOL    HW217283   2.116   2.442   4.628 -2.2794 -0.0260  0.0353
 1941SOL     OW17284   4.555   0.439   5.612 -0.1709 -0.7283 -0.1754
 1941SOL    HW117285   4.490   0.373   5.588 -0.6486  0.0887 -1.1651
 1941SOL    HW217286   4.512   0.476   5.689  0.2759 -0.9089  0.1602
 1942SOL     OW17287   3.403   1.930  10.120 -0.0137 -0.5440  0.3851
 1942SOL    HW117288   3.347   2.003  10.145  3.6243  1.1260  3.5164
 1942SOL    HW217289   3.338   1.877  10.073 -0.8986  0.1627  0.8138
 1943SOL     OW17290   2.088   3.625   0.889  0.2788  0.1828 -0.5071
 1943SOL    HW117291   2.092   3.534   0.918 -2.4149  0.5847  1.0448
 1943SOL    HW217292   2.023   3.629   0.819  1.8951  0.1738 -2.0122
 1944SOL     OW17293   2.837   2.605   1.148 -0.2934  0.0446  0.0376
 1944SOL    HW117294   2.929   2.628   1.140  0.0618 -1.3341  0.1403
 1944SOL    HW217295   2.842   2.515   1.181  2.8053 -0.1935 -1.1372
 1945SOL     OW17296   1.319   2.022   1.279 -0.5390  0.0841  0.0103
 1945SOL    HW117297   1.314   2.097   1.221  1.0356  0.0890 -0.1235
 1945SOL    HW217298   1.303   2.070   1.361  5.1631 -0.1276  1.2478
 1946SOL     OW17299   0.773   2.599   2.451  0.0253 -0.1440 -0.2348
 1946SOL    HW117300   0.767   2.586   2.356  0.9235  1.6853 -0.5387
 1946SOL    HW217301   0.866   2.608   2.471 -0.1363  1.1579 -0.0667
 1947SOL     OW17302   1.873   1.223   6.242  0.3768  0.4084 -0.5152
 1947SOL    HW117303   1.868   1.132   6.213  3.0410  0.2826 -0.6187
 1947SOL    HW217304   1.795   1.257   6.198  1.1625  1.3227 -1.2143
 1948SOL     OW17305   0.997   3.217   9.282  0.2244  0.7749  0.2372
 1948SOL    HW117306   1.066   3.210   9.349  1.6058  2.2920 -1.0298
 1948SOL    HW217307   1.051   3.182   9.212  0.7115  0.4502  0.7763
 1949SOL     OW17308   0.231   1.241   8.960 -0.4963 -0.4554 -0.2348
 1949SOL    HW117309   0.276   1.263   9.041  0.6171 -0.9999 -0.7035
 1949SOL    HW217310   0.225   1.327   8.918  0.6248  0.1964  0.9522
 1950SOL     OW17311   2.329   1.756  13.175  0.0871  0.5724 -0.2353
 1950SOL    HW117312   2.409   1.704  13.178 -0.5523 -0.3717  0.5003
 1950SOL    HW217313   2.306   1.762  13.268 -0.7210  1.1152 -0.4727
 1951SOL     OW17314   2.259   0.305   6.653  0.5799 -0.5116  0.7350
 1951SOL    HW117315   2.306   0.374   6.701  1.0788  2.1323 -3.5841
 1951SOL    HW217316   2.297   0.226   6.691 -0.0060  0.3454  3.1554
 1952SOL     OW17317   2.594   4.390  14.345  0.0035 -0.1367 -0.6587
 1952SOL    HW117318   2.517   4.396  14.288 -0.3956  1.0008 -0.0077
 1952SOL    HW217319   2.573   4.308  14.389 -0.2666 -1.7030 -3.7669
 1953SOL     OW17320   1.446   2.273   7.222 -0.3133 -0.7794 -0.4386
 1953SOL    HW117321   1.466   2.304   7.133 -0.0488  1.6530  0.4593
 1953SOL    HW217322   1.370   2.328   7.237  0.7360  0.5237  0.0955
 1954SOL     OW17323   1.244   3.640  11.965  0.0891 -0.4204  0.0576
 1954SOL    HW117324   1.215   3.624  12.055  1.3567  1.3958  0.7837
 1954SOL    HW217325   1.323   3.588  11.952 -0.0404 -0.8198  0.8530
 1955SOL     OW17326   1.314   0.080  11.256 -0.3247 -0.0659  0.0018
 1955SOL    HW117327   1.407   0.097  11.265 -0.1451 -0.3200 -1.4300
 1955SOL    HW217328   1.273   0.076  11.343 -0.4069  0.1430 -0.0260
 1956SOL     OW17329   2.089   0.391   5.305 -0.0280 -0.4951 -0.1402
 1956SOL    HW117330   1.997   0.414   5.317  0.3582  0.5282  0.7928
 1956SOL    HW217331   2.122   0.461   5.361 -1.6075 -0.9734  1.3745
 1957SOL     OW17332   1.738   1.656  11.849  0.3738  0.3403 -0.2824
 1957SOL    HW117333   1.659   1.692  11.889 -0.3359 -1.2219 -0.2896
 1957SOL    HW217334   1.795   1.706  11.908 -0.5194 -1.8578  2.4164
 1958SOL     OW17335   1.166   1.715   3.664 -0.2981 -0.1633  0.6165
 1958SOL    HW117336   1.097   1.781   3.658 -0.5089 -0.7247 -2.8463
 1958SOL    HW217337   1.241   1.753   3.620 -0.9338  0.2147 -0.1272
 1959SOL     OW17338   4.064   4.189   4.196  0.1747  0.0492 -0.2289
 1959SOL    HW117339   4.017   4.106   4.185  1.5894 -0.9262  1.1275
 1959SOL    HW217340   4.001   4.244   4.243  1.9233  0.4853  1.5850
 1960SOL     OW17341   3.963   0.837   9.494  0.0788  0.2803  0.0093
 1960SOL    HW117342   3.872   0.845   9.466 -0.7285  0.1855  2.5456
 1960SOL    HW217343   3.995   0.925   9.475  1.6610 -0.3942 -0.4377
 1961SOL     OW17344   3.991   0.053   6.422  0.2235 -0.1223 -0.1684
 1961SOL    HW117345   4.053   0.109   6.374  0.4994  0.0829  0.4330
 1961SOL    HW217346   4.008   0.083   6.511 -1.4456  0.7997 -0.1547
 1962SOL     OW17347   0.702   4.226  10.262 -0.5787  0.3713  0.0538
 1962SOL    HW117348   0.622   4.246  10.311 -0.4851 -0.7630  0.6675
 1962SOL    HW217349   0.757   4.300  10.286  1.4976 -1.2415  0.1773
 1963SOL     OW17350   3.396   2.246   8.751  0.1322 -0.4198  0.2918
 1963SOL    HW117351   3.323   2.186   8.740  1.5846 -2.1101 -0.1471
 1963SOL    HW217352   3.370   2.266   8.841 -0.8970  0.9817 -0.3194
 1964SOL     OW17353   4.244   3.245   5.694 -0.3113  0.4779  0.4280
 1964SOL    HW117354   4.321   3.302   5.691 -0.2945  0.4405  0.1180
 1964SOL    HW217355   4.272   3.187   5.766  1.4746  0.3236 -0.3808
 1965SOL     OW17356   4.057   4.139   4.639 -0.1358  0.1306  0.4506
 1965SOL    HW117357   4.146   4.122   4.607 -1.2593  0.8070 -3.0414
 1965SOL    HW217358   4.071   4.171   4.728  0.1336  0.9429  0.1238
 1966SOL     OW17359   3.778   1.227   9.376  0.4404 -0.1160 -0.0263
 1966SOL    HW117360   3.776   1.287   9.450  0.4429 -1.2976  0.9415
 1966SOL    HW217361   3.692   1.190   9.398  2.1197 -4.4028 -0.7614
 1967SOL     OW17362   0.255   4.233   5.100  0.1845 -0.0666 -0.0648
 1967SOL    HW117363   0.225   4.205   5.014  1.9734  0.4337 -0.8391
 1967SOL    HW217364   0.317   4.301   5.075  1.0743 -1.1344 -0.7189
 1968SOL     OW17365   4.029   4.075   6.246 -0.0203 -0.4775  0.2984
 1968SOL    HW117366   4.020   3.981   6.263 -1.5054 -0.5419 -0.8381
 1968SOL    HW217367   4.119   4.084   6.215  0.2352  0.8947  1.4315
 1969SOL     OW17368   1.402   3.307   7.396  0.0489 -0.4424  0.0525
 1969SOL    HW117369   1.313   3.299   7.362  0.4390 -2.4190 -0.5133
 1969SOL    HW217370   1.422   3.220   7.429  2.8072 -0.5258 -1.8564
 1970SOL     OW17371   3.281   1.112  10.518  0.1216  0.2644 -0.0607
 1970SOL    HW117372   3.321   1.061  10.448  1.5066  0.5902  0.4865
 1970SOL    HW217373   3.359   1.144  10.564  0.6120 -0.7908 -0.1724
 1971SOL     OW17374   4.413   4.489   3.496 -0.4472  0.2470 -0.0928
 1971SOL    HW117375   4.321   4.477   3.519 -0.2459 -1.9959 -0.5296
 1971SOL    HW217376   4.410   4.522   3.407  3.4491 -0.1943 -0.3938
 1972SOL     OW17377   1.195   0.689  17.320 -0.4793  0.1313 -0.3685
 1972SOL    HW117378   1.260   0.650  17.261 -1.6011 -1.4986 -0.5150
 1972SOL    HW217379   1.163   0.763  17.269 -1.8213  0.4456  0.9334
 1973SOL     OW17380   1.126   1.172   7.448 -0.1570  0.4076 -0.6238
 1973SOL    HW117381   1.143   1.107   7.517 -0.4645  0.3473 -0.6038
 1973SOL    HW217382   1.214   1.194   7.418  1.1705 -2.2131  1.3593
 1974SOL     OW17383   1.937   0.295   6.084 -0.0538 -0.3066 -0.2620
 1974SOL    HW117384   2.012   0.242   6.109  0.9219  0.4894 -1.4626
 1974SOL    HW217385   1.911   0.326   6.171 -1.4343 -1.0214 -0.4103
 1975SOL     OW17386   2.712   1.323   3.530 -0.0558 -0.1318  0.1040
 1975SOL    HW117387   2.725   1.228   3.542 -1.6778 -0.2576  0.8914
 1975SOL    HW217388   2.768   1.354   3.460 -0.1164 -1.9822 -0.7667
 1976SOL     OW17389   4.317   4.010   6.198 -0.2433 -0.5683 -0.6024
 1976SOL    HW117390   4.315   3.937   6.136  0.5185  0.1213 -1.4421
 1976SOL    HW217391   4.401   3.999   6.242 -0.6181  0.2928  0.3311
 1977SOL     OW17392   2.607   3.858   1.805 -0.2079 -0.3076 -0.3731
 1977SOL    HW117393   2.591   3.833   1.714 -2.3341  2.4711 -0.7595
 1977SOL    HW217394   2.521   3.840   1.844 -0.1255 -0.8825 -0.4600
 1978SOL     OW17395   2.236   0.612   6.872  0.3463  0.3054 -0.2350
 1978SOL    HW117396   2.143   0.588   6.879 -0.1702  1.9433 -1.5591
 1978SOL    HW217397   2.241   0.650   6.960  1.0822 -0.1313 -0.0868
 1979SOL     OW17398   0.267   0.202   8.964 -0.1368  0.2473  0.1166
 1979SOL    HW117399   0.359   0.197   8.937 -0.3837  2.4759 -1.0897
 1979SOL    HW217400   0.252   0.289   9.002  0.6345  0.1864  0.5754
 1980SOL     OW17401   2.470   3.814   7.002 -0.2924 -0.3760  0.1586
 1980SOL    HW117402   2.560   3.845   7.013 -0.6623  0.3603  1.0516
 1980SOL    HW217403   2.426   3.898   7.014 -0.8418 -0.2540 -2.5570
 1981SOL     OW17404   3.776   3.453  14.009 -0.0684  0.2868 -0.3096
 1981SOL    HW117405   3.734   3.432  14.092  0.0192  0.3430 -0.2515
 1981SOL    HW217406   3.848   3.392  14.021  0.7481  0.9705 -1.7048
 1982SOL     OW17407   3.681   1.101   8.382  0.3952  0.1682 -0.8958
 1982SOL    HW117408   3.644   1.097   8.470  1.1376 -1.6009 -0.6638
 1982SOL    HW217409   3.711   1.011   8.370 -0.0168  0.2488 -2.5137
 1983SOL     OW17410   1.567   3.550   9.988 -0.4248 -0.3957 -0.2819
 1983SOL    HW117411   1.512   3.537  10.066 -0.1045 -1.3459 -0.2235
 1983SOL    HW217412   1.617   3.469   9.988 -0.2418 -0.2774 -0.9396
 1984SOL     OW17413   3.137   2.571  15.057  0.6677  0.1412 -1.0838
 1984SOL    HW117414   3.053   2.577  15.012  0.5909  0.5114 -0.8917
 1984SOL    HW217415   3.124   2.506  15.126  0.3744 -1.4538 -2.6571
 1985SOL     OW17416   3.002   1.694   6.760  0.1031  0.1995 -0.3200
 1985SOL    HW117417   3.075   1.756   6.760 -0.8112  1.2586 -1.1050
 1985SOL    HW217418   2.991   1.681   6.666  1.1625 -2.5097 -0.0842
 1986SOL     OW17419   1.002   2.947   5.427  0.3774  0.3313 -0.4914
 1986SOL    HW117420   1.051   3.030   5.423 -0.9777  1.1550  0.0855
 1986SOL    HW217421   1.036   2.903   5.505 -1.0303  0.6253  0.2872
 1987SOL     OW17422   3.723   2.888   7.894  0.2138  0.1426 -0.3102
 1987SOL    HW117423   3.636   2.922   7.874 -0.5683 -0.3354  2.2615
 1987SOL    HW217424   3.771   2.934   7.825 -0.5776  0.7872 -0.4234
 1988SOL     OW17425   0.666   1.799   1.070 -0.2739  0.3284 -0.0315
 1988SOL    HW117426   0.628   1.886   1.060 -0.5553  0.3275  0.9494
 1988SOL    HW217427   0.755   1.825   1.045 -0.3995  0.3846 -0.4098
 1989SOL     OW17428   2.328   3.309  17.686  0.0739 -0.5141 -0.3350
 1989SOL    HW117429   2.356   3.356   0.050 -2.9426 -0.6771  0.8395
 1989SOL    HW217430   2.389   3.350  17.624 -2.4743  1.3998 -1.5599
 1990SOL     OW17431   4.083   2.676   8.747  0.4377  0.1921 -0.0309
 1990SOL    HW117432   4.144   2.748   8.762  1.2820 -0.7761  1.1142
 1990SOL    HW217433   4.052   2.647   8.832 -0.1160 -1.4899 -0.8033
 1991SOL     OW17434   3.291   1.267   3.920  0.2970  0.3170 -0.1195
 1991SOL    HW117435   3.218   1.286   3.860 -1.5263 -1.4025  1.5442
 1991SOL    HW217436   3.339   1.200   3.872  0.1584 -0.2862  0.5975
 1992SOL     OW17437   2.409   3.789   6.239  0.3144  0.5312 -0.2745
 1992SOL    HW117438   2.395   3.716   6.299  0.3728  0.3162 -0.5255
 1992SOL    HW217439   2.366   3.753   6.162 -1.9923  0.4668  1.0308
 1993SOL     OW17440   1.477   1.174  11.041 -0.6243 -0.0419 -0.2868
 1993SOL    HW117441   1.465   1.134  11.127 -2.4825 -0.2259 -0.6445
 1993SOL    HW217442   1.463   1.267  11.060  1.7358  0.6377 -1.8893
 1994SOL     OW17443   1.517   3.620  12.574  0.1293 -0.1940  0.0955
 1994SOL    HW117444   1.609   3.598  12.558 -0.0922 -0.8408 -0.2847
 1994SOL    HW217445   1.516   3.603  12.668 -3.4387  0.7863  0.2445
 1995SOL     OW17446   3.556   3.345   6.351 -0.4947  0.0929 -0.0417
 1995SOL    HW117447   3.571   3.400   6.428  0.9559 -1.6451  0.9111
 1995SOL    HW217448   3.478   3.295   6.378 -0.0290  0.1602  1.4456
 1996SOL     OW17449   4.136   0.893  13.848 -0.1174  0.0787  0.3103
 1996SOL    HW117450   4.041   0.890  13.854 -0.1394 -0.4220 -0.3385
 1996SOL    HW217451   4.151   0.958  13.779  2.4037  0.3583  1.0967
 1997SOL     OW17452   2.277   3.847   8.542 -0.4297 -0.3044  0.1927
 1997SOL    HW117453   2.343   3.867   8.475  0.2477 -2.2622  0.2884
 1997SOL    HW217454   2.197   3.886   8.505 -0.1805 -1.9397 -2.0690
 1998SOL     OW17455   0.439   1.907  10.607  0.3506 -0.3900 -0.5906
 1998SOL    HW117456   0.357   1.868  10.637  0.0087  0.1289 -0.8490
 1998SOL    HW217457   0.420   1.932  10.516 -0.3302 -1.7833 -0.8394
 1999SOL     OW17458   0.381   2.903   8.979  0.0560  0.0004  0.5946
 1999SOL    HW117459   0.458   2.939   8.935  0.6773  0.4153  2.0109
 1999SOL    HW217460   0.371   2.955   9.058 -2.1084  0.3746  0.0507
 2000SOL     OW17461   2.570   2.536  15.979 -0.5718 -0.0388  0.4896
 2000SOL    HW117462   2.479   2.518  15.955 -0.3258 -0.8828  0.1723
 2000SOL    HW217463   2.597   2.454  16.021  0.7022 -0.8887 -1.9830
 2001SOL     OW17464   1.110   2.502   0.668  0.1613  0.4382  0.0380
 2001SOL    HW117465   1.088   2.522   0.577 -1.2875  2.8996  0.9228
 2001SOL    HW217466   1.205   2.487   0.663  0.1536  0.2876  0.3758
 2002SOL     OW17467   0.782   2.783   8.410 -0.1811  0.3066 -0.2195
 2002SOL    HW117468   0.769   2.785   8.315  1.1827  1.4500 -0.3814
 2002SOL    HW217469   0.862   2.833   8.424  0.2844 -0.4535 -0.1365
 2003SOL     OW17470   2.758   1.494   5.856 -0.1402 -0.0373 -0.1684
 2003SOL    HW117471   2.766   1.399   5.850  2.2395  0.1641 -0.0506
 2003SOL    HW217472   2.711   1.497   5.939 -0.8452 -4.8359 -0.4305
 2004SOL     OW17473   0.047   1.947   6.954 -0.3162 -0.0103  0.1213
 2004SOL    HW117474   0.088   1.867   6.985 -1.5513 -0.4624  0.5967
 2004SOL    HW217475   0.087   2.016   7.006  0.8639 -0.7795  0.2327
 2005SOL     OW17476   0.876   2.196   8.587  0.0927 -0.0260  0.1426
 2005SOL    HW117477   0.948   2.258   8.589 -1.2969  1.5894  0.5746
 2005SOL    HW217478   0.915   2.120   8.629  1.1981  1.0073  0.9661
 2006SOL     OW17479   0.682   3.750  15.532 -0.1804 -0.1415  0.1482
 2006SOL    HW117480   0.682   3.656  15.515 -2.2672 -0.2986  1.0172
 2006SOL    HW217481   0.696   3.745  15.627 -1.6317 -1.9731  0.2530
 2007SOL     OW17482   0.616   0.259   1.885 -0.0870 -0.3889 -0.1614
 2007SOL    HW117483   0.676   0.191   1.854  0.2149  0.2359 -0.9670
 2007SOL    HW217484   0.583   0.286   1.799 -0.2991 -0.9280 -0.2482
 2008SOL     OW17485   0.981   4.068   1.299 -0.2402 -0.2171 -0.5236
 2008SOL    HW117486   0.895   4.050   1.338 -0.0520  0.7598  0.3321
 2008SOL    HW217487   1.004   4.145   1.351 -0.0344 -1.9572  1.9702
 2009SOL     OW17488   2.955   0.550   2.931 -0.0308 -0.4385  0.0991
 2009SOL    HW117489   2.956   0.463   2.972  0.7693 -0.7101 -0.4744
 2009SOL    HW217490   2.893   0.520   2.865 -3.8898 -0.8468  3.9630
 2010SOL     OW17491   0.496   1.017   4.729  0.2743  0.1857 -0.3257
 2010SOL    HW117492   0.499   1.103   4.771 -0.8258  0.7532 -1.4012
 2010SOL    HW217493   0.562   0.964   4.773  0.0804 -2.1881 -2.8548
 2011SOL     OW17494   2.962   4.683   4.437 -0.5483  0.0244 -1.5703
 2011SOL    HW117495   2.962   0.050   4.441 -1.5578  0.0396 -1.9727
 2011SOL    HW217496   3.054   4.665   4.418  1.0649  4.4326  1.9830
 2012SOL     OW17497   1.774   4.312   2.088 -0.0009  0.1452 -0.0911
 2012SOL    HW117498   1.856   4.314   2.039  0.9410 -0.9560  1.4494
 2012SOL    HW217499   1.739   4.399   2.068  1.3043  0.2471 -1.9257
 2013SOL     OW17500   1.198   0.043   6.907  0.1701 -0.0477 -0.5366
 2013SOL    HW117501   1.263   0.111   6.889 -0.3406  0.8662  0.9936
 2013SOL    HW217502   1.173   0.061   6.998  2.7789 -2.2487  0.6200
 2014SOL     OW17503   4.611   1.613   2.763 -0.0585 -0.1203 -0.0357
 2014SOL    HW117504   4.611   1.628   2.858  0.1456 -3.2378  0.4398
 2014SOL    HW217505   4.517   1.621   2.746  0.1190  1.1715 -0.4444
 2015SOL     OW17506   3.998   3.911   3.192  0.2204 -0.5943  0.0969
 2015SOL    HW117507   4.046   3.958   3.123 -1.7923  0.4358 -0.5862
 2015SOL    HW217508   3.908   3.913   3.160  0.5694  3.7931 -0.6510
 2016SOL     OW17509   3.841   0.927   5.912 -0.5814  0.0019 -0.5422
 2016SOL    HW117510   3.787   0.850   5.899 -0.5929 -0.0207 -0.3622
 2016SOL    HW217511   3.841   0.931   6.008  1.0666 -3.0776 -0.3941
 2017SOL     OW17512   1.958   2.192   0.284  0.4204 -0.1996  0.0687
 2017SOL    HW117513   1.890   2.260   0.289 -0.8333 -1.5737  1.5727
 2017SOL    HW217514   1.991   2.209   0.372 -0.5862 -0.9545  0.5926
 2018SOL     OW17515   3.583   1.500  15.732 -0.0987 -0.0412  0.0160
 2018SOL    HW117516   3.644   1.557  15.685 -2.6083  2.6755 -0.0379
 2018SOL    HW217517   3.502   1.501  15.680 -0.8091 -0.4990  1.1173
 2019SOL     OW17518   0.214   0.511   5.657 -0.0612 -0.7116  0.0417
 2019SOL    HW117519   0.275   0.476   5.592  1.0691  0.7070  0.3271
 2019SOL    HW217520   0.272   0.529   5.732  0.3325 -0.2683 -0.3656
 2020SOL     OW17521   4.164   1.056  13.643  0.3722 -0.0743 -0.0222
 2020SOL    HW117522   4.142   1.137  13.689 -1.6296 -0.3676 -0.4623
 2020SOL    HW217523   4.203   1.088  13.562 -1.8563  1.3264 -0.5149
 2021SOL     OW17524   4.326   0.928   4.380  0.0748 -0.4072  0.4743
 2021SOL    HW117525   4.345   0.834   4.388  0.2833 -0.5328 -1.6232
 2021SOL    HW217526   4.238   0.928   4.418 -0.8762  0.3620 -1.7758
 2022SOL     OW17527   3.594   0.805   7.216 -0.2708  0.3289  0.2596
 2022SOL    HW117528   3.613   0.873   7.280 -0.7748  0.4486  0.2808
 2022SOL    HW217529   3.611   0.723   7.263  0.2055  0.4548  0.2973
 2023SOL     OW17530   3.308   4.606  10.973  0.6481 -0.4476 -0.1021
 2023SOL    HW117531   3.385   4.554  10.994  1.7271  1.2028 -0.0492
 2023SOL    HW217532   3.290   4.649  11.056 -0.1087  0.8302 -0.9267
 2024SOL     OW17533   0.184   4.303   8.682 -0.2493 -0.4812 -0.0037
 2024SOL    HW117534   0.120   4.233   8.670  0.9224 -0.8771 -4.0522
 2024SOL    HW217535   0.233   4.253   8.748  0.8090  0.9722  0.2981
 2025SOL     OW17536   4.256   2.972  13.479  0.1896 -0.0810  0.5365
 2025SOL    HW117537   4.325   2.957  13.415 -0.8947  0.0195 -0.6503
 2025SOL    HW217538   4.213   3.053  13.454  1.4370  0.8923  1.5511
 2026SOL     OW17539   3.925   4.276   0.373 -0.4419 -0.4345  0.8460
 2026SOL    HW117540   3.953   4.339   0.440  1.1657  1.9351 -2.0712
 2026SOL    HW217541   3.989   4.285   0.303 -1.8404  1.2998 -0.2157
 2027SOL     OW17542   0.445   0.474   6.755 -0.0304  0.5522  0.3636
 2027SOL    HW117543   0.501   0.420   6.810  0.5088 -1.3354 -2.0058
 2027SOL    HW217544   0.484   0.482   6.668 -1.4197  2.2458 -0.1132
 2028SOL     OW17545   4.161   2.757   0.805 -0.0476 -0.2192 -0.1043
 2028SOL    HW117546   4.118   2.764   0.720 -2.1384 -0.8776  0.8979
 2028SOL    HW217547   4.123   2.676   0.839 -1.8094  0.5611 -0.2187
 2029SOL     OW17548   2.598   3.957  11.862  0.3113 -0.1302  0.2930
 2029SOL    HW117549   2.529   4.005  11.815 -0.2890 -1.6406 -0.3614
 2029SOL    HW217550   2.539   3.903  11.913 -0.9484  2.4954  1.6375
 2030SOL     OW17551   0.591   3.578   2.657 -0.1042 -0.3227  0.5118
 2030SOL    HW117552   0.629   3.643   2.716  1.8425  0.7966 -1.9183
 2030SOL    HW217553   0.557   3.629   2.583 -1.2087  0.1483  1.3604
 2031SOL     OW17554   2.103   1.553   5.291 -0.2642  0.0458  0.5444
 2031SOL    HW117555   2.008   1.563   5.287 -0.4432 -1.6711  0.3974
 2031SOL    HW217556   2.114   1.459   5.277  0.9095  0.2136  0.3411
 2032SOL     OW17557   3.868   0.446  12.177 -0.4782  0.0383  0.2650
 2032SOL    HW117558   3.802   0.507  12.210 -1.1715 -0.0126 -1.0323
 2032SOL    HW217559   3.802   0.388  12.141  1.4304 -1.4954 -0.7391
 2033SOL     OW17560   2.633   2.380   0.166 -0.0572 -0.1630 -0.0245
 2033SOL    HW117561   2.580   2.300   0.171  0.0504 -0.2085  0.4502
 2033SOL    HW217562   2.614   2.392   0.073 -2.2621  1.3556  0.6339
 2034SOL     OW17563   3.361   2.881   4.342 -0.5992  0.2661 -0.3137
 2034SOL    HW117564   3.323   2.876   4.429 -0.7628 -0.6099 -0.4306
 2034SOL    HW217565   3.448   2.873   4.382 -0.4021  2.0522 -0.4020
 2035SOL     OW17566   2.404   0.337   3.222  0.0914 -0.3757  0.3848
 2035SOL    HW117567   2.409   0.384   3.305 -1.1842 -2.6101  1.7120
 2035SOL    HW217568   2.497   0.313   3.219  0.6056  1.4997  0.7537
 2036SOL     OW17569   0.841   0.450   8.114 -0.0528  0.5263 -0.2850
 2036SOL    HW117570   0.793   0.508   8.055 -0.1265  0.8791  0.1220
 2036SOL    HW217571   0.918   0.444   8.057  0.7636 -0.5763  0.9189
 2037SOL     OW17572   1.952   2.553   1.117  0.0855  0.7995 -0.6695
 2037SOL    HW117573   2.044   2.534   1.135  0.1154 -0.2400 -1.9482
 2037SOL    HW217574   1.904   2.484   1.163  0.3269  2.2218  1.7401
 2038SOL     OW17575   3.859   1.460   3.045  0.6610  0.6275  0.2128
 2038SOL    HW117576   3.833   1.483   2.956 -0.5370  0.4758  0.5257
 2038SOL    HW217577   3.773   1.450   3.086  1.3496 -1.7793  1.0517
 2039SOL     OW17578   3.683   1.774   1.513  0.1512 -0.2385 -0.5228
 2039SOL    HW117579   3.632   1.738   1.441  0.5051  1.1883 -1.4933
 2039SOL    HW217580   3.607   1.801   1.564  2.7203  2.1071  2.0974
 2040SOL     OW17581   0.624   1.789   8.950 -0.2984 -0.0525  0.4404
 2040SOL    HW117582   0.650   1.715   8.895  0.6870  0.3789  0.3236
 2040SOL    HW217583   0.693   1.796   9.017  1.2431 -1.7628 -0.9516
 2041SOL     OW17584   0.172   3.219  10.775  0.1853 -0.6047 -0.0600
 2041SOL    HW117585   0.148   3.266  10.855  2.9246  1.7692 -0.6486
 2041SOL    HW217586   0.202   3.139  10.818  0.2352 -1.2436 -1.2646
 2042SOL     OW17587   1.495   1.863   0.445 -0.4812  0.1063  0.1453
 2042SOL    HW117588   1.467   1.772   0.456  1.3621 -0.2310  2.0847
 2042SOL    HW217589   1.580   1.859   0.488 -0.4335  2.5468  0.2864
 2043SOL     OW17590   2.678   4.243   7.032 -0.5320 -0.1105 -0.2949
 2043SOL    HW117591   2.682   4.232   7.127 -0.7619 -1.0563 -0.3961
 2043SOL    HW217592   2.751   4.192   6.998  0.4871  1.0013  0.2728
 2044SOL     OW17593   3.309   0.818   5.084 -0.2659 -0.2551  0.4865
 2044SOL    HW117594   3.281   0.742   5.134  1.3883 -1.4094 -0.3366
 2044SOL    HW217595   3.350   0.874   5.150  0.2372  0.9843 -0.8577
 2045SOL     OW17596   2.711   2.602   3.878 -0.3956  0.5263 -0.1038
 2045SOL    HW117597   2.799   2.565   3.884 -0.3843  0.5256 -0.2728
 2045SOL    HW217598   2.687   2.590   3.970  1.3322  0.1346  0.2930
 2046SOL     OW17599   4.603   2.748   0.036  0.0032  0.0226  0.2505
 2046SOL    HW117600   4.679   2.714   0.083  0.3823 -1.4656 -1.4109
 2046SOL    HW217601   4.531   2.720   0.093  0.7995 -0.9952  0.7657
 2047SOL     OW17602   0.033   0.018  12.790  0.2599  0.2921  0.3477
 2047SOL    HW117603   0.070   4.659  12.798 -1.2609 -0.3698  0.0888
 2047SOL    HW217604   0.104   0.076  12.817  1.0059 -2.0733  3.4145
 2048SOL     OW17605   4.571   0.401   7.892  0.1390 -0.1082  0.1383
 2048SOL    HW117606   4.643   0.338   7.893 -1.4254 -1.8676  1.5497
 2048SOL    HW217607   4.559   0.413   7.986  0.6457  2.1711 -0.0779
 2049SOL     OW17608   1.271   1.022   1.582  0.4331 -0.1676 -0.0078
 2049SOL    HW117609   1.223   1.105   1.576 -0.8835 -0.7779  2.0769
 2049SOL    HW217610   1.200   0.959   1.573  0.3761 -0.6274  3.5896
 2050SOL     OW17611   2.671   1.508   2.635  0.2835 -0.7758  0.8388
 2050SOL    HW117612   2.680   1.603   2.631  2.5506 -1.0192 -0.0297
 2050SOL    HW217613   2.701   1.479   2.548  0.9558  1.8445  0.2123
 2051SOL     OW17614   3.411   3.123   4.703  0.0047  0.0745 -0.4392
 2051SOL    HW117615   3.330   3.120   4.754  1.0719  0.2498  1.2943
 2051SOL    HW217616   3.391   3.172   4.624 -0.3919 -1.4826 -1.3202
 2052SOL     OW17617   2.852   3.824   8.485 -0.0421 -0.1871  0.1368
 2052SOL    HW117618   2.929   3.803   8.432  0.2626  0.5593  0.2782
 2052SOL    HW217619   2.797   3.869   8.421  0.1291 -1.8973 -1.2145
 2053SOL     OW17620   2.135   3.428  16.012  0.6400  0.1094 -0.0202
 2053SOL    HW117621   2.133   3.469  15.926 -0.1705  2.3572  1.0477
 2053SOL    HW217622   2.211   3.455  16.064 -0.4980  1.8834  0.7677
 2054SOL     OW17623   4.206   2.451   4.981 -0.0167 -0.2654  0.0422
 2054SOL    HW117624   4.280   2.429   4.924 -0.3132 -0.2757 -0.3362
 2054SOL    HW217625   4.163   2.526   4.941  1.1367  1.5367  2.1930
 2055SOL     OW17626   4.451   1.870  12.840 -0.0190  0.2845  0.7393
 2055SOL    HW117627   4.536   1.877  12.884  0.5637  1.1147 -0.5092
 2055SOL    HW217628   4.458   1.950  12.787  1.5410 -0.3614 -0.0308
 2056SOL     OW17629   3.210   2.491  12.279  0.4308  0.2320  0.1130
 2056SOL    HW117630   3.227   2.476  12.372 -0.3069 -0.8453  0.0731
 2056SOL    HW217631   3.226   2.585  12.270 -1.4091  0.6085  0.7507
 2057SOL     OW17632   2.122   4.562   3.826 -0.5268  0.3275 -0.3240
 2057SOL    HW117633   2.202   4.583   3.779 -1.7271  1.3404 -1.9139
 2057SOL    HW217634   2.056   4.556   3.756 -0.1430  0.0084 -0.6593
 2058SOL     OW17635   3.375   0.470   8.490  0.0115  0.0303 -0.1666
 2058SOL    HW117636   3.293   0.434   8.454  0.9967  1.4482 -3.8821
 2058SOL    HW217637   3.423   0.389   8.504 -2.7917 -1.3536  1.4328
 2059SOL     OW17638   1.959   1.147  16.951  0.0582  0.1167  0.1400
 2059SOL    HW117639   1.978   1.150  17.045 -1.1828 -0.0567  0.3994
 2059SOL    HW217640   1.956   1.052  16.936 -1.1471  0.0748  0.5857
 2060SOL     OW17641   0.699   0.252   4.903 -0.1264 -0.6254  0.5871
 2060SOL    HW117642   0.682   0.290   4.990  0.4342  0.5211  0.1855
 2060SOL    HW217643   0.608   0.258   4.873  0.0860  2.1097  0.5179
 2061SOL     OW17644   3.038   0.934   3.332  0.4065 -0.0500 -0.4479
 2061SOL    HW117645   2.949   0.918   3.299  0.7601 -1.4561 -0.6811
 2061SOL    HW217646   3.056   1.023   3.300  0.4694 -0.6310 -2.0380
 2062SOL     OW17647   2.763   2.130   7.303  0.6224 -0.1659 -0.0373
 2062SOL    HW117648   2.833   2.132   7.367 -0.2930  0.2643  0.9533
 2062SOL    HW217649   2.726   2.042   7.310  1.5025 -0.5464 -0.1588
 2063SOL     OW17650   1.703   0.597   3.744 -0.0126  0.1358  0.2458
 2063SOL    HW117651   1.709   0.691   3.759  0.3453 -0.0621  1.3491
 2063SOL    HW217652   1.612   0.578   3.770  0.7786 -1.1396  2.0991
 2064SOL     OW17653   4.579   2.854   6.545  0.0243 -0.0783 -0.4117
 2064SOL    HW117654   4.663   2.878   6.584 -0.0686  1.1899 -0.9991
 2064SOL    HW217655   4.574   2.764   6.579 -0.5907 -0.0637 -0.4582
 2065SOL     OW17656   3.049   1.578   9.833  0.9150 -0.4252  0.0530
 2065SOL    HW117657   3.070   1.526   9.910 -1.2604  1.2345  1.7476
 2065SOL    HW217658   2.972   1.525   9.809  2.1058 -0.7381 -3.1391
 2066SOL     OW17659   0.095   3.530   8.149  0.0705 -0.1272 -0.4553
 2066SOL    HW117660   0.068   3.438   8.146  0.5020 -0.2587 -0.3513
 2066SOL    HW217661   0.166   3.518   8.212 -0.3909 -0.8099 -0.0645
 2067SOL     OW17662   4.279   4.124   0.983  0.4380 -0.4283  0.0349
 2067SOL    HW117663   4.351   4.180   0.957  0.3629 -0.3160  0.0699
 2067SOL    HW217664   4.232   4.132   0.900  1.5960  0.4948 -0.5287
 2068SOL     OW17665   1.398   2.668   0.892 -0.0300 -0.4373 -0.0029
 2068SOL    HW117666   1.456   2.596   0.914 -0.4698 -0.8887 -0.3404
 2068SOL    HW217667   1.450   2.697   0.818 -2.5929 -0.1966 -1.7188
 2069SOL     OW17668   2.857   2.596  15.990 -0.3894 -0.6265  0.2232
 2069SOL    HW117669   2.821   2.604  15.901  0.0264  0.0372  0.1180
 2069SOL    HW217670   2.770   2.593  16.030  0.3149  0.1334  1.7777
 2070SOL     OW17671   3.729   2.823   8.801 -0.3574 -0.7916 -0.1448
 2070SOL    HW117672   3.665   2.841   8.732 -0.8928 -1.9697  0.0394
 2070SOL    HW217673   3.770   2.906   8.824 -1.7202 -0.1318 -0.1415
 2071SOL     OW17674   1.460   2.507  14.928 -0.1959  0.5454  0.2310
 2071SOL    HW117675   1.451   2.535  14.838 -2.2322 -0.9282 -0.0389
 2071SOL    HW217676   1.389   2.559  14.966 -1.4828  0.0961 -1.5703
 2072SOL     OW17677   3.841   1.900   6.841 -0.4929  0.1397  0.3452
 2072SOL    HW117678   3.836   1.943   6.926  2.1546  1.2117 -0.0345
 2072SOL    HW217679   3.936   1.903   6.826 -0.0452 -0.7723  2.8737
 2073SOL     OW17680   4.601   2.739   3.971  0.1036  0.1783  0.3287
 2073SOL    HW117681   4.661   2.768   3.902 -0.8584  1.7803  0.1798
 2073SOL    HW217682   4.591   2.648   3.944  0.9618 -0.2415  1.4162
 2074SOL     OW17683   2.019   2.249  14.080 -0.6145 -0.2796 -0.1408
 2074SOL    HW117684   1.969   2.303  14.019 -1.6917 -0.6153  0.4322
 2074SOL    HW217685   2.106   2.289  14.078 -1.7410  2.1615 -0.8266
 2075SOL     OW17686   2.170   2.515   2.262  0.0853  0.3065  0.1432
 2075SOL    HW117687   2.130   2.449   2.205  1.2687 -0.1092 -0.2150
 2075SOL    HW217688   2.097   2.569   2.291 -1.3765 -2.7945  2.2270
 2076SOL     OW17689   2.406   0.678   2.486 -0.0170  0.7392 -0.2591
 2076SOL    HW117690   2.469   0.709   2.420  1.5527 -1.7575  0.0469
 2076SOL    HW217691   2.318   0.701   2.458 -0.0742  0.9944  0.1387
 2077SOL     OW17692   1.064   3.286  15.089  0.1933 -0.3159  0.0151
 2077SOL    HW117693   1.025   3.373  15.080 -0.8412 -0.6788  0.9653
 2077SOL    HW217694   1.157   3.308  15.098 -0.3222  1.8036  0.0946
 2078SOL     OW17695   2.594   4.469   6.143  0.4279 -0.2275 -0.7087
 2078SOL    HW117696   2.637   4.384   6.148 -1.3713 -1.1890 -1.6727
 2078SOL    HW217697   2.652   4.528   6.191 -1.9749  0.7154  1.0671
 2079SOL     OW17698   3.682   4.237   2.490  0.1272  0.2590 -0.2962
 2079SOL    HW117699   3.763   4.269   2.529  0.0103  2.2822 -1.6860
 2079SOL    HW217700   3.664   4.156   2.537 -0.3157 -1.3773 -3.3266
 2080SOL     OW17701   1.222   2.720   6.132  0.6082  0.0946 -0.2601
 2080SOL    HW117702   1.308   2.679   6.124  1.3856  1.4943  0.9762
 2080SOL    HW217703   1.160   2.648   6.145  0.2352  0.5473  0.5236
 2081SOL     OW17704   3.764   3.693   3.847  0.0849 -0.1341  0.0933
 2081SOL    HW117705   3.683   3.732   3.814 -0.2732 -2.3279 -1.6222
 2081SOL    HW217706   3.765   3.603   3.815 -0.1044  0.2951 -1.1432
 2082SOL     OW17707   4.243   2.993   1.536 -0.2829 -0.6599  0.2040
 2082SOL    HW117708   4.189   3.070   1.555  1.8116  1.1084 -1.0065
 2082SOL    HW217709   4.173   2.939   1.498  0.9370 -2.6489  0.7902
 2083SOL     OW17710   4.297   2.400   7.287  0.1281  0.0958  0.3585
 2083SOL    HW117711   4.282   2.478   7.340 -2.1441  0.2620 -0.5422
 2083SOL    HW217712   4.389   2.409   7.261 -0.3802  1.6787 -0.8669
 2084SOL     OW17713   3.614   2.923   4.713 -0.5616  0.0679 -0.2730
 2084SOL    HW117714   3.555   2.998   4.717  0.1359  0.6392 -0.6879
 2084SOL    HW217715   3.693   2.963   4.749 -1.7129 -0.1059  2.4352
 2085SOL     OW17716   2.724   4.573  16.314 -0.0759 -0.2968 -0.2763
 2085SOL    HW117717   2.812   4.565  16.350  0.2005  0.8664 -0.6916
 2085SOL    HW217718   2.734   4.620  16.232  2.9198 -1.2429 -0.4479
 2086SOL     OW17719   1.868   3.738   6.683  0.3088 -0.3580 -0.0749
 2086SOL    HW117720   1.844   3.650   6.711  0.1457  0.2658  1.7291
 2086SOL    HW217721   1.928   3.717   6.611  1.0722 -1.6547  0.9444
 2087SOL     OW17722   2.140   1.143   6.298  0.0650  0.5728 -0.3438
 2087SOL    HW117723   2.123   1.171   6.388  3.4269  1.6029 -0.0261
 2087SOL    HW217724   2.055   1.168   6.262 -2.1982 -2.1004  3.0764
 2088SOL     OW17725   1.717   0.853   3.816  0.1511 -0.4595 -0.3643
 2088SOL    HW117726   1.754   0.893   3.895  0.8631 -1.1861 -0.3260
 2088SOL    HW217727   1.655   0.918   3.784  0.1603 -0.1452  0.2460
 2089SOL     OW17728   1.016   0.646  13.199  0.1791 -0.0514  0.1551
 2089SOL    HW117729   1.086   0.660  13.136  1.2180 -0.0047  1.3247
 2089SOL    HW217730   0.992   0.559  13.167 -0.2468 -0.2471  1.0129
 2090SOL     OW17731   3.323   4.668   7.346 -0.6389 -0.0951 -0.0174
 2090SOL    HW117732   3.392   4.670   7.412 -0.7389 -0.2488  0.0921
 2090SOL    HW217733   3.360   4.605   7.284  0.5732  1.5877 -0.9922
 2091SOL     OW17734   0.830   1.983   8.795 -0.0580 -0.0963 -0.3684
 2091SOL    HW117735   0.892   1.955   8.863  0.5002 -0.4711 -1.0296
 2091SOL    HW217736   0.765   2.034   8.844 -0.2214 -0.2507 -0.4273
 2092SOL     OW17737   2.401   4.607   3.273  0.1197 -0.0218 -0.2106
 2092SOL    HW117738   2.458   4.580   3.345 -1.2684 -2.1496  0.1142
 2092SOL    HW217739   2.468   4.654   3.223 -0.2045 -0.8075 -1.3871
 2093SOL     OW17740   0.191   0.002  16.374 -0.2952  0.4267 -0.4018
 2093SOL    HW117741   0.156   0.024  16.287 -0.9461  1.6715  0.1708
 2093SOL    HW217742   0.253   0.075  16.383 -1.9823  1.4669  2.9137
 2094SOL     OW17743   2.420   1.877   8.212  0.0308  0.3386  0.4136
 2094SOL    HW117744   2.345   1.936   8.202  0.5739  0.7345 -1.1901
 2094SOL    HW217745   2.406   1.804   8.153  1.8023 -0.1825  0.6455
 2095SOL     OW17746   3.466   2.064   5.421 -0.1555  0.6510 -0.2868
 2095SOL    HW117747   3.509   1.988   5.381  0.8428  1.6810 -1.1709
 2095SOL    HW217748   3.434   2.018   5.498  1.8590  0.1845  0.2709
 2096SOL     OW17749   2.896   3.253   8.214 -0.6601  0.0133 -0.4518
 2096SOL    HW117750   2.872   3.316   8.282  0.7664  2.4382 -2.1777
 2096SOL    HW217751   2.913   3.308   8.137  0.3019  0.3858  0.0233
 2097SOL     OW17752   1.472   0.030  13.907  0.5958  0.2171  0.3173
 2097SOL    HW117753   1.441   0.091  13.840  0.1723 -0.4953 -0.1450
 2097SOL    HW217754   1.458   4.683  13.849  2.4296  0.2634 -0.1678
 2098SOL     OW17755   3.197   0.546   5.133  0.4527 -0.5637 -0.3217
 2098SOL    HW117756   3.150   0.486   5.075  1.9313 -2.0099 -0.0389
 2098SOL    HW217757   3.214   0.491   5.209  2.3620  1.3498  0.6450
 2099SOL     OW17758   1.989   1.926   2.117  0.2951  0.4533 -0.0388
 2099SOL    HW117759   2.067   1.939   2.171  0.3384 -0.4427  0.1164
 2099SOL    HW217760   1.955   1.838   2.136  1.7787 -0.9159 -3.7618
 2100SOL     OW17761   1.721   0.993   2.913  0.0837  0.5766  0.7952
 2100SOL    HW117762   1.742   0.921   2.854  3.7199  0.1232  2.6355
 2100SOL    HW217763   1.643   0.950   2.949 -0.6326 -0.2993 -1.8496
 2101SOL     OW17764   3.506   2.311   5.302 -0.5306 -0.1860  0.3428
 2101SOL    HW117765   3.455   2.367   5.360  0.8616  0.5230  0.9021
 2101SOL    HW217766   3.498   2.226   5.344  0.6926  0.0626  1.0780
 2102SOL     OW17767   3.131   2.122   7.112  0.1586 -0.4972  0.2142
 2102SOL    HW117768   3.052   2.128   7.058  0.6420 -1.0752 -0.5595
 2102SOL    HW217769   3.172   2.049   7.066  3.2709  1.7335 -0.5167
 2103SOL     OW17770   4.270   3.073  17.090 -0.4023 -0.0813  0.0150
 2103SOL    HW117771   4.316   3.124  17.157 -1.4228 -0.3609  0.9464
 2103SOL    HW217772   4.226   3.009  17.147 -1.3979  0.7177  0.1439
 2104SOL     OW17773   2.258   0.540   0.802 -0.2895 -0.5170 -0.5314
 2104SOL    HW117774   2.222   0.548   0.714 -2.0901 -1.4991  0.1325
 2104SOL    HW217775   2.318   0.615   0.805 -0.2463 -0.4790 -2.4415
 2105SOL     OW17776   1.679   1.748   5.841 -0.2017  0.0878 -0.5932
 2105SOL    HW117777   1.694   1.654   5.833 -0.5905  0.0502 -0.8994
 2105SOL    HW217778   1.760   1.789   5.813  0.4783 -0.5940  0.3978
 2106SOL     OW17779   0.491   4.443   8.655  0.1042  0.3886 -0.4695
 2106SOL    HW117780   0.490   4.395   8.737 -1.1718 -0.4389 -0.9650
 2106SOL    HW217781   0.494   4.532   8.689 -0.0579  0.8526 -1.6412
 2107SOL     OW17782   2.323   3.541   7.257  0.0684  0.4052  0.1713
 2107SOL    HW117783   2.392   3.481   7.228  1.8218  1.9126  1.2402
 2107SOL    HW217784   2.252   3.480   7.277 -0.9473  1.1826 -1.0665
 2108SOL     OW17785   3.800   3.793   8.697  0.6046 -0.0342  0.2761
 2108SOL    HW117786   3.827   3.711   8.656  1.3168 -0.6790  1.9951
 2108SOL    HW217787   3.858   3.785   8.773 -0.3430 -1.3879  0.8507
 2109SOL     OW17788   3.931   2.532   9.925 -0.1902 -0.0296 -0.0849
 2109SOL    HW117789   4.008   2.523   9.869 -0.3471  1.4153 -0.5386
 2109SOL    HW217790   3.918   2.446   9.966 -0.4831 -0.6979 -1.5896
 2110SOL     OW17791   4.531   4.376  10.058  0.1049 -0.0526 -0.1701
 2110SOL    HW117792   4.579   4.459  10.056  0.1727 -0.0864  0.1725
 2110SOL    HW217793   4.470   4.380   9.984 -0.0641 -0.7988 -0.0652
 2111SOL     OW17794   0.653   2.787   5.753  0.1810  0.1306  0.0525
 2111SOL    HW117795   0.691   2.711   5.710 -1.4211  0.2592 -1.5924
 2111SOL    HW217796   0.582   2.742   5.798 -0.5015 -0.2306 -1.3740
 2112SOL     OW17797   0.249   4.074   2.367  0.1792  0.1352  0.3535
 2112SOL    HW117798   0.288   4.122   2.294  1.8487 -1.5593  0.1182
 2112SOL    HW217799   0.202   4.010   2.314  2.7733 -1.3514 -0.1306
 2113SOL     OW17800   1.166   3.942   5.478  0.1406 -0.0640 -0.2926
 2113SOL    HW117801   1.242   3.970   5.428 -0.6575  2.5976 -0.0646
 2113SOL    HW217802   1.160   4.009   5.546  0.8026  0.3839 -0.6818
 2114SOL     OW17803   4.514   2.055   9.767  0.8921 -0.4059 -0.3511
 2114SOL    HW117804   4.535   1.966   9.738  0.2548 -0.3083 -1.0971
 2114SOL    HW217805   4.501   2.022   9.857 -1.6971 -0.1433 -0.6179
 2115SOL     OW17806   1.575   2.384   3.916 -0.0158  0.0382 -0.0637
 2115SOL    HW117807   1.665   2.404   3.943 -0.2682  1.2267 -0.0744
 2115SOL    HW217808   1.541   2.382   4.005  1.6400 -1.1245  0.5555
 2116SOL     OW17809   3.616   3.446  13.096  0.2362 -0.3252 -0.4463
 2116SOL    HW117810   3.543   3.384  13.105  1.2523 -1.4450  0.1362
 2116SOL    HW217811   3.576   3.525  13.133  0.2988 -0.7060  0.4513
 2117SOL     OW17812   4.370   0.916  14.623  0.2392  0.1250  0.5939
 2117SOL    HW117813   4.401   0.877  14.705 -2.1142 -1.1638  0.8588
 2117SOL    HW217814   4.415   1.001  14.631 -1.2242  0.8249  1.4579
 2118SOL     OW17815   3.507   1.761  14.198  0.2023  0.2494 -0.3767
 2118SOL    HW117816   3.566   1.795  14.131  1.4758 -0.3867  0.4300
 2118SOL    HW217817   3.532   1.670  14.183 -0.8846  0.2012 -1.8589
 2119SOL     OW17818   0.472   1.993   9.073 -0.3916 -0.8541  0.1293
 2119SOL    HW117819   0.517   1.986   9.157 -0.1622  1.8460  0.2559
 2119SOL    HW217820   0.526   1.938   9.017  0.0667 -0.8967  0.6171
 2120SOL     OW17821   1.378   2.309   6.035  0.6035 -0.0896  0.2201
 2120SOL    HW117822   1.430   2.260   5.970  0.2092 -0.4225  0.1546
 2120SOL    HW217823   1.431   2.385   6.058 -2.0453  1.9543 -0.4636
 2121SOL     OW17824   0.821   1.740   6.852 -0.7114  0.1200 -0.1372
 2121SOL    HW117825   0.777   1.821   6.880 -0.4767 -0.8483  3.1147
 2121SOL    HW217826   0.742   1.686   6.848 -0.6535 -0.1247  1.7970
 2122SOL     OW17827   0.005   3.207   5.933 -0.2574  0.2811  0.5021
 2122SOL    HW117828   0.076   3.268   5.954 -1.0540  2.1068 -2.1765
 2122SOL    HW217829   0.040   3.122   5.960  1.3073  0.2628 -1.5881
 2123SOL     OW17830   0.266   0.285   6.976  0.7007  0.1645  0.2100
 2123SOL    HW117831   0.204   0.275   6.903  2.0427  1.4159 -1.0914
 2123SOL    HW217832   0.265   0.380   6.986 -0.9040  0.2222 -0.3812
 2124SOL     OW17833   0.406   0.049  15.812 -0.2009 -0.0644  0.4496
 2124SOL    HW117834   0.347   0.116  15.777 -0.0899 -0.5022 -0.5803
 2124SOL    HW217835   0.470   0.053  15.741  1.5404  2.4497  2.1965
 2125SOL     OW17836   3.014   2.182   5.542 -0.8130  0.0348 -0.4791
 2125SOL    HW117837   3.063   2.225   5.612 -0.8294 -0.1571 -0.3478
 2125SOL    HW217838   2.923   2.206   5.562 -0.9899  0.2347 -1.5203
 2126SOL     OW17839   3.076   1.268   7.921 -0.0240 -0.1888  0.3016
 2126SOL    HW117840   3.006   1.237   7.978 -0.4051 -1.2961 -0.7533
 2126SOL    HW217841   3.159   1.247   7.965 -0.4552  1.1525  1.7242
 2127SOL     OW17842   2.704   1.472   1.872  0.4799 -0.3423  0.2379
 2127SOL    HW117843   2.670   1.533   1.807  1.2533  0.4063  0.5424
 2127SOL    HW217844   2.624   1.421   1.885 -1.2845  2.0613 -1.2263
 2128SOL     OW17845   3.788   3.121   3.959 -0.1523 -0.4995 -0.2503
 2128SOL    HW117846   3.730   3.047   3.977  1.8624 -2.1212 -0.4462
 2128SOL    HW217847   3.799   3.152   4.049 -3.1962  2.8240 -1.0045
 2129SOL     OW17848   0.560   0.172   7.274 -0.3698 -0.4335  0.5483
 2129SOL    HW117849   0.610   0.248   7.245 -0.0866 -1.0480 -0.5911
 2129SOL    HW217850   0.485   0.208   7.321 -0.0030  0.3588  0.5179
 2130SOL     OW17851   4.033   4.212   4.893 -0.6115 -0.5987  0.1433
 2130SOL    HW117852   3.960   4.158   4.923 -2.1831  0.3353 -1.9510
 2130SOL    HW217853   4.085   4.229   4.971  1.8552  0.1359 -1.6510
 2131SOL     OW17854   3.041   0.737   7.957  0.2880  0.6111 -0.1054
 2131SOL    HW117855   3.084   0.779   7.882  3.3223 -1.1716  0.6204
 2131SOL    HW217856   2.960   0.702   7.919  0.3163 -0.6277  0.9934
 2132SOL     OW17857   3.115   1.962   6.500 -0.2901  0.5953 -0.2123
 2132SOL    HW117858   3.175   1.894   6.470 -1.9340 -0.9232 -0.0833
 2132SOL    HW217859   3.113   1.932   6.591 -0.8036 -0.7458 -0.6697
 2133SOL     OW17860   4.148   2.717   4.863  0.2416 -0.2512 -0.0021
 2133SOL    HW117861   4.151   2.790   4.926 -1.4777 -0.6378  0.5106
 2133SOL    HW217862   4.230   2.717   4.814  0.4690  0.4261  0.3641
 2134SOL     OW17863   0.594   3.160  12.975 -0.5797 -0.1260  0.2778
 2134SOL    HW117864   0.616   3.166  13.068  0.4362 -2.2350  0.1614
 2134SOL    HW217865   0.502   3.133  12.977 -0.3033 -1.1268 -0.8375
 2135SOL     OW17866   4.346   4.625   2.569  0.1469  0.2262  0.0245
 2135SOL    HW117867   4.269   4.646   2.622  1.2533  1.3950  1.1563
 2135SOL    HW217868   4.335   4.533   2.544  0.6342  0.8407 -2.4904
 2136SOL     OW17869   4.657   0.679  13.761  0.5436  0.1188 -0.2633
 2136SOL    HW117870   4.725   0.616  13.738  3.0069  2.2090  1.2245
 2136SOL    HW217871   4.684   0.701  13.851  2.0449 -1.5964 -0.3030
 2137SOL     OW17872   0.585   2.622   1.497  0.3872  0.1991 -0.3035
 2137SOL    HW117873   0.578   2.549   1.559 -2.6281  0.0398 -0.8442
 2137SOL    HW217874   0.656   2.676   1.532  0.6360 -0.8023  0.7176
 2138SOL     OW17875   0.827   1.947   2.300 -0.1569  0.0117 -0.3471
 2138SOL    HW117876   0.773   1.868   2.295  0.3106 -0.4526  1.8066
 2138SOL    HW217877   0.849   1.963   2.208 -0.0004  1.1443 -0.1091
 2139SOL     OW17878   0.588   0.821   6.801  0.0711 -0.6764 -0.4433
 2139SOL    HW117879   0.576   0.903   6.848  0.7740  0.1597 -1.7098
 2139SOL    HW217880   0.678   0.828   6.769 -0.3636 -0.6614 -1.6809
 2140SOL     OW17881   4.651   1.250  13.029  0.0002  0.6013  0.6224
 2140SOL    HW117882   4.622   1.262  13.120  0.4573  1.7998  0.6030
 2140SOL    HW217883   4.717   1.318  13.018 -0.7555  1.0560 -1.0475
 2141SOL     OW17884   0.504   2.480   7.284 -0.0590  0.1498  0.0982
 2141SOL    HW117885   0.480   2.435   7.365  0.6334  0.8329  0.6804
 2141SOL    HW217886   0.432   2.543   7.277 -0.4987 -0.2164  1.4309
 2142SOL     OW17887   1.878   4.367   3.333  0.1385 -0.1681 -0.1663
 2142SOL    HW117888   1.959   4.316   3.325  0.1253 -0.1836 -0.1963
 2142SOL    HW217889   1.912   4.447   3.373  1.8305  0.1936 -2.3361
 2143SOL     OW17890   0.299   2.257   5.830  0.0438  0.2540  0.8492
 2143SOL    HW117891   0.337   2.329   5.779 -2.4137  0.0324 -1.3193
 2143SOL    HW217892   0.271   2.299   5.912  0.1079 -0.3216  1.1628
 2144SOL     OW17893   1.792   1.656   6.310 -0.4924 -0.5101  0.3889
 2144SOL    HW117894   1.704   1.680   6.340  0.2983  1.1294  1.3551
 2144SOL    HW217895   1.806   1.725   6.245  1.3243 -3.2808 -2.1509
 2145SOL     OW17896   0.757   3.128   2.487 -0.2405 -0.1080  0.0938
 2145SOL    HW117897   0.743   3.045   2.531 -0.9949 -0.0765 -0.0843
 2145SOL    HW217898   0.681   3.119   2.430  1.8666 -0.9577 -2.6079
 2146SOL     OW17899   2.035   3.574   5.382  0.1073 -0.1398  0.3925
 2146SOL    HW117900   2.023   3.499   5.324 -0.6805  0.9843 -0.8987
 2146SOL    HW217901   2.013   3.650   5.329  0.0849 -1.8648 -2.0804
 2147SOL     OW17902   4.362   1.380   8.700 -0.0333  0.3312  0.5389
 2147SOL    HW117903   4.437   1.335   8.738  0.4234  1.3020  0.7981
 2147SOL    HW217904   4.346   1.446   8.768  0.4297  1.8344 -0.8101
 2148SOL     OW17905   4.494   4.662  12.813  0.3877  0.2039  0.4242
 2148SOL    HW117906   4.579   4.692  12.781 -0.1077 -0.9427 -1.9962
 2148SOL    HW217907   4.454   0.020  12.820 -0.3399 -0.0232 -0.9570
 2149SOL     OW17908   1.568   0.190   2.184  0.7279 -0.3515  0.2996
 2149SOL    HW117909   1.600   0.144   2.261  3.3951  1.4073  0.2508
 2149SOL    HW217910   1.545   0.112   2.134  1.8028 -0.2022 -0.4329
 2150SOL     OW17911   2.175   1.717   0.757  0.3324  0.4315  0.1518
 2150SOL    HW117912   2.186   1.760   0.842  2.1283  0.1716  0.0324
 2150SOL    HW217913   2.084   1.746   0.745  0.6150 -0.8616 -5.0030
 2151SOL     OW17914   2.871   0.777  10.747 -0.1376 -0.0963  0.2647
 2151SOL    HW117915   2.906   0.719  10.815  0.5439  0.5707  0.4753
 2151SOL    HW217916   2.937   0.845  10.738  1.6260 -1.9857 -1.0439
 2152SOL     OW17917   4.184   3.679   9.117  0.9785 -0.3325  0.3530
 2152SOL    HW117918   4.167   3.632   9.199  3.1888  0.7049  1.4362
 2152SOL    HW217919   4.242   3.620   9.068  1.2108  0.0668  0.1488
 2153SOL     OW17920   0.889   3.977   3.197  0.3640  0.3951  0.0210
 2153SOL    HW117921   0.872   3.944   3.109 -1.0886  0.5263  0.2457
 2153SOL    HW217922   0.933   4.059   3.173 -0.8970  1.9118  2.7980
 2154SOL     OW17923   3.549   0.322   1.692 -0.0437  0.4981 -0.3499
 2154SOL    HW117924   3.506   0.263   1.630  0.7110  0.2852 -0.6677
 2154SOL    HW217925   3.472   0.372   1.720  0.1691  1.1451 -0.9236
 2155SOL     OW17926   2.157   1.297   3.792 -0.1488 -0.2565 -0.5645
 2155SOL    HW117927   2.192   1.378   3.755  2.1725 -1.3082 -0.6889
 2155SOL    HW217928   2.121   1.249   3.717  2.4211 -1.6462 -0.9041
 2156SOL     OW17929   1.674   2.557  15.471 -0.1226  0.2559 -0.3508
 2156SOL    HW117930   1.641   2.554  15.381  0.6307 -2.0891 -0.5462
 2156SOL    HW217931   1.726   2.477  15.477  0.1531  0.6891  3.1585
 2157SOL     OW17932   1.672   2.041   5.236 -0.3715  0.3275  0.0546
 2157SOL    HW117933   1.731   1.979   5.278 -1.2286 -1.1276 -0.8697
 2157SOL    HW217934   1.654   2.092   5.315  3.0877  0.9682  0.4115
 2158SOL     OW17935   0.230   3.927  10.232  1.0993 -0.3586 -0.0715
 2158SOL    HW117936   0.168   3.932  10.305  1.6223 -0.4268  0.3805
 2158SOL    HW217937   0.233   4.018  10.202 -1.3594  0.0672  0.9870
 2159SOL     OW17938   1.439   3.633   6.898  0.4249 -0.1388 -1.0371
 2159SOL    HW117939   1.365   3.639   6.959  2.0212 -1.1493  1.0312
 2159SOL    HW217940   1.394   3.651   6.815  1.5702  1.3277 -1.3409
 2160SOL     OW17941   4.114   0.175  15.408  0.1055 -0.4127  0.5617
 2160SOL    HW117942   4.169   0.226  15.468  1.3521 -2.1422  0.8794
 2160SOL    HW217943   4.122   0.092  15.455 -0.0650 -0.4692  0.4933
 2161SOL     OW17944   1.774   0.215   7.008 -0.5963  0.1941  0.6298
 2161SOL    HW117945   1.730   0.230   6.924  1.1884  0.3825 -0.2661
 2161SOL    HW217946   1.731   0.282   7.061  3.4471  2.9847  0.3913
 2162SOL     OW17947   3.562   2.793   7.502 -0.0134  0.0756 -0.7066
 2162SOL    HW117948   3.617   2.715   7.511  0.5204  0.2489 -2.3754
 2162SOL    HW217949   3.607   2.840   7.432 -0.9948 -1.4992 -2.4076
 2163SOL     OW17950   2.994   4.206   2.621 -0.1229  0.5473 -0.1147
 2163SOL    HW117951   3.062   4.172   2.562 -0.4103 -0.0781 -0.0772
 2163SOL    HW217952   3.050   4.264   2.673 -2.4984  0.9809  1.9773
 2164SOL     OW17953   4.153   3.073   0.676  0.3543  0.1141 -0.2093
 2164SOL    HW117954   4.239   3.113   0.661  0.1983  1.0522  1.3593
 2164SOL    HW217955   4.167   3.036   0.763 -0.4843  0.3651  0.0318
 2165SOL     OW17956   4.494   4.551   6.936  0.0781  0.2754 -0.3677
 2165SOL    HW117957   4.468   4.588   6.852  0.6542 -0.3512 -0.8181
 2165SOL    HW217958   4.575   4.507   6.910  0.2822  0.0734  0.6004
 2166SOL     OW17959   0.021   1.949   8.526  0.4604  0.0830  0.2249
 2166SOL    HW117960   4.659   1.937   8.552 -0.0336  0.3240 -1.3466
 2166SOL    HW217961   0.065   1.943   8.610  2.6563  1.0612 -0.8418
 2167SOL     OW17962   2.073   4.505   1.952 -0.2649 -0.0312  0.6134
 2167SOL    HW117963   2.095   4.464   1.869 -2.8082 -3.9748  1.8924
 2167SOL    HW217964   2.157   4.536   1.984  1.2025  0.9927 -4.3153
 2168SOL     OW17965   3.893   2.101   1.825 -0.4307 -0.1639  0.2722
 2168SOL    HW117966   3.932   2.029   1.774  0.3426  1.6519 -1.6867
 2168SOL    HW217967   3.942   2.175   1.790 -1.6737  0.7905  0.5831
 2169SOL     OW17968   3.637   4.172   5.647 -0.3001 -0.2425 -0.4204
 2169SOL    HW117969   3.575   4.111   5.606 -1.0926  0.7300 -0.6778
 2169SOL    HW217970   3.635   4.144   5.739 -2.3225 -1.4549 -0.8179
 2170SOL     OW17971   1.371   3.977   9.333 -0.2745 -0.1394  0.1920
 2170SOL    HW117972   1.337   3.887   9.338  0.7449 -0.5805 -0.8592
 2170SOL    HW217973   1.365   3.996   9.427  1.0349 -1.8726  0.6407
 2171SOL     OW17974   0.554   0.747   8.656 -0.3704  0.1067 -0.0723
 2171SOL    HW117975   0.471   0.789   8.632 -0.3132  1.2288  1.6912
 2171SOL    HW217976   0.585   0.746   8.566  1.1275 -0.3064  0.4624
 2172SOL     OW17977   0.243   0.629   7.918 -0.1057  0.0241 -0.2703
 2172SOL    HW117978   0.261   0.634   7.824 -3.1287  2.1985 -0.7164
 2172SOL    HW217979   0.297   0.703   7.948 -1.3856  2.1718 -3.3334
 2173SOL     OW17980   3.882   1.228   0.724  0.3842  0.2606  0.3870
 2173SOL    HW117981   3.877   1.167   0.651 -1.6212 -0.5988  1.2553
 2173SOL    HW217982   3.800   1.276   0.719  0.9731  1.1462 -0.8531
 2174SOL     OW17983   0.309   4.684   7.033 -0.0492 -0.4072  0.4080
 2174SOL    HW117984   0.329   4.610   7.092 -1.1584 -0.6824  0.4216
 2174SOL    HW217985   0.395   4.708   6.999  0.0112 -1.5057 -0.2186
 2175SOL     OW17986   0.562   1.302   0.028 -0.8693  0.0518  0.5103
 2175SOL    HW117987   0.601   1.383  17.709  1.0490 -1.8416 -1.7767
 2175SOL    HW217988   0.632   1.240   0.045 -0.2014  0.0116 -2.4338
 2176SOL     OW17989   1.586   4.629   2.631 -0.2099 -0.5728  0.6326
 2176SOL    HW117990   1.573   4.578   2.711 -1.8210 -0.1211  0.6581
 2176SOL    HW217991   1.503   4.602   2.591 -0.6618  2.2676 -0.3727
 2177SOL     OW17992   0.352   1.423   4.129 -0.0082 -0.1413 -0.7955
 2177SOL    HW117993   0.270   1.416   4.082 -0.6375 -0.6982  0.3845
 2177SOL    HW217994   0.406   1.402   4.052 -0.2631 -0.6806 -0.8241
 2178SOL     OW17995   3.658   0.745   1.228  0.5880  0.0848 -0.8588
 2178SOL    HW117996   3.613   0.810   1.174 -1.6232  0.0115  0.9068
 2178SOL    HW217997   3.578   0.709   1.267  1.4647 -0.8529  0.0706
 2179SOL     OW17998   0.887   2.670   9.069 -0.0689  0.3083 -0.0104
 2179SOL    HW117999   0.800   2.639   9.096  0.1492 -0.7482 -0.5067
 2179SOL    HW218000   0.903   2.740   9.133 -1.1901 -0.3444  0.9976
 2180SOL     OW18001   0.812   2.262   6.080  0.3183 -0.0648  0.0884
 2180SOL    HW118002   0.814   2.206   6.002 -2.0630 -0.4820  0.3210
 2180SOL    HW218003   0.718   2.254   6.097  0.6511 -1.8054  1.0876
 2181SOL     OW18004   2.680   3.387   6.168 -0.6676  0.9958 -0.1027
 2181SOL    HW118005   2.750   3.333   6.205 -0.7342  1.3464  0.5195
 2181SOL    HW218006   2.727   3.466   6.143  2.4060 -0.6131  0.6078
 2182SOL     OW18007   1.497   0.405   7.821 -0.5702 -0.1075  0.0691
 2182SOL    HW118008   1.478   0.499   7.830  0.6247 -0.1792  3.3080
 2182SOL    HW218009   1.582   0.407   7.865 -0.7984  0.4927  0.4837
 2183SOL     OW18010   2.100   3.796   2.665 -0.1292 -0.0781  0.4103
 2183SOL    HW118011   2.103   3.868   2.602  2.2276  0.5447  1.2538
 2183SOL    HW218012   2.071   3.719   2.617  2.1877 -0.7101  0.0663
 2184SOL     OW18013   4.219   3.976  16.279 -0.4173 -0.1282  0.0348
 2184SOL    HW118014   4.284   3.990  16.349 -0.7209 -0.5426  0.3982
 2184SOL    HW218015   4.200   3.882  16.289 -0.8434  0.0963  1.3303
 2185SOL     OW18016   2.960   1.134   9.763  0.5374 -0.1047 -0.0802
 2185SOL    HW118017   3.022   1.061   9.752 -0.4001 -1.5348  4.0020
 2185SOL    HW218018   2.890   1.096   9.816  1.0512  0.1940  0.7993
 2186SOL     OW18019   2.559   2.186   1.646 -0.2226 -0.0998 -0.4192
 2186SOL    HW118020   2.525   2.200   1.557 -0.5181  1.0672 -0.1320
 2186SOL    HW218021   2.653   2.194   1.629 -0.6130  1.7473 -1.7760
 2187SOL     OW18022   0.926   2.354  12.464  0.2295  0.4226 -0.1649
 2187SOL    HW118023   0.990   2.374  12.532  0.1745  0.3988 -0.1060
 2187SOL    HW218024   0.856   2.408  12.502 -0.6858 -3.2157  3.4293
 2188SOL     OW18025   0.461   1.577   3.729  0.4798 -0.1711 -0.0706
 2188SOL    HW118026   0.431   1.618   3.648 -0.8620 -1.5905 -0.2871
 2188SOL    HW218027   0.420   1.645   3.784 -0.5724 -0.5878 -0.3382
 2189SOL     OW18028   1.992   1.854   1.219 -0.6570 -0.0172 -0.3438
 2189SOL    HW118029   1.968   1.938   1.181  0.4651 -0.1775 -1.4030
 2189SOL    HW218030   1.903   1.820   1.234 -1.7361  2.7216 -0.6188
 2190SOL     OW18031   2.923   1.755   7.985  0.2252 -0.2231 -0.2407
 2190SOL    HW118032   2.839   1.788   8.019  0.8321 -1.2715  2.1899
 2190SOL    HW218033   2.895   1.702   7.910  0.0828 -0.6504  0.1145
 2191SOL     OW18034   2.503   1.101  12.803  0.0140 -0.0718 -0.0853
 2191SOL    HW118035   2.505   1.135  12.714  1.6910 -1.3180 -0.5271
 2191SOL    HW218036   2.584   1.050  12.806 -1.3426 -2.1559  0.6623
 2192SOL     OW18037   2.312   2.065   7.452  0.0828 -0.0136  0.2910
 2192SOL    HW118038   2.276   2.013   7.523 -3.6032 -2.0488 -3.0797
 2192SOL    HW218039   2.373   1.997   7.424  1.5558  1.2442  0.4608
 2193SOL     OW18040   1.623   1.109   6.813  0.3403 -0.8945 -0.2478
 2193SOL    HW118041   1.634   1.045   6.742 -0.0392 -0.7641 -0.4274
 2193SOL    HW218042   1.569   1.175   6.770  0.5161 -0.1146  0.7362
 2194SOL     OW18043   3.496   4.638   2.332 -0.0396 -0.2264  0.6074
 2194SOL    HW118044   3.449   4.715   2.363 -0.4199 -1.3076  2.6809
 2194SOL    HW218045   3.486   4.645   2.237  1.6687  0.4780  0.4864
 2195SOL     OW18046   4.437   4.685   9.514 -0.2776  0.3613 -0.0225
 2195SOL    HW118047   4.468   4.611   9.567 -0.8509  0.4199  0.4037
 2195SOL    HW218048   4.383   0.004   9.578 -1.5599 -0.5652 -0.4116
 2196SOL     OW18049   2.186   1.547   2.921  0.1572  0.5696  0.7479
 2196SOL    HW118050   2.182   1.473   2.861 -0.0544 -0.2096  1.7284
 2196SOL    HW218051   2.091   1.559   2.922  0.1670  0.6705  0.5547
 2197SOL     OW18052   0.971   2.505   6.089 -0.2932  0.2328 -0.3464
 2197SOL    HW118053   0.940   2.416   6.073 -0.7161  0.5264 -1.1316
 2197SOL    HW218054   0.969   2.505   6.185 -0.6748 -1.4729 -0.3384
 2198SOL     OW18055   1.610   3.806   7.380  0.2301 -0.2186  0.3353
 2198SOL    HW118056   1.678   3.870   7.358 -1.0377  0.5722 -1.3747
 2198SOL    HW218057   1.642   3.726   7.338 -0.9058 -0.8625  0.7141
 2199SOL     OW18058   0.467   0.177  16.589  0.1950 -0.1892  0.5830
 2199SOL    HW118059   0.483   0.141  16.502  1.0189  0.9230  0.2747
 2199SOL    HW218060   0.389   0.231  16.577 -0.6068 -1.1724  1.3434
 2200SOL     OW18061   3.577   1.514   4.371  0.5666  0.4643 -0.1158
 2200SOL    HW118062   3.636   1.544   4.440 -0.4967  0.8494  0.6131
 2200SOL    HW218063   3.573   1.420   4.390 -1.6315  0.8298  1.1587
 2201SOL     OW18064   0.283   0.646   3.412  0.1351 -0.1966  0.2713
 2201SOL    HW118065   0.188   0.632   3.408 -0.0896  1.0834  0.9861
 2201SOL    HW218066   0.314   0.578   3.472 -2.7378 -1.9584 -0.2017
 2202SOL     OW18067   2.454   3.075   1.617 -0.2215 -0.3047 -0.1192
 2202SOL    HW118068   2.420   3.094   1.530 -1.2158  0.7243  0.4926
 2202SOL    HW218069   2.378   3.097   1.671 -0.2689  0.8529 -0.6554
 2203SOL     OW18070   3.951   1.207   5.378 -0.6296 -0.0334  0.0362
 2203SOL    HW118071   3.893   1.161   5.438 -1.0680  0.3398 -0.0978
 2203SOL    HW218072   3.922   1.195   5.287 -2.0392 -0.2420  0.5079
 2204SOL     OW18073   4.245   1.625   4.737 -0.2451  0.1124 -0.0357
 2204SOL    HW118074   4.172   1.606   4.796 -0.0789  1.0630  0.4891
 2204SOL    HW218075   4.322   1.644   4.791 -0.1691  1.7181 -0.7047
 2205SOL     OW18076   2.318   3.837   2.849  0.1103 -0.1151 -0.3139
 2205SOL    HW118077   2.265   3.803   2.777 -0.2482 -2.2329  0.9765
 2205SOL    HW218078   2.326   3.754   2.895  4.1057  1.9290  2.6730
 2206SOL     OW18079   4.153   2.904  17.253  0.2968 -0.1157  0.1012
 2206SOL    HW118080   4.158   2.939  17.342 -0.6139 -0.3154  0.2360
 2206SOL    HW218081   4.072   2.855  17.265 -0.1734  0.8845  1.0868
 2207SOL     OW18082   1.248   0.991   4.712  0.3166 -0.8043  0.0518
 2207SOL    HW118083   1.321   0.940   4.676  0.0492 -1.6344  0.6899
 2207SOL    HW218084   1.258   1.068   4.656  0.5571 -0.5271  0.4759
 2208SOL     OW18085   3.535   4.047   3.466 -0.3348  0.0966  0.0258
 2208SOL    HW118086   3.481   3.990   3.411  0.9161 -0.7020 -0.3662
 2208SOL    HW218087   3.605   4.069   3.404 -1.2957 -0.2928 -1.1921
 2209SOL     OW18088   4.132   1.502   8.555 -0.0015 -0.5943  0.6856
 2209SOL    HW118089   4.166   1.466   8.637  0.2276  0.3786  1.0170
 2209SOL    HW218090   4.037   1.501   8.566 -0.0493 -2.4097  0.0372
 2210SOL     OW18091   0.483   0.830  10.126  0.2319  0.7337 -0.1390
 2210SOL    HW118092   0.421   0.826  10.199 -1.2136 -0.5924 -1.4353
 2210SOL    HW218093   0.466   0.914  10.085  1.9857  0.8082 -0.6948
 2211SOL     OW18094   1.498   0.333  17.445 -0.5729 -0.2531  0.4634
 2211SOL    HW118095   1.566   0.350  17.510 -0.2759 -0.9475  0.3296
 2211SOL    HW218096   1.469   0.246  17.472  1.1591 -1.0207 -0.2008
 2212SOL     OW18097   4.698   3.969   8.999  0.3545 -0.2702 -0.0368
 2212SOL    HW118098   4.642   4.042   8.971  0.8116  0.2135  0.3066
 2212SOL    HW218099   4.680   3.901   8.934 -0.8627  0.0705 -0.0506
 2213SOL     OW18100   3.750   3.399  10.485 -0.6779  0.0448  0.3897
 2213SOL    HW118101   3.826   3.347  10.513  0.3683  1.7849  0.7975
 2213SOL    HW218102   3.713   3.398  10.573 -1.4520  0.1336  0.0652
 2214SOL     OW18103   0.113   4.500  14.474  0.4305  0.2691  0.1990
 2214SOL    HW118104   0.039   4.537  14.425  0.3864  1.1883  0.9548
 2214SOL    HW218105   0.111   4.413  14.436 -0.3031  0.1744  0.4590
 2215SOL     OW18106   1.367   0.322   4.561  0.1342  0.2833 -0.1785
 2215SOL    HW118107   1.446   0.320   4.615  1.2334  2.7807 -1.6718
 2215SOL    HW218108   1.337   0.233   4.578 -0.4775  0.2207 -1.5786
 2216SOL     OW18109   0.198   4.650   1.645  0.4045 -0.3800  0.3342
 2216SOL    HW118110   0.114   4.636   1.601  0.3092  1.0244  0.0770
 2216SOL    HW218111   0.184   4.720   1.709  2.3746  1.6536 -1.4612
 2217SOL     OW18112   4.197   2.350  10.993 -0.0654  0.4796  0.2667
 2217SOL    HW118113   4.143   2.358  10.914 -2.1185  1.2042  1.7530
 2217SOL    HW218114   4.284   2.322  10.964 -1.4896 -2.4740 -1.1162
 2218SOL     OW18115   1.413   4.669   2.136 -0.3751 -0.4428  0.0175
 2218SOL    HW118116   1.360   4.713   2.203 -1.3026 -1.3131 -0.1430
 2218SOL    HW218117   1.378   4.678   2.047 -0.7020  3.9692  0.5979
 2219SOL     OW18118   3.429   0.984  10.315  0.2270  0.2324 -0.2911
 2219SOL    HW118119   3.376   0.909  10.345  1.0389 -0.1199  0.2543
 2219SOL    HW218120   3.507   0.982  10.370 -0.2537  0.7617  0.4148
 2220SOL     OW18121   2.578   2.893   4.962 -0.1752 -0.2381 -0.2750
 2220SOL    HW118122   2.494   2.934   4.942  1.1445  1.8119 -1.6738
 2220SOL    HW218123   2.627   2.975   4.948  0.9175 -0.7060  0.8402
 2221SOL     OW18124   3.443   1.627   0.810  0.1574 -0.2144  0.3825
 2221SOL    HW118125   3.510   1.615   0.743  0.4094  1.7036  0.2736
 2221SOL    HW218126   3.456   1.547   0.860 -0.9967 -0.9799 -0.5474
 2222SOL     OW18127   0.446   4.019  14.589 -0.3592 -0.6252  0.4001
 2222SOL    HW118128   0.535   4.052  14.573 -0.9057 -0.1272 -1.5563
 2222SOL    HW218129   0.466   3.925  14.593 -0.2693 -0.6795 -1.5718
 2223SOL     OW18130   2.114   1.954   4.292  0.7749  0.1859 -0.4382
 2223SOL    HW118131   2.119   1.863   4.321  1.1726 -0.0878 -1.3859
 2223SOL    HW218132   2.138   2.010   4.367 -2.3267  1.7196 -0.6213
 2224SOL     OW18133   0.493   1.381   3.333  0.4580 -0.0153 -0.2190
 2224SOL    HW118134   0.511   1.337   3.417  0.9390 -0.8903 -0.7834
 2224SOL    HW218135   0.419   1.430   3.368 -0.2007 -1.0882 -0.0848
 2225SOL     OW18136   2.454   4.070   1.595  0.0096 -0.4834  0.3618
 2225SOL    HW118137   2.541   4.085   1.557  0.4726  0.1547  1.6756
 2225SOL    HW218138   2.387   4.076   1.527  0.3773 -0.6307 -0.0147
 2226SOL     OW18139   1.746   0.057   6.084  0.0656 -0.2042  0.0730
 2226SOL    HW118140   1.793   4.716   6.129  2.8028  1.4282 -0.2657
 2226SOL    HW218141   1.797   0.138   6.085  1.1687 -0.8831 -1.5374
 2227SOL     OW18142   0.201   2.939  10.702  0.2635  0.1655 -0.4823
 2227SOL    HW118143   0.216   2.948  10.608  0.4500  1.8335 -0.3059
 2227SOL    HW218144   0.264   2.871  10.725  0.3122  0.6317  0.7614
 2228SOL     OW18145   3.937   4.620  13.429 -0.1506 -0.4085  0.2801
 2228SOL    HW118146   3.983   4.697  13.396  1.2943 -0.4104  2.2847
 2228SOL    HW218147   3.900   4.591  13.346 -2.4560 -0.1854  1.2197
 2229SOL     OW18148   4.641   3.589   9.066  0.4236  0.0148 -0.1023
 2229SOL    HW118149   4.692   3.508   9.068 -1.4415 -1.1613  0.0826
 2229SOL    HW218150   4.709   3.650   9.040  1.9991 -1.4348  0.6424
 2230SOL     OW18151   3.047   4.039   5.882  0.6370  0.0896  0.6608
 2230SOL    HW118152   2.981   4.068   5.819  1.4085  1.1899  0.3560
 2230SOL    HW218153   3.110   3.986   5.832  1.5962  0.7361  1.1869
 2231SOL     OW18154   2.115   1.174   2.054 -0.2935  0.2327  0.6526
 2231SOL    HW118155   2.203   1.159   2.019  0.8063  1.9800  2.6600
 2231SOL    HW218156   2.139   1.251   2.106 -0.6859  0.4762  0.4811
 2232SOL     OW18157   2.528   0.024   4.287  0.0684 -0.5592  0.4515
 2232SOL    HW118158   2.608   4.700   4.280  2.2811  2.7631  0.2749
 2232SOL    HW218159   2.562   0.066   4.366 -1.5348  1.6937 -0.0480
 2233SOL     OW18160   0.182   4.386  11.590  0.5356  0.3389  0.4906
 2233SOL    HW118161   0.125   4.420  11.521 -1.0628 -1.5035  0.9126
 2233SOL    HW218162   0.111   4.388  11.654 -1.7850 -2.0267 -2.0021
 2234SOL     OW18163   4.461   2.953   7.690 -0.9804 -0.2869  0.2993
 2234SOL    HW118164   4.511   2.961   7.772 -0.8693  0.9843  0.1199
 2234SOL    HW218165   4.536   2.923   7.639 -1.1326 -0.5275  0.2200
 2235SOL     OW18166   1.824   3.812   7.756  0.2633  0.7585 -0.1954
 2235SOL    HW118167   1.861   3.729   7.784 -0.3058  1.1472  1.6629
 2235SOL    HW218168   1.731   3.813   7.776  0.5331 -1.2146  1.1118
 2236SOL     OW18169   4.150   2.925   3.594 -0.5536 -0.0789  0.2217
 2236SOL    HW118170   4.069   2.879   3.617  0.1692 -1.8743 -0.7915
 2236SOL    HW218171   4.217   2.876   3.643 -0.2110 -2.3841 -2.5851
 2237SOL     OW18172   4.054   4.585   7.133  0.0213 -0.4623  0.1684
 2237SOL    HW118173   4.022   4.672   7.110  1.6945  0.3293  0.8064
 2237SOL    HW218174   4.125   4.576   7.069 -0.0034  0.8942 -0.0552
 2238SOL     OW18175   2.123   2.456  11.772 -0.4209 -0.0450  0.4735
 2238SOL    HW118176   2.116   2.363  11.796 -0.8081  0.6088  2.8740
 2238SOL    HW218177   2.191   2.455  11.705 -2.6900  1.1064 -1.8464
 2239SOL     OW18178   0.328   3.059  12.972 -0.4520  0.5698 -0.1863
 2239SOL    HW118179   0.385   2.991  13.008  0.2512 -0.8458 -3.9917
 2239SOL    HW218180   0.241   3.037  13.005 -0.6596 -0.1030 -1.1948
 2240SOL     OW18181   0.812   3.239  10.238 -0.6813  0.3592 -0.3275
 2240SOL    HW118182   0.798   3.328  10.271 -2.5344 -0.0464 -0.0080
 2240SOL    HW218183   0.827   3.255  10.145 -0.2000 -3.0924 -0.8521
 2241SOL     OW18184   1.714   3.965   9.118  0.1581  0.2264  0.0788
 2241SOL    HW118185   1.745   4.049   9.152 -1.7662  1.4794 -1.2710
 2241SOL    HW218186   1.781   3.902   9.144 -0.2732 -0.5965 -0.7973
 2242SOL     OW18187   1.798   1.539  14.856 -0.6796  0.0802  0.5855
 2242SOL    HW118188   1.706   1.559  14.876 -0.3871  1.1720  0.8404
 2242SOL    HW218189   1.832   1.593  14.927 -3.2689  1.5163  0.7479
 2243SOL     OW18190   4.654   2.277   6.890 -0.4873  0.0626 -0.2737
 2243SOL    HW118191   4.655   2.217   6.814  3.8915  0.1346 -0.2287
 2243SOL    HW218192   4.706   2.239   6.960 -2.2269 -3.0584 -0.6196
 2244SOL     OW18193   3.698   1.815   3.912 -0.1617 -0.0113 -0.0485
 2244SOL    HW118194   3.604   1.807   3.896 -0.2807 -0.9551  1.1341
 2244SOL    HW218195   3.701   1.763   3.992  1.2855 -1.1620 -0.8541
 2245SOL     OW18196   3.606   0.875  15.766 -0.0732  0.2517  0.2783
 2245SOL    HW118197   3.681   0.912  15.812 -2.2108  2.2554  2.1415
 2245SOL    HW218198   3.576   0.944  15.707 -0.7685 -0.0916  0.2293
 2246SOL     OW18199   2.723   2.671   8.278 -0.0392 -0.3777 -0.2258
 2246SOL    HW118200   2.751   2.666   8.370  2.0152  0.5186 -0.8118
 2246SOL    HW218201   2.675   2.589   8.268 -0.1466 -0.2109 -1.0458
 2247SOL     OW18202   4.566   1.063  14.973 -0.1441 -0.6733  0.4084
 2247SOL    HW118203   4.547   0.970  14.960 -1.3099 -0.6206  1.6778
 2247SOL    HW218204   4.546   1.108  14.891 -1.8357  1.8563  2.1996
 2248SOL     OW18205   4.548   2.865   8.836 -0.4710 -0.4602  0.0970
 2248SOL    HW118206   4.558   2.840   8.928 -0.6651 -2.1068 -0.3329
 2248SOL    HW218207   4.624   2.923   8.840 -0.3356 -0.6175 -0.2638
 2249SOL     OW18208   1.545   0.475   0.414 -0.4242  0.0792  0.2513
 2249SOL    HW118209   1.566   0.383   0.434 -0.1714 -0.0789 -0.7507
 2249SOL    HW218210   1.630   0.498   0.375 -0.9372  1.3230 -0.1046
 2250SOL     OW18211   0.026   4.129   0.146  0.2935 -0.1314 -0.3353
 2250SOL    HW118212   0.010   4.200   0.083  4.5315 -0.0570 -1.3701
 2250SOL    HW218213   4.708   4.056   0.104  0.3490 -0.4207  0.1150
 2251SOL     OW18214   4.234   3.719   7.553  0.4126  0.1283  0.3064
 2251SOL    HW118215   4.247   3.630   7.520  2.8943  0.3012  0.8349
 2251SOL    HW218216   4.140   3.735   7.558  0.5136  1.2654 -1.5745
 2252SOL     OW18217   3.429   2.513   5.808 -0.8164  0.0628 -0.0249
 2252SOL    HW118218   3.346   2.472   5.783 -1.2756  0.9288  0.1010
 2252SOL    HW218219   3.467   2.536   5.723 -1.1232  0.3582 -0.0811
 2253SOL     OW18220   3.658   2.735  14.702  0.2747  0.0631  1.3089
 2253SOL    HW118221   3.672   2.747  14.608  1.5817 -0.2382  1.4565
 2253SOL    HW218222   3.569   2.760  14.726 -0.2432  1.3571 -1.9548
 2254SOL     OW18223   0.085   0.483  10.037  0.3516  0.2046 -0.7840
 2254SOL    HW118224   0.097   0.543  10.111  1.0174 -0.1100 -0.6286
 2254SOL    HW218225   0.173   0.447  10.044  1.0534  1.9838 -0.3646
 2255SOL     OW18226   0.134   2.049   0.564  0.2602 -0.0819  0.0971
 2255SOL    HW118227   0.158   2.040   0.472  0.3819  1.2356  0.0037
 2255SOL    HW218228   0.141   1.959   0.594 -1.0158 -0.9453 -2.2290
 2256SOL     OW18229   1.661   4.316   6.502 -0.4363  0.7918  0.3002
 2256SOL    HW118230   1.623   4.373   6.569 -3.9535 -1.0723 -0.0895
 2256SOL    HW218231   1.586   4.301   6.445 -0.5563 -1.1643  0.9941
 2257SOL     OW18232   3.260   4.379   7.956  0.1090  0.3322  0.2142
 2257SOL    HW118233   3.205   4.369   7.878  0.6419  0.7662 -0.2171
 2257SOL    HW218234   3.340   4.406   7.910 -0.4371 -1.6051 -1.8869
 2258SOL     OW18235   1.889   1.065  14.768 -0.2279 -0.0093  0.4377
 2258SOL    HW118236   1.865   1.034  14.681  0.1880 -0.0401  0.3358
 2258SOL    HW218237   1.931   1.150  14.756  1.5035 -0.9700 -0.2201
 2259SOL     OW18238   1.247   1.825   8.591  0.7573 -0.1740  0.4195
 2259SOL    HW118239   1.286   1.891   8.648  1.3542 -0.9355  0.8920
 2259SOL    HW218240   1.197   1.781   8.659  1.2026  0.5146  1.1905
 2260SOL     OW18241   1.635   4.664  12.102 -0.4892 -0.0939 -0.4447
 2260SOL    HW118242   1.657   0.024  12.073 -0.6609 -0.3085 -1.2224
 2260SOL    HW218243   1.650   4.669  12.196 -0.0340  1.4909 -0.5983
 2261SOL     OW18244   4.499   4.322   3.680  0.1620 -0.8199  0.4790
 2261SOL    HW118245   4.435   4.355   3.743 -0.9633  0.1359 -1.1538
 2261SOL    HW218246   4.463   4.374   3.608 -0.5819  0.0700  1.4990
 2262SOL     OW18247   4.718   1.093  11.467 -0.0250  0.5125 -0.1598
 2262SOL    HW118248   0.069   1.119  11.421  0.4738 -2.8861 -1.2083
 2262SOL    HW218249   0.026   1.016  11.510 -1.1996 -1.6704 -3.0557
 2263SOL     OW18250   3.212   2.900   4.602  0.6224  0.2646  0.3389
 2263SOL    HW118251   3.176   2.986   4.625 -0.0405  0.0714  0.0464
 2263SOL    HW218252   3.249   2.884   4.689 -1.7755 -0.9237  1.1424
 2264SOL     OW18253   3.518   1.391   7.371  0.3534 -0.1118  0.1716
 2264SOL    HW118254   3.531   1.308   7.325 -0.1200 -0.7865  1.2496
 2264SOL    HW218255   3.610   1.416   7.381  0.8462 -0.9100 -2.3151
 2265SOL     OW18256   3.682   1.689   5.111 -0.1338 -0.2008  0.1361
 2265SOL    HW118257   3.679   1.750   5.038 -3.1567 -0.4832 -0.0043
 2265SOL    HW218258   3.776   1.675   5.115  0.0786  0.3921 -2.7299
 2266SOL     OW18259   4.449   4.024   9.221  0.3727 -0.2152 -0.2166
 2266SOL    HW118260   4.354   4.016   9.208  0.1963  1.5852 -0.0350
 2266SOL    HW218261   4.483   3.974   9.147 -0.1772 -0.1322 -0.5270
 2267SOL     OW18262   4.262   4.675   1.944  0.4065 -0.3042 -0.0293
 2267SOL    HW118263   4.338   4.641   1.991 -0.9116 -0.8801  1.6962
 2267SOL    HW218264   4.292   4.670   1.854  0.7059  0.7860  0.0114
 2268SOL     OW18265   0.480   2.150   7.377 -0.1690 -0.2519  0.0576
 2268SOL    HW118266   0.516   2.195   7.453 -0.6941  1.3015 -0.6224
 2268SOL    HW218267   0.404   2.103   7.412 -0.1750  0.6029  1.1872
 2269SOL     OW18268   3.366   3.170   8.668 -0.2335 -0.2781 -0.4269
 2269SOL    HW118269   3.324   3.090   8.635 -0.0018  0.5244 -2.6701
 2269SOL    HW218270   3.301   3.223   8.622 -0.3005 -0.9672 -1.1367
 2270SOL     OW18271   1.967   2.725   0.413 -0.2190  0.4751 -0.7854
 2270SOL    HW118272   2.024   2.768   0.476 -0.9588  0.8160 -0.3508
 2270SOL    HW218273   1.883   2.742   0.456 -0.5662  2.0213 -2.0830
 2271SOL     OW18274   1.694   1.669   1.629  0.2972  0.3901  0.1611
 2271SOL    HW118275   1.609   1.656   1.587  0.2377 -0.3475  0.5031
 2271SOL    HW218276   1.740   1.736   1.578 -0.2364  0.3149 -0.4100
 2272SOL     OW18277   1.162   0.255   5.143  0.2935  0.2893  0.3725
 2272SOL    HW118278   1.247   0.230   5.182  0.4251 -1.8534 -1.2724
 2272SOL    HW218279   1.186   0.310   5.069 -0.6152 -2.5521 -2.0203
 2273SOL     OW18280   0.404   4.103   6.996 -0.2823 -0.2847  0.1790
 2273SOL    HW118281   0.474   4.047   6.962  1.3984 -0.1780  3.5272
 2273SOL    HW218282   0.340   4.034   7.011  0.5256 -0.5692  2.2854
 2274SOL     OW18283   0.339   4.197   7.366 -0.4665 -0.3285  0.4690
 2274SOL    HW118284   0.400   4.127   7.389 -0.9236 -0.8790  0.0241
 2274SOL    HW218285   0.396   4.269   7.393 -0.0972 -1.6452  3.2130
 2275SOL     OW18286   2.998   1.988   1.625  0.1778 -0.5746  0.1398
 2275SOL    HW118287   3.003   1.938   1.543 -2.2839 -0.0316 -0.3183
 2275SOL    HW218288   2.937   2.056   1.599  0.9571 -0.0170 -0.2250
 2276SOL     OW18289   1.725   2.006  14.987 -0.4568 -0.1283  0.4109
 2276SOL    HW118290   1.704   2.063  15.062 -0.1086  1.0842 -0.4213
 2276SOL    HW218291   1.707   1.916  15.015  1.3291 -1.2410 -2.0177
 2277SOL     OW18292   4.258   4.182   9.920 -0.3769 -0.4100  0.2915
 2277SOL    HW118293   4.319   4.256   9.915  1.2665 -1.7532  0.6252
 2277SOL    HW218294   4.172   4.224   9.920 -0.6718 -1.0155  0.0084
 2278SOL     OW18295   3.987   0.283  17.229 -0.2375  0.3100 -0.7905
 2278SOL    HW118296   4.001   0.344  17.156  0.1381 -1.0735 -1.8810
 2278SOL    HW218297   3.903   0.244  17.204  1.9884 -4.1140 -1.3893
 2279SOL     OW18298   4.181   0.165   3.103  0.2849  0.2181  0.0964
 2279SOL    HW118299   4.165   0.108   3.178  1.3435  0.3782  0.4392
 2279SOL    HW218300   4.188   0.254   3.138  1.2537 -0.5890  1.9634
 2280SOL     OW18301   1.878   0.597   7.175 -0.0984  0.5517 -0.4621
 2280SOL    HW118302   1.804   0.581   7.233 -0.6673  1.4362 -0.9298
 2280SOL    HW218303   1.924   0.671   7.216  1.7185 -2.2325  2.4444
 2281SOL     OW18304   1.435   4.337   8.236 -0.4324 -0.7473  0.2475
 2281SOL    HW118305   1.514   4.301   8.277  1.3348 -0.7166 -3.1853
 2281SOL    HW218306   1.368   4.271   8.257 -2.3090  1.0044 -0.2274
 2282SOL     OW18307   1.805   4.145  11.132  0.1111 -0.3159  0.3554
 2282SOL    HW118308   1.869   4.211  11.157 -0.7081 -0.2874  2.3259
 2282SOL    HW218309   1.720   4.177  11.162 -0.0548  1.6196 -2.1011
 2283SOL     OW18310   1.113   4.191   3.811 -0.0310 -0.8258  0.4653
 2283SOL    HW118311   1.188   4.132   3.819  2.5113  2.1995 -1.1968
 2283SOL    HW218312   1.152   4.265   3.857 -0.9724 -0.1443  0.1638
 2284SOL     OW18313   2.319   4.322  11.306 -0.4056 -0.1659  0.1685
 2284SOL    HW118314   2.405   4.319  11.264  0.4231  2.4938  1.6969
 2284SOL    HW218315   2.289   4.411  11.289 -0.7570  0.1330  2.3642
 2285SOL     OW18316   1.624   1.197  10.791  0.5534  0.1057  0.2014
 2285SOL    HW118317   1.628   1.293  10.792 -0.8585  0.1457  1.3468
 2285SOL    HW218318   1.577   1.175  10.871 -1.5109 -0.0446 -1.0457
 2286SOL     OW18319   2.009   3.738  11.722  0.3851 -0.1282 -0.1343
 2286SOL    HW118320   1.940   3.676  11.746  0.3078 -0.4967 -1.3245
 2286SOL    HW218321   2.008   3.720  11.628  1.6550  1.6830 -0.5047
 2287SOL     OW18322   0.102   3.380   1.871  0.0679 -0.1485  0.3217
 2287SOL    HW118323   0.167   3.450   1.872 -0.2468  0.1463  0.0617
 2287SOL    HW218324   0.150   3.315   1.819 -3.3928  0.5366 -3.7178
 2288SOL     OW18325   1.811   0.474  14.787  0.4329  0.6832  0.4422
 2288SOL    HW118326   1.768   0.424  14.718  0.8122  1.1933 -0.1626
 2288SOL    HW218327   1.839   0.547  14.732  1.0823  0.4259  0.4313
 2289SOL     OW18328   1.236   1.079   1.226 -0.7103  0.0980 -0.2319
 2289SOL    HW118329   1.259   1.150   1.285  0.8255  0.4839 -1.3174
 2289SOL    HW218330   1.294   1.005   1.246  0.0483  0.0663 -2.6120
 2290SOL     OW18331   4.643   3.278  10.653 -0.1517 -0.8684  0.0001
 2290SOL    HW118332   4.612   3.345  10.714  3.2076 -0.7469  1.6250
 2290SOL    HW218333   0.010   3.269  10.662 -0.3105 -0.6290  2.0770
 2291SOL     OW18334   0.456   4.591   1.593  0.1504 -0.0532  0.2433
 2291SOL    HW118335   0.365   4.618   1.594  0.3194  0.4877  0.9238
 2291SOL    HW218336   0.478   4.613   1.502 -0.9076 -0.5796 -0.1376
 2292SOL     OW18337   1.399   2.907   1.344 -0.5337 -0.1482 -0.0096
 2292SOL    HW118338   1.353   2.991   1.350  3.6023  2.1806 -0.8853
 2292SOL    HW218339   1.462   2.930   1.275 -0.9781  1.9158  0.2933
 2293SOL     OW18340   2.825   1.413   1.612 -0.0728  0.4042 -0.2157
 2293SOL    HW118341   2.746   1.447   1.570 -1.3627 -4.3469 -1.5640
 2293SOL    HW218342   2.805   1.416   1.705 -0.2244  1.0510 -0.2669
 2294SOL     OW18343   1.848   3.504   6.199 -0.2732  0.3219  0.2530
 2294SOL    HW118344   1.842   3.576   6.262 -0.5020 -0.3964  1.0523
 2294SOL    HW218345   1.804   3.437   6.251 -1.4136 -0.5900 -1.8713
 2295SOL     OW18346   1.939   1.137   9.484 -0.0600 -0.1006  0.0577
 2295SOL    HW118347   1.931   1.043   9.493  1.1834 -0.2962 -0.8303
 2295SOL    HW218348   1.931   1.166   9.575 -0.9212  0.7462 -0.2859
 2296SOL     OW18349   0.369   1.288   9.505  0.0581  0.5617  0.5285
 2296SOL    HW118350   0.331   1.313   9.589  0.5619  1.5442  0.4590
 2296SOL    HW218351   0.435   1.235   9.549 -1.2211 -0.7910  0.8373
 2297SOL     OW18352   0.588   0.044   6.081 -0.0145  0.5774 -0.0870
 2297SOL    HW118353   0.602   4.727   6.164  2.4738  1.8318  0.1838
 2297SOL    HW218354   0.617   0.133   6.101 -1.6689  1.2573 -0.7475
 2298SOL     OW18355   4.376   1.089   7.624  0.0238 -0.8148  0.4026
 2298SOL    HW118356   4.318   1.126   7.691  0.5360 -0.5587  0.6998
 2298SOL    HW218357   4.365   1.151   7.552 -0.9014 -0.3065  0.9822
 2299SOL     OW18358   2.349   3.613   0.801 -0.1757  0.3410  0.1824
 2299SOL    HW118359   2.344   3.708   0.803  2.7353  0.4425  2.7865
 2299SOL    HW218360   2.259   3.596   0.829 -0.0529  0.0798  0.4120
 2300SOL     OW18361   0.845   4.392   5.891  0.6758  0.5486 -0.0106
 2300SOL    HW118362   0.890   4.474   5.868  0.0635  0.2840 -2.2042
 2300SOL    HW218363   0.844   4.397   5.986 -3.0111 -0.8156  0.0292
 2301SOL     OW18364   0.860   4.662   6.607  0.4740 -0.8850  0.1926
 2301SOL    HW118365   0.768   4.687   6.619  0.6246 -0.4838  0.4841
 2301SOL    HW218366   0.861   4.574   6.647 -2.1514 -1.0070  0.0331
 2302SOL     OW18367   0.798   4.138  10.541 -0.7593 -0.5124  0.3834
 2302SOL    HW118368   0.779   4.205  10.476 -1.1793 -2.1021 -1.1481
 2302SOL    HW218369   0.884   4.169  10.569 -1.3662 -0.6255  2.3729
 2303SOL     OW18370   1.716   4.723  15.271 -0.5597  0.1593  0.3191
 2303SOL    HW118371   1.697   0.085  15.247 -3.9535 -1.0621 -1.6103
 2303SOL    HW218372   1.631   4.700  15.309 -0.4606 -0.0327  0.4257
 2304SOL     OW18373   2.692   2.066   4.392  0.4519 -0.1036  0.6269
 2304SOL    HW118374   2.654   2.046   4.307  0.7553  1.6152  0.0746
 2304SOL    HW218375   2.756   2.134   4.372 -0.1541  0.1516 -0.4575
 2305SOL     OW18376   0.036   0.169  15.212  0.3039 -0.0874 -0.2528
 2305SOL    HW118377   0.045   0.219  15.293  3.5264  2.3675 -2.1034
 2305SOL    HW218378   0.118   0.189  15.167  0.8760  0.2254  0.9363
 2306SOL     OW18379   3.290   0.442  14.429 -0.3060 -0.0665 -0.0170
 2306SOL    HW118380   3.224   0.497  14.472  0.8668  0.3236  1.2744
 2306SOL    HW218381   3.269   0.434  14.336 -1.8387 -0.5469  0.3569
 2307SOL     OW18382   3.697   3.173   8.215  0.2107 -0.1130  0.2946
 2307SOL    HW118383   3.643   3.101   8.184 -1.2618  0.2294  2.0839
 2307SOL    HW218384   3.660   3.183   8.302  1.6180  2.0009  0.6597
 2308SOL     OW18385   2.004   2.894   3.733  0.0627  0.1179  0.3546
 2308SOL    HW118386   1.930   2.870   3.677 -0.1487  2.6413 -0.4101
 2308SOL    HW218387   2.042   2.807   3.746  0.2690  0.5601  2.6367
 2309SOL     OW18388   0.509   0.212   4.263 -0.3303 -0.5781  0.2718
 2309SOL    HW118389   0.521   0.274   4.335 -2.1645  0.9657 -0.7737
 2309SOL    HW218390   0.564   0.244   4.192 -0.2558 -0.1865  0.5054
 2310SOL     OW18391   3.001   2.214   6.523  0.0594  0.6617 -0.4074
 2310SOL    HW118392   3.086   2.258   6.522  1.7427 -2.5334  1.2891
 2310SOL    HW218393   3.026   2.126   6.495  1.6157  0.6553  0.9496
 2311SOL     OW18394   2.857   1.657   4.604  0.0128  0.0144  0.0955
 2311SOL    HW118395   2.830   1.668   4.513 -0.4874  1.7539  0.4539
 2311SOL    HW218396   2.852   1.746   4.639  1.0763 -0.4667  1.4791
 2312SOL     OW18397   0.212   4.531   5.239 -0.1516  0.0618 -0.1033
 2312SOL    HW118398   0.130   4.580   5.235 -0.1197  0.2008  0.9193
 2312SOL    HW218399   0.211   4.492   5.152 -1.3785  1.1841 -0.5948
 2313SOL     OW18400   3.059   3.589   4.141  0.0353  0.0444  0.0102
 2313SOL    HW118401   3.099   3.512   4.101  0.3762 -0.7627  1.9442
 2313SOL    HW218402   2.979   3.558   4.183  0.3465 -0.7953 -0.0242
 2314SOL     OW18403   3.742   2.870   5.938  0.1479  0.7919  1.0123
 2314SOL    HW118404   3.652   2.837   5.939  0.2476  0.5043  0.5785
 2314SOL    HW218405   3.719   2.962   5.947 -0.6058  0.5020  2.0986
 2315SOL     OW18406   0.977   4.464  14.942 -0.0049  0.1163 -0.7711
 2315SOL    HW118407   0.980   4.451  15.037 -0.2644 -0.1579 -0.8006
 2315SOL    HW218408   1.062   4.430  14.913 -0.4013 -1.2683 -0.3367
 2316SOL     OW18409   4.574   1.749  14.570 -0.7819  0.3614 -0.1555
 2316SOL    HW118410   4.614   1.760  14.484 -0.8599 -2.6843 -0.5599
 2316SOL    HW218411   4.486   1.755  14.534 -1.2582 -1.0044  0.7725
 2317SOL     OW18412   0.158   3.017   9.854 -0.4480  0.0355 -0.3899
 2317SOL    HW118413   0.209   3.075   9.911 -0.0248  0.5236 -1.2635
 2317SOL    HW218414   0.106   2.958   9.909 -1.8959  2.3900  0.8205
 2318SOL     OW18415   2.162   3.870   3.225  0.3490  0.1603 -0.3656
 2318SOL    HW118416   2.092   3.935   3.221 -0.2821 -0.3989  1.6037
 2318SOL    HW218417   2.104   3.793   3.222 -1.5855  1.5847  0.4870
 2319SOL     OW18418   1.719   0.494   5.737 -0.3887  0.2184 -0.0368
 2319SOL    HW118419   1.650   0.532   5.792 -0.4950 -0.2452  0.1546
 2319SOL    HW218420   1.662   0.433   5.689 -1.1476  0.9088 -0.0212
 2320SOL     OW18421   3.098   0.174   2.475  0.6652  0.0485  0.3327
 2320SOL    HW118422   3.036   0.124   2.528 -0.5423  2.0539  0.7841
 2320SOL    HW218423   3.072   0.158   2.384  0.2894 -1.1725  0.6541
 2321SOL     OW18424   2.339   3.836   1.876 -0.0673 -0.3358  0.3603
 2321SOL    HW118425   2.308   3.788   1.799 -0.3299  1.4716 -0.6491
 2321SOL    HW218426   2.310   3.776   1.946 -0.5153 -1.7619 -1.0390
 2322SOL     OW18427   4.149   4.184   7.323  0.0277 -0.2170  0.4392
 2322SOL    HW118428   4.057   4.162   7.310  0.1774 -0.7223  0.2085
 2322SOL    HW218429   4.181   4.129   7.395  0.8269  2.0238  1.7969
 2323SOL     OW18430   4.332   3.098   6.124 -0.3230  0.3968  0.3100
 2323SOL    HW118431   4.290   3.013   6.108  0.3999  0.1381 -0.2205
 2323SOL    HW218432   4.373   3.078   6.208  4.5623 -1.8873 -2.5830
 2324SOL     OW18433   2.484   1.965  12.538 -0.0772  0.1724  0.1669
 2324SOL    HW118434   2.546   1.912  12.488  0.6032  2.2148 -1.1472
 2324SOL    HW218435   2.400   1.948  12.496  2.1610  0.7467 -4.5673
 2325SOL     OW18436   0.244   1.744  16.262 -0.1462  0.4368 -0.4790
 2325SOL    HW118437   0.240   1.661  16.215 -2.4647 -0.1281  0.6989
 2325SOL    HW218438   0.306   1.730  16.334 -0.3349  0.1529 -0.3690
 2326SOL     OW18439   2.138   4.550  15.156 -0.0409  0.4794 -0.3759
 2326SOL    HW118440   2.218   4.535  15.106  0.9916 -0.9964  1.7516
 2326SOL    HW218441   2.097   4.619  15.103 -0.9692  0.6263  0.5418
 2327SOL     OW18442   4.193   1.663  10.064  0.1990  0.0899 -0.7947
 2327SOL    HW118443   4.102   1.635  10.074  0.1658 -0.0649 -1.4853
 2327SOL    HW218444   4.229   1.608  10.133 -1.5243 -0.6127 -0.4582
 2328SOL     OW18445   4.506   2.579   1.004 -0.2826  0.1848 -0.7165
 2328SOL    HW118446   4.576   2.513   1.006 -0.4220  0.0292 -0.9749
 2328SOL    HW218447   4.474   2.563   0.916 -0.2853 -0.5619 -0.5784
 2329SOL     OW18448   4.690   0.513   2.592  0.1814  0.2006  0.3762
 2329SOL    HW118449   4.714   0.429   2.554 -1.5409  0.2049 -0.7302
 2329SOL    HW218450   4.656   0.486   2.677 -0.8874 -0.8190 -0.3730
 2330SOL     OW18451   4.631   2.415   4.796 -0.5781  0.6101  0.6116
 2330SOL    HW118452   4.668   2.504   4.798  1.3785 -0.0922 -3.1226
 2330SOL    HW218453   4.639   2.387   4.887 -2.5693  0.0402  0.6143
 2331SOL     OW18454   2.560   2.582   3.229  0.0437 -0.3505  0.9426
 2331SOL    HW118455   2.543   2.623   3.314 -0.4039  2.3707 -0.4677
 2331SOL    HW218456   2.561   2.488   3.249 -2.1149 -0.3697  0.9541
 2332SOL     OW18457   1.254   2.535   3.415 -0.2864 -0.3358 -0.2926
 2332SOL    HW118458   1.348   2.534   3.399  0.1711 -0.7598  2.4671
 2332SOL    HW218459   1.238   2.485   3.495  1.0822  0.5595  0.5568
 2333SOL     OW18460   0.230   3.146   3.882  0.0793 -0.3066  0.5518
 2333SOL    HW118461   0.155   3.203   3.899  0.6675  0.9866 -1.3150
 2333SOL    HW218462   0.303   3.206   3.866  0.2590 -1.0393 -1.4129
 2334SOL     OW18463   0.255   1.542   7.092 -0.7149 -0.1611  0.4312
 2334SOL    HW118464   0.170   1.544   7.048 -0.7001  1.3684  0.4450
 2334SOL    HW218465   0.260   1.634   7.118  0.3197 -0.0906  0.0215
 2335SOL     OW18466   1.532   2.883   6.034 -0.3894 -0.2137  0.1774
 2335SOL    HW118467   1.519   2.797   6.074 -0.0662 -1.7915 -3.1023
 2335SOL    HW218468   1.461   2.935   6.071 -0.1081 -0.9019  1.6918
 2336SOL     OW18469   0.002   2.479   5.920  0.0422  0.1371 -0.1904
 2336SOL    HW118470   4.724   2.475   5.824  0.7015 -0.7685 -0.2025
 2336SOL    HW218471   0.044   2.563   5.940 -2.1592  1.2263 -0.1413
 2337SOL     OW18472   1.044   0.479   4.778 -0.7671 -0.2544  0.1848
 2337SOL    HW118473   1.025   0.513   4.690 -2.0729 -0.9187  0.2046
 2337SOL    HW218474   1.010   0.389   4.776 -2.7135  0.4764  0.8049
 2338SOL     OW18475   3.362   4.728   4.589  0.4304 -0.2543  0.8025
 2338SOL    HW118476   3.358   4.635   4.608 -0.2718 -0.6535 -1.2839
 2338SOL    HW218477   3.316   0.005   4.505 -1.0960 -0.5379  1.6300
 2339SOL     OW18478   2.137   0.305   4.572 -0.5795  0.0667 -0.2665
 2339SOL    HW118479   2.042   0.292   4.579 -0.4806  0.9574  2.7536
 2339SOL    HW218480   2.149   0.277   4.482  0.5609  0.6674 -0.2929
 2340SOL     OW18481   4.572   2.287   4.518 -0.0167 -0.4702  0.2098
 2340SOL    HW118482   4.582   2.333   4.435 -1.8394  2.3877  1.5788
 2340SOL    HW218483   4.661   2.265   4.547  0.8443  1.4047 -0.9550
 2341SOL     OW18484   1.932   3.592   0.642 -0.6231 -0.0561 -0.0914
 2341SOL    HW118485   1.862   3.574   0.578  0.2680  2.2474 -1.6954
 2341SOL    HW218486   2.002   3.619   0.582  0.0876  0.5961  1.0402
 2342SOL     OW18487   2.513   1.744   5.917  0.8495  0.5353 -0.6023
 2342SOL    HW118488   2.588   1.785   5.961  1.0509  0.0222 -0.4554
 2342SOL    HW218489   2.445   1.807   5.939 -1.9077 -2.2975 -1.1560
 2343SOL     OW18490   0.137   2.153   1.032  0.3695  0.0695  0.2638
 2343SOL    HW118491   0.130   2.061   1.058 -1.1118  0.7226  2.1765
 2343SOL    HW218492   0.179   2.190   1.110 -0.3093 -1.9447  1.5906
 2344SOL     OW18493   3.372   1.859   7.880  0.5252  0.2122  0.2772
 2344SOL    HW118494   3.438   1.791   7.890  1.1511  0.2917 -3.2403
 2344SOL    HW218495   3.389   1.916   7.955  1.6246 -2.2561  1.9008
 2345SOL     OW18496   1.377   1.986   1.782  0.2023  0.2818 -0.2067
 2345SOL    HW118497   1.308   2.041   1.743  2.7828  3.8948  0.3363
 2345SOL    HW218498   1.374   1.908   1.727  0.6847 -1.0998  1.7495
 2346SOL     OW18499   3.040   0.561   4.493  0.0892  0.1012 -0.2376
 2346SOL    HW118500   2.966   0.586   4.548  0.4227 -1.8194  1.0750
 2346SOL    HW218501   3.105   0.630   4.506 -0.4157  0.4919  0.1850
 2347SOL     OW18502   0.301   0.918   9.826  0.4722 -0.1682 -0.0932
 2347SOL    HW118503   0.366   0.930   9.757 -0.5742  2.4943 -0.6229
 2347SOL    HW218504   0.289   1.008   9.855 -1.2403 -0.2595 -0.5139
 2348SOL     OW18505   1.851   1.448   7.055  0.5934 -0.0593  0.0369
 2348SOL    HW118506   1.772   1.418   7.100  0.7963 -0.2078  0.2956
 2348SOL    HW218507   1.909   1.379   7.087  0.1804  0.8745  2.8054
 2349SOL     OW18508   1.518   1.225  10.305 -0.0806 -0.3386  0.9350
 2349SOL    HW118509   1.502   1.234  10.399  0.3233  0.0010  0.9724
 2349SOL    HW218510   1.613   1.215  10.304  0.0272  0.8539 -2.1512
 2350SOL     OW18511   0.551   0.438  11.274 -0.2034 -0.2547  0.3608
 2350SOL    HW118512   0.551   0.399  11.362  2.3552  0.5968  0.7367
 2350SOL    HW218513   0.626   0.497  11.282  0.5646 -1.0548 -1.0550
 2351SOL     OW18514   2.552   4.689   2.949 -0.0038 -0.0021  0.2169
 2351SOL    HW118515   2.558   4.695   3.045  0.9550  0.8102  0.1009
 2351SOL    HW218516   2.610   4.617   2.922  0.8363  0.3953  0.9419
 2352SOL     OW18517   1.672   3.341   8.679  0.0594 -0.6698 -0.9728
 2352SOL    HW118518   1.613   3.371   8.610 -2.8486 -0.8259  1.4298
 2352SOL    HW218519   1.682   3.420   8.733 -2.1533 -0.6703 -0.5472
 2353SOL     OW18520   1.094   1.415   6.612 -0.2590 -0.0610  0.1735
 2353SOL    HW118521   1.053   1.500   6.624  1.2970  0.9573 -1.7077
 2353SOL    HW218522   1.102   1.416   6.517  0.1432 -3.1720  0.1463
 2354SOL     OW18523   3.111   3.778   1.865 -0.6622 -0.0395  0.5205
 2354SOL    HW118524   3.135   3.730   1.787 -0.3787 -0.1776  0.6941
 2354SOL    HW218525   3.020   3.790   1.835 -1.2384 -0.4689  2.0800
 2355SOL     OW18526   0.220   4.391   4.560  0.0142 -0.3683  0.5708
 2355SOL    HW118527   0.149   4.434   4.513  0.3605 -0.8272 -0.3688
 2355SOL    HW218528   0.240   4.329   4.490 -0.1845  2.9747 -2.4803
 2356SOL     OW18529   1.300   4.725   7.260 -0.4898  0.6593 -0.2829
 2356SOL    HW118530   1.279   0.088   7.276  2.7756  1.1452  1.1941
 2356SOL    HW218531   1.368   0.005   7.192 -0.5865 -0.5024 -0.5303
 2357SOL     OW18532   2.024   4.607   5.704 -0.3990  0.1235 -0.3079
 2357SOL    HW118533   2.062   4.686   5.743  0.6346  0.8655 -2.8247
 2357SOL    HW218534   2.041   4.543   5.773  0.8748 -0.1184 -0.8490
 2358SOL     OW18535   4.659   2.765  16.291  0.0003 -0.6063 -0.1836
 2358SOL    HW118536   4.640   2.679  16.330 -0.9551 -0.1357  0.3777
 2358SOL    HW218537   4.577   2.811  16.306  0.1966  0.1901 -1.5436
 2359SOL     OW18538   0.365   0.731   5.538  0.1746 -0.0564 -0.6450
 2359SOL    HW118539   0.344   0.657   5.480  0.7652  0.9024 -2.0775
 2359SOL    HW218540   0.388   0.793   5.469  1.6305 -1.0393 -1.0476
 2360SOL     OW18541   0.645   4.166   5.967  0.1444  0.1233  0.2052
 2360SOL    HW118542   0.673   4.239   5.912  1.0135  0.3447  0.9409
 2360SOL    HW218543   0.679   4.089   5.920 -1.3841  0.7925 -2.0000
 2361SOL     OW18544   1.095   4.538  15.921  0.3458  0.0732 -0.5105
 2361SOL    HW118545   1.039   4.467  15.888 -0.3007  0.7468 -0.8619
 2361SOL    HW218546   1.040   4.570  15.993  1.4319  3.8153 -1.3549
 2362SOL     OW18547   3.983   3.354  11.963  0.0782  0.2153 -0.1337
 2362SOL    HW118548   4.060   3.401  11.995  0.0680  0.6591 -0.7661
 2362SOL    HW218549   3.997   3.260  11.953 -1.0930  0.2443 -1.8710
 2363SOL     OW18550   3.431   4.569   9.119 -1.7124  0.5336  0.5288
 2363SOL    HW118551   3.413   4.500   9.183 -0.6640 -2.5998 -2.5392
 2363SOL    HW218552   3.454   4.511   9.047  0.2400  1.7790  0.1388
 2364SOL     OW18553   0.830   3.070   4.707  0.0141  0.0558 -0.1746
 2364SOL    HW118554   0.758   3.131   4.722 -1.2249 -0.9610 -1.9883
 2364SOL    HW218555   0.902   3.121   4.744  1.0374 -0.5982 -1.2930
 2365SOL     OW18556   4.525   0.939   0.926 -0.2308 -0.1423 -0.9070
 2365SOL    HW118557   4.514   1.019   0.977 -0.3656 -1.2395  0.7941
 2365SOL    HW218558   4.440   0.901   0.949  0.9488 -0.3982  3.0241
 2366SOL     OW18559   3.229   1.096   6.443 -0.3392 -0.6801  0.6202
 2366SOL    HW118560   3.204   1.015   6.398  0.0185  0.4666 -1.6452
 2366SOL    HW218561   3.188   1.158   6.383 -0.0051 -0.0604  1.0352
 2367SOL     OW18562   4.348   4.273   5.534 -0.0952  0.3003 -0.2116
 2367SOL    HW118563   4.261   4.280   5.573 -0.5514  0.5793 -1.2816
 2367SOL    HW218564   4.387   4.349   5.577 -0.5383  0.7478 -0.5997
 2368SOL     OW18565   0.611   0.846   5.607 -0.5386  0.7464 -0.5602
 2368SOL    HW118566   0.595   0.920   5.664 -1.9834  0.1830 -0.2247
 2368SOL    HW218567   0.527   0.800   5.605  0.0363 -0.3699  0.9570
 2369SOL     OW18568   1.571   3.447   6.735 -0.1994  0.4908 -0.2346
 2369SOL    HW118569   1.522   3.369   6.757 -0.5616  0.3158 -1.6275
 2369SOL    HW218570   1.529   3.508   6.795 -2.4500 -2.4017  1.1131
 2370SOL     OW18571   3.044   1.217   6.280 -0.5596  0.2186  0.7776
 2370SOL    HW118572   2.951   1.198   6.297 -0.9590 -0.4440 -2.2350
 2370SOL    HW218573   3.030   1.308   6.254  0.2795  0.1604  0.1345
 2371SOL     OW18574   1.140   4.130   5.659 -0.2184  0.2284 -0.5043
 2371SOL    HW118575   1.082   4.090   5.724 -1.8358  0.5013 -1.8154
 2371SOL    HW218576   1.117   4.223   5.653  0.5033  0.4510  0.0281
 2372SOL     OW18577   1.552   2.480  11.253  0.2887 -0.3867 -0.6710
 2372SOL    HW118578   1.457   2.492  11.257  0.1683 -1.3468 -0.6213
 2372SOL    HW218579   1.585   2.562  11.288 -0.7648 -0.5327  0.6449
 2373SOL     OW18580   0.690   3.563  12.686  0.2947  0.3782  0.0093
 2373SOL    HW118581   0.777   3.563  12.646  0.1290 -1.5126 -0.3236
 2373SOL    HW218582   0.672   3.474  12.714 -0.6851  0.3516 -0.7121
 2374SOL     OW18583   2.839   3.989   2.633 -0.5355 -0.1354 -0.1471
 2374SOL    HW118584   2.913   4.050   2.641 -2.8009  2.6637 -0.4525
 2374SOL    HW218585   2.771   4.034   2.682 -0.9397 -0.7484 -0.1557
 2375SOL     OW18586   4.030   3.720   0.163  0.1686  0.6555 -0.2389
 2375SOL    HW118587   4.044   3.814   0.175  1.7543  0.2446  1.0953
 2375SOL    HW218588   4.072   3.696   0.245 -1.4277 -2.5196 -0.3859
 2376SOL     OW18589   2.691   4.474   7.365  0.4120  0.2617  0.3272
 2376SOL    HW118590   2.705   4.529   7.442 -0.0105  1.5641 -0.5279
 2376SOL    HW218591   2.596   4.465   7.358  0.1652  0.7512  3.1003
 2377SOL     OW18592   0.817   1.366   9.042 -0.0659 -0.3293 -0.2081
 2377SOL    HW118593   0.788   1.406   9.124 -0.8966 -0.6215 -0.3618
 2377SOL    HW218594   0.910   1.386   9.053 -0.2203  0.4154 -0.2536
 2378SOL     OW18595   1.677   2.467  12.968  0.3563  0.0260  0.0206
 2378SOL    HW118596   1.621   2.394  12.943 -1.1422  0.1827  2.8256
 2378SOL    HW218597   1.757   2.416  12.957  1.5575  1.2234  2.9945
 2379SOL     OW18598   2.706   4.609   9.317 -0.0900  0.0361 -0.3018
 2379SOL    HW118599   2.776   4.600   9.382  2.2085 -0.5488 -2.8421
 2379SOL    HW218600   2.718   4.701   9.295 -0.3428  0.4044  1.1320
 2380SOL     OW18601   0.326   3.665  15.011  0.2314 -0.3149  0.3475
 2380SOL    HW118602   0.298   3.647  14.921  0.8111  1.2963 -0.1561
 2380SOL    HW218603   0.279   3.746  15.025 -1.9638 -1.3475 -1.0936
 2381SOL     OW18604   2.616   2.807   3.737 -0.5116  0.3047  0.4758
 2381SOL    HW118605   2.659   2.751   3.801  1.4123 -1.4034 -2.3260
 2381SOL    HW218606   2.529   2.824   3.773 -0.7773  0.6646 -0.3229
 2382SOL     OW18607   3.427   2.803   8.682  0.0300  0.0694 -0.6674
 2382SOL    HW118608   3.497   2.758   8.635  0.7798 -2.5281  2.9549
 2382SOL    HW218609   3.369   2.728   8.672 -1.8925  1.6500 -1.1454
 2383SOL     OW18610   4.718   2.462   7.807 -0.2706  0.1397  0.2306
 2383SOL    HW118611   0.032   2.379   7.827 -1.6381 -0.6034  0.0305
 2383SOL    HW218612   4.678   2.480   7.892 -0.6494 -2.5184  0.6162
 2384SOL     OW18613   2.469   0.136   8.777  0.3148  0.3071  0.7342
 2384SOL    HW118614   2.509   0.196   8.841 -1.6617  0.0268  2.2449
 2384SOL    HW218615   2.378   0.165   8.775 -0.7367 -3.3007 -3.3152
 2385SOL     OW18616   2.976   1.346   9.005  0.1062  0.5767  0.1121
 2385SOL    HW118617   2.965   1.369   8.913 -0.0206 -3.0511 -0.7780
 2385SOL    HW218618   3.014   1.258   9.004 -1.2301 -0.0017  0.0111
 2386SOL     OW18619   2.328   2.932  17.344 -0.2752 -0.8442  0.1622
 2386SOL    HW118620   2.238   2.961  17.357 -0.2454 -1.5325  1.7981
 2386SOL    HW218621   2.355   2.956  17.432 -0.3690 -0.6871  0.1485
 2387SOL     OW18622   1.710   3.608   8.715 -0.0173 -0.9367 -0.3872
 2387SOL    HW118623   1.642   3.646   8.770  0.2514 -0.1624 -0.5993
 2387SOL    HW218624   1.694   3.660   8.637  0.8955 -0.7386 -0.4401
 2388SOL     OW18625   1.666   1.532   2.157  0.1241  0.2056 -0.0040
 2388SOL    HW118626   1.632   1.616   2.127 -0.8081  0.1264  0.8674
 2388SOL    HW218627   1.686   1.509   2.066  0.5969 -0.1903  0.1995
 2389SOL     OW18628   1.663   3.309   2.966 -0.1817  0.6141  0.2113
 2389SOL    HW118629   1.582   3.262   2.986  0.2741 -0.4040 -0.3212
 2389SOL    HW218630   1.686   3.279   2.878  0.8059  2.3032 -0.1170
 2390SOL     OW18631   1.238   1.032   6.801 -0.1660  0.4038  0.1579
 2390SOL    HW118632   1.155   1.079   6.815 -0.4460  0.3498 -1.3411
 2390SOL    HW218633   1.253   1.056   6.710 -0.7408 -2.6553 -0.7519
 2391SOL     OW18634   1.055   1.759   2.144 -0.3120  0.2786 -1.0406
 2391SOL    HW118635   1.028   1.810   2.068  1.0611  1.2009 -0.9167
 2391SOL    HW218636   1.026   1.671   2.119  0.7354 -0.1651 -0.7198
 2392SOL     OW18637   4.252   0.591   4.114  0.7581  0.3481  0.2924
 2392SOL    HW118638   4.270   0.612   4.206 -2.0447 -0.7933  1.1048
 2392SOL    HW218639   4.320   0.527   4.095  1.8687  1.4754  0.4344
 2393SOL     OW18640   3.863   2.922   5.405  0.0214  0.6967  0.1572
 2393SOL    HW118641   3.834   3.000   5.358 -0.6663  0.8490  0.8207
 2393SOL    HW218642   3.883   2.958   5.491  0.4993 -0.3900  0.5040
 2394SOL     OW18643   4.690   0.352  12.634 -0.5732  0.1385 -0.1652
 2394SOL    HW118644   4.622   0.416  12.613 -0.1674  0.2371 -1.1540
 2394SOL    HW218645   4.659   0.320  12.719  0.4081  2.0742  0.9240
 2395SOL     OW18646   3.060   2.799  10.063 -0.3874  0.2555 -0.1924
 2395SOL    HW118647   3.153   2.796  10.044 -0.8748 -2.9265 -1.9922
 2395SOL    HW218648   3.040   2.729  10.125 -0.8811  1.0487  0.5516
 2396SOL     OW18649   0.723   0.376   6.558 -0.0710 -0.6909 -0.6393
 2396SOL    HW118650   0.642   0.399   6.512 -0.7537  1.6019  1.6938
 2396SOL    HW218651   0.780   0.413   6.491 -1.2406  1.4195 -0.4749
 2397SOL     OW18652   2.233   3.827  17.000 -0.4498  0.1761  0.2382
 2397SOL    HW118653   2.253   3.899  16.940  1.2574  0.4417  1.1254
 2397SOL    HW218654   2.258   3.761  16.936 -0.8981  0.1611  0.0727
 2398SOL     OW18655   1.339   2.086  10.724 -0.0632 -0.2589  0.4018
 2398SOL    HW118656   1.362   2.060  10.813  0.6301 -0.3651  0.1878
 2398SOL    HW218657   1.429   2.090  10.692  0.4937  0.6211  2.1049
 2399SOL     OW18658   3.312   1.173   4.451  0.0808  0.0314 -0.2846
 2399SOL    HW118659   3.288   1.150   4.361 -1.4920 -0.2157  0.2085
 2399SOL    HW218660   3.390   1.223   4.427 -0.0869 -0.1574 -1.2461
 2400SOL     OW18661   2.922   0.694  14.959  0.6869 -0.5170  0.3511
 2400SOL    HW118662   2.860   0.752  14.914  0.5856  0.1358  1.3353
 2400SOL    HW218663   2.897   0.605  14.935 -2.4934  0.7661 -1.1035
 2401SOL     OW18664   1.638   4.166  15.387 -0.1704 -0.3432 -0.7101
 2401SOL    HW118665   1.661   4.250  15.349 -0.3203 -0.1181 -0.3051
 2401SOL    HW218666   1.653   4.183  15.480  1.3871  0.1031 -1.0581
 2402SOL     OW18667   2.300   3.761   4.289 -0.6836 -0.1371  1.1049
 2402SOL    HW118668   2.237   3.827   4.317 -1.5871 -1.4465  2.0795
 2402SOL    HW218669   2.342   3.804   4.214  0.0228 -1.5193  0.7220
 2403SOL     OW18670   0.318   2.211   3.092 -0.5925 -0.8099 -0.2887
 2403SOL    HW118671   0.293   2.200   3.000  0.2398 -0.2596 -0.5826
 2403SOL    HW218672   0.245   2.269   3.114 -0.2210 -0.9820  1.3810
 2404SOL     OW18673   3.688   0.079   2.678 -0.0094  0.0299  0.6045
 2404SOL    HW118674   3.671   0.173   2.672  0.5019  0.0248 -1.1019
 2404SOL    HW218675   3.715   0.068   2.587 -3.1317  1.1976 -0.4806
 2405SOL     OW18676   2.171   1.417   4.079  0.0629 -0.2643 -0.1900
 2405SOL    HW118677   2.171   1.368   3.997  0.1279 -0.0159 -0.3361
 2405SOL    HW218678   2.260   1.432   4.109  0.1190  0.4719 -0.7538
 2406SOL     OW18679   2.427   0.817  13.853  0.2320  0.2370 -0.3339
 2406SOL    HW118680   2.516   0.827  13.819  0.2797  3.0942  0.6005
 2406SOL    HW218681   2.399   0.907  13.836  2.4082  1.4956  2.6956
 2407SOL     OW18682   2.349   4.683   6.157 -0.7180  0.0959 -0.2561
 2407SOL    HW118683   2.355   4.652   6.066  0.0390  3.3379 -1.3032
 2407SOL    HW218684   2.439   4.679   6.187 -1.9572 -2.3045  3.0826
 2408SOL     OW18685   0.613   4.728   6.363 -0.2042 -0.1688 -0.0876
 2408SOL    HW118686   0.639   4.715   6.454  0.6806  0.3882 -0.2696
 2408SOL    HW218687   0.537   4.669   6.362 -1.0556  0.9360 -2.1134
 2409SOL     OW18688   3.516   0.786  13.626 -0.1796 -0.2232  0.2872
 2409SOL    HW118689   3.502   0.695  13.654  0.0520 -0.3657 -0.0545
 2409SOL    HW218690   3.519   0.782  13.531  2.1448  2.4394  0.2649
 2410SOL     OW18691   2.827   2.615   2.916  0.3758  0.0607 -0.3634
 2410SOL    HW118692   2.736   2.611   2.887  0.3910  1.9340 -0.6870
 2410SOL    HW218693   2.859   2.679   2.852 -0.2813 -0.5160 -1.2764
 2411SOL     OW18694   2.875   1.117  10.979 -0.3194  0.1687 -0.0196
 2411SOL    HW118695   2.834   1.033  10.955  1.2291  0.1548 -2.6249
 2411SOL    HW218696   2.941   1.143  10.915  1.2169 -2.2267  0.5996
 2412SOL     OW18697   1.813   1.918   7.810 -0.0957 -0.6231  1.0998
 2412SOL    HW118698   1.868   1.988   7.777  0.0126  0.0533  2.6889
 2412SOL    HW218699   1.729   1.938   7.769  2.0245  0.6877 -2.5829
 2413SOL     OW18700   1.918   1.924   5.679  0.6924 -0.1651  0.2594
 2413SOL    HW118701   1.977   1.941   5.606  1.2436 -1.9727  0.3032
 2413SOL    HW218702   1.963   1.852   5.723 -0.7599 -0.6615  0.9437
 2414SOL     OW18703   2.709   4.584   7.611  0.7655 -0.1276  0.0346
 2414SOL    HW118704   2.738   4.567   7.700 -1.4014 -0.8712  0.5853
 2414SOL    HW218705   2.651   4.660   7.619 -1.2429 -2.1367  3.9991
 2415SOL     OW18706   4.287   0.191  11.006  0.4283 -0.3792  0.3548
 2415SOL    HW118707   4.377   0.160  11.019  0.6168 -0.5874 -1.3840
 2415SOL    HW218708   4.294   0.256  10.937  0.0168 -2.3332 -1.5242
 2416SOL     OW18709   3.361   0.163   2.420 -0.0949 -0.3274  0.1657
 2416SOL    HW118710   3.402   0.241   2.383 -0.3137 -0.5069 -0.4437
 2416SOL    HW218711   3.267   0.180   2.429  0.3826  2.8720 -0.6708
 2417SOL     OW18712   3.606   0.431  11.029  0.3252  0.4423  0.1008
 2417SOL    HW118713   3.579   0.522  11.013 -2.7534 -0.8550 -1.9463
 2417SOL    HW218714   3.667   0.441  11.103  0.6534 -1.7554  0.1154
 2418SOL     OW18715   3.644   1.051   4.941  0.7320 -0.0684  0.5728
 2418SOL    HW118716   3.666   0.993   5.014  0.5414 -0.3666  0.3970
 2418SOL    HW218717   3.549   1.037   4.937  0.7813  0.5544 -2.2696
 2419SOL     OW18718   0.146   3.929   2.749  0.5442 -0.0403  0.4097
 2419SOL    HW118719   0.182   3.860   2.693  0.8660 -0.4201  1.0878
 2419SOL    HW218720   0.052   3.916   2.740  0.4000 -0.0092  1.9497
 2420SOL     OW18721   2.708   3.499   2.018 -0.6833  0.5989 -0.3104
 2420SOL    HW118722   2.719   3.541   2.104 -1.7708 -0.3818  0.3051
 2420SOL    HW218723   2.778   3.437   2.035 -0.0611  1.1376 -0.9139
 2421SOL     OW18724   3.192   0.121   7.591  0.3503  0.4934  0.4069
 2421SOL    HW118725   3.138   0.047   7.563  0.8785 -0.0294  0.7565
 2421SOL    HW218726   3.277   0.076   7.589  0.2578  0.4450 -1.9134
 2422SOL     OW18727   4.118   3.889   8.712  0.4112  0.5264  0.1616
 2422SOL    HW118728   4.068   3.841   8.646  0.5144 -0.4183  0.7601
 2422SOL    HW218729   4.093   3.842   8.792 -0.7683  0.4852 -0.2337
 2423SOL     OW18730   2.097   2.016   7.005  0.0308 -0.7001 -0.2879
 2423SOL    HW118731   2.066   2.105   6.987 -0.8190 -1.0463 -0.5378
 2423SOL    HW218732   2.171   2.038   7.061 -0.8201  0.9712  0.1818
 2424SOL     OW18733   1.709   0.185   6.338 -0.1786 -0.3409  0.4635
 2424SOL    HW118734   1.804   0.181   6.326 -0.2715  0.1809 -0.4246
 2424SOL    HW218735   1.664   0.190   6.254 -1.9844  1.6582  1.5518
 2425SOL     OW18736   4.475   4.436  16.839  0.0019  0.8084  0.5564
 2425SOL    HW118737   4.418   4.414  16.765  2.0182 -1.7339 -0.2323
 2425SOL    HW218738   4.560   4.467  16.808  0.9152 -2.4726 -0.2643
 2426SOL     OW18739   4.113   4.409   2.000  0.5476 -0.5781  0.4975
 2426SOL    HW118740   4.193   4.356   1.999  1.9122  1.5017 -0.8428
 2426SOL    HW218741   4.140   4.462   1.925  1.6138 -1.9601 -0.0897
 2427SOL     OW18742   0.729   1.185   8.037 -0.7939  0.3110  0.2499
 2427SOL    HW118743   0.748   1.189   7.943 -0.3341 -1.4637  0.2725
 2427SOL    HW218744   0.647   1.136   8.034 -0.5453 -0.1100  0.2062
 2428SOL     OW18745   1.204   4.716   6.324 -0.2708  0.2002  0.3522
 2428SOL    HW118746   1.185   0.049   6.252 -1.4913 -1.1939 -0.5190
 2428SOL    HW218747   1.288   0.019   6.358 -0.2330  1.0424 -0.5205
 2429SOL     OW18748   3.939   3.799   4.406  0.6480  0.3711  0.7351
 2429SOL    HW118749   4.012   3.756   4.362  1.5194  0.0791  2.4388
 2429SOL    HW218750   3.872   3.733   4.390 -0.4099  1.0003  2.5185
 2430SOL     OW18751   1.019   4.261  10.617 -0.2755 -0.5085  0.3795
 2430SOL    HW118752   1.052   4.221  10.698 -0.8187 -1.8760 -0.0722
 2430SOL    HW218753   0.984   4.345  10.646 -0.8239 -0.9099  0.8783
 2431SOL     OW18754   3.432   0.249  11.963  0.4222  0.8386  0.1250
 2431SOL    HW118755   3.392   0.165  11.943  1.2364  0.7842 -1.3293
 2431SOL    HW218756   3.360   0.291  12.009 -2.2559 -3.6074 -0.1285
 2432SOL     OW18757   3.511   4.404   3.817 -0.1463  0.4991  0.7295
 2432SOL    HW118758   3.430   4.401   3.868 -0.0322 -2.7590  0.7754
 2432SOL    HW218759   3.541   4.494   3.817  1.1483  0.0746  0.8996
 2433SOL     OW18760   0.931   1.235   0.511 -0.8268  0.2565  0.0935
 2433SOL    HW118761   0.868   1.247   0.439 -1.1491 -0.3988  0.2733
 2433SOL    HW218762   1.009   1.281   0.480  1.0549 -2.0233  1.5727
 2434SOL     OW18763   1.839   3.112  10.794  0.5610  0.1250  0.7782
 2434SOL    HW118764   1.877   3.183  10.846  2.1108 -0.6686  0.7454
 2434SOL    HW218765   1.808   3.048  10.858 -3.5795 -0.8492 -2.2244
 2435SOL     OW18766   2.217   3.689  10.297  0.1490 -0.4440  0.0152
 2435SOL    HW118767   2.274   3.759  10.330  0.4101 -1.7988  2.4509
 2435SOL    HW218768   2.161   3.696  10.374  1.6105  0.7231  0.9810
 2436SOL     OW18769   4.352   0.405   7.740  0.0344 -0.3734 -0.4705
 2436SOL    HW118770   4.367   0.313   7.719  1.5252  0.0572 -1.2624
 2436SOL    HW218771   4.435   0.422   7.784 -0.7365  1.6413  0.2250
 2437SOL     OW18772   0.686   0.244   5.633 -0.2159 -0.3704 -0.2832
 2437SOL    HW118773   0.660   0.180   5.699  1.6812  0.3321  1.1349
 2437SOL    HW218774   0.656   0.202   5.552 -1.7176  0.5829 -0.2279
 2438SOL     OW18775   4.279   3.917   9.013 -0.0474  0.2723  0.1232
 2438SOL    HW118776   4.243   3.842   9.059  0.2126  0.5934  0.8560
 2438SOL    HW218777   4.223   3.989   9.043 -2.2734 -0.8008 -1.4920
 2439SOL     OW18778   3.493   4.001   6.253  0.3030  0.4563 -0.4122
 2439SOL    HW118779   3.576   4.036   6.222  0.5090 -0.3012 -0.7221
 2439SOL    HW218780   3.525   3.938   6.318 -1.9689  0.8142  1.0629
 2440SOL     OW18781   1.137   2.811   5.818 -0.5240 -0.4156 -0.2250
 2440SOL    HW118782   1.119   2.904   5.826  2.1626 -0.1224  2.2742
 2440SOL    HW218783   1.167   2.793   5.907  0.7543  1.7515 -0.2379
 2441SOL     OW18784   4.438   2.069   3.679  0.2515  0.0900  0.9990
 2441SOL    HW118785   4.358   2.120   3.688 -0.8909 -1.0769 -2.5898
 2441SOL    HW218786   4.400   1.985   3.703 -0.2022 -0.5678 -1.9967
 2442SOL     OW18787   4.681   0.601   9.830  0.3884 -0.2208 -0.0549
 2442SOL    HW118788   4.648   0.683   9.867 -1.5261 -0.5075 -1.1287
 2442SOL    HW218789   0.025   0.577   9.888  0.8626 -0.7637 -0.8718
 2443SOL     OW18790   3.604   4.589  11.812  0.3943  0.0560 -0.2672
 2443SOL    HW118791   3.660   4.517  11.841 -0.5622  0.2141  2.0532
 2443SOL    HW218792   3.531   4.538  11.776  0.9014 -0.3897 -0.6504
 2444SOL     OW18793   2.930   3.547   6.936 -0.5809  0.2676 -0.0666
 2444SOL    HW118794   2.889   3.497   7.007 -1.4261  0.9881 -0.0437
 2444SOL    HW218795   2.889   3.633   6.946 -1.7111 -0.2282 -0.4467
 2445SOL     OW18796   3.947   3.982   2.559  1.0428  0.1170  0.2080
 2445SOL    HW118797   3.987   3.918   2.618 -0.4537 -0.9323  0.0684
 2445SOL    HW218798   4.027   4.027   2.534  0.8933  0.6230  0.6312
 2446SOL     OW18799   2.729   2.722  10.850  0.6193  0.0336  0.1822
 2446SOL    HW118800   2.786   2.673  10.791 -1.5541 -1.3809 -0.7253
 2446SOL    HW218801   2.773   2.699  10.932  0.4928  1.7152  0.7320
 2447SOL     OW18802   0.175   0.081   6.206 -0.3952 -0.7860  0.1454
 2447SOL    HW118803   0.238   0.153   6.205 -1.4239  0.1381  2.3634
 2447SOL    HW218804   0.213   0.043   6.127 -0.6428 -2.6717  0.9265
 2448SOL     OW18805   3.829   3.027   4.851  0.0817  1.1233  0.1656
 2448SOL    HW118806   3.782   3.071   4.922  0.5703  0.7716  0.7140
 2448SOL    HW218807   3.920   3.051   4.872  0.8980 -1.0825 -0.7878
 2449SOL     OW18808   0.195   1.089   2.103  0.1253 -0.2627 -0.3920
 2449SOL    HW118809   0.153   1.034   2.037  2.7475 -3.2876  0.5088
 2449SOL    HW218810   0.155   1.173   2.079  1.3073  0.7629  1.2052
 2450SOL     OW18811   3.791   0.934   6.565  0.4187 -0.4066  0.1235
 2450SOL    HW118812   3.865   0.917   6.623  0.3304  2.1296  1.0085
 2450SOL    HW218813   3.837   1.003   6.517  0.0904 -2.0730 -2.5723
 2451SOL     OW18814   2.998   3.846   4.156 -0.4069 -0.1050 -0.1316
 2451SOL    HW118815   3.032   3.756   4.157  1.5198  0.6417  1.0245
 2451SOL    HW218816   2.994   3.856   4.251  0.3027  1.8801 -0.3235
 2452SOL     OW18817   3.598   2.240   0.364 -0.3893  0.4144 -0.1462
 2452SOL    HW118818   3.585   2.231   0.270 -1.1908  0.8362 -0.0814
 2452SOL    HW218819   3.550   2.163   0.396  0.2852  0.5687  1.2361
 2453SOL     OW18820   3.946   2.620   2.166 -0.0264  0.4577 -0.0126
 2453SOL    HW118821   3.863   2.616   2.214  0.0329 -1.0220 -0.0451
 2453SOL    HW218822   3.977   2.704   2.200  1.8512  0.2182 -1.1392
 2454SOL     OW18823   1.559   0.412  17.180  0.4132  0.1998 -0.4611
 2454SOL    HW118824   1.536   0.404  17.273 -0.7528  1.5816 -0.6361
 2454SOL    HW218825   1.579   0.323  17.153 -1.0917 -0.9509  2.2579
 2455SOL     OW18826   1.515   1.586  16.828  0.2999 -0.7402  0.4657
 2455SOL    HW118827   1.512   1.678  16.801 -1.4095 -1.3990 -1.5834
 2455SOL    HW218828   1.451   1.600  16.898 -0.6557 -2.7082 -0.0093
 2456SOL     OW18829   0.834   2.534  10.014 -0.7584  0.3165  0.1979
 2456SOL    HW118830   0.794   2.620  10.026 -2.0623 -0.1035 -1.0507
 2456SOL    HW218831   0.814   2.492  10.097  2.2233  1.9963  1.7985
 2457SOL     OW18832   1.875   1.482  17.548 -0.3155 -0.0315 -0.4302
 2457SOL    HW118833   1.813   1.554  17.534  2.1907  2.3895  0.9401
 2457SOL    HW218834   1.949   1.517  17.498  1.4353 -2.4471  0.4836
 2458SOL     OW18835   3.721   1.536  10.892 -0.3406  0.0151  0.6080
 2458SOL    HW118836   3.667   1.608  10.924  2.6215  2.1027  0.9045
 2458SOL    HW218837   3.773   1.581  10.827 -1.8670  2.2081  0.9094
 2459SOL     OW18838   3.571   4.575  13.381 -0.2463  0.4740  0.0159
 2459SOL    HW118839   3.485   4.612  13.360  0.6964  1.7872 -1.5961
 2459SOL    HW218840   3.615   4.643  13.432  1.5873  0.3615 -1.4094
 2460SOL     OW18841   3.787   3.625   6.484 -0.4231  0.5924 -0.8260
 2460SOL    HW118842   3.715   3.585   6.534  0.3718 -0.4025 -0.4763
 2460SOL    HW218843   3.788   3.570   6.405 -0.9050 -1.1470  0.3631
 2461SOL     OW18844   2.626   4.544   2.450  0.0646 -0.0514 -0.4251
 2461SOL    HW118845   2.693   4.504   2.506  0.0109 -0.6324 -0.7709
 2461SOL    HW218846   2.657   4.634   2.455  2.7941 -1.0699  1.3670
 2462SOL     OW18847   1.450   3.203   5.995 -0.3894 -0.6501  0.5550
 2462SOL    HW118848   1.519   3.261   6.027  0.6725 -1.0994 -0.8940
 2462SOL    HW218849   1.495   3.171   5.917 -0.0470  0.3698  0.3249
 2463SOL     OW18850   1.501   3.710   2.943  0.1438  0.2158  0.3501
 2463SOL    HW118851   1.521   3.769   2.869  0.7532  0.4112  0.6679
 2463SOL    HW218852   1.459   3.767   3.007  0.0929  1.2773 -0.6308
 2464SOL     OW18853   2.070   2.072   5.537 -0.3859  0.5178 -0.4603
 2464SOL    HW118854   2.134   2.109   5.598 -0.8691  0.4702  0.0795
 2464SOL    HW218855   2.019   2.151   5.519 -1.9185 -0.3456  0.0378
 2465SOL     OW18856   4.226   2.137   1.432  0.4237  0.0262  0.3212
 2465SOL    HW118857   4.180   2.201   1.486 -1.1639 -1.6858  1.0030
 2465SOL    HW218858   4.196   2.054   1.471  1.6710 -0.2462  0.6871
 2466SOL     OW18859   1.057   3.659   2.721  0.4453 -0.4812  0.4232
 2466SOL    HW118860   0.983   3.626   2.772 -0.9821  0.9537 -0.7393
 2466SOL    HW218861   1.015   3.674   2.636 -0.7891 -0.3608  1.0556
 2467SOL     OW18862   1.118   2.811   5.192 -0.3468 -0.2602  0.3645
 2467SOL    HW118863   1.081   2.898   5.209 -0.4838  0.1594 -2.0474
 2467SOL    HW218864   1.121   2.780   5.282 -1.8305 -0.1904  0.4399
 2468SOL     OW18865   4.720   4.083   3.401  0.1358 -0.0738  0.3579
 2468SOL    HW118866   4.714   4.133   3.320  1.6620 -1.0326 -0.3314
 2468SOL    HW218867   4.630   4.061   3.425  0.6925 -0.2296  2.3497
 2469SOL     OW18868   3.647   1.789   9.091  0.2183  0.4434  0.1488
 2469SOL    HW118869   3.648   1.855   9.160 -0.7218  2.0838 -1.4033
 2469SOL    HW218870   3.741   1.789   9.073  0.6525  0.2660  2.4007
 2470SOL     OW18871   1.976   1.832   8.805 -0.3311 -0.1439 -0.3949
 2470SOL    HW118872   1.981   1.897   8.735 -0.2019  0.6086  0.3145
 2470SOL    HW218873   2.039   1.875   8.863 -1.9172  1.2534  0.3116
 2471SOL     OW18874   3.959   1.619  13.178 -0.0559  0.0656 -0.1987
 2471SOL    HW118875   3.969   1.697  13.124  1.0365 -0.0058 -0.1087
 2471SOL    HW218876   3.897   1.652  13.243  3.2242  0.1892  2.8784
 2472SOL     OW18877   3.641   1.586   0.629 -0.0622  0.0198  0.1897
 2472SOL    HW118878   3.655   1.492   0.633  0.1761  0.0421 -0.0877
 2472SOL    HW218879   3.666   1.610   0.540 -1.8228  0.8825 -0.0889
 2473SOL     OW18880   1.380   1.711   1.781  0.2167  0.9671  0.0771
 2473SOL    HW118881   1.448   1.715   1.848  0.0940  0.6067  0.2247
 2473SOL    HW218882   1.364   1.617   1.788 -0.6472  1.2287  1.6449
 2474SOL     OW18883   1.803   2.255  11.719  0.3349  0.1398  0.9035
 2474SOL    HW118884   1.885   2.215  11.747  0.1302  0.7296  2.3216
 2474SOL    HW218885   1.775   2.185  11.660  2.8496 -1.1011  1.1772
 2475SOL     OW18886   4.703   2.232  16.752 -0.2047 -0.8369  0.8109
 2475SOL    HW118887   0.063   2.230  16.715  0.5073 -0.1186  2.4914
 2475SOL    HW218888   4.671   2.142  16.761 -2.2466 -0.3555 -1.7788
 2476SOL     OW18889   4.648   0.759   4.876 -0.1036  0.1730 -0.0005
 2476SOL    HW118890   0.009   0.743   4.905  0.2142  1.8119 -0.0911
 2476SOL    HW218891   4.636   0.846   4.839 -2.7067 -0.9789 -1.8944
 2477SOL     OW18892   4.351   3.735   1.919  0.0497  0.5770 -0.0909
 2477SOL    HW118893   4.319   3.662   1.866 -0.7745  0.0004  1.2245
 2477SOL    HW218894   4.371   3.791   1.844  1.2568 -0.7256 -0.7335
 2478SOL     OW18895   3.464   3.107   0.395  0.5388  0.1184  0.0958
 2478SOL    HW118896   3.520   3.092   0.472 -0.2894 -1.4663  0.3783
 2478SOL    HW218897   3.391   3.161   0.425  0.1035 -0.3480 -0.1273
 2479SOL     OW18898   2.003   3.615   4.978 -0.1664 -0.4845  0.1200
 2479SOL    HW118899   1.918   3.614   4.935 -0.6803  2.2565  1.1131
 2479SOL    HW218900   1.995   3.541   5.038 -1.7744  0.9325  1.6406
 2480SOL     OW18901   2.820   0.072   8.940  0.1604 -0.6109  0.7156
 2480SOL    HW118902   2.735   0.114   8.926  0.3229 -0.4660  0.1737
 2480SOL    HW218903   2.812   4.707   8.924 -1.3407 -0.0528 -1.6666
 2481SOL     OW18904   2.331   4.019   3.068  0.0947 -0.3866  0.0370
 2481SOL    HW118905   2.306   3.962   2.996 -0.5661 -0.5415  0.3866
 2481SOL    HW218906   2.276   3.982   3.137 -0.0389  0.7760  0.5673
 2482SOL     OW18907   4.049   0.424  12.528 -0.0233 -0.5646  0.2116
 2482SOL    HW118908   4.074   0.379  12.448  1.5339  1.4273 -0.4144
 2482SOL    HW218909   4.137   0.427  12.566 -0.8120 -0.7697  2.0691
 2483SOL     OW18910   1.232   1.009  17.377 -1.0448  0.0776  0.7069
 2483SOL    HW118911   1.306   1.061  17.410 -1.8629  0.7336  1.4885
 2483SOL    HW218912   1.229   0.932  17.434 -2.4493 -0.9382 -0.7660
 2484SOL     OW18913   3.035   2.375  16.028  0.0750 -0.3617  0.2195
 2484SOL    HW118914   2.977   2.451  16.024  0.8735  0.1950 -1.0410
 2484SOL    HW218915   3.120   2.413  16.004 -2.3394  2.5939 -3.5942
 2485SOL     OW18916   1.139   3.894   3.676 -0.6792 -0.1234 -0.1105
 2485SOL    HW118917   1.146   3.962   3.610 -2.3974  0.3280  0.1809
 2485SOL    HW218918   1.202   3.926   3.741 -1.1302  0.2868  0.1158
 2486SOL     OW18919   1.251   3.282   2.490 -0.4050  0.5585 -0.1297
 2486SOL    HW118920   1.260   3.341   2.415  1.0835  1.7059  0.9514
 2486SOL    HW218921   1.181   3.226   2.456  0.2492 -0.4611  0.2300
 2487SOL     OW18922   1.018   1.210  15.115  0.1295  0.0093 -0.6594
 2487SOL    HW118923   1.035   1.120  15.088  0.6153 -0.1793  0.2607
 2487SOL    HW218924   0.926   1.213  15.089 -0.3506 -2.6773  0.7628
 2488SOL     OW18925   2.684   1.358  13.883 -0.4049 -0.1346  0.0232
 2488SOL    HW118926   2.604   1.392  13.922 -0.1367 -1.7428  1.9881
 2488SOL    HW218927   2.679   1.417  13.807  0.6731  0.8267  0.7117
 2489SOL     OW18928   1.725   0.384   8.794 -0.0153  0.4184 -0.0711
 2489SOL    HW118929   1.640   0.341   8.801  0.3571 -0.2810  0.2807
 2489SOL    HW218930   1.720   0.421   8.882  2.4339  0.6431 -0.0210
 2490SOL     OW18931   3.499   0.327   5.520  0.3249  0.5125 -0.5206
 2490SOL    HW118932   3.452   0.277   5.586  2.0565 -2.4395 -1.5471
 2490SOL    HW218933   3.590   0.331   5.548  0.4891 -1.3183 -0.8213
 2491SOL     OW18934   2.136   1.261  10.114  0.0652  0.6691 -0.0726
 2491SOL    HW118935   2.120   1.335  10.056 -0.1352  1.1208  0.5562
 2491SOL    HW218936   2.112   1.195  10.050 -0.6079  0.0523  0.8203
 2492SOL     OW18937   3.010   1.256   4.765  0.0336 -0.1416  0.4740
 2492SOL    HW118938   2.948   1.329   4.773 -2.1304 -1.9833  0.7989
 2492SOL    HW218939   3.041   1.276   4.677  1.2167  0.7267  1.1017
 2493SOL     OW18940   2.726   3.596  15.728  0.1513  0.2754  0.4354
 2493SOL    HW118941   2.715   3.672  15.670  0.7595  0.8694  1.0891
 2493SOL    HW218942   2.672   3.638  15.795  1.6060  1.0790  1.1025
 2494SOL     OW18943   0.164   2.250   7.891  0.7452 -0.4035 -0.4786
 2494SOL    HW118944   0.173   2.311   7.964 -0.1939 -0.4379 -0.3344
 2494SOL    HW218945   0.254   2.243   7.859  0.1457 -0.9769 -2.0657
 2495SOL     OW18946   3.353   2.901   1.219  0.0784  0.7068 -0.2015
 2495SOL    HW118947   3.405   2.821   1.205 -1.0176 -0.3619  1.8065
 2495SOL    HW218948   3.419   2.957   1.260  1.3142 -1.0325  0.2281
 2496SOL     OW18949   0.300   1.259  17.195  0.4782 -0.1094 -0.0085
 2496SOL    HW118950   0.282   1.308  17.275  1.8001  1.6081 -0.7614
 2496SOL    HW218951   0.350   1.184  17.227  1.2650  0.5127  0.2234
 2497SOL     OW18952   3.943   3.533   3.651 -0.2031 -0.4005 -0.0399
 2497SOL    HW118953   3.967   3.567   3.737  2.6724 -3.3150  0.3147
 2497SOL    HW218954   3.883   3.597   3.613  1.1141  0.8988  0.0718
 2498SOL     OW18955   2.267   0.343   5.511  0.1650 -0.0995 -0.1555
 2498SOL    HW118956   2.355   0.364   5.479  0.2463 -0.9013 -0.4740
 2498SOL    HW218957   2.260   0.404   5.584 -0.4054  0.1812 -0.4424
 2499SOL     OW18958   1.435   1.633   1.521  0.6167 -0.1589 -0.0938
 2499SOL    HW118959   1.389   1.661   1.601  2.5187  1.7225  0.3462
 2499SOL    HW218960   1.363   1.624   1.458  0.5728  0.6413 -0.1660
 2500SOL     OW18961   1.626   1.422   5.232  0.4288 -0.0145  0.0851
 2500SOL    HW118962   1.707   1.471   5.249  0.9501 -0.8753  0.0944
 2500SOL    HW218963   1.625   1.427   5.137  3.2476 -1.1363 -0.0215
 2501SOL     OW18964   2.049   2.295   0.546  0.2391  0.3301  0.3657
 2501SOL    HW118965   2.029   2.357   0.616 -2.0423 -1.6148  1.4337
 2501SOL    HW218966   2.098   2.347   0.483  2.5630  2.1182  3.6226
 2502SOL     OW18967   0.918   0.830   4.731  0.4918 -0.0195  0.0289
 2502SOL    HW118968   0.847   0.767   4.742  1.1692 -0.3739  2.4468
 2502SOL    HW218969   0.968   0.772   4.674  0.0430 -2.0034  1.6382
 2503SOL     OW18970   4.489   2.136   4.044 -0.1904  0.2546  0.3510
 2503SOL    HW118971   4.437   2.195   3.989 -1.0448 -1.2428 -0.4437
 2503SOL    HW218972   4.428   2.109   4.112 -1.7301  0.2863 -1.0380
 2504SOL     OW18973   3.144   0.343   7.028 -0.3669  0.4422  0.4274
 2504SOL    HW118974   3.184   0.271   7.078  0.7030  0.9039  0.2510
 2504SOL    HW218975   3.219   0.348   6.968  0.2788  3.7842  1.5273
 2505SOL     OW18976   2.013   3.975   8.066  0.1521  0.3200  0.1852
 2505SOL    HW118977   2.096   3.935   8.040 -0.8631  0.0066 -2.5881
 2505SOL    HW218978   1.962   3.900   8.096 -0.6875  1.8382  2.5344
 2506SOL     OW18979   1.528   1.710  16.119  0.4990 -0.4922 -0.1106
 2506SOL    HW118980   1.531   1.781  16.183  1.7691 -1.3335  0.7701
 2506SOL    HW218981   1.435   1.695  16.105  0.3271 -0.7992  1.3620
 2507SOL     OW18982   0.839   3.863   6.584 -0.1244  0.1460 -0.0280
 2507SOL    HW118983   0.801   3.950   6.588  2.7016  1.4383 -1.2187
 2507SOL    HW218984   0.924   3.885   6.546  0.1939  1.1714  1.2871
 2508SOL     OW18985   1.352   1.838   3.525 -0.6506  0.4882  0.3002
 2508SOL    HW118986   1.365   1.834   3.430 -2.8084 -1.3226  0.0963
 2508SOL    HW218987   1.343   1.931   3.545  1.9033  0.6401  0.6935
 2509SOL     OW18988   1.146   1.409   7.924  0.1155 -0.0107  0.2471
 2509SOL    HW118989   1.182   1.400   8.012  0.8552 -0.0878 -0.0616
 2509SOL    HW218990   1.209   1.379   7.859 -0.3735  0.0629 -0.2600
 2510SOL     OW18991   2.728   1.240  14.269  0.1323  0.7428  0.5832
 2510SOL    HW118992   2.687   1.321  14.236 -1.5289  0.6061  2.2425
 2510SOL    HW218993   2.744   1.191  14.189 -2.1387 -0.2992  0.7470
 2511SOL     OW18994   3.426   4.054   7.487 -0.2118 -0.5420  0.1561
 2511SOL    HW118995   3.340   4.093   7.471 -0.6497 -1.4925  0.1543
 2511SOL    HW218996   3.462   4.048   7.398 -1.2461  2.0713 -0.4413
 2512SOL     OW18997   4.100   2.720   0.536 -0.0910  0.0961 -0.2704
 2512SOL    HW118998   4.007   2.737   0.551 -0.1348 -0.7592  0.3704
 2512SOL    HW218999   4.104   2.636   0.491 -1.3483 -1.6713  2.9035
 2513SOL     OW19000   2.519   2.397   2.676 -0.1035 -0.7022  0.2145
 2513SOL    HW119001   2.489   2.306   2.676 -1.0622 -0.3881  0.4291
 2513SOL    HW219002   2.479   2.425   2.594  1.0209 -1.4070 -0.5868
 2514SOL     OW19003   0.473   0.099  11.202 -0.3444  0.0231  0.2296
 2514SOL    HW119004   0.448   0.059  11.285  0.3726 -1.5353 -0.3070
 2514SOL    HW219005   0.412   0.173  11.199  0.8582  0.9998 -0.5662
 2515SOL     OW19006   3.427   0.907   3.541  0.4342 -0.6654 -0.5302
 2515SOL    HW119007   3.445   0.861   3.459 -2.7080  0.4017 -1.8040
 2515SOL    HW219008   3.439   0.830   3.595  1.0595 -0.0577  0.2062
 2516SOL     OW19009   1.809   2.921  14.203 -0.7184  0.5548 -0.3474
 2516SOL    HW119010   1.847   2.963  14.126  2.9085 -2.3689 -0.1449
 2516SOL    HW219011   1.745   2.990  14.221 -1.0250 -0.2788  1.8317
 2517SOL     OW19012   4.035   0.619   0.738 -0.4507 -0.0597  0.1209
 2517SOL    HW119013   4.032   0.713   0.722 -0.8551 -0.1054 -0.0699
 2517SOL    HW219014   4.049   0.614   0.833  2.0348 -0.0738 -0.2729
 2518SOL     OW19015   1.069   2.334  15.047  0.2917  0.2092  0.4859
 2518SOL    HW119016   1.067   2.299  15.136 -1.8791  0.6886  0.6199
 2518SOL    HW219017   1.123   2.413  15.056  0.0648  0.4529 -0.2621
 2519SOL     OW19018   2.142   0.816  11.560  0.1501 -0.1414  0.3763
 2519SOL    HW119019   2.176   0.903  11.581  0.2232  0.1126 -0.7748
 2519SOL    HW219020   2.222   0.772  11.531  0.5761  1.4251 -0.8977
 2520SOL     OW19021   1.832   1.244   3.812  0.8064 -0.0450 -0.2209
 2520SOL    HW119022   1.766   1.218   3.876  1.7003  2.1238  1.5802
 2520SOL    HW219023   1.895   1.278   3.876 -0.7754 -0.2090  1.4138
 2521SOL     OW19024   3.798   1.777   7.383 -0.3094  0.2674 -0.0952
 2521SOL    HW119025   3.813   1.748   7.473 -0.4307 -1.4585 -0.6455
 2521SOL    HW219026   3.702   1.770   7.383 -0.3682  1.1018  2.5275
 2522SOL     OW19027   1.693   1.871   4.990  0.3239  0.0099 -0.4277
 2522SOL    HW119028   1.692   1.966   4.988  0.3441 -0.0089 -1.5518
 2522SOL    HW219029   1.667   1.854   4.899  0.6155 -0.7763 -0.3682
 2523SOL     OW19030   3.802   0.624   3.903 -0.1055 -0.2190 -0.9345
 2523SOL    HW119031   3.789   0.712   3.868  0.0318 -0.6028 -1.9344
 2523SOL    HW219032   3.881   0.598   3.856  1.9145  0.3342  2.1127
 2524SOL     OW19033   3.649   3.372   2.204 -0.0659  0.2421 -0.0049
 2524SOL    HW119034   3.660   3.430   2.129 -1.4029 -0.6503 -0.8835
 2524SOL    HW219035   3.683   3.420   2.280  0.0365  0.0813  0.0509
 2525SOL     OW19036   0.944   4.160   2.512 -0.5403  0.5082  0.0653
 2525SOL    HW119037   0.971   4.091   2.452 -0.8360 -0.4062  0.9715
 2525SOL    HW219038   1.002   4.150   2.588  0.0572 -2.3686 -0.8001
 2526SOL     OW19039   0.875   1.296   9.789 -0.2222  0.0048 -0.2065
 2526SOL    HW119040   0.969   1.279   9.781  0.2981  1.8609  1.8009
 2526SOL    HW219041   0.854   1.353   9.716 -0.1654 -0.4599 -0.5844
 2527SOL     OW19042   2.158   4.258   2.477  0.0210  0.1305 -0.5255
 2527SOL    HW119043   2.137   4.226   2.565 -1.2245  2.7955  0.1367
 2527SOL    HW219044   2.071   4.279   2.442 -0.4377  0.1679  0.6449
 2528SOL     OW19045   1.249   4.310   5.367 -0.1971 -0.6884 -0.2287
 2528SOL    HW119046   1.237   4.323   5.461 -0.9010  0.2393 -0.4522
 2528SOL    HW219047   1.345   4.313   5.361 -0.3233  2.0890 -0.5372
 2529SOL     OW19048   4.253   3.334   1.432  0.4140 -0.2091  0.6595
 2529SOL    HW119049   4.216   3.421   1.422  1.1012 -0.0186 -0.2076
 2529SOL    HW219050   4.175   3.292   1.469 -0.4000 -1.0209 -1.9663
 2530SOL     OW19051   1.982   2.830   8.515  0.0152 -0.6389 -0.3778
 2530SOL    HW119052   1.958   2.918   8.547  0.5390 -0.1953 -1.2212
 2530SOL    HW219053   2.053   2.851   8.454  0.6263  2.5135  1.3944
 2531SOL     OW19054   3.297   1.793   8.887  0.3089  0.4247 -0.0746
 2531SOL    HW119055   3.371   1.733   8.883  0.6011  0.6970  1.5833
 2531SOL    HW219056   3.217   1.740   8.893 -1.3245  3.1940  2.3698
 2532SOL     OW19057   3.784   0.089   2.435  0.3748  0.3512  0.3744
 2532SOL    HW119058   3.750   0.101   2.346  1.7819 -1.2492 -0.3850
 2532SOL    HW219059   3.878   0.093   2.415  0.2529 -2.3049 -0.7568
 2533SOL     OW19060   0.196   0.631   6.249 -0.1245 -0.0159  0.2195
 2533SOL    HW119061   0.163   0.587   6.171  1.7446 -1.8747  0.4498
 2533SOL    HW219062   0.278   0.669   6.216 -1.2519  1.8989 -0.3538
 2534SOL     OW19063   1.158   2.393  11.225  0.1677  0.1445 -0.4919
 2534SOL    HW119064   1.094   2.442  11.277  1.2010  1.2015 -0.2218
 2534SOL    HW219065   1.231   2.455  11.224 -0.2404  0.6390  0.5780
 2535SOL     OW19066   1.150   1.324  10.202 -0.0776 -0.8074 -0.4781
 2535SOL    HW119067   1.217   1.382  10.239 -3.1693  1.7907  1.0485
 2535SOL    HW219068   1.069   1.373  10.219 -0.4592 -0.7365 -2.5721
 2536SOL     OW19069   2.037   1.948  11.452  0.5900  0.1291  0.1724
 2536SOL    HW119070   1.946   1.953  11.480 -0.1264  2.8174 -2.5689
 2536SOL    HW219071   2.039   2.025  11.395 -0.9568 -1.9763 -2.7193
 2537SOL     OW19072   2.389   1.749  13.648  0.0781 -0.0594 -0.2327
 2537SOL    HW119073   2.329   1.716  13.715 -0.0148  1.8644  0.6236
 2537SOL    HW219074   2.470   1.740  13.697 -0.4810  1.0036  0.9043
 2538SOL     OW19075   3.058   2.871  15.028 -0.4353 -0.0890  0.6293
 2538SOL    HW119076   3.088   2.780  15.026  0.4897  0.2493 -1.1384
 2538SOL    HW219077   2.965   2.864  15.047 -0.8856  0.1211 -1.4680
 2539SOL     OW19078   1.967   2.173  16.432 -0.4708 -0.1380 -0.5252
 2539SOL    HW119079   1.886   2.124  16.444 -0.8477  1.1258  2.0944
 2539SOL    HW219080   1.993   2.151  16.343  2.5497 -0.6209  0.4954
 2540SOL     OW19081   1.993   0.695   5.980  0.0403  0.0595 -0.0042
 2540SOL    HW119082   2.039   0.749   6.043  1.7731 -0.7886 -0.5297
 2540SOL    HW219083   2.045   0.705   5.900  1.9797  2.8433  1.6087
 2541SOL     OW19084   0.119   0.499  13.749 -0.0816 -0.4250  0.1893
 2541SOL    HW119085   0.158   0.476  13.833  1.6333  0.2657 -0.4258
 2541SOL    HW219086   0.081   0.417  13.717 -0.6303  0.1446 -0.6026
 2542SOL     OW19087   3.506   1.075   3.282  0.3267  0.2506  0.2225
 2542SOL    HW119088   3.452   0.996   3.272 -2.3341  2.0339  0.3711
 2542SOL    HW219089   3.568   1.054   3.213 -1.1152 -2.3216 -0.3291
 2543SOL     OW19090   3.414   3.885   3.231  0.7514  0.5056 -0.3711
 2543SOL    HW119091   3.449   3.953   3.173  0.8640  0.3360 -0.4982
 2543SOL    HW219092   3.466   3.808   3.211  1.1586  0.5601  0.4666
 2544SOL     OW19093   4.371   3.895   7.733 -0.7653  0.5919  0.1701
 2544SOL    HW119094   4.435   3.833   7.769 -0.0757  0.5097 -1.1958
 2544SOL    HW219095   4.320   3.843   7.671 -0.2220 -2.7232  2.4495
 2545SOL     OW19096   3.883   1.884   1.148  0.2272 -0.2789  0.1037
 2545SOL    HW119097   3.837   1.878   1.064 -1.3044  0.9549  0.8586
 2545SOL    HW219098   3.961   1.929   1.118  0.4999 -1.8273 -1.5031
 2546SOL     OW19099   1.480   0.310   5.591  0.3000 -0.7199 -0.1771
 2546SOL    HW119100   1.411   0.335   5.653  2.8002  0.7177  2.0382
 2546SOL    HW219101   1.445   0.226   5.564 -0.2578 -0.8432  0.9421
 2547SOL     OW19102   4.563   0.167  10.210 -0.0358  0.3329  0.3761
 2547SOL    HW119103   4.602   0.142  10.294 -2.7649 -2.0207  0.9204
 2547SOL    HW219104   4.502   0.232  10.244 -0.7399  0.1364 -0.5261
 2548SOL     OW19105   0.890   1.321  13.489  0.2945 -0.0009  0.1649
 2548SOL    HW119106   0.898   1.241  13.438 -0.5511  0.7392 -1.1439
 2548SOL    HW219107   0.803   1.348  13.459  0.9201  1.5228 -0.3236
 2549SOL     OW19108   0.013   1.640   5.348 -0.2764 -0.0105 -0.0883
 2549SOL    HW119109   4.648   1.636   5.332 -0.6018  0.7916  1.6195
 2549SOL    HW219110   0.034   1.731   5.325 -0.1626  0.2162  0.9212
 2550SOL     OW19111   3.201   1.629   7.094  0.4064 -0.2222 -0.1345
 2550SOL    HW119112   3.228   1.587   7.175 -1.7252  2.2615  1.8886
 2550SOL    HW219113   3.210   1.561   7.028  0.1631  0.2605 -0.6710
 2551SOL     OW19114   3.050   3.743   8.289 -0.3901 -0.6176  0.1075
 2551SOL    HW119115   3.079   3.793   8.213 -0.6679 -0.8213 -0.1365
 2551SOL    HW219116   3.127   3.757   8.344  0.4965 -0.9310 -1.0535
 2552SOL     OW19117   3.823   2.867   8.158 -0.2642  0.0464  0.0942
 2552SOL    HW119118   3.784   2.882   8.071  1.4230 -1.0603 -0.8508
 2552SOL    HW219119   3.859   2.954   8.177  1.1128 -0.1541 -1.5191
 2553SOL     OW19120   1.994   3.092   8.529 -0.3660 -0.0345 -0.1288
 2553SOL    HW119121   1.985   3.182   8.561  0.1837 -0.3498  0.9214
 2553SOL    HW219122   2.019   3.117   8.440  0.2044  0.1261  0.0768
 2554SOL     OW19123   1.486   3.353   4.393  0.2097 -0.4485  0.0747
 2554SOL    HW119124   1.411   3.344   4.334 -0.5038  0.4786  0.8444
 2554SOL    HW219125   1.535   3.283   4.350 -1.6780 -1.2070 -0.8401
 2555SOL     OW19126   0.003   2.906   6.169 -0.0094  0.5299  0.1999
 2555SOL    HW119127   4.726   2.878   6.077  1.8465  1.2342 -0.1181
 2555SOL    HW219128   4.657   2.965   6.180 -0.6211 -0.7680  2.9926
 2556SOL     OW19129   1.229   3.144   3.714 -0.1916 -0.3530 -0.1682
 2556SOL    HW119130   1.267   3.230   3.695  1.8603 -0.9911  0.9154
 2556SOL    HW219131   1.152   3.145   3.658  0.8631 -2.6036 -1.6760
 2557SOL     OW19132   4.044   4.205  16.679  0.5526 -0.5353 -0.0800
 2557SOL    HW119133   4.068   4.240  16.593 -1.7750 -0.3221 -0.6399
 2557SOL    HW219134   4.056   4.283  16.734  0.6437 -0.3211 -0.4056
 2558SOL     OW19135   1.619   4.047   7.998 -0.0460  0.2641 -0.0712
 2558SOL    HW119136   1.626   3.961   7.955 -0.2606  0.5677 -0.7019
 2558SOL    HW219137   1.594   4.017   8.086 -3.3681  1.2832 -0.6869
 2559SOL     OW19138   1.949   2.517   3.495 -0.4460 -0.0212  0.0778
 2559SOL    HW119139   1.936   2.583   3.563 -0.4386 -0.1281  0.1855
 2559SOL    HW219140   1.980   2.445   3.551  0.7442  0.6318  0.2600
 2560SOL     OW19141   1.101   3.211   4.231  0.6414 -0.5660  0.2266
 2560SOL    HW119142   1.057   3.154   4.168  0.8873  0.2931 -0.7202
 2560SOL    HW219143   1.042   3.206   4.307 -1.7358 -1.2745 -1.6553
 2561SOL     OW19144   1.674   4.142   5.535 -0.0332 -0.0623 -0.1772
 2561SOL    HW119145   1.766   4.147   5.509  0.1260 -3.1337 -0.1397
 2561SOL    HW219146   1.635   4.104   5.456 -1.1083 -1.3510  0.9745
 2562SOL     OW19147   1.860   1.185   2.074 -0.1909  0.5293 -0.7248
 2562SOL    HW119148   1.861   1.143   2.160  1.5106 -0.1643 -1.0911
 2562SOL    HW219149   1.953   1.185   2.051 -0.0924 -0.0192 -0.3195
 2563SOL     OW19150   4.383   1.591   8.906  0.7167  0.6465 -0.1646
 2563SOL    HW119151   4.385   1.685   8.894 -0.5617  0.8662  1.2116
 2563SOL    HW219152   4.400   1.582   9.000  0.6293  1.7195 -0.0458
 2564SOL     OW19153   3.431   0.812   3.275 -0.4295  0.1357 -0.6489
 2564SOL    HW119154   3.469   0.724   3.267  0.6599  0.2792  2.8372
 2564SOL    HW219155   3.353   0.800   3.221 -1.1744  1.1977  0.1966
 2565SOL     OW19156   1.830   0.760  15.675 -0.2348  0.0463  0.3424
 2565SOL    HW119157   1.904   0.814  15.704  1.6723 -1.9382 -0.8876
 2565SOL    HW219158   1.793   0.815  15.606  1.5312  0.6368 -0.1314
 2566SOL     OW19159   2.150   2.999   3.279 -0.1622 -0.4148 -0.2041
 2566SOL    HW119160   2.155   3.094   3.265  1.2262 -0.6474 -1.3219
 2566SOL    HW219161   2.202   2.956   3.211  1.0695 -0.5409  0.8082
 2567SOL     OW19162   3.967   3.510   3.001 -0.1276 -0.0281  0.1169
 2567SOL    HW119163   3.883   3.547   3.027  0.2936  0.4879  0.7464
 2567SOL    HW219164   3.985   3.544   2.914 -1.7881  2.1346  0.6187
 2568SOL     OW19165   3.649   3.072  12.350  0.5493  0.0992 -0.1537
 2568SOL    HW119166   3.658   2.984  12.313 -0.2778  0.0135 -0.1372
 2568SOL    HW219167   3.627   3.045  12.439  1.6412  0.9120  0.3749
 2569SOL     OW19168   2.850   3.260   7.781  0.0699 -0.1667 -0.3692
 2569SOL    HW119169   2.891   3.281   7.698  0.1232  2.8023  0.3969
 2569SOL    HW219170   2.804   3.179   7.761  0.6242 -0.6804  0.4010
 2570SOL     OW19171   1.041   0.647   8.611  0.5585 -0.2215  0.0584
 2570SOL    HW119172   0.947   0.650   8.629  0.5889 -2.2746  0.5475
 2570SOL    HW219173   1.074   0.602   8.688 -0.2379 -0.9168 -0.0034
 2571SOL     OW19174   1.485   3.994   8.541 -0.2462 -0.6639 -0.3706
 2571SOL    HW119175   1.547   4.053   8.583 -1.8353  0.7972 -0.0673
 2571SOL    HW219176   1.432   3.968   8.616  0.1396  0.0664  0.1483
 2572SOL     OW19177   2.407   1.080   6.534 -0.6988 -0.4419 -0.3978
 2572SOL    HW119178   2.467   1.033   6.591  0.6006 -0.9039 -2.1482
 2572SOL    HW219179   2.337   1.090   6.598  0.0468  3.1693 -0.1430
 2573SOL     OW19180   4.320   2.990   4.311  0.4437  0.2021 -0.1375
 2573SOL    HW119181   4.247   3.050   4.298  0.3026  0.1471  0.4097
 2573SOL    HW219182   4.392   3.050   4.329 -0.6687  1.1828  0.9869
 2574SOL     OW19183   0.562   2.025   3.742  0.0428 -0.1081 -0.3914
 2574SOL    HW119184   0.642   2.058   3.783  0.8323  0.1215 -2.1126
 2574SOL    HW219185   0.519   2.102   3.707  0.8660 -0.6114 -2.5135
 2575SOL     OW19186   1.365   3.717   5.404 -0.1339  0.1418  0.3403
 2575SOL    HW119187   1.305   3.684   5.471  0.7520 -0.3324  0.8966
 2575SOL    HW219188   1.440   3.746   5.456  1.0610 -1.5706 -0.4389
 2576SOL     OW19189   2.386   2.896  15.400  0.3795  0.2720 -0.0386
 2576SOL    HW119190   2.346   2.981  15.378  0.1721  0.3126  0.5014
 2576SOL    HW219191   2.317   2.833  15.377  0.4359 -0.2544  1.2269
 2577SOL     OW19192   2.335   3.898  10.406  0.5276 -0.3953  0.2728
 2577SOL    HW119193   2.372   3.912  10.493  2.2364  0.0841 -0.5373
 2577SOL    HW219194   2.406   3.930  10.351  1.0427 -0.7167  0.7505
 2578SOL     OW19195   0.605   0.718   7.729 -0.2588  0.5836  0.2930
 2578SOL    HW119196   0.634   0.652   7.666 -2.0678  1.6816 -1.6645
 2578SOL    HW219197   0.515   0.733   7.701 -0.9098 -0.7851  1.6386
 2579SOL     OW19198   3.326   2.303   7.069  0.6539  0.0259 -0.3791
 2579SOL    HW119199   3.250   2.255   7.100  1.1620  0.2076  1.1612
 2579SOL    HW219200   3.289   2.358   7.000  1.0796 -0.0660 -0.6846
 2580SOL     OW19201   2.758   4.680   6.251 -0.0761  0.3775 -0.2772
 2580SOL    HW119202   2.758   4.662   6.345 -0.0171  0.3907 -0.2745
 2580SOL    HW219203   2.852   4.690   6.232  0.2045  0.1433  1.0133
 2581SOL     OW19204   3.847   1.654   0.827  0.2024 -0.3161 -0.1109
 2581SOL    HW119205   3.933   1.629   0.791  1.0109 -0.3868  1.8883
 2581SOL    HW219206   3.789   1.625   0.757 -0.9949 -2.0097  1.5854
 2582SOL     OW19207   3.345   4.606   3.317 -0.2025 -0.2293  0.2295
 2582SOL    HW119208   3.383   4.692   3.300  2.0253 -0.9758  1.3548
 2582SOL    HW219209   3.320   4.616   3.409 -1.8199 -0.7027 -0.1583
 2583SOL     OW19210   0.159   4.453  16.103 -0.5134 -0.1689 -0.2749
 2583SOL    HW119211   0.164   4.534  16.053 -1.0008  0.7603  1.1657
 2583SOL    HW219212   0.215   4.390  16.058  0.4653 -0.4639  1.3337
 2584SOL     OW19213   0.416   2.363   6.715  0.5436  0.0634 -0.0342
 2584SOL    HW119214   0.491   2.414   6.683  0.8431  0.9533  2.0980
 2584SOL    HW219215   0.343   2.417   6.686  1.6306  0.4457 -2.0510
 2585SOL     OW19216   3.916   4.562   7.552  0.7575  0.3666  0.4212
 2585SOL    HW119217   3.946   4.596   7.636  1.1264  0.0893  0.4023
 2585SOL    HW219218   3.983   4.586   7.487 -0.0952  1.0983 -0.1976
 2586SOL     OW19219   1.120   3.257  15.976  0.1825  0.1046  0.4049
 2586SOL    HW119220   1.106   3.282  16.067  0.4182 -2.0510  1.0160
 2586SOL    HW219221   1.202   3.302  15.955 -1.3810  3.0230  0.4704
 2587SOL     OW19222   2.314   4.195  12.077 -0.1445  0.1703  0.4971
 2587SOL    HW119223   2.363   4.246  12.141 -1.7570 -0.5016  2.2443
 2587SOL    HW219224   2.245   4.257  12.056  1.5309  1.5490 -0.9642
 2588SOL     OW19225   0.805   3.374  14.983  0.5211 -0.2961  0.3215
 2588SOL    HW119226   0.835   3.463  14.962  0.2251 -0.0864  0.8010
 2588SOL    HW219227   0.719   3.393  15.020  0.0380  1.0976 -1.5028
 2589SOL     OW19228   0.346   0.801   2.015  0.4153  0.1156 -0.5487
 2589SOL    HW119229   0.433   0.817   2.052 -0.2002  1.5495  0.2851
 2589SOL    HW219230   0.296   0.769   2.090 -1.5626 -0.0632 -1.9402
 2590SOL     OW19231   4.279   2.721   6.771  0.1573  0.2203  0.1468
 2590SOL    HW119232   4.234   2.645   6.806  1.2630 -0.4616  0.0944
 2590SOL    HW219233   4.354   2.724   6.831  2.2709 -2.3942 -2.3784
 2591SOL     OW19234   3.611   2.677   1.136 -0.4789 -0.0973 -0.4266
 2591SOL    HW119235   3.701   2.696   1.109 -0.6625  0.7576 -0.4266
 2591SOL    HW219236   3.565   2.706   1.057 -0.9015 -2.1120 -0.9362
 2592SOL     OW19237   4.645   0.449   2.229  0.3404  0.1708 -0.0907
 2592SOL    HW119238   4.599   0.380   2.182  0.4484  0.6918 -0.9741
 2592SOL    HW219239   4.688   0.396   2.296 -0.0937  0.3408  0.3203
 2593SOL     OW19240   0.556   1.804   4.049  0.2280  0.6575  0.5076
 2593SOL    HW119241   0.515   1.746   4.113 -0.6997  1.5347  0.6989
 2593SOL    HW219242   0.559   1.885   4.099 -0.1785  0.4904  0.8023
 2594SOL     OW19243   0.833   3.777   3.556 -0.4393 -0.6004 -0.1349
 2594SOL    HW119244   0.797   3.707   3.610 -0.2722 -1.2206 -0.8361
 2594SOL    HW219245   0.787   3.754   3.476 -0.8361  0.4431 -0.2115
 2595SOL     OW19246   0.188   1.506   8.848  0.3299 -0.3418 -0.3055
 2595SOL    HW119247   0.230   1.545   8.772 -2.0204 -0.3696 -1.6308
 2595SOL    HW219248   0.095   1.513   8.824 -0.1224 -1.2978  1.1451
 2596SOL     OW19249   4.708   4.511   3.514 -0.1019  0.1000 -0.6249
 2596SOL    HW119250   4.668   4.431   3.479  0.5872 -0.2492 -0.6022
 2596SOL    HW219251   4.659   4.515   3.596  0.5891  0.1233 -0.2163
 2597SOL     OW19252   4.402   4.497   7.178 -0.5262  0.1043  0.2617
 2597SOL    HW119253   4.448   4.524   7.099  0.5850 -0.3232  0.7669
 2597SOL    HW219254   4.344   4.430   7.140  0.3296 -0.7760  0.5010
 2598SOL     OW19255   2.694   2.934   1.423  0.1781  0.3944  0.0022
 2598SOL    HW119256   2.654   2.862   1.373  0.5038 -0.8015  1.4382
 2598SOL    HW219257   2.731   2.885   1.497 -0.3137 -1.6459 -1.0810
 2599SOL     OW19258   1.362   3.962   9.605  0.3298 -0.5155  0.2450
 2599SOL    HW119259   1.308   3.971   9.683 -2.5249 -1.5910 -1.5819
 2599SOL    HW219260   1.449   3.946   9.641  1.8543  1.6031 -2.4545
 2600SOL     OW19261   3.104   3.892   2.457  0.1657  0.5516 -0.0386
 2600SOL    HW119262   3.120   3.851   2.543 -1.0803 -1.2770 -0.6700
 2600SOL    HW219263   3.030   3.839   2.429  0.1973  1.3907 -1.6790
 2601SOL     OW19264   0.166   3.644   6.796  0.6489  0.3005 -0.0445
 2601SOL    HW119265   0.087   3.636   6.850 -0.4974 -0.4524 -1.8218
 2601SOL    HW219266   0.157   3.553   6.765  1.6079 -0.5930  2.2996
 2602SOL     OW19267   1.371   4.017   0.798 -0.2453  0.1248 -0.1021
 2602SOL    HW119268   1.307   3.957   0.837 -0.2237  0.1454 -0.0346
 2602SOL    HW219269   1.353   4.012   0.705 -0.0286  3.0213 -0.3256
 2603SOL     OW19270   2.975   3.948  16.163 -0.2923  0.1195  0.5839
 2603SOL    HW119271   3.052   3.984  16.120 -0.1464 -0.1151  0.6467
 2603SOL    HW219272   2.937   3.895  16.093  0.1565 -2.1235  2.0364
 2604SOL     OW19273   0.228   2.889  10.408 -0.2286  0.6182  0.0866
 2604SOL    HW119274   0.282   2.843  10.344  0.9435 -0.2251  1.6771
 2604SOL    HW219275   0.170   2.816  10.433 -1.0663  1.1898 -0.1947
 2605SOL     OW19276   0.004   4.506   8.990 -0.0385 -0.0442 -0.2339
 2605SOL    HW119277   0.080   4.557   8.963 -0.7310 -0.1109 -2.2945
 2605SOL    HW219278   0.037   4.422   8.956  0.6942 -1.0903  3.0974
 2606SOL     OW19279   2.124   3.345   0.814  0.1468  0.7967  0.5211
 2606SOL    HW119280   2.094   3.261   0.848  1.6767  0.2386  0.4813
 2606SOL    HW219281   2.216   3.339   0.790 -0.0037  0.5904  0.0103
 2607SOL     OW19282   2.170   0.103   4.363 -0.2483  0.1278 -0.0631
 2607SOL    HW119283   2.239   0.090   4.298 -0.0098  1.0934 -0.0093
 2607SOL    HW219284   2.199   0.039   4.428  2.5889  2.1909  0.7249
 2608SOL     OW19285   4.569   0.538   9.594  0.6244  0.2058  0.6763
 2608SOL    HW119286   4.618   0.540   9.676 -0.4029  1.7335  1.2447
 2608SOL    HW219287   4.480   0.528   9.630 -0.6182 -1.3328 -2.7811
 2609SOL     OW19288   1.787   3.966   2.141 -0.0666  0.3277 -0.5238
 2609SOL    HW119289   1.815   3.901   2.077  1.4779 -0.0380  0.5169
 2609SOL    HW219290   1.873   4.006   2.158 -0.0927 -0.0801  0.6095
 2610SOL     OW19291   4.620   0.197   2.875 -0.2634 -0.2437  0.2140
 2610SOL    HW119292   4.580   0.258   2.938  0.1033 -0.4368  0.6354
 2610SOL    HW219293   4.709   0.231   2.882 -0.1158 -0.9710  1.8750
 2611SOL     OW19294   2.308   1.418  10.883  0.1508  0.1914 -0.1525
 2611SOL    HW119295   2.401   1.405  10.902  0.3520  3.2814  0.9341
 2611SOL    HW219296   2.270   1.350  10.939 -0.0386  0.3426 -0.0973
 2612SOL     OW19297   3.929   3.749   7.774  1.0257 -0.1087  0.4436
 2612SOL    HW119298   3.939   3.746   7.679  2.5911 -0.7592  0.6293
 2612SOL    HW219299   3.869   3.674   7.774  1.0113 -0.0952 -0.1565
 2613SOL     OW19300   1.910   1.237   5.012  0.6526  0.0543  0.0578
 2613SOL    HW119301   1.880   1.268   5.097  0.6161  1.9547 -0.6526
 2613SOL    HW219302   1.824   1.225   4.973  1.3976 -1.1208 -1.2191
 2614SOL     OW19303   0.382   3.329  11.701  0.2531 -0.0206  0.1082
 2614SOL    HW119304   0.468   3.360  11.730 -0.7550  1.3016  1.6978
 2614SOL    HW219305   0.384   3.335  11.606  0.5905  4.8383  0.4099
 2615SOL     OW19306   2.382   1.415   8.103 -0.1716  0.4080 -0.1537
 2615SOL    HW119307   2.402   1.508   8.093  0.4307  0.1792 -1.0447
 2615SOL    HW219308   2.287   1.424   8.095 -0.1186 -0.4179 -1.6381
 2616SOL     OW19309   0.057   4.434   9.842  0.1160  0.1165  0.0670
 2616SOL    HW119310   0.130   4.410   9.900  0.4007 -0.6061 -0.5926
 2616SOL    HW219311   0.059   4.529   9.845  3.2507  0.0265  0.9220
 2617SOL     OW19312   1.858   3.161   6.443  0.2952 -0.7044 -0.0707
 2617SOL    HW119313   1.789   3.223   6.465  2.2157  1.3272  0.1552
 2617SOL    HW219314   1.863   3.177   6.349 -1.3256  1.2546  0.1864
 2618SOL     OW19315   0.512   1.387   5.662  0.6286 -0.0557 -0.4207
 2618SOL    HW119316   0.470   1.473   5.661  1.3412  0.2819 -0.7911
 2618SOL    HW219317   0.535   1.382   5.755  1.9045 -1.0910 -0.7814
 2619SOL     OW19318   1.667   0.417   6.834 -0.0134 -0.2833 -0.3009
 2619SOL    HW119319   1.677   0.372   6.750 -2.2210  0.6475 -1.0787
 2619SOL    HW219320   1.602   0.484   6.815  0.0220 -0.0226  0.4773
 2620SOL     OW19321   1.876   0.909  15.001  0.1210 -0.6567 -0.1803
 2620SOL    HW119322   1.793   0.863  15.013  0.5955 -1.3796  0.2618
 2620SOL    HW219323   1.859   0.939  14.911 -1.5002 -1.0969 -0.0139
 2621SOL     OW19324   0.933   1.300   8.183 -0.1100 -0.3922 -0.2386
 2621SOL    HW119325   0.928   1.270   8.274  3.5394 -1.6107 -0.4380
 2621SOL    HW219326   0.864   1.262   8.129  0.4219  1.0574 -1.9563
 2622SOL     OW19327   0.329   1.161  13.038  0.4556  0.0835 -0.7645
 2622SOL    HW119328   0.240   1.194  13.046  0.3037 -0.6098  0.3254
 2622SOL    HW219329   0.377   1.223  12.983  1.0055 -0.8512 -1.3485
 2623SOL     OW19330   1.257   0.949   9.555  0.4526 -0.4013  0.0482
 2623SOL    HW119331   1.336   0.990   9.589  0.2860  0.1614 -0.2516
 2623SOL    HW219332   1.237   0.910   9.641  2.5201 -2.8254 -0.5450
 2624SOL     OW19333   4.398   4.261   0.781  0.1021  0.6483  0.6107
 2624SOL    HW119334   4.333   4.328   0.804 -0.9814  0.2940 -1.4238
 2624SOL    HW219335   4.369   4.229   0.695  0.1727  3.7004 -0.5487
 2625SOL     OW19336   1.275   3.670   8.829 -0.3602 -1.0426  0.4958
 2625SOL    HW119337   1.268   3.575   8.823  1.0061 -1.3391  3.4244
 2625SOL    HW219338   1.370   3.684   8.836 -0.2036 -2.3005  0.9440
 2626SOL     OW19339   4.522   0.842   3.999  0.1320 -0.3735 -0.0542
 2626SOL    HW119340   4.475   0.826   3.917 -1.7958 -1.6375  1.3060
 2626SOL    HW219341   4.558   0.756   4.018  0.8863  0.2263  1.2827
 2627SOL     OW19342   3.973   2.015   3.380  0.4712 -0.2581 -0.5108
 2627SOL    HW119343   4.048   1.964   3.410 -0.2458 -0.8982  0.1906
 2627SOL    HW219344   3.991   2.047   3.292  0.1438  1.5113  0.0713
 2628SOL     OW19345   4.587   4.066   7.772  0.1285  0.1431 -0.8130
 2628SOL    HW119346   4.524   4.006   7.732  0.3120 -1.3638  1.2005
 2628SOL    HW219347   4.559   4.143   7.723 -1.0648  0.5371  0.4921
 2629SOL     OW19348   3.838   2.256   4.759  0.2733  0.2068  0.0279
 2629SOL    HW119349   3.899   2.184   4.775  1.6169  0.6306 -3.3057
 2629SOL    HW219350   3.905   2.309   4.716  0.2650  0.4221  0.2825
 2630SOL     OW19351   0.688   1.796   8.330 -0.8491 -0.4943 -0.3394
 2630SOL    HW119352   0.757   1.790   8.397 -2.8380  1.2882  1.8660
 2630SOL    HW219353   0.641   1.871   8.366  3.1064  1.8136  0.0480
 2631SOL     OW19354   1.147   0.029   6.643 -0.5277  0.2528 -0.1853
 2631SOL    HW119355   1.154   0.020   6.738  0.3702  1.3030 -0.1477
 2631SOL    HW219356   1.120   0.120   6.636 -1.6602 -0.0841 -0.2033
 2632SOL     OW19357   2.675   3.023   7.608  0.5243 -0.1823  0.1571
 2632SOL    HW119358   2.680   2.927   7.604  0.0450 -0.2096  0.2302
 2632SOL    HW219359   2.675   3.021   7.704 -0.4744 -0.1219  0.1542
 2633SOL     OW19360   1.225   3.581  10.786 -0.2839 -0.5168 -0.5144
 2633SOL    HW119361   1.151   3.524  10.811  0.0839 -0.5447  0.5271
 2633SOL    HW219362   1.295   3.529  10.826 -0.1723 -0.0721 -0.1390
 2634SOL     OW19363   2.829   1.217   7.535  0.3233  0.2676  0.3664
 2634SOL    HW119364   2.919   1.229   7.565 -0.0586  0.3175  1.4968
 2634SOL    HW219365   2.810   1.130   7.571  3.8235 -0.4675  0.4159
 2635SOL     OW19366   2.505   0.646   0.708  0.1203  0.2800  0.3741
 2635SOL    HW119367   2.594   0.614   0.726  0.1610  1.0155  1.4597
 2635SOL    HW219368   2.513   0.739   0.726 -0.7531  0.4276 -0.0110
 2636SOL     OW19369   2.830   4.229   5.082 -0.0219  0.6850  0.8240
 2636SOL    HW119370   2.754   4.172   5.067  0.6495 -0.0924  0.3947
 2636SOL    HW219371   2.784   4.313   5.079  0.4138  0.7981 -2.7675
 2637SOL     OW19372   3.213   0.128   6.800  0.0216  0.4594  0.0365
 2637SOL    HW119373   3.278   0.197   6.816 -2.2264  3.0930 -2.1037
 2637SOL    HW219374   3.138   0.187   6.790  0.0806  0.2821 -1.4237
 2638SOL     OW19375   3.660   0.252   5.973  0.2174 -0.8313 -0.3199
 2638SOL    HW119376   3.702   0.300   6.045 -0.3708  1.8312 -1.7379
 2638SOL    HW219377   3.732   0.195   5.946  1.6392  1.1954 -0.8009
 2639SOL     OW19378   1.453   4.344  17.034  0.3645 -0.6530 -0.0940
 2639SOL    HW119379   1.450   4.430  17.076 -1.8889 -0.5562 -0.4439
 2639SOL    HW219380   1.358   4.331  17.033  0.5186 -1.9245  1.6919
 2640SOL     OW19381   3.046   2.940  15.362 -0.7769 -0.2609 -0.7410
 2640SOL    HW119382   3.023   2.905  15.276  0.2643  0.0263 -1.1345
 2640SOL    HW219383   2.960   2.971  15.389 -0.6642 -0.2156 -0.4394
 2641SOL     OW19384   0.300   4.316   4.268  0.2330 -0.9006 -0.9433
 2641SOL    HW119385   0.352   4.243   4.301  1.3424  1.1647  1.8529
 2641SOL    HW219386   0.347   4.348   4.192 -0.5330  0.9899 -0.6100
 2642SOL     OW19387   1.607   1.397  17.634  0.5899  0.1436  0.3250
 2642SOL    HW119388   1.656   1.467  17.592 -2.3231  1.2491 -1.1410
 2642SOL    HW219389   1.580   1.438   0.002 -0.5235 -0.8346  0.4475
 2643SOL     OW19390   3.347   4.396   8.645  0.2257 -0.1566 -0.6821
 2643SOL    HW119391   3.354   4.453   8.569 -3.7562 -1.3980 -2.0075
 2643SOL    HW219392   3.254   4.412   8.661 -0.2004 -3.2462 -0.1380
 2644SOL     OW19393   2.701   4.684   3.861 -0.1423 -0.1522 -0.2878
 2644SOL    HW119394   2.688   4.628   3.785  0.1070  1.5612 -1.6012
 2644SOL    HW219395   2.660   4.639   3.934 -0.9549  0.3423 -0.4313
 2645SOL     OW19396   4.453   0.095   6.040  0.5858  0.4196 -0.2590
 2645SOL    HW119397   4.494   0.009   6.032  0.2770  0.5426 -3.0371
 2645SOL    HW219398   4.398   0.085   6.117 -0.0136 -1.4033 -0.9386
 2646SOL     OW19399   3.776   2.964   2.992 -0.1335  0.4728  0.2975
 2646SOL    HW119400   3.786   3.042   2.939  1.5178 -0.9901 -1.5589
 2646SOL    HW219401   3.839   2.975   3.064  0.8399 -0.6664 -0.3894
 2647SOL     OW19402   1.140   3.941   7.485 -0.3840  0.4747 -0.2057
 2647SOL    HW119403   1.208   3.880   7.458 -0.2826 -0.2406  1.6421
 2647SOL    HW219404   1.160   4.019   7.434 -0.1622 -0.2815 -1.2763
 2648SOL     OW19405   3.653   0.369   9.483  0.1124  0.3270  0.4317
 2648SOL    HW119406   3.705   0.343   9.559  0.3908  0.2753  0.2249
 2648SOL    HW219407   3.579   0.413   9.524  0.4815 -1.2100  2.7131
 2649SOL     OW19408   4.081   0.462   5.380  0.2604  0.1798  0.2131
 2649SOL    HW119409   3.988   0.450   5.359  0.5456 -0.3329 -0.7325
 2649SOL    HW219410   4.123   0.474   5.295  1.7857 -2.4923  0.5825
 2650SOL     OW19411   0.870   0.446  16.929  0.2437 -0.0832  0.5256
 2650SOL    HW119412   0.831   0.509  16.989 -0.3084  0.6493 -0.6088
 2650SOL    HW219413   0.801   0.405  16.877  1.7185  1.2934 -2.5617
 2651SOL     OW19414   4.479   1.630  12.703 -0.0915  0.4181  0.0401
 2651SOL    HW119415   4.460   1.701  12.763  0.5040  0.8224 -0.2550
 2651SOL    HW219416   4.452   1.664  12.617  0.9959  0.3701 -0.3200
 2652SOL     OW19417   1.954   2.579   9.022 -0.0128  0.1453 -0.5364
 2652SOL    HW119418   1.884   2.562   9.085  1.0145  2.0310  1.1601
 2652SOL    HW219419   2.003   2.498   9.035  0.9086  0.5603 -1.4009
 2653SOL     OW19420   2.941   0.757   2.686  0.1567 -0.4339  0.4328
 2653SOL    HW119421   3.035   0.773   2.688 -0.0537  1.0545 -2.4540
 2653SOL    HW219422   2.941   0.697   2.761 -1.1091  0.0616  0.8279
 2654SOL     OW19423   0.794   1.892   6.013  0.1425  0.2887  0.5513
 2654SOL    HW119424   0.876   1.856   6.046  0.0526 -0.3537  0.0824
 2654SOL    HW219425   0.737   1.817   6.028 -1.5300  1.5047  0.2638
 2655SOL     OW19426   3.481   4.422   8.188  0.0244  0.3848 -0.2569
 2655SOL    HW119427   3.426   4.474   8.247  2.6690 -0.7033  3.1519
 2655SOL    HW219428   3.413   4.382   8.134 -0.4190  0.0165  0.5771
 2656SOL     OW19429   4.056   0.839   1.490 -0.5948  0.4131  0.4210
 2656SOL    HW119430   4.043   0.927   1.453  1.7360 -0.6167 -2.7932
 2656SOL    HW219431   4.029   0.793   1.411 -1.4582  1.1381  0.2968
 2657SOL     OW19432   3.048   0.279   3.370 -0.6199  0.0603  0.5467
 2657SOL    HW119433   2.975   0.315   3.420 -0.8343  2.5279 -1.5835
 2657SOL    HW219434   3.060   0.359   3.319 -0.5883 -0.5688 -0.4333
 2658SOL     OW19435   3.106   0.869   4.464  0.4611 -0.2315 -0.8412
 2658SOL    HW119436   3.079   0.932   4.398 -0.2642 -0.8778 -1.1687
 2658SOL    HW219437   3.177   0.912   4.510 -0.7642  1.7593 -0.8324
 2659SOL     OW19438   1.149   2.757   0.787  0.2730  0.2512  0.0222
 2659SOL    HW119439   1.226   2.712   0.823  0.5103  0.6254 -0.0208
 2659SOL    HW219440   1.113   2.683   0.737  0.3223  1.7566 -2.2222
 2660SOL     OW19441   2.658   4.473   9.712  0.2798 -0.0364 -0.0038
 2660SOL    HW119442   2.722   4.514   9.654 -1.4267  0.5643 -1.4932
 2660SOL    HW219443   2.635   4.396   9.660 -0.8411 -0.4228  1.0443
 2661SOL     OW19444   4.606   3.761   2.710 -0.7394  0.2477  0.5074
 2661SOL    HW119445   4.606   3.672   2.675  0.0497  0.4935 -0.1168
 2661SOL    HW219446   4.617   3.745   2.803  0.4666 -1.8583 -0.0166
 2662SOL     OW19447   1.802   0.739   7.507 -0.2845 -0.2580  0.0438
 2662SOL    HW119448   1.709   0.743   7.528 -0.2655  0.3892 -0.0067
 2662SOL    HW219449   1.834   0.824   7.537  2.8505 -1.7513  1.0105
 2663SOL     OW19450   3.270   2.068   2.387  0.2539 -0.3855  0.1611
 2663SOL    HW119451   3.293   2.030   2.302 -0.4622  0.0199 -0.2194
 2663SOL    HW219452   3.255   2.155   2.349 -1.4955 -1.4530 -1.5409
 2664SOL     OW19453   2.196   4.111  17.484  1.1600  0.8583 -0.6713
 2664SOL    HW119454   2.155   4.029  17.455  0.6361  0.4526  1.2301
 2664SOL    HW219455   2.215   4.148  17.398  0.3892 -1.7756 -1.9770
 2665SOL     OW19456   2.117   4.579   5.443 -0.1294 -0.6393 -0.4026
 2665SOL    HW119457   2.090   4.595   5.534 -1.1483 -1.5189 -0.5427
 2665SOL    HW219458   2.143   4.667   5.417 -2.2260  0.9689  2.9551
 2666SOL     OW19459   2.828   2.229   8.740  0.0586 -0.4150  0.2956
 2666SOL    HW119460   2.757   2.294   8.734  1.6663  1.5620  2.6725
 2666SOL    HW219461   2.849   2.233   8.833  4.4033 -1.7405 -0.6531
 2667SOL     OW19462   0.913   3.041   6.586  0.4568  0.1859 -0.5432
 2667SOL    HW119463   0.888   3.080   6.502  0.3490  0.5471 -0.3436
 2667SOL    HW219464   0.992   2.991   6.567 -0.5846 -0.4123 -3.2963
 2668SOL     OW19465   1.869   3.341   5.251 -0.1344 -0.9140 -0.2587
 2668SOL    HW119466   1.900   3.296   5.330  0.2146 -0.8695 -0.3731
 2668SOL    HW219467   1.819   3.267   5.215 -0.2160 -0.8600 -0.2566
 2669SOL     OW19468   2.479   0.727  16.238 -0.2436  0.5475  0.3903
 2669SOL    HW119469   2.552   0.687  16.286 -0.2804  0.1232  0.0944
 2669SOL    HW219470   2.489   0.820  16.256 -0.2262  0.6936 -0.3746
 2670SOL     OW19471   0.762   0.081   9.804 -0.2290 -0.3420 -0.0821
 2670SOL    HW119472   0.798   0.151   9.749  1.6292 -0.8249  0.4973
 2670SOL    HW219473   0.741   0.012   9.742  1.3853  0.2740 -1.3264
 2671SOL     OW19474   3.227   3.804  10.502 -1.1256  0.6395  0.0706
 2671SOL    HW119475   3.314   3.764  10.510 -0.8090  1.1410 -0.7983
 2671SOL    HW219476   3.175   3.755  10.565 -3.5716  2.9315 -0.1818
 2672SOL     OW19477   2.566   2.229   5.197 -0.2159 -0.6464  0.5792
 2672SOL    HW119478   2.496   2.223   5.262 -0.1137 -0.0491  0.7465
 2672SOL    HW219479   2.594   2.137   5.194 -1.0453 -0.8416 -1.3559
 2673SOL     OW19480   3.780   1.827  11.645 -0.5225 -0.0569 -0.5591
 2673SOL    HW119481   3.802   1.796  11.733 -0.2491  1.1505 -0.2143
 2673SOL    HW219482   3.828   1.910  11.645  0.4591 -0.6163 -1.6745
 2674SOL     OW19483   3.127   1.472  16.638  0.0937 -0.0349 -0.3146
 2674SOL    HW119484   3.168   1.388  16.660 -1.3106 -0.7405 -0.4032
 2674SOL    HW219485   3.090   1.451  16.552 -1.5490  1.4310  0.0227
 2675SOL     OW19486   2.433   1.066   9.072  0.6081 -0.3929  0.1391
 2675SOL    HW119487   2.487   1.142   9.091 -0.5114  0.5688 -0.5027
 2675SOL    HW219488   2.416   1.028   9.158 -0.3279 -0.0491  0.1141
 2676SOL     OW19489   0.007   2.789   5.940 -0.2847 -0.3171  0.5511
 2676SOL    HW119490   0.075   2.816   5.877 -0.0095 -2.4501 -0.0616
 2676SOL    HW219491   4.663   2.776   5.879 -0.3515 -0.0212  0.5674
 2677SOL     OW19492   0.498   2.795   3.714  0.0368  0.4280  0.0471
 2677SOL    HW119493   0.565   2.851   3.753  0.8801 -1.9149  1.9606
 2677SOL    HW219494   0.433   2.806   3.783  0.0992 -1.8341  0.4809
 2678SOL     OW19495   2.253   2.625  17.548 -0.6062  0.3433 -0.1624
 2678SOL    HW119496   2.220   2.706  17.586 -0.7245 -0.3939  1.3198
 2678SOL    HW219497   2.167   2.585  17.535 -1.0178  1.1798 -0.0142
 2679SOL     OW19498   0.100   1.057   7.135  0.3118 -0.1517  0.0595
 2679SOL    HW119499   0.041   1.071   7.210  0.6936  0.3171  0.2716
 2679SOL    HW219500   0.084   1.127   7.072  1.5237 -2.5828 -2.9858
 2680SOL     OW19501   0.742   0.357   7.436 -0.1176  0.4076  0.1838
 2680SOL    HW119502   0.654   0.374   7.470 -0.0383  3.9292 -1.3764
 2680SOL    HW219503   0.742   0.395   7.348 -1.0273  3.0912  1.3390
 2681SOL     OW19504   1.203   3.383   1.392 -0.2882  0.4135  0.1687
 2681SOL    HW119505   1.181   3.354   1.304 -2.1500 -0.7755  1.0377
 2681SOL    HW219506   1.215   3.295   1.428 -0.9864  1.4455  2.9008
 2682SOL     OW19507   4.125   1.940  13.307  0.2455 -0.4073  0.4027
 2682SOL    HW119508   4.075   1.913  13.231  0.4433  2.1490 -0.6266
 2682SOL    HW219509   4.124   1.860  13.359  1.7252 -1.2133 -0.8158
 2683SOL     OW19510   0.483   1.759   6.418 -0.2719  0.2077 -0.1642
 2683SOL    HW119511   0.457   1.827   6.480 -1.3576 -0.1721 -0.2026
 2683SOL    HW219512   0.425   1.785   6.346 -1.4285  0.0156  0.6909
 2684SOL     OW19513   3.550   0.374  11.732  0.1756  0.6347  0.0032
 2684SOL    HW119514   3.506   0.361  11.817 -1.0759  3.5395 -0.1666
 2684SOL    HW219515   3.551   0.281  11.711 -0.6366  0.6932 -0.3136
 2685SOL     OW19516   1.212   0.033   2.294  0.2711 -0.2434  0.1459
 2685SOL    HW119517   1.141   0.022   2.358 -0.1109  0.0870 -0.2145
 2685SOL    HW219518   1.188   0.109   2.241  0.6449 -1.8870 -2.3849
 2686SOL     OW19519   0.541   2.562  14.595 -0.2882  0.5182 -0.2155
 2686SOL    HW119520   0.463   2.614  14.579 -0.8138 -0.2173 -0.0613
 2686SOL    HW219521   0.506   2.500  14.659  1.1916 -0.1714 -0.0539
 2687SOL     OW19522   1.846   4.668   7.039  0.0293  0.2554  0.5829
 2687SOL    HW119523   1.781   4.646   7.105  0.7747  1.1511  1.6107
 2687SOL    HW219524   1.824   0.030   7.018  1.3428  0.1252 -1.4104
 2688SOL     OW19525   1.678   1.429   0.940  0.5772  0.1105 -0.3013
 2688SOL    HW119526   1.765   1.448   0.975  0.3707 -0.5070  0.5456
 2688SOL    HW219527   1.701   1.415   0.848  0.3160 -1.4075 -0.1257
 2689SOL     OW19528   4.196   1.454   6.182 -0.0615 -0.2939 -0.5087
 2689SOL    HW119529   4.276   1.455   6.233  0.1204  3.7590 -0.8873
 2689SOL    HW219530   4.219   1.527   6.124 -0.7229  0.1933 -0.1695
 2690SOL     OW19531   4.713   1.835  14.979 -0.2084  0.0785  0.1511
 2690SOL    HW119532   4.668   1.856  15.061 -0.0817  1.5392 -0.1643
 2690SOL    HW219533   0.076   1.841  15.009  0.6633 -1.1086 -2.3023
 2691SOL     OW19534   2.531   0.727   3.223 -0.2332  0.0813  0.2149
 2691SOL    HW119535   2.478   0.782   3.165  1.2565 -0.7072 -1.8860
 2691SOL    HW219536   2.477   0.710   3.300  0.2290 -0.4891  0.4095
 2692SOL     OW19537   1.480   1.301   1.627 -0.3295  0.3348  0.3880
 2692SOL    HW119538   1.488   1.386   1.669 -0.0394 -0.8401  2.7020
 2692SOL    HW219539   1.436   1.335   1.549 -1.7501  1.4196  1.6498
 2693SOL     OW19540   3.346   3.719   1.599 -0.0633 -0.1922  0.3803
 2693SOL    HW119541   3.341   3.682   1.510 -0.9393  2.0269 -0.4984
 2693SOL    HW219542   3.255   3.707   1.627  0.0889  0.2845  1.0579
 2694SOL     OW19543   0.952   3.705  12.114 -0.1173 -1.1255  0.1100
 2694SOL    HW119544   0.905   3.662  12.186  0.9097 -0.7498  0.9982
 2694SOL    HW219545   1.035   3.658  12.123  0.5378 -0.0070 -0.1499
 2695SOL     OW19546   1.145   2.005   5.972 -0.3496  0.4778 -0.3042
 2695SOL    HW119547   1.132   2.051   5.890 -2.1560  0.6025  0.0610
 2695SOL    HW219548   1.240   1.997   5.982 -0.3350  0.7060 -0.2496
 2696SOL     OW19549   0.278   0.171   7.235 -0.2814  0.1088 -0.0279
 2696SOL    HW119550   0.261   0.251   7.186 -0.1119  0.5700  0.6657
 2696SOL    HW219551   0.292   0.111   7.162  0.7188 -2.2956  2.1116
 2697SOL     OW19552   3.701   2.434   2.150  0.3717 -0.1077 -0.2019
 2697SOL    HW119553   3.774   2.408   2.207  0.1371  0.3983  0.3356
 2697SOL    HW219554   3.678   2.522   2.179 -1.0395 -0.4542 -0.2627
 2698SOL     OW19555   0.465   1.150   2.156 -0.2281 -0.1239  0.6227
 2698SOL    HW119556   0.448   1.150   2.251  0.2249 -0.5275  0.7017
 2698SOL    HW219557   0.380   1.115   2.128  0.3944 -1.1026  0.0076
 2699SOL     OW19558   2.878   3.236   2.862 -0.0140 -0.1994 -0.7074
 2699SOL    HW119559   2.885   3.146   2.895  2.0792  0.0898 -0.3462
 2699SOL    HW219560   2.952   3.235   2.801  0.9944  1.0516  0.4961
 2700SOL     OW19561   1.626   3.144   2.450 -0.5184 -0.2745  0.2976
 2700SOL    HW119562   1.573   3.219   2.422  0.5219  0.1685 -0.5190
 2700SOL    HW219563   1.672   3.114   2.371 -0.3041  0.1582  0.2562
 2701SOL     OW19564   1.737   3.950  15.801 -0.0251 -0.2480  0.2762
 2701SOL    HW119565   1.708   4.037  15.774 -0.4322 -0.7390 -0.8817
 2701SOL    HW219566   1.831   3.969  15.796  0.0557 -0.7064  0.0513
 2702SOL     OW19567   2.828   1.806   4.325  0.3191 -0.0314  0.2833
 2702SOL    HW119568   2.818   1.730   4.267 -0.7789  1.1373 -1.0393
 2702SOL    HW219569   2.750   1.860   4.313  0.7756  0.6406  0.3422
 2703SOL     OW19570   0.154   2.727   4.269 -0.0589  0.3992  0.3077
 2703SOL    HW119571   0.221   2.671   4.228  0.5345 -0.6068  2.6441
 2703SOL    HW219572   0.170   2.809   4.223  1.1356 -0.3459 -0.6262
 2704SOL     OW19573   1.968   0.064  12.756 -0.3117  0.4386 -0.3917
 2704SOL    HW119574   2.001   0.124  12.822 -0.4609 -0.0262  0.1041
 2704SOL    HW219575   2.018   4.711  12.765 -0.2615  0.6631  1.2312
 2705SOL     OW19576   3.327   4.313   9.722 -0.4294 -0.1168  0.1320
 2705SOL    HW119577   3.292   4.331   9.809  0.4494  2.6176 -0.0929
 2705SOL    HW219578   3.376   4.231   9.730  2.9732  1.9004 -0.3809
 2706SOL     OW19579   3.715   4.055   2.682  0.3411 -0.6534 -0.1258
 2706SOL    HW119580   3.809   4.059   2.663 -0.4328  0.1694 -3.7802
 2706SOL    HW219581   3.698   3.962   2.665 -1.4199  0.3761 -3.9433
 2707SOL     OW19582   3.823   4.340   7.696 -0.2033 -0.3862 -0.3534
 2707SOL    HW119583   3.845   4.405   7.629 -1.3623 -2.7429 -3.0328
 2707SOL    HW219584   3.906   4.295   7.711  1.0348  1.5080 -1.4212
 2708SOL     OW19585   3.350   0.951   7.819 -0.5781 -0.4856 -0.1870
 2708SOL    HW119586   3.280   1.004   7.780  1.4833  1.8676 -0.6608
 2708SOL    HW219587   3.340   0.972   7.912  0.5768 -1.4212  0.1459
 2709SOL     OW19588   0.904   3.712   9.339 -0.3180 -0.1739 -1.0466
 2709SOL    HW119589   0.815   3.678   9.331 -0.5716  0.0992  0.6410
 2709SOL    HW219590   0.908   3.722   9.434  0.9269 -0.2573 -1.0838
 2710SOL     OW19591   4.509   3.919   0.800 -0.2685 -0.4607  0.1213
 2710SOL    HW119592   4.582   3.858   0.791 -0.5742 -0.9729  1.1641
 2710SOL    HW219593   4.530   3.964   0.881  0.4910  0.1080 -0.3924
 2711SOL     OW19594   4.531   2.625   2.097  0.0260 -0.1153 -0.0872
 2711SOL    HW119595   4.587   2.556   2.131 -2.3659 -1.4134  1.1565
 2711SOL    HW219596   4.549   2.619   2.003  0.3165  0.1746 -0.0513
 2712SOL     OW19597   0.573   1.761  12.672  0.2361 -0.0824  0.2854
 2712SOL    HW119598   0.618   1.722  12.598  1.9039  3.0240 -0.3456
 2712SOL    HW219599   0.632   1.833  12.694 -0.6295  1.3020 -1.9467
 2713SOL     OW19600   1.014   2.699   1.218  0.2634 -0.7359  0.9223
 2713SOL    HW119601   1.085   2.737   1.167 -1.3416  0.3086 -0.5586
 2713SOL    HW219602   0.975   2.783   1.241  2.1624 -0.0073  1.4603
 2714SOL     OW19603   0.059   3.414  13.315  0.2944  0.2529  0.1044
 2714SOL    HW119604   0.001   3.345  13.281 -1.3142  1.5897  0.1339
 2714SOL    HW219605   0.007   3.494  13.322 -0.2633 -0.1559  0.5846
 2715SOL     OW19606   1.137   3.228   7.545  0.2967  0.1168 -0.2856
 2715SOL    HW119607   1.198   3.167   7.586  1.2686 -0.4135 -2.5178
 2715SOL    HW219608   1.048   3.206   7.572  0.1361  0.4595 -0.5426
 2716SOL     OW19609   2.191   2.927   4.320  0.2649  0.4871  0.2291
 2716SOL    HW119610   2.107   2.880   4.319  0.6542 -0.1799 -0.3078
 2716SOL    HW219611   2.258   2.860   4.313 -0.8636 -0.4014 -2.0975
 2717SOL     OW19612   2.757   1.497  12.116 -0.2180  0.4629  0.0137
 2717SOL    HW119613   2.718   1.424  12.069 -1.0823  0.3493  0.8960
 2717SOL    HW219614   2.841   1.466  12.151 -1.4917 -1.7441  1.0759
 2718SOL     OW19615   0.644   0.746   2.502 -0.1932  0.0717 -0.2068
 2718SOL    HW119616   0.598   0.727   2.585  1.2523 -0.0832  0.5518
 2718SOL    HW219617   0.725   0.696   2.513 -0.5965 -0.7733 -1.1387
 2719SOL     OW19618   1.961   2.573   2.612 -0.1469 -0.0845  0.3452
 2719SOL    HW119619   2.002   2.562   2.698  0.6116 -0.5642 -0.0770
 2719SOL    HW219620   1.911   2.492   2.615 -1.0640  0.4350 -0.8617
 2720SOL     OW19621   3.429   0.209   2.019 -0.1023 -0.1708  0.5804
 2720SOL    HW119622   3.433   0.119   2.052 -1.3128 -0.1146  0.8762
 2720SOL    HW219623   3.508   0.211   1.965  0.4308  0.3621  1.3823
 2721SOL     OW19624   4.120   0.864  15.313  0.2780 -0.3259  0.6308
 2721SOL    HW119625   4.152   0.781  15.279 -1.8713 -0.9047  0.0190
 2721SOL    HW219626   4.047   0.880  15.253  1.2727 -0.9512 -0.7365
 2722SOL     OW19627   1.459   1.802   0.070  0.0503 -0.3445 -0.3103
 2722SOL    HW119628   1.477   1.720   0.116 -1.8758  0.2138  1.4322
 2722SOL    HW219629   1.551   1.830   0.069 -0.6249  1.9378  0.7556
 2723SOL     OW19630   0.416   1.025   7.601 -0.5154 -0.7903  0.4103
 2723SOL    HW119631   0.322   1.043   7.601 -0.1645  1.0078  0.2301
 2723SOL    HW219632   0.452   1.108   7.632  2.0437 -0.9631 -2.1413
 2724SOL     OW19633   4.601   2.513   6.152  0.2186 -0.3004 -0.0388
 2724SOL    HW119634   4.656   2.512   6.074  1.0464  2.5222  0.4943
 2724SOL    HW219635   4.541   2.586   6.134 -1.1986 -1.7893 -1.2814
 2725SOL     OW19636   0.726   3.502   3.667  0.5389  0.2867 -0.5122
 2725SOL    HW119637   0.713   3.408   3.653  0.1887  0.0216  1.6045
 2725SOL    HW219638   0.641   3.535   3.636  1.9649  1.5639 -2.9748
 2726SOL     OW19639   1.500   1.333   1.136 -0.3070  0.1142 -0.0444
 2726SOL    HW119640   1.520   1.242   1.114  2.0105  0.6655 -0.1739
 2726SOL    HW219641   1.564   1.379   1.081 -1.8154  0.5084 -1.4897
 2727SOL     OW19642   1.096   1.437   9.076  0.2932 -0.3079 -0.7786
 2727SOL    HW119643   1.170   1.498   9.074  0.5385 -0.6028 -0.5576
 2727SOL    HW219644   1.090   1.438   9.172  1.7674 -0.4647 -0.6843
 2728SOL     OW19645   2.500   1.539  15.152  0.1529 -0.1087 -0.2332
 2728SOL    HW119646   2.593   1.518  15.147  0.6317  2.4164 -1.7974
 2728SOL    HW219647   2.511   1.631  15.128  0.6813  0.3011  1.5862
 2729SOL     OW19648   2.810   1.802   3.563  0.2739 -0.0545  0.2593
 2729SOL    HW119649   2.775   1.743   3.630  1.9431 -0.3822  0.8618
 2729SOL    HW219650   2.784   1.883   3.607  1.8445  0.6474 -0.1039
 2730SOL     OW19651   0.649   0.964  11.054 -0.1210 -0.1776 -0.4805
 2730SOL    HW119652   0.691   1.039  11.097 -2.7449  1.1427 -0.2535
 2730SOL    HW219653   0.619   1.001  10.971 -0.4133 -0.4493 -0.4944
 2731SOL     OW19654   0.540   4.370  14.711  0.1940  0.1201 -0.3184
 2731SOL    HW119655   0.535   4.275  14.711  1.2822  0.0549 -0.5583
 2731SOL    HW219656   0.448   4.391  14.725  0.3150 -0.4369  1.2808
 2732SOL     OW19657   3.420   2.635   1.567  0.9169 -0.7359  0.1311
 2732SOL    HW119658   3.366   2.556   1.563 -0.4599  0.2681 -1.1132
 2732SOL    HW219659   3.428   2.653   1.473 -1.6053 -0.6846 -0.0769
 2733SOL     OW19660   4.009   1.107  17.675 -0.8151 -0.4650  0.3340
 2733SOL    HW119661   4.010   1.142   0.049 -0.5588  1.7916 -0.5764
 2733SOL    HW219662   4.104   1.099  17.661 -0.6803  2.1543 -0.2907
 2734SOL     OW19663   0.730   0.479   5.845  0.4340 -0.2144  0.1399
 2734SOL    HW119664   0.714   0.573   5.858 -1.3792 -0.1122 -2.8454
 2734SOL    HW219665   0.733   0.472   5.749  0.1310  1.9202 -0.0247
 2735SOL     OW19666   1.287   0.081   4.673  0.0410 -0.4195  0.3490
 2735SOL    HW119667   1.244   0.029   4.605  0.8254  1.0382 -1.2808
 2735SOL    HW219668   1.371   0.035   4.678 -0.1839 -0.8977 -0.2129
 2736SOL     OW19669   2.160   0.103   5.350 -0.3928  0.4010 -0.7596
 2736SOL    HW119670   2.152   0.195   5.377  1.4497  0.2751  0.1723
 2736SOL    HW219671   2.121   0.104   5.263 -0.6539 -0.8676 -0.6521
 2737SOL     OW19672   3.173   4.259  10.294 -0.3129 -0.0282 -0.0438
 2737SOL    HW119673   3.186   4.293  10.383  1.2086 -0.3482 -0.1529
 2737SOL    HW219674   3.227   4.319  10.243 -0.4052 -0.6125 -0.8211
 2738SOL     OW19675   2.863   4.363   2.171  0.1392  0.4328 -0.2039
 2738SOL    HW119676   2.851   4.275   2.204  2.8623  0.1809  0.0984
 2738SOL    HW219677   2.774   4.389   2.145  1.1165  3.5169 -0.4324
 2739SOL     OW19678   4.707   1.500   4.115  0.3433  0.1636  0.1205
 2739SOL    HW119679   4.621   1.501   4.074  0.1745  2.1790  0.5549
 2739SOL    HW219680   0.024   1.442   4.054  0.2259  0.3638 -0.1516
 2740SOL     OW19681   0.858   0.469   5.125 -0.1518 -0.2193 -0.0372
 2740SOL    HW119682   0.938   0.479   5.072  0.7240 -1.0791  1.1318
 2740SOL    HW219683   0.820   0.555   5.106 -1.0868 -1.4264 -3.6251
 2741SOL     OW19684   3.434   2.380   7.589  0.3186  0.0018  0.4398
 2741SOL    HW119685   3.403   2.469   7.606  1.7133  0.9032 -1.7059
 2741SOL    HW219686   3.493   2.398   7.516  1.8479 -1.1144  1.4036
 2742SOL     OW19687   4.466   1.922   8.224  0.1606 -0.2636 -0.0053
 2742SOL    HW119688   4.374   1.910   8.247  0.6684 -0.1484  2.0029
 2742SOL    HW219689   4.458   1.956   8.135  2.2516  0.7021  0.1828
 2743SOL     OW19690   2.467   2.943   5.315  0.6453 -0.1969  0.2022
 2743SOL    HW119691   2.514   2.902   5.387 -0.6123  0.1170  1.2023
 2743SOL    HW219692   2.541   2.954   5.255  0.6888  0.1438  0.3205
 2744SOL     OW19693   0.947   1.457  10.296 -0.0835  0.7394  0.3044
 2744SOL    HW119694   0.945   1.394  10.368 -2.4092  0.1478 -0.2781
 2744SOL    HW219695   0.987   1.534  10.337  0.9973  0.7032 -0.6745
 2745SOL     OW19696   0.361   0.745   1.739 -0.2424 -0.4833 -0.2122
 2745SOL    HW119697   0.286   0.690   1.716 -1.7483  1.6053 -0.2274
 2745SOL    HW219698   0.362   0.745   1.835 -1.7956 -4.4329 -0.1842
 2746SOL     OW19699   4.362   4.620   5.467  0.0001  0.6487 -1.0419
 2746SOL    HW119700   4.428   4.573   5.517 -2.1316 -0.9615  0.2952
 2746SOL    HW219701   4.293   4.655   5.525  0.7213 -2.6579  1.7902
 2747SOL     OW19702   0.937   1.286   5.051 -0.3865  0.5035 -0.0754
 2747SOL    HW119703   1.011   1.291   4.991  0.8250 -3.9329  1.0461
 2747SOL    HW219704   0.972   1.239   5.127 -0.3733 -3.3745 -2.4543
 2748SOL     OW19705   1.322   0.293   6.854 -0.3590  0.5207  0.2561
 2748SOL    HW119706   1.358   0.325   6.937  0.0203  0.2687  0.1872
 2748SOL    HW219707   1.388   0.243   6.806 -1.4317 -1.0569  0.4394
 2749SOL     OW19708   0.006   3.859  13.565 -0.1265  0.6131 -0.3581
 2749SOL    HW119709   0.022   3.883  13.474 -1.7510  0.2856 -0.7385
 2749SOL    HW219710   0.025   3.941  13.610 -0.6319  0.5915 -0.0956
 2750SOL     OW19711   0.170   4.575   3.760 -0.3905  0.0983  0.9372
 2750SOL    HW119712   0.193   4.566   3.667 -0.5775 -1.4329  1.0361
 2750SOL    HW219713   0.077   4.553   3.760  0.1365 -2.1571 -2.0958
 2751SOL     OW19714   1.631   0.686   7.883  0.2515 -0.1417 -0.4138
 2751SOL    HW119715   1.613   0.758   7.823 -1.6953 -0.4399 -0.1696
 2751SOL    HW219716   1.576   0.715   7.955 -0.9368  2.8611 -2.5292
 2752SOL     OW19717   1.093   2.033   2.360 -0.4029 -0.3898  0.3545
 2752SOL    HW119718   1.009   1.987   2.354 -1.1781  1.0377  0.2630
 2752SOL    HW219719   1.141   1.954   2.385  0.6316  0.6500  1.6467
 2753SOL     OW19720   3.097   1.182   3.231  0.3980  0.0156 -0.3717
 2753SOL    HW119721   3.099   1.257   3.171 -0.1163 -0.5448 -1.0929
 2753SOL    HW219722   3.186   1.185   3.266  0.1242 -0.7051  0.3783
 2754SOL     OW19723   2.009   2.023   0.581  0.3946 -0.2223  0.6014
 2754SOL    HW119724   2.064   1.963   0.530 -0.1777  1.0747 -1.5381
 2754SOL    HW219725   2.050   2.109   0.572  1.1440 -0.7736 -1.3443
 2755SOL     OW19726   2.167   3.762  14.755  0.3090 -0.1281  0.3782
 2755SOL    HW119727   2.234   3.780  14.822 -0.8136 -1.4248  1.8589
 2755SOL    HW219728   2.225   3.744  14.682  0.4604 -0.7672  0.6555
 2756SOL     OW19729   3.953   2.358   8.822 -0.7405  0.0640 -0.9947
 2756SOL    HW119730   3.880   2.420   8.814 -2.5724 -1.8212  0.8994
 2756SOL    HW219731   3.921   2.322   8.905  1.3592 -1.1661 -0.7412
 2757SOL     OW19732   1.290   3.424   4.206 -0.4647 -0.0856  0.4636
 2757SOL    HW119733   1.224   3.354   4.202 -0.2788 -0.3298  1.6722
 2757SOL    HW219734   1.302   3.460   4.118  0.6430 -1.8672 -0.1237
 2758SOL     OW19735   0.911   1.772   5.031 -0.2667 -0.2041 -0.0480
 2758SOL    HW119736   0.837   1.804   4.980 -1.0430 -0.5250  0.8683
 2758SOL    HW219737   0.867   1.780   5.116 -1.1894 -1.6405 -0.3929
 2759SOL     OW19738   0.886   3.186   7.625 -0.8758 -0.4229  1.0741
 2759SOL    HW119739   0.826   3.244   7.671 -1.0325  1.1495 -1.1114
 2759SOL    HW219740   0.824   3.122   7.591 -0.2412  0.3072 -1.4868
 2760SOL     OW19741   1.808   3.694  12.566  0.5525 -0.1960 -0.6525
 2760SOL    HW119742   1.819   3.789  12.567  0.0026 -0.1642  2.4358
 2760SOL    HW219743   1.893   3.675  12.607 -0.3939 -1.2242  0.8149
 2761SOL     OW19744   3.956   1.700   4.484 -0.1104 -0.1499 -0.2418
 2761SOL    HW119745   3.899   1.740   4.418 -0.4374  2.4256  1.5601
 2761SOL    HW219746   3.923   1.765   4.547  0.6224 -0.3655  0.3759
 2762SOL     OW19747   3.635   3.356   2.554 -0.3671 -0.0635  0.0846
 2762SOL    HW119748   3.725   3.355   2.522 -0.4942 -1.9662 -0.2307
 2762SOL    HW219749   3.659   3.361   2.647 -1.9695 -0.4719  0.5209
 2763SOL     OW19750   4.317   2.323   3.926 -0.4599 -0.5646  0.0227
 2763SOL    HW119751   4.298   2.263   3.854  1.4663 -0.1370 -0.8469
 2763SOL    HW219752   4.236   2.374   3.927 -1.2069 -1.7513 -0.0810
 2764SOL     OW19753   4.213   1.214  13.292 -0.0864  0.0087 -0.1362
 2764SOL    HW119754   4.227   1.127  13.253 -0.9220 -0.2544  0.1317
 2764SOL    HW219755   4.260   1.202  13.374  0.9443 -0.8132 -0.8366
 2765SOL     OW19756   0.193   3.251  12.141 -0.0842  0.1578 -0.0053
 2765SOL    HW119757   0.282   3.268  12.171 -0.3452  0.2845  0.7020
 2765SOL    HW219758   0.213   3.204  12.060  1.5871  1.7470 -0.5158
 2766SOL     OW19759   4.269   4.361   6.825 -0.3190 -1.0408 -0.4403
 2766SOL    HW119760   4.356   4.334   6.799  0.5140  0.5065  0.7467
 2766SOL    HW219761   4.280   4.331   6.915 -0.8500  0.6696  0.2085
 2767SOL     OW19762   3.017   1.746   9.632 -0.5305  0.3535  0.4871
 2767SOL    HW119763   3.030   1.699   9.715 -0.2495  0.1770  0.3467
 2767SOL    HW219764   2.926   1.772   9.646 -1.4397 -2.0555 -0.8459
 2768SOL     OW19765   0.720   0.019   3.158  0.6568 -0.2638 -0.7168
 2768SOL    HW119766   0.672   0.017   3.240  0.3415  0.2350 -0.8966
 2768SOL    HW219767   0.648   0.008   3.096  0.5465 -1.1904 -0.4343
 2769SOL     OW19768   4.650   4.399   7.424 -0.1414  0.2051 -0.1044
 2769SOL    HW119769   4.676   4.482   7.384 -3.1429  1.6007  0.8065
 2769SOL    HW219770   4.673   4.343   7.350  1.2940  1.1244 -0.3499
 2770SOL     OW19771   3.998   0.176   2.727 -0.1172 -0.1771 -0.1010
 2770SOL    HW119772   3.930   0.137   2.672 -1.3194  0.8234  0.6586
 2770SOL    HW219773   4.067   0.209   2.670 -1.2971 -1.9645 -2.5468
 2771SOL     OW19774   2.488   2.582   6.459  0.4400 -0.1540 -0.4224
 2771SOL    HW119775   2.401   2.616   6.478  1.2050  1.1750  0.7733
 2771SOL    HW219776   2.537   2.641   6.516  1.8282  0.5334 -2.2947
 2772SOL     OW19777   1.530   1.096   2.690 -0.3331 -0.6382  0.2980
 2772SOL    HW119778   1.590   1.119   2.762  1.0370  0.2890 -1.1226
 2772SOL    HW219779   1.570   1.013   2.666  0.8630 -0.2403  0.8681
 2773SOL     OW19780   2.042   2.855   8.032  0.0489 -0.3136  0.3597
 2773SOL    HW119781   2.024   2.873   7.940  5.8471  1.0853 -0.5153
 2773SOL    HW219782   2.108   2.786   8.028 -0.3284 -0.3860 -3.9444
 2774SOL     OW19783   2.588   3.082  16.588 -0.5096 -0.2112 -0.2696
 2774SOL    HW119784   2.636   3.120  16.515 -0.6113 -1.9401 -1.2258
 2774SOL    HW219785   2.518   3.144  16.611 -0.7645  0.0341 -1.7153
 2775SOL     OW19786   2.018   1.471   6.040 -0.3400  0.6405  1.0159
 2775SOL    HW119787   1.974   1.403   5.988 -0.5184  0.2432  1.6776
 2775SOL    HW219788   1.989   1.467   6.131 -0.1496 -3.0480  0.9369
 2776SOL     OW19789   1.896   4.339   4.584  0.0980 -0.1221  0.1149
 2776SOL    HW119790   1.894   4.256   4.537 -2.9708 -0.2046  0.4234
 2776SOL    HW219791   1.977   4.373   4.546  0.4131  0.6722  1.4956
 2777SOL     OW19792   0.720   0.762  14.975 -0.4572  0.1219 -0.3759
 2777SOL    HW119793   0.749   0.671  14.968  1.5292  0.5976  1.6930
 2777SOL    HW219794   0.645   0.756  14.916  0.5686  0.9916 -1.8030
 2778SOL     OW19795   2.372   0.174   4.663 -0.0540 -0.2079  1.0300
 2778SOL    HW119796   2.286   0.216   4.663 -0.6092 -1.3387  1.6621
 2778SOL    HW219797   2.422   0.246   4.624  1.6332 -1.9689 -0.0135
 2779SOL     OW19798   3.948   3.462   9.219  0.3319  0.1660  0.0330
 2779SOL    HW119799   4.010   3.434   9.151 -0.3208  0.1963 -0.5689
 2779SOL    HW219800   3.865   3.441   9.176  0.8287  0.3658 -1.0242
 2780SOL     OW19801   1.272   0.235  11.041  0.4838 -0.1281  0.0212
 2780SOL    HW119802   1.182   0.266  11.031  0.1146 -1.5699 -1.0849
 2780SOL    HW219803   1.256   0.164  11.103 -0.5611  0.6641  0.6588
 2781SOL     OW19804   0.954   1.599   3.117  0.0642  0.2337  0.5707
 2781SOL    HW119805   1.032   1.607   3.172 -0.6863  0.0923  1.6594
 2781SOL    HW219806   0.994   1.636   3.039  0.6022 -3.0279 -0.6881
 2782SOL     OW19807   4.074   0.633  17.233  0.0153 -0.1708  0.7762
 2782SOL    HW119808   4.045   0.716  17.271  0.2120 -0.2709  1.1425
 2782SOL    HW219809   4.142   0.603  17.294  1.0002  2.4300  0.9776
 2783SOL     OW19810   1.215   2.859   0.298 -0.0199  0.5642  0.0131
 2783SOL    HW119811   1.177   2.811   0.371 -1.8620 -0.1232 -1.3795
 2783SOL    HW219812   1.193   2.949   0.323 -0.3975  0.5415 -0.2327
 2784SOL     OW19813   1.365   0.925  10.870  0.3962  0.4665  0.3532
 2784SOL    HW119814   1.282   0.895  10.908  0.8898 -1.8664 -0.3777
 2784SOL    HW219815   1.387   0.999  10.925  2.2393  0.2892 -0.1534
 2785SOL     OW19816   2.832   0.230  14.076  0.2084  0.1445 -0.1828
 2785SOL    HW119817   2.775   0.279  14.135 -0.3534  0.5529 -1.0741
 2785SOL    HW219818   2.778   0.175  14.020 -0.4125 -0.2964  0.8491
 2786SOL     OW19819   2.227   4.533   6.344 -0.3122  0.2574  0.4155
 2786SOL    HW119820   2.293   4.597   6.318 -1.1945  1.7217  1.7732
 2786SOL    HW219821   2.253   4.497   6.429  0.4568 -0.0335  0.0562
 2787SOL     OW19822   1.537   0.635   7.513 -0.0966 -0.4150 -0.7509
 2787SOL    HW119823   1.526   0.699   7.583  2.1785 -0.0218 -0.7583
 2787SOL    HW219824   1.445   0.618   7.493 -0.0300 -0.6190 -0.8846
 2788SOL     OW19825   0.006   4.305   7.153  0.0574 -0.1852 -0.4720
 2788SOL    HW119826   0.066   4.231   7.148 -1.5374 -1.6405  1.9243
 2788SOL    HW219827   4.650   4.262   7.154 -0.4056  0.7174  0.1574
 2789SOL     OW19828   4.476   1.690   5.202  0.1328  0.3844 -0.4930
 2789SOL    HW119829   4.408   1.673   5.267 -3.0250 -0.4485 -4.0078
 2789SOL    HW219830   4.491   1.783   5.220 -2.9408  0.7611  0.0261
 2790SOL     OW19831   0.520   1.933   5.558  0.1211  0.6054  0.2452
 2790SOL    HW119832   0.458   2.005   5.560 -1.2332 -0.5965  1.2346
 2790SOL    HW219833   0.476   1.886   5.488 -1.3148 -0.2266  1.6861
 2791SOL     OW19834   3.830   2.258   6.830  0.3574  0.4017  0.4314
 2791SOL    HW119835   3.828   2.208   6.912 -1.7389  2.1137  1.4614
 2791SOL    HW219836   3.735   2.268   6.821  0.3032 -0.6749 -0.1345
 2792SOL     OW19837   2.413   4.699   1.437 -0.0465 -0.2888  0.4703
 2792SOL    HW119838   2.435   4.606   1.435  0.6393 -0.0695 -1.7789
 2792SOL    HW219839   2.318   4.691   1.429 -0.0468  0.0190  0.1827
 2793SOL     OW19840   3.554   3.843   8.157 -0.1279  0.0823 -0.0575
 2793SOL    HW119841   3.548   3.781   8.083 -3.2157  2.0851 -1.4644
 2793SOL    HW219842   3.535   3.925   8.112 -3.8305 -1.0867 -0.6757
 2794SOL     OW19843   2.982   1.898   8.754 -0.1533  0.4107  0.0460
 2794SOL    HW119844   3.034   1.831   8.799 -1.3094  0.3624  1.3051
 2794SOL    HW219845   2.987   1.869   8.663 -5.2645 -1.5792  0.4328
 2795SOL     OW19846   4.169   1.534  10.721  0.2222 -0.2636  0.0148
 2795SOL    HW119847   4.262   1.527  10.741 -0.2529 -0.0771  2.3563
 2795SOL    HW219848   4.137   1.510  10.808  1.5369 -0.4624  0.4482
 2796SOL     OW19849   3.427   1.742   4.332  0.2191 -0.1332 -0.2519
 2796SOL    HW119850   3.485   1.665   4.331  1.7313  0.9723  1.3546
 2796SOL    HW219851   3.351   1.707   4.378  1.9205 -1.8628  1.2887
 2797SOL     OW19852   0.487   3.033   5.296 -0.2174 -0.1234 -0.1709
 2797SOL    HW119853   0.451   2.990   5.219  0.0539  1.2185 -1.0483
 2797SOL    HW219854   0.568   2.986   5.315 -0.5036 -0.2357  0.7684
 2798SOL     OW19855   1.710   3.709  15.647 -0.0432 -0.6329  0.2678
 2798SOL    HW119856   1.701   3.642  15.715 -1.9924  0.6190  1.2560
 2798SOL    HW219857   1.693   3.784  15.704  0.7772  0.6126 -1.1187
 2799SOL     OW19858   1.897   3.783   1.137 -0.4603 -0.2876  0.4508
 2799SOL    HW119859   1.927   3.808   1.224  1.2777 -3.2696  0.7048
 2799SOL    HW219860   1.801   3.782   1.144 -0.4539  0.7557  0.6145
 2800SOL     OW19861   3.010   4.172   9.651 -0.1717  0.3116 -0.5128
 2800SOL    HW119862   3.061   4.134   9.722  0.8629  1.0832 -0.8356
 2800SOL    HW219863   2.927   4.125   9.650 -1.0038  1.7614  1.1264
 2801SOL     OW19864   1.882   4.202   6.380  0.4046  0.3702 -0.0910
 2801SOL    HW119865   1.807   4.217   6.437  2.0500  2.6153  1.4512
 2801SOL    HW219866   1.921   4.289   6.379  3.5610 -1.0323 -1.1816
 2802SOL     OW19867   3.467   2.549   2.628  0.1931  0.8630 -0.3268
 2802SOL    HW119868   3.382   2.565   2.587 -0.6605  1.8776  1.8223
 2802SOL    HW219869   3.507   2.634   2.648 -0.1416  1.0868 -0.6089
 2803SOL     OW19870   0.811   1.120   0.092  0.2665 -0.5552  0.3050
 2803SOL    HW119871   0.886   1.102   0.035 -0.7158 -1.2859 -0.7594
 2803SOL    HW219872   0.850   1.172   0.162 -1.1970  0.1013  0.6455
 2804SOL     OW19873   1.011   0.948   3.419  0.9697 -0.5387 -0.2962
 2804SOL    HW119874   1.082   0.901   3.376  0.3247 -1.2564 -0.5746
 2804SOL    HW219875   1.032   1.037   3.390  0.3916 -1.0114 -2.1323
 2805SOL     OW19876   0.943   0.725   9.552 -0.4122  0.1171  0.2721
 2805SOL    HW119877   0.984   0.747   9.635  0.8556  2.0571 -0.8568
 2805SOL    HW219878   0.940   0.630   9.560  2.8768  0.0087 -0.0058
 2806SOL     OW19879   3.603   0.326   8.891 -0.7817 -0.4878 -0.1765
 2806SOL    HW119880   3.524   0.299   8.937 -0.2708 -1.4494  0.1526
 2806SOL    HW219881   3.643   0.239   8.901  0.0656 -0.0850 -0.0437
 2807SOL     OW19882   0.841   2.998   2.788  0.4292 -0.7371  0.5093
 2807SOL    HW119883   0.812   2.951   2.710  0.4237 -1.0041  0.6690
 2807SOL    HW219884   0.909   3.054   2.749  0.6143 -1.1820  0.1913
 2808SOL     OW19885   3.384   1.415   7.949  0.2329  0.2293  0.2453
 2808SOL    HW119886   3.408   1.425   8.041 -0.9551  0.2208  0.5661
 2808SOL    HW219887   3.403   1.322   7.939 -1.4740  0.2283 -3.0747
 2809SOL     OW19888   3.883   4.524   5.142 -0.6000  0.2415  0.2671
 2809SOL    HW119889   3.968   4.502   5.180 -0.9688  1.2625  1.7021
 2809SOL    HW219890   3.870   4.611   5.180  1.4286  1.7247 -2.3785
 2810SOL     OW19891   1.901   2.434  17.190 -0.1888  0.0794 -0.5404
 2810SOL    HW119892   1.952   2.354  17.208 -0.4766  0.2498  1.0203
 2810SOL    HW219893   1.874   2.412  17.101  1.0133 -0.9080 -0.6589
 2811SOL     OW19894   4.401   1.400   3.394 -0.5146  0.0813 -0.3812
 2811SOL    HW119895   4.337   1.433   3.457  0.9348  0.8541  0.7058
 2811SOL    HW219896   4.370   1.453   3.321  0.1860 -0.6027 -1.1645
 2812SOL     OW19897   2.663   3.824   5.821 -0.2085  0.9579 -0.2946
 2812SOL    HW119898   2.591   3.788   5.872 -0.1336  1.0469 -0.1264
 2812SOL    HW219899   2.724   3.860   5.886 -0.0945 -0.2054  0.2476
 2813SOL     OW19900   0.218   3.122   8.882 -0.4390 -0.1482 -0.2981
 2813SOL    HW119901   0.271   3.094   8.808 -0.5721 -0.3319 -0.3210
 2813SOL    HW219902   0.276   3.118   8.958 -0.4100  0.0145 -0.3117
 2814SOL     OW19903   1.342   3.005   6.882 -0.0358  0.8488  0.1524
 2814SOL    HW119904   1.285   2.933   6.911  1.7132 -0.3597  0.6412
 2814SOL    HW219905   1.404   3.013   6.955 -1.3292 -4.2410  1.8626
 2815SOL     OW19906   2.073   3.101   0.926 -0.5793 -0.5371  0.2523
 2815SOL    HW119907   2.104   3.017   0.960  0.5420  0.2950  1.2593
 2815SOL    HW219908   2.011   3.062   0.863 -2.4813  0.4219  1.5319
 2816SOL     OW19909   1.139   4.406   5.629  0.0975 -0.3881 -0.3323
 2816SOL    HW119910   1.167   4.462   5.701 -2.2845  1.8671 -1.1696
 2816SOL    HW219911   1.068   4.461   5.596  1.6400  1.7911 -0.0439
 2817SOL     OW19912   2.827   3.318   8.997 -0.0339 -0.2250  0.0548
 2817SOL    HW119913   2.839   3.252   8.929  2.1900 -0.6145  0.8079
 2817SOL    HW219914   2.827   3.256   9.070  1.9358 -0.9462 -0.5435
 2818SOL     OW19915   1.084   0.225  10.725  0.2940 -0.0593 -0.5812
 2818SOL    HW119916   1.026   0.241  10.800  0.0386  4.1436 -1.6576
 2818SOL    HW219917   1.119   0.313  10.710  1.0124  0.1871  2.5523
 2819SOL     OW19918   2.247   4.431  12.579 -0.1538  0.3445 -0.3609
 2819SOL    HW119919   2.222   4.421  12.487  1.5937 -3.3477 -0.4182
 2819SOL    HW219920   2.218   4.347  12.613 -0.5663  0.2240 -1.0108
 2820SOL     OW19921   3.240   2.562  15.882 -0.4053  0.1083  0.2987
 2820SOL    HW119922   3.282   2.551  15.797 -1.8862 -0.8114 -0.3191
 2820SOL    HW219923   3.273   2.648  15.908  0.2998 -0.5743  1.6351
 2821SOL     OW19924   0.914   3.700   2.503 -0.0147  0.2892  0.4374
 2821SOL    HW119925   0.893   3.782   2.459  0.9070  1.2552  1.7799
 2821SOL    HW219926   0.843   3.642   2.473  0.1202  0.9776 -1.1991
 2822SOL     OW19927   0.832   2.050   7.272 -0.1183 -0.6403 -0.2239
 2822SOL    HW119928   0.800   2.116   7.211 -0.6933  0.6690  1.5001
 2822SOL    HW219929   0.761   2.044   7.335  0.8780  0.2596  0.9791
 2823SOL     OW19930   1.786   2.481  17.411  0.0370  0.2342 -0.2967
 2823SOL    HW119931   1.725   2.411  17.391 -0.4989  0.5804  0.1243
 2823SOL    HW219932   1.835   2.482  17.329 -0.0035 -2.2286 -0.3364
 2824SOL     OW19933   4.589   0.932  10.805 -0.1354  0.6055 -0.3356
 2824SOL    HW119934   4.629   1.016  10.783 -0.7004  1.0427  0.3263
 2824SOL    HW219935   4.658   0.866  10.810 -0.5318  0.2095 -0.0962
 2825SOL     OW19936   3.344   3.700  13.998 -0.8882  0.0519  0.2449
 2825SOL    HW119937   3.264   3.652  14.017 -1.6463  1.1377 -0.1948
 2825SOL    HW219938   3.299   3.784  13.987  0.2940  0.5791 -0.5589
 2826SOL     OW19939   4.201   2.859   0.319 -0.1459  0.2140  0.2229
 2826SOL    HW119940   4.287   2.894   0.343 -1.0775  2.2631  0.5627
 2826SOL    HW219941   4.159   2.837   0.403 -2.3419  1.1294 -0.6355
 2827SOL     OW19942   1.091   1.271   1.967 -0.0375  0.5594 -0.2140
 2827SOL    HW119943   1.014   1.247   1.916  0.6385  0.7740 -1.3346
 2827SOL    HW219944   1.073   1.365   1.972 -1.3280  0.3775 -1.4290
 2828SOL     OW19945   4.529   4.010   9.959  0.3567  0.7363 -0.1230
 2828SOL    HW119946   4.622   4.000   9.980 -0.1345  1.9413  2.6080
 2828SOL    HW219947   4.537   4.055   9.875 -1.2479  1.4998  0.1205
 2829SOL     OW19948   2.200   2.660   4.152 -0.4462  0.5049 -0.1415
 2829SOL    HW119949   2.271   2.655   4.088 -0.2919 -2.3221  0.2430
 2829SOL    HW219950   2.226   2.586   4.207 -0.8966 -0.4098 -1.1526
 2830SOL     OW19951   0.793   1.798   7.779  0.0439 -0.7729 -0.6686
 2830SOL    HW119952   0.872   1.746   7.795 -1.5212 -1.7557  3.8914
 2830SOL    HW219953   0.765   1.819   7.868  0.1913  1.2449 -1.1072
 2831SOL     OW19954   1.153   3.088   0.455  0.5643 -0.3050  0.5240
 2831SOL    HW119955   1.198   3.053   0.532 -0.2794  2.7316  2.3956
 2831SOL    HW219956   1.127   3.172   0.491 -2.4416 -0.5334 -1.1585
 2832SOL     OW19957   1.288   4.396   9.252  0.3742  0.4145 -0.1126
 2832SOL    HW119958   1.225   4.328   9.231  1.3229  0.0374 -1.7783
 2832SOL    HW219959   1.325   4.365   9.334 -1.5674 -0.3861  0.4591
 2833SOL     OW19960   4.223   1.377   5.046  0.4641 -0.3775 -0.2284
 2833SOL    HW119961   4.181   1.418   5.122  0.1665 -0.5821 -0.2812
 2833SOL    HW219962   4.265   1.454   5.008 -1.0685  0.1640 -0.8377
 2834SOL     OW19963   3.292   3.289   3.723 -0.3769 -0.1381 -0.3046
 2834SOL    HW119964   3.229   3.346   3.767  1.1724  1.9745 -0.8459
 2834SOL    HW219965   3.341   3.253   3.798  2.0284  3.8813  0.0460
 2835SOL     OW19966   1.334   3.431   1.737  0.2349  0.4196  0.3324
 2835SOL    HW119967   1.400   3.500   1.722 -0.8382  1.4594  0.3964
 2835SOL    HW219968   1.319   3.402   1.647  1.4703  0.5694  0.0733
 2836SOL     OW19969   2.395   3.501  11.614 -0.0296 -0.0763 -0.0278
 2836SOL    HW119970   2.323   3.440  11.600  0.0209  0.2944 -1.8485
 2836SOL    HW219971   2.432   3.526  11.529  1.3015 -0.6212  0.3849
 2837SOL     OW19972   4.647   3.201   9.255  0.0873 -0.0383  0.5191
 2837SOL    HW119973   4.600   3.225   9.335 -1.9713 -0.4643 -0.5730
 2837SOL    HW219974   4.582   3.198   9.185  1.8003 -0.9928 -1.0326
 2838SOL     OW19975   4.725   3.543   4.035 -0.2664 -0.0366  0.0833
 2838SOL    HW119976   4.665   3.497   3.977  0.9525 -1.5144  0.0002
 2838SOL    HW219977   0.079   3.495   4.030 -0.3174 -0.3941  2.7427
 2839SOL     OW19978   1.654   0.312  13.955 -0.1258 -0.0504 -0.1228
 2839SOL    HW119979   1.683   0.367  14.028 -1.6901  0.7331 -0.0882
 2839SOL    HW219980   1.612   0.242  14.004 -0.2897  2.8327  3.8744
 2840SOL     OW19981   0.575   0.965   0.068 -0.0973 -0.2818 -0.2556
 2840SOL    HW119982   0.650   1.011   0.105 -0.1708  0.5333 -1.1137
 2840SOL    HW219983   0.609   0.875   0.065 -2.0035 -0.9711 -1.4524
 2841SOL     OW19984   4.171   0.553  17.522  0.2293 -0.3892  0.4837
 2841SOL    HW119985   4.172   0.481  17.585  2.9939 -0.5988  0.2424
 2841SOL    HW219986   4.255   0.591  17.549 -0.4037 -0.5310  2.6263
 2842SOL     OW19987   0.448   1.366   3.876 -0.3413 -0.1005 -0.5568
 2842SOL    HW119988   0.449   1.422   3.798 -2.4383 -0.3283 -0.7439
 2842SOL    HW219989   0.390   1.291   3.864  1.3739 -1.7325  1.3012
 2843SOL     OW19990   1.216   1.662   3.289  0.6506 -0.2250 -0.4628
 2843SOL    HW119991   1.206   1.757   3.275  1.5572 -0.4438 -2.5599
 2843SOL    HW219992   1.192   1.656   3.381 -0.2443 -0.9513 -0.7445
 2844SOL     OW19993   1.472   3.378   4.675 -0.3291 -0.1607  0.2361
 2844SOL    HW119994   1.473   3.364   4.581  1.6605 -0.2006  0.2608
 2844SOL    HW219995   1.534   3.449   4.688 -0.9496  0.1565  1.4800
 2845SOL     OW19996   1.125   4.506   6.538  0.2084  0.3585  0.7774
 2845SOL    HW119997   1.065   4.557   6.484 -0.1099 -0.7715  0.0570
 2845SOL    HW219998   1.150   4.576   6.599 -3.3317  1.7471  0.6331
 2846SOL     OW19999   1.973   0.059   0.565  0.1342  0.3495 -0.1342
 2846SOL    HW120000   2.053   0.094   0.605  1.3049 -0.8507 -1.4271
 2846SOL    HW220001   1.924   0.044   0.646  2.4808  0.6602  1.3349
 2847SOL     OW20002   2.476   0.743   9.835  0.0635  0.1448  0.0573
 2847SOL    HW120003   2.475   0.836   9.810 -1.3779  0.2143  0.3508
 2847SOL    HW220004   2.531   0.711   9.764 -1.1800  0.8025 -1.2270
 2848SOL     OW20005   4.538   3.968   8.374  0.1744 -0.8341 -0.0080
 2848SOL    HW120006   4.446   3.950   8.389  0.9130 -3.8057  0.9269
 2848SOL    HW220007   4.558   3.880   8.343  1.7821 -0.7924  0.9034
 2849SOL     OW20008   1.481   1.347   4.137 -0.1341  0.2827  0.2593
 2849SOL    HW120009   1.538   1.413   4.175  2.2121 -0.0680 -2.6527
 2849SOL    HW220010   1.397   1.392   4.138 -0.3535 -0.0756 -1.7634
 2850SOL     OW20011   0.072   1.307   1.975  0.3253  0.5221  0.3849
 2850SOL    HW120012   4.718   1.269   2.007  0.5574 -0.4474 -0.1600
 2850SOL    HW220013   0.033   1.339   1.893  2.3438 -2.6186 -1.8158
 2851SOL     OW20014   0.730   3.473   2.401  0.3629  0.3632 -0.3506
 2851SOL    HW120015   0.642   3.510   2.386  0.7390  1.3579 -0.1153
 2851SOL    HW220016   0.716   3.392   2.353  0.9764 -0.5248  0.9553
 2852SOL     OW20017   4.185   2.900   5.087 -0.1316  0.1348 -0.2807
 2852SOL    HW120018   4.275   2.867   5.088  0.2970  1.4070  2.1388
 2852SOL    HW220019   4.199   2.995   5.083 -1.7064  0.3653 -0.3176
 2853SOL     OW20020   0.212   0.737   9.616 -0.3836  0.3326 -0.1456
 2853SOL    HW120021   0.240   0.689   9.694 -1.1602 -0.5009 -0.3793
 2853SOL    HW220022   0.230   0.826   9.648 -1.0442 -0.2437  1.8214
 2854SOL     OW20023   3.535   4.381  10.923  0.0161  0.3483 -0.0887
 2854SOL    HW120024   3.465   4.339  10.873  1.4006 -3.6259  1.2863
 2854SOL    HW220025   3.606   4.318  10.909  0.1147 -0.0501  2.3099
 2855SOL     OW20026   4.065   3.775   0.721 -0.3556 -0.4811 -0.1501
 2855SOL    HW120027   4.045   3.683   0.705  0.6444 -0.8826  0.8647
 2855SOL    HW220028   4.151   3.757   0.759  0.0730  3.3400  0.7692
 2856SOL     OW20029   1.246   2.990   0.679 -0.0222 -0.2225  0.0954
 2856SOL    HW120030   1.222   2.908   0.724  0.4562  0.8358  2.3052
 2856SOL    HW220031   1.313   3.010   0.745 -0.8067 -0.4430  0.9634
 2857SOL     OW20032   2.053   4.350   5.830 -0.7270 -0.3690  0.2535
 2857SOL    HW120033   2.091   4.284   5.888  1.2228  1.2135  0.7920
 2857SOL    HW220034   1.962   4.321   5.824 -1.0646  0.6586  0.3370
 2858SOL     OW20035   1.945   0.867  16.946  0.4881 -0.0613  0.4327
 2858SOL    HW120036   2.019   0.807  16.953 -0.0166 -0.5775  1.3892
 2858SOL    HW220037   1.909   0.867  17.035  0.9684 -3.2564  0.6307
 2859SOL     OW20038   4.149   3.924   3.936  0.5791 -0.1154 -0.2495
 2859SOL    HW120039   4.056   3.939   3.917  0.5577 -0.2892 -0.2840
 2859SOL    HW220040   4.184   4.001   3.892 -0.2971 -0.0704 -0.8655
 2860SOL     OW20041   2.844   2.576  11.061  0.0211  0.2328 -0.0672
 2860SOL    HW120042   2.860   2.659  11.107  0.5886 -0.5891  1.2154
 2860SOL    HW220043   2.757   2.552  11.094 -0.1986  1.4363  0.2375
 2861SOL     OW20044   4.133   1.092   3.647  0.5143  0.0631 -0.3998
 2861SOL    HW120045   4.071   1.087   3.575  1.7425 -0.9030 -1.3858
 2861SOL    HW220046   4.081   1.087   3.727 -2.3790  0.0393 -2.2940
 2862SOL     OW20047   0.893   0.766   3.845 -0.2829  0.1412 -0.1813
 2862SOL    HW120048   0.809   0.742   3.884 -0.7840 -2.1051 -2.6205
 2862SOL    HW220049   0.872   0.832   3.778 -1.0534  0.4750  0.3887
 2863SOL     OW20050   1.468   2.319   4.166  0.1346 -0.4329  0.1877
 2863SOL    HW120051   1.384   2.347   4.129  0.9091  3.3293  1.3554
 2863SOL    HW220052   1.451   2.350   4.255  0.5209  0.8517 -0.1940
 2864SOL     OW20053   3.289   4.654   9.484 -0.7001  0.3444  0.0073
 2864SOL    HW120054   3.224   4.627   9.419 -0.8080 -1.0446  0.6846
 2864SOL    HW220055   3.260   0.016   9.490  0.3519  0.6104  1.1187
 2865SOL     OW20056   4.275   2.510   8.047 -0.2473 -0.5551  0.0137
 2865SOL    HW120057   4.247   2.542   8.132  1.1380 -0.7431  0.5422
 2865SOL    HW220058   4.258   2.417   8.059  0.0438 -0.5777  0.2584
 2866SOL     OW20059   0.213   4.025   3.560 -0.5264 -0.3172  0.3939
 2866SOL    HW120060   0.122   4.038   3.532 -0.5562 -1.5542 -0.1098
 2866SOL    HW220061   0.207   3.985   3.647  2.9736  2.5037  1.9267
 2867SOL     OW20062   1.269   0.108   5.463 -0.0533  0.2720 -0.0355
 2867SOL    HW120063   1.257   0.200   5.441  1.3372  0.2195 -0.9747
 2867SOL    HW220064   1.312   0.072   5.386  0.7670 -1.5382  1.2652
 2868SOL     OW20065   2.122   0.456   1.783 -0.2955  0.2811  0.1571
 2868SOL    HW120066   2.211   0.443   1.815 -0.1798 -0.1424 -0.3390
 2868SOL    HW220067   2.107   0.541   1.824  1.1849 -0.8589  3.0587
 2869SOL     OW20068   4.044   4.531  17.508 -0.0985 -0.2358  0.1898
 2869SOL    HW120069   3.970   4.483  17.471  2.5238 -2.7871 -1.7176
 2869SOL    HW220070   4.021   4.520  17.601  4.1191  2.3476  1.5614
 2870SOL     OW20071   0.279   2.665  16.238 -0.1935 -0.0207 -0.2553
 2870SOL    HW120072   0.233   2.747  16.255 -2.0566 -0.6610 -2.1322
 2870SOL    HW220073   0.293   2.685  16.145  1.9916  1.0267  0.3021
 2871SOL     OW20074   3.969   0.184   3.332  0.0781  0.0733 -0.2966
 2871SOL    HW120075   3.977   0.132   3.412 -0.7610  0.5660  0.0962
 2871SOL    HW220076   4.041   0.243   3.354  0.3431 -1.0405  1.8521
 2872SOL     OW20077   3.023   1.667   6.499 -0.8818  1.3040  0.2665
 2872SOL    HW120078   2.982   1.586   6.468 -0.9848  0.8399  1.6177
 2872SOL    HW220079   3.088   1.688   6.432 -0.9320  1.5479  0.2929
 2873SOL     OW20080   4.597   3.722   7.908  0.2001 -0.0156 -0.8025
 2873SOL    HW120081   4.676   3.689   7.866  0.9318  0.2059  0.3929
 2873SOL    HW220082   4.628   3.774   7.983  1.0056  1.1361 -1.9240
 2874SOL     OW20083   3.543   2.177   7.240  0.2483 -0.3030 -0.0204
 2874SOL    HW120084   3.465   2.225   7.212 -0.9348 -2.1757  0.0881
 2874SOL    HW220085   3.579   2.236   7.306  1.9107 -0.5922 -0.6490
 2875SOL     OW20086   0.206   2.692  15.109 -0.0307 -0.1361  0.2500
 2875SOL    HW120087   0.166   2.649  15.033  0.0066 -0.4008  0.3808
 2875SOL    HW220088   0.274   2.735  15.058 -2.8226  2.1838 -1.5568
 2876SOL     OW20089   0.547   0.658   7.068  0.6194 -0.0651 -0.4162
 2876SOL    HW120090   0.453   0.656   7.047  0.2434 -0.1900  1.2711
 2876SOL    HW220091   0.565   0.726   7.003 -3.0145  1.8642  0.5666
 2877SOL     OW20092   0.331   2.016  17.224 -0.0838 -0.5862 -0.2524
 2877SOL    HW120093   0.424   2.037  17.235 -0.2424  0.0123 -0.0252
 2877SOL    HW220094   0.304   2.104  17.197  1.4454 -0.3418 -0.9971
 2878SOL     OW20095   1.330   1.760  11.101 -0.0727  0.4609 -0.3157
 2878SOL    HW120096   1.357   1.749  11.010 -1.8178 -1.2993 -0.6318
 2878SOL    HW220097   1.399   1.711  11.146 -1.3993 -1.3069 -0.1806
 2879SOL     OW20098   3.286   1.869  14.083  0.0137 -0.0722 -0.2498
 2879SOL    HW120099   3.354   1.838  14.142  1.0559 -0.0010 -1.4112
 2879SOL    HW220100   3.268   1.780  14.052 -2.1687  0.0013  0.8081
 2880SOL     OW20101   4.101   4.631  13.033  0.3385 -0.2525 -0.1530
 2880SOL    HW120102   4.121   4.707  12.978  1.1354  0.2644  0.8514
 2880SOL    HW220103   4.179   4.577  13.034  0.1463 -0.5848 -2.5934
 2881SOL     OW20104   2.319   0.419   6.188 -0.0519 -0.3103 -0.4773
 2881SOL    HW120105   2.341   0.383   6.273 -0.7929 -1.1809 -0.6640
 2881SOL    HW220106   2.237   0.463   6.210  0.3640  1.2860 -2.0813
 2882SOL     OW20107   3.900   4.589   3.568  0.1733  0.1676  0.2191
 2882SOL    HW120108   3.866   4.602   3.656 -3.3937  1.1370 -1.3270
 2882SOL    HW220109   3.956   4.668   3.567 -0.9221  0.9325 -0.7283
 2883SOL     OW20110   0.973   1.448  17.573 -0.5718 -0.4837  0.2020
 2883SOL    HW120111   1.029   1.372  17.584  1.9135  1.4532  0.7933
 2883SOL    HW220112   1.015   1.505  17.638 -0.6392 -2.5952  2.0973
 2884SOL     OW20113   4.619   1.654   6.295  0.0147  0.1796 -0.2948
 2884SOL    HW120114   4.706   1.668   6.257  0.6938  0.0016  1.1571
 2884SOL    HW220115   4.603   1.736   6.342 -0.4168 -0.8274  1.3402
 2885SOL     OW20116   0.298   1.279   9.238 -0.1211 -0.2749 -0.1800
 2885SOL    HW120117   0.205   1.256   9.237 -0.4111  0.9460 -0.8411
 2885SOL    HW220118   0.311   1.267   9.333  1.3602 -0.5106 -0.4022
 2886SOL     OW20119   1.254   2.352   4.771 -0.1947 -0.6376 -0.5836
 2886SOL    HW120120   1.291   2.266   4.752  1.0068 -0.6606  1.7999
 2886SOL    HW220121   1.192   2.364   4.700 -1.1881  0.3268  0.4433
 2887SOL     OW20122   2.078   2.737   5.609  0.2427  0.1283  0.3776
 2887SOL    HW120123   2.099   2.646   5.631  1.3765 -0.0380 -1.3546
 2887SOL    HW220124   2.120   2.794   5.673  2.6039  0.9051 -1.8992
 2888SOL     OW20125   3.719   3.318  16.387  0.0206  0.2102  0.2497
 2888SOL    HW120126   3.640   3.359  16.353  1.6628  0.7954 -2.8083
 2888SOL    HW220127   3.786   3.386  16.379  0.6562 -0.4905 -0.3974
 2889SOL     OW20128   1.660   2.732   5.363  0.1841  0.0583 -0.5962
 2889SOL    HW120129   1.736   2.774   5.403 -1.1948  0.8884  1.1311
 2889SOL    HW220130   1.700   2.684   5.290 -1.2809 -1.2002 -0.5790
 2890SOL     OW20131   0.840   0.961   3.650  0.7070 -0.1420 -0.2450
 2890SOL    HW120132   0.873   1.047   3.676  1.4012 -0.2131 -0.9139
 2890SOL    HW220133   0.889   0.950   3.569 -0.5985 -0.7853 -0.9589
 2891SOL     OW20134   4.388   2.154   8.709  0.0139  0.1969 -0.0964
 2891SOL    HW120135   4.321   2.199   8.760 -0.2437 -0.3594  0.0574
 2891SOL    HW220136   4.451   2.124   8.774  0.0971 -1.9100 -1.1399
 2892SOL     OW20137   1.108   3.184   6.187 -0.4713 -0.2195 -0.2231
 2892SOL    HW120138   1.036   3.156   6.243 -0.4590 -0.5234 -0.3595
 2892SOL    HW220139   1.068   3.271   6.184  2.1729  1.0049  0.1123
 2893SOL     OW20140   3.222   1.752   3.484 -0.7299  0.2904  0.6944
 2893SOL    HW120141   3.139   1.734   3.442 -0.1287 -1.7719  0.4031
 2893SOL    HW220142   3.281   1.757   3.409 -1.8737 -0.7388 -0.2510
 2894SOL     OW20143   2.274   4.508   5.229  0.1961 -0.3804  0.1262
 2894SOL    HW120144   2.225   4.585   5.203  0.3631 -1.0510 -2.1714
 2894SOL    HW220145   2.295   4.512   5.323 -0.2993  2.2179  0.1076
 2895SOL     OW20146   1.417   2.465   6.581 -0.4562  0.2454  0.0673
 2895SOL    HW120147   1.332   2.502   6.603  0.5029  1.4957  1.6882
 2895SOL    HW220148   1.465   2.514   6.648 -1.5619 -2.2816  2.6890
 2896SOL     OW20149   0.579   3.296  10.593 -0.2994 -0.2071  0.5808
 2896SOL    HW120150   0.568   3.255  10.679  1.5510  1.3671  1.5583
 2896SOL    HW220151   0.485   3.291  10.576 -0.2340  0.3265  0.0769
 2897SOL     OW20152   4.607   0.231   9.722  0.5564 -0.5357  0.6734
 2897SOL    HW120153   4.677   0.275   9.674 -0.5389 -0.6116 -0.9824
 2897SOL    HW220154   4.641   0.243   9.811  2.4026  2.0360 -0.3785
 2898SOL     OW20155   1.224   4.158   7.360  0.0321  0.4247  0.3705
 2898SOL    HW120156   1.151   4.139   7.301  1.9568 -2.4217 -1.0933
 2898SOL    HW220157   1.258   4.240   7.323  1.4270 -0.4180 -0.2083
 2899SOL     OW20158   1.944   3.620  14.607  0.9487  0.3775 -0.3083
 2899SOL    HW120159   2.004   3.672  14.659  0.6703  1.3689 -0.9883
 2899SOL    HW220160   1.988   3.535  14.610  0.2986  0.0800  0.9111
 2900SOL     OW20161   0.126   0.061   4.770 -0.3489 -0.3064 -0.0173
 2900SOL    HW120162   0.076   4.709   4.778  0.3665 -0.6729  0.8851
 2900SOL    HW220163   0.098   0.098   4.687  1.4837  2.6915  0.6598
 2901SOL     OW20164   0.519   1.639   3.194  0.1271 -0.5821 -0.1755
 2901SOL    HW120165   0.575   1.677   3.262  0.0131  0.3563 -0.5973
 2901SOL    HW220166   0.494   1.556   3.235  0.8452 -0.4237  0.5797
 2902SOL     OW20167   0.745   3.338  16.602  0.4255 -0.0207 -0.1763
 2902SOL    HW120168   0.697   3.278  16.660 -0.7503  1.1062  0.0206
 2902SOL    HW220169   0.721   3.293  16.521 -3.2658  1.6120 -0.0236
 2903SOL     OW20170   4.320   2.054   6.755  0.4070  0.2841  0.0583
 2903SOL    HW120171   4.245   1.994   6.756 -0.8328  1.8279 -1.1913
 2903SOL    HW220172   4.319   2.097   6.840  1.9821  3.6125 -1.6234
 2904SOL     OW20173   0.068   0.949   0.830  0.1003  0.3680 -0.2600
 2904SOL    HW120174   4.724   0.937   0.892  0.7264  1.5654  0.6974
 2904SOL    HW220175   0.030   1.015   0.771 -1.2496 -0.5507 -0.4331
 2905SOL     OW20176   3.316   4.450   4.482  0.4767  0.1436  0.4750
 2905SOL    HW120177   3.327   4.357   4.462  0.3885  0.8933 -2.9853
 2905SOL    HW220178   3.345   4.454   4.573  0.7510 -0.4140  0.4125
 2906SOL     OW20179   1.030   4.653  13.534 -0.6466  0.1562 -0.1973
 2906SOL    HW120180   1.015   4.661  13.628 -0.2160  0.1486 -0.1275
 2906SOL    HW220181   0.966   4.586  13.512 -1.5226  1.5410 -1.8727
 2907SOL     OW20182   3.602   1.792   8.356  0.1871 -0.2819 -0.1952
 2907SOL    HW120183   3.524   1.747   8.324 -1.8205  1.1375  2.7293
 2907SOL    HW220184   3.570   1.849   8.426  1.1600  0.6483 -0.4899
 2908SOL     OW20185   1.170   1.457   5.658  0.4691 -0.0331  0.1321
 2908SOL    HW120186   1.174   1.467   5.753  2.1028  1.6352 -0.1053
 2908SOL    HW220187   1.168   1.542   5.613 -1.9806 -1.0303 -1.5932
 2909SOL     OW20188   1.406   1.855   6.235 -0.0052  0.0495 -0.2107
 2909SOL    HW120189   1.333   1.855   6.296 -2.1383  1.5623 -2.7784
 2909SOL    HW220190   1.476   1.831   6.295 -0.8558  1.8486  1.4756
 2910SOL     OW20191   0.084   0.109  16.152  0.7914 -0.2574 -0.3860
 2910SOL    HW120192   0.071   0.094  16.058  1.9545 -2.8107 -0.1280
 2910SOL    HW220193   0.162   0.162  16.137  1.8787 -1.6193  0.5103
 2911SOL     OW20194   2.900   4.269  13.849  0.5462  0.2994  0.1012
 2911SOL    HW120195   2.855   4.237  13.772  0.6474 -0.2945  0.2910
 2911SOL    HW220196   2.993   4.246  13.843  0.5556  0.3309  0.1254
 2912SOL     OW20197   2.624   2.786  15.340  0.0483  0.4105 -0.4454
 2912SOL    HW120198   2.541   2.833  15.342  0.7392  1.6170 -0.0298
 2912SOL    HW220199   2.593   2.705  15.300 -0.9576  1.1924 -1.2411
 2913SOL     OW20200   0.396   0.694   2.977 -0.0795 -0.0007 -0.3836
 2913SOL    HW120201   0.479   0.658   3.007 -0.1296  0.7583  0.6297
 2913SOL    HW220202   0.387   0.775   3.027 -0.9915 -0.5436  0.3338
 2914SOL     OW20203   4.283   0.194   8.054 -0.2018  0.2864 -0.0984
 2914SOL    HW120204   4.344   0.145   7.999 -2.0470 -1.0211 -0.9911
 2914SOL    HW220205   4.329   0.259   8.107  1.4814  1.1437 -2.5817
 2915SOL     OW20206   1.694   3.921   6.793  0.7427  0.7227 -0.1717
 2915SOL    HW120207   1.655   3.921   6.706  0.9783 -1.3904 -0.2835
 2915SOL    HW220208   1.769   3.868   6.766  0.1754 -0.6845  1.0364
 2916SOL     OW20209   4.594   0.034  12.454 -0.5830 -0.0660  0.2608
 2916SOL    HW120210   4.507   0.026  12.417 -1.2515  1.1759  1.5251
 2916SOL    HW220211   4.577   0.115  12.503  1.0547  0.5368 -0.1634
 2917SOL     OW20212   1.542   1.287   8.755 -0.1740  0.5969  0.4900
 2917SOL    HW120213   1.590   1.278   8.836 -0.2875  0.0825  0.4957
 2917SOL    HW220214   1.530   1.382   8.754  0.6472  0.7007  1.3050
 2918SOL     OW20215   3.279   2.801   5.739 -0.1158  0.2341  0.5196
 2918SOL    HW120216   3.249   2.782   5.650 -1.4943  0.8854  0.8360
 2918SOL    HW220217   3.226   2.742   5.792 -1.5476  0.2587 -0.8748
 2919SOL     OW20218   0.347   1.851  10.129 -0.0101  0.0782 -0.2059
 2919SOL    HW120219   0.348   1.896  10.213  0.7560  0.8462 -0.6187
 2919SOL    HW220220   0.373   1.920  10.067  3.0628 -0.2152  0.7123
 2920SOL     OW20221   3.277   0.008   3.630  0.4015  0.3295 -0.0718
 2920SOL    HW120222   3.272   0.059   3.711 -1.6861  1.8666 -1.1768
 2920SOL    HW220223   3.310   0.073   3.569  0.0028  0.2513 -0.3673
 2921SOL     OW20224   2.560   1.665   7.632 -0.2848 -0.0957  0.2290
 2921SOL    HW120225   2.595   1.710   7.555 -0.4354 -0.7100 -0.1981
 2921SOL    HW220226   2.471   1.659   7.599  0.4614 -1.0027 -1.6245
 2922SOL     OW20227   2.401   1.927  13.933 -0.0052  0.2965  0.2460
 2922SOL    HW120228   2.339   1.975  13.878  1.1575  0.4881 -0.9116
 2922SOL    HW220229   2.458   2.001  13.952 -0.3792  0.8904 -0.9307
 2923SOL     OW20230   0.115   2.758   3.825 -0.3413 -0.0224  0.2891
 2923SOL    HW120231   0.165   2.811   3.887  0.5058  0.3582 -0.7260
 2923SOL    HW220232   0.160   2.676   3.844  0.7783  0.2964 -0.9711
 2924SOL     OW20233   0.134   0.331   4.227  0.0600  0.4264 -0.1563
 2924SOL    HW120234   0.215   0.339   4.177  0.5578 -0.2190  0.5489
 2924SOL    HW220235   0.133   0.413   4.276 -1.5368  1.1029 -1.3142
 2925SOL     OW20236   0.728   3.359   6.907  0.0738 -0.1428 -0.3093
 2925SOL    HW120237   0.785   3.283   6.898 -0.0820 -0.2888 -0.0474
 2925SOL    HW220238   0.757   3.411   6.832 -2.4680  0.7742 -0.6540
 2926SOL     OW20239   2.522   0.725  10.389 -0.4850 -0.2109  0.2720
 2926SOL    HW120240   2.497   0.636  10.415 -0.8901 -0.1581  0.0680
 2926SOL    HW220241   2.441   0.768  10.418 -0.2312 -0.4650  1.3423
 2927SOL     OW20242   0.566   0.914  16.071  0.4199  0.3084 -0.1055
 2927SOL    HW120243   0.576   1.008  16.084  0.9747  0.2061  0.2254
 2927SOL    HW220244   0.517   0.888  16.149  2.1800 -2.2167  0.1581
 2928SOL     OW20245   2.498   1.392  13.420 -0.1648  0.0162  0.3422
 2928SOL    HW120246   2.590   1.401  13.443 -0.7509  0.4386  2.4828
 2928SOL    HW220247   2.486   1.482  13.389 -0.7687  0.4362  1.8262
 2929SOL     OW20248   4.294   2.525  16.698  0.1541 -0.3270 -0.2656
 2929SOL    HW120249   4.247   2.543  16.779 -0.6813 -1.8468 -0.4061
 2929SOL    HW220250   4.312   2.615  16.669  0.4944 -0.3999 -0.2741
 2930SOL     OW20251   3.802   1.787   7.981 -0.2427  0.0147  0.5579
 2930SOL    HW120252   3.816   1.748   8.067 -1.3864 -1.0524  0.2586
 2930SOL    HW220253   3.787   1.878   8.005 -1.6737 -0.2500  0.6498
 2931SOL     OW20254   0.151   0.558   1.467  0.2825 -0.7188 -0.0985
 2931SOL    HW120255   0.160   0.538   1.560  0.5997 -3.4072 -0.6956
 2931SOL    HW220256   0.109   0.475   1.442 -2.1961  0.3396  0.5098
 2932SOL     OW20257   0.152   4.209   7.794  0.3302 -0.6322 -0.2350
 2932SOL    HW120258   0.062   4.239   7.787 -0.5029 -2.3008  3.5931
 2932SOL    HW220259   0.170   4.244   7.881  1.6863 -2.0866  0.0674
 2933SOL     OW20260   0.137   2.915   8.634 -0.0747  0.0975  0.3883
 2933SOL    HW120261   0.210   2.975   8.618 -1.1125  1.9566  2.5998
 2933SOL    HW220262   0.055   2.962   8.616  1.5668  2.6391 -0.5468
 2934SOL     OW20263   1.828   4.705   0.775  0.0430  0.0073 -0.2876
 2934SOL    HW120264   1.742   4.668   0.796  0.1156 -0.7984 -1.3907
 2934SOL    HW220265   1.875   4.646   0.833  0.7462  2.4218  1.5985
 2935SOL     OW20266   3.862   3.213   7.259  0.7456 -0.6527 -0.0582
 2935SOL    HW120267   3.902   3.260   7.333 -0.8205  2.5767 -1.2825
 2935SOL    HW220268   3.811   3.274   7.205 -0.1198 -0.0853  1.3830
 2936SOL     OW20269   2.379   3.795   2.496 -0.4016 -0.1494  0.7432
 2936SOL    HW120270   2.327   3.749   2.430  1.7489  0.8069 -1.6345
 2936SOL    HW220271   2.413   3.869   2.445 -0.0764  1.0673  2.7519
 2937SOL     OW20272   1.805   1.644   0.317 -0.0294  0.1122 -0.4892
 2937SOL    HW120273   1.806   1.650   0.413  1.6041 -2.0106 -0.3818
 2937SOL    HW220274   1.862   1.719   0.305 -1.5770  1.3541 -0.1540
 2938SOL     OW20275   3.341   4.495  15.307 -0.7199 -0.0985 -0.0988
 2938SOL    HW120276   3.309   4.498  15.397 -0.5133 -1.6490  0.0334
 2938SOL    HW220277   3.380   4.408  15.294 -1.7415 -0.7226  0.9461
 2939SOL     OW20278   1.595   3.488   0.220 -0.2170  0.2159 -0.3230
 2939SOL    HW120279   1.616   3.579   0.198  2.0964 -0.1503  0.3628
 2939SOL    HW220280   1.607   3.450   0.132 -1.4253  0.0493 -0.4140
 2940SOL     OW20281   2.017   3.072  11.085 -0.6364 -0.2241  0.1078
 2940SOL    HW120282   1.977   3.159  11.089  0.8504  0.3770  1.9721
 2940SOL    HW220283   2.073   3.091  11.010 -0.5940  0.9787  0.4366
 2941SOL     OW20284   2.022   4.488   2.747  0.0683  0.0082 -0.5660
 2941SOL    HW120285   2.080   4.413   2.748  0.2896  0.1965  1.3698
 2941SOL    HW220286   2.023   4.505   2.653 -1.7154  0.0067 -0.5895
 2942SOL     OW20287   3.086   0.611   8.567 -0.4402 -0.1523  0.0108
 2942SOL    HW120288   3.152   0.656   8.619  2.6247 -3.4474 -0.9601
 2942SOL    HW220289   3.035   0.557   8.627  0.0710  2.1863  2.5570
 2943SOL     OW20290   4.427   2.998  16.156 -0.1513 -0.3851 -0.0538
 2943SOL    HW120291   4.433   2.970  16.247  2.4075  0.7007  0.1079
 2943SOL    HW220292   4.360   2.933  16.135  1.2176 -0.9887 -2.5901
 2944SOL     OW20293   2.545   0.959  10.132  0.3865  0.0175  0.2854
 2944SOL    HW120294   2.455   0.961  10.099  0.8830  0.4866 -1.0614
 2944SOL    HW220295   2.542   0.991  10.222 -4.1229  0.2921  0.0476
 2945SOL     OW20296   4.720   3.853   4.032 -0.1267  0.0560 -0.1788
 2945SOL    HW120297   4.636   3.810   4.016  0.4067 -1.9220  2.2385
 2945SOL    HW220298   4.680   3.922   4.085  2.0619  0.8757  0.4191
 2946SOL     OW20299   0.490   3.824   8.135  0.0918 -0.3960  0.0374
 2946SOL    HW120300   0.547   3.877   8.191 -1.0466 -0.3456  1.1173
 2946SOL    HW220301   0.493   3.738   8.177  0.0164  0.6939  2.2312
 2947SOL     OW20302   2.191   2.668   6.476  1.1919  0.1062  0.3252
 2947SOL    HW120303   2.122   2.616   6.435  1.6377 -0.3381  0.1468
 2947SOL    HW220304   2.146   2.708   6.551  1.2541 -1.6779  1.3164
 2948SOL     OW20305   1.302   0.214   7.490 -0.3355  0.3325 -0.3603
 2948SOL    HW120306   1.288   0.305   7.464  2.9677  0.6891 -0.8921
 2948SOL    HW220307   1.373   0.218   7.554  1.2115  0.6008 -2.1268
 2949SOL     OW20308   1.564   3.277   4.950 -0.5418  0.4749 -0.0394
 2949SOL    HW120309   1.591   3.293   4.859  0.0466  1.3237  0.2803
 2949SOL    HW220310   1.491   3.339   4.961 -0.9068  0.0828 -0.2617
 2950SOL     OW20311   2.482   4.270   8.969 -0.0665 -0.4373  0.1380
 2950SOL    HW120312   2.432   4.189   8.954  1.3885 -0.9675 -1.8081
 2950SOL    HW220313   2.406   4.319   8.999  0.1270 -1.6028  2.5249
 2951SOL     OW20314   3.007   2.080  11.628  0.0671  0.1164  0.2065
 2951SOL    HW120315   3.064   2.026  11.681 -0.6513 -1.1059 -0.2612
 2951SOL    HW220316   2.998   2.020  11.554  0.4946  0.7751 -0.3790
 2952SOL     OW20317   2.260   1.033   6.772  0.0299  0.5254  0.5500
 2952SOL    HW120318   2.323   1.094   6.809  1.0219 -0.6523  0.8097
 2952SOL    HW220319   2.226   1.009   6.858 -1.4917 -1.1365 -0.5044
 2953SOL     OW20320   2.347   3.223   6.043 -0.0905 -0.2036 -0.1416
 2953SOL    HW120321   2.272   3.278   6.022 -1.2140 -1.4003  0.8209
 2953SOL    HW220322   2.404   3.298   6.061  1.9480 -1.8705  0.3774
 2954SOL     OW20323   3.752   0.339   3.636  0.5544  0.6714 -0.3393
 2954SOL    HW120324   3.732   0.249   3.611  0.0401  1.2757 -2.0888
 2954SOL    HW220325   3.724   0.332   3.728 -0.8848 -0.0832 -0.8219
 2955SOL     OW20326   1.837   4.676   2.780  0.0588  0.0823  1.0252
 2955SOL    HW120327   1.887   4.594   2.784 -0.2047 -0.1209  0.1955
 2955SOL    HW220328   1.750   4.636   2.773  0.6340 -1.0203  0.0517
 2956SOL     OW20329   2.567   3.793   1.543 -0.3124  0.3987  0.4127
 2956SOL    HW120330   2.502   3.853   1.506 -2.4062 -0.7271  2.3142
 2956SOL    HW220331   2.619   3.770   1.466 -1.3710 -1.8083  0.3673
 2957SOL     OW20332   2.685   0.627   3.498 -0.6345  0.2643 -0.2063
 2957SOL    HW120333   2.719   0.698   3.444  0.3688  0.0222  0.1127
 2957SOL    HW220334   2.649   0.679   3.570  1.5227  0.5194  0.6662
 2958SOL     OW20335   1.283   2.665   1.673 -0.3075  0.3556  0.0790
 2958SOL    HW120336   1.287   2.577   1.712 -3.2485  0.1945  0.0157
 2958SOL    HW220337   1.254   2.635   1.587 -1.2065 -0.3645  0.6373
 2959SOL     OW20338   1.411   0.831   0.311  0.2103  0.2347  0.1969
 2959SOL    HW120339   1.324   0.870   0.307  0.0211 -0.3307 -1.0884
 2959SOL    HW220340   1.442   0.872   0.392  0.6113  1.5866 -0.6367
 2960SOL     OW20341   4.703   4.042   2.524 -0.6378  0.4804  0.2607
 2960SOL    HW120342   4.618   4.072   2.492 -0.8643  1.7340  2.0865
 2960SOL    HW220343   4.690   4.075   2.613  1.1205 -0.5167  0.8774
 2961SOL     OW20344   0.473   3.976  13.588  0.1985 -0.1268 -0.2260
 2961SOL    HW120345   0.504   3.998  13.501 -0.6912  0.0982 -0.4890
 2961SOL    HW220346   0.448   3.888  13.559  1.1941 -0.7281  0.7638
 2962SOL     OW20347   0.279   1.048   7.949  0.1516  0.3769 -0.1276
 2962SOL    HW120348   0.210   1.017   8.008 -0.8382 -0.6343 -1.8185
 2962SOL    HW220349   0.226   1.078   7.875 -1.5163  0.9655  1.2873
 2963SOL     OW20350   2.993   2.043   3.982  0.1527  0.3163  0.2000
 2963SOL    HW120351   3.060   1.975   3.968 -0.3914 -0.0235 -0.7592
 2963SOL    HW220352   2.924   2.003   3.930 -2.3301 -0.1233  3.7749
 2964SOL     OW20353   3.318   3.326   5.861  0.0787 -0.0969 -0.2719
 2964SOL    HW120354   3.320   3.403   5.805 -2.7835  2.2910  2.9440
 2964SOL    HW220355   3.388   3.336   5.924  1.2024 -3.2041 -0.9850
 2965SOL     OW20356   0.494   4.527  16.387  0.1706 -0.1797 -0.1169
 2965SOL    HW120357   0.545   4.472  16.328 -0.8910  0.9749 -2.0862
 2965SOL    HW220358   0.413   4.476  16.387 -0.5474  0.9543  0.1097
 2966SOL     OW20359   0.966   3.400  14.573  0.6837  0.1565  0.0085
 2966SOL    HW120360   0.964   3.389  14.478  0.8134 -2.6934  0.3310
 2966SOL    HW220361   1.052   3.441  14.584  0.9400 -0.0875 -1.0604
 2967SOL     OW20362   2.425   3.264   0.618 -0.2043 -0.4194 -0.6523
 2967SOL    HW120363   2.470   3.333   0.667  0.8462 -3.0937  2.1839
 2967SOL    HW220364   2.441   3.179   0.659 -1.2077 -0.9431 -1.3361
 2968SOL     OW20365   0.261   3.476   3.958 -0.1370  0.0174 -0.0998
 2968SOL    HW120366   0.305   3.396   3.988 -2.0280 -0.4432  1.4561
 2968SOL    HW220367   0.324   3.516   3.898  0.2209 -0.2845  0.0811
 2969SOL     OW20368   2.474   4.443   9.909 -0.1882  0.0917 -0.1060
 2969SOL    HW120369   2.542   4.467   9.845  0.3861 -0.1004  0.4327
 2969SOL    HW220370   2.400   4.503   9.901 -1.3330 -0.7715  4.1014
 2970SOL     OW20371   3.046   1.532   3.026 -0.4127 -0.1649  0.0159
 2970SOL    HW120372   3.035   1.614   2.977 -2.4843 -0.1909  0.4689
 2970SOL    HW220373   2.977   1.474   2.994 -0.1618  0.5502 -1.8557
 2971SOL     OW20374   2.893   2.243   7.549 -0.2963  0.5196  0.0272
 2971SOL    HW120375   2.952   2.260   7.622 -0.1048 -2.0764  0.4931
 2971SOL    HW220376   2.911   2.149   7.536 -1.2656  0.4887 -1.1442
 2972SOL     OW20377   3.643   2.521   3.214 -0.2425 -0.3390  0.0908
 2972SOL    HW120378   3.682   2.588   3.158 -1.4635  0.0456 -0.2887
 2972SOL    HW220379   3.560   2.512   3.167  0.3655 -0.4533 -0.9622
 2973SOL     OW20380   2.662   4.463   5.022 -0.3770  0.0257 -0.3821
 2973SOL    HW120381   2.581   4.464   4.971 -0.3829  0.4951 -0.3715
 2973SOL    HW220382   2.647   4.538   5.081  1.9236  0.5707 -0.5128
 2974SOL     OW20383   4.424   3.577   6.754  0.5857  0.0184  0.4107
 2974SOL    HW120384   4.348   3.636   6.756  0.6143  0.0170  1.2831
 2974SOL    HW220385   4.401   3.512   6.820 -0.5998  1.0290  0.9972
 2975SOL     OW20386   3.924   0.658   8.992  0.3816 -0.3622 -0.2450
 2975SOL    HW120387   3.896   0.743   8.959  1.8895  1.0669  2.1560
 2975SOL    HW220388   4.006   0.681   9.036  0.1686 -0.2396  0.0872
 2976SOL     OW20389   3.345   0.555  15.596  0.5405 -0.3402  0.0040
 2976SOL    HW120390   3.405   0.554  15.522  0.5842 -0.8938  0.0499
 2976SOL    HW220391   3.314   0.465  15.585 -2.2337  0.7187 -1.0504
 2977SOL     OW20392   0.759   2.502   7.329  0.3947 -0.0258  0.2982
 2977SOL    HW120393   0.811   2.470   7.255 -2.0642 -2.0177 -0.5408
 2977SOL    HW220394   0.669   2.489   7.301  1.2960 -0.5950 -2.3281
 2978SOL     OW20395   3.307   1.311   9.296  0.0367  0.4182  0.1247
 2978SOL    HW120396   3.289   1.335   9.205 -0.1559  0.4610  0.1741
 2978SOL    HW220397   3.252   1.233   9.302  0.9904 -0.0331  2.9411
 2979SOL     OW20398   4.116   3.502   9.445  0.0325 -0.1329 -0.4560
 2979SOL    HW120399   4.162   3.418   9.454 -0.8817 -0.1235  3.9562
 2979SOL    HW220400   4.067   3.489   9.363 -1.6928 -2.3354  0.9310
 2980SOL     OW20401   3.397   0.037   5.868 -0.4007  0.9377 -0.7113
 2980SOL    HW120402   3.370   4.674   5.872 -1.3204  0.9894 -5.1031
 2980SOL    HW220403   3.391   0.072   5.957  1.7328 -2.4630  0.7492
 2981SOL     OW20404   1.732   4.385   4.154 -0.0596  0.3193 -0.1239
 2981SOL    HW120405   1.668   4.453   4.176 -0.3356 -0.4515  1.4665
 2981SOL    HW220406   1.757   4.394   4.062  0.0987 -0.1675 -0.1275
 2982SOL     OW20407   1.902   4.454   0.890  0.5127 -0.0306  0.2028
 2982SOL    HW120408   1.939   4.400   0.960 -0.0440  0.1641  0.6448
 2982SOL    HW220409   1.969   4.433   0.824  0.3550  1.5439 -0.4649
 2983SOL     OW20410   4.456   1.059   2.756 -0.6013  0.1996 -0.7149
 2983SOL    HW120411   4.371   1.085   2.720 -0.6726 -0.4859 -1.0562
 2983SOL    HW220412   4.501   1.143   2.764 -0.4100  0.0063  0.2183
 2984SOL     OW20413   3.520   4.390   6.217  0.5032  0.0825  0.6232
 2984SOL    HW120414   3.519   4.330   6.292 -0.3138  0.4289  0.8901
 2984SOL    HW220415   3.611   4.388   6.189  0.9074 -0.6329  2.0026
 2985SOL     OW20416   0.808   1.854   8.569  0.5856 -0.4025  0.1085
 2985SOL    HW120417   0.895   1.870   8.533  0.7108 -1.8260 -0.2150
 2985SOL    HW220418   0.819   1.893   8.656  1.6732  2.5619 -1.3602
 2986SOL     OW20419   4.004   0.848  17.350  0.1530  0.3922  0.1014
 2986SOL    HW120420   3.966   0.858  17.437  1.6755 -0.8612  0.9039
 2986SOL    HW220421   4.036   0.937  17.332  1.1071  0.0187 -0.0654
 2987SOL     OW20422   0.340   2.155   6.889  0.0144 -0.1433  0.0742
 2987SOL    HW120423   0.388   2.078   6.860  0.4797 -0.8075  2.5963
 2987SOL    HW220424   0.360   2.225   6.827  0.9790  0.1428  0.7128
 2988SOL     OW20425   4.473   0.151   0.284  0.4286  0.1997  0.8664
 2988SOL    HW120426   4.417   0.122   0.212  2.2749 -2.5807  0.5649
 2988SOL    HW220427   4.538   0.081   0.276 -1.2721 -1.2007 -0.6132
 2989SOL     OW20428   4.555   0.228   8.272 -0.1309 -0.5174  0.4279
 2989SOL    HW120429   4.564   0.133   8.265  0.5303 -0.2759 -2.1853
 2989SOL    HW220430   4.516   0.232   8.359  0.7840  0.6066  0.7737
 2990SOL     OW20431   4.529   2.869   9.442  0.2433 -0.3877  0.0094
 2990SOL    HW120432   4.468   2.905   9.506  0.5858  0.4378 -0.1328
 2990SOL    HW220433   4.588   2.816   9.496 -1.1673 -1.2076  0.7727
 2991SOL     OW20434   4.334   1.750   6.290 -0.2655  0.3936 -0.2032
 2991SOL    HW120435   4.388   1.786   6.360 -1.7483 -1.4473  1.8948
 2991SOL    HW220436   4.405   1.722   6.233 -0.9722 -2.7739  0.4467
 2992SOL     OW20437   2.533   2.467   7.488  0.6262 -0.0765 -0.3544
 2992SOL    HW120438   2.491   2.395   7.536  0.2012  0.8906  0.7345
 2992SOL    HW220439   2.483   2.471   7.407 -0.1864 -3.0273 -0.0143
 2993SOL     OW20440   0.564   2.266  16.984 -0.0677 -0.2232 -0.2271
 2993SOL    HW120441   0.596   2.196  17.040  0.6390 -1.1988 -1.8525
 2993SOL    HW220442   0.473   2.245  16.962 -0.3642 -0.3560  1.0889
 2994SOL     OW20443   1.829   1.020   2.309 -0.5669 -0.0703  0.3415
 2994SOL    HW120444   1.780   0.953   2.261  1.2272 -0.9804 -0.2247
 2994SOL    HW220445   1.758   1.084   2.315  0.9428  1.6263  0.1818
 2995SOL     OW20446   0.741   4.113   6.582  0.3867  0.0018  0.5761
 2995SOL    HW120447   0.651   4.125   6.551  0.7299 -0.0826 -0.4458
 2995SOL    HW220448   0.781   4.186   6.535  0.2858 -0.2358  0.1246
 2996SOL     OW20449   1.071   4.458   3.322 -0.0806  0.1864 -0.8545
 2996SOL    HW120450   1.122   4.494   3.394  0.9332 -2.9796  0.0257
 2996SOL    HW220451   0.989   4.508   3.319  2.2906  3.9088 -2.5695
 2997SOL     OW20452   3.033   2.576   7.392 -0.0782 -0.0536  0.1429
 2997SOL    HW120453   2.978   2.535   7.459 -2.6833  0.5175 -1.6801
 2997SOL    HW220454   3.018   2.512   7.323 -0.4522  1.1221 -0.8550
 2998SOL     OW20455   1.423   3.165  11.769  0.8791  0.0014  0.3018
 2998SOL    HW120456   1.372   3.211  11.836 -1.6503 -0.6166 -1.2006
 2998SOL    HW220457   1.506   3.143  11.812  0.2625  1.6691  2.3862
 2999SOL     OW20458   1.051   2.873   4.683 -0.4385  0.2409 -0.1258
 2999SOL    HW120459   0.993   2.814   4.730 -0.4025 -1.3544 -2.0895
 2999SOL    HW220460   1.001   2.955   4.684  1.6082  1.4988  0.9311
 3000SOL     OW20461   1.389   1.693   9.336  0.0784  1.0169 -0.0374
 3000SOL    HW120462   1.464   1.640   9.366  0.8271  0.4071 -2.9832
 3000SOL    HW220463   1.324   1.676   9.404  0.4776 -2.9924 -0.6362
 3001SOL     OW20464   4.469   0.351   3.029  0.5882 -0.0873 -0.2402
 3001SOL    HW120465   4.517   0.359   3.111  0.1568  1.5233 -0.1347
 3001SOL    HW220466   4.380   0.332   3.059  1.4833 -1.9840  1.1794
 3002SOL     OW20467   1.258   1.499   4.211 -0.5337  0.6577  0.2586
 3002SOL    HW120468   1.295   1.534   4.292  0.6677 -1.5760  0.6737
 3002SOL    HW220469   1.214   1.575   4.173  1.2091  1.0617 -0.9276
 3003SOL     OW20470   0.390   0.404   4.067 -0.2174  0.5994  0.2048
 3003SOL    HW120471   0.426   0.349   3.997 -0.4208  3.9443 -2.5407
 3003SOL    HW220472   0.341   0.463   4.009 -0.4874 -1.7342 -1.9736
 3004SOL     OW20473   4.395   1.337  12.455 -0.4814  0.2102  0.1904
 3004SOL    HW120474   4.455   1.322  12.382 -0.1921  0.3043  0.4092
 3004SOL    HW220475   4.452   1.376  12.521 -0.4813  1.1444 -0.3539
 3005SOL     OW20476   3.116   3.865   8.915 -0.1019  0.1973  0.1920
 3005SOL    HW120477   3.033   3.845   8.872  0.1152 -1.7203  0.6411
 3005SOL    HW220478   3.096   3.909   8.997  0.3827 -0.2964  0.5769
 3006SOL     OW20479   0.229   4.535   4.952  0.4299 -0.4196  0.2642
 3006SOL    HW120480   0.293   4.515   4.883  1.1661  2.7393  0.0329
 3006SOL    HW220481   0.255   4.626   4.963 -0.3580 -0.1581  0.0040
 3007SOL     OW20482   2.364   2.938   6.699 -0.1237 -0.6184 -0.5515
 3007SOL    HW120483   2.301   2.914   6.767  0.6558 -2.5947 -0.5235
 3007SOL    HW220484   2.431   2.980   6.753  0.9668 -0.4091 -2.0652
 3008SOL     OW20485   4.651   0.022   3.352  0.1367  0.4526  0.2130
 3008SOL    HW120486   4.667   4.667   3.396 -0.6238 -0.2942 -0.9177
 3008SOL    HW220487   4.701   0.002   3.272  1.4664  0.3221  1.0710
 3009SOL     OW20488   2.881   3.469  16.416  0.5177  0.1550  0.8613
 3009SOL    HW120489   2.872   3.561  16.390 -0.7481 -0.6104 -1.3561
 3009SOL    HW220490   2.798   3.428  16.395  0.4084  0.8530 -0.0415
 3010SOL     OW20491   1.837   2.247  12.743 -0.0555 -0.3722 -0.7519
 3010SOL    HW120492   1.878   2.265  12.828  1.8703  0.2337 -1.8245
 3010SOL    HW220493   1.913   2.246  12.686 -0.7061  0.2193 -1.6191
 3011SOL     OW20494   1.285   1.596   5.148  0.0927 -0.0898  0.4345
 3011SOL    HW120495   1.215   1.557   5.200  0.1944 -0.4707  0.2873
 3011SOL    HW220496   1.311   1.527   5.087 -1.7375  0.4247 -0.9092
 3012SOL     OW20497   1.211   1.403   8.215 -0.0461  0.0039  0.7372
 3012SOL    HW120498   1.136   1.343   8.208  0.8582 -1.0985  0.4130
 3012SOL    HW220499   1.176   1.468   8.276 -0.1340  1.4663 -0.8697
 3013SOL     OW20500   3.428   3.405   8.453  0.2893 -0.3432  0.5598
 3013SOL    HW120501   3.339   3.438   8.441  0.4621 -0.5249 -1.3007
 3013SOL    HW220502   3.475   3.488   8.444 -0.7955  0.0344 -1.8499
 3014SOL     OW20503   0.920   3.061   4.131 -0.0764  0.1012  0.3703
 3014SOL    HW120504   0.871   2.991   4.173  2.6901 -1.3237  1.1978
 3014SOL    HW220505   0.927   3.022   4.044 -1.0499 -0.9093  0.7413
 3015SOL     OW20506   2.772   3.620   5.655 -0.4501  0.3101 -0.4191
 3015SOL    HW120507   2.863   3.607   5.681 -0.5484 -0.1348 -0.3060
 3015SOL    HW220508   2.753   3.700   5.705  1.5284 -0.8351  2.1456
 3016SOL     OW20509   1.247   1.121   9.878  0.3342 -0.0958  0.2106
 3016SOL    HW120510   1.302   1.142   9.953  0.1338 -0.4253  0.4497
 3016SOL    HW220511   1.255   1.026   9.884  0.7547 -0.0252  0.7615
 3017SOL     OW20512   4.177   0.375   8.312  0.3670  0.3605  0.3245
 3017SOL    HW120513   4.099   0.334   8.350 -1.0683  2.7693  0.0412
 3017SOL    HW220514   4.168   0.466   8.341 -0.5949  0.5172 -0.4746
 3018SOL     OW20515   1.312   2.973   5.574 -0.1736 -0.4426 -0.3913
 3018SOL    HW120516   1.383   2.964   5.510  2.0070  0.8762  1.8716
 3018SOL    HW220517   1.361   3.034   5.629  1.7535 -2.9712  0.6966
 3019SOL     OW20518   1.287   2.771   6.631  0.4240 -0.4059 -0.4604
 3019SOL    HW120519   1.202   2.805   6.661 -0.1046 -1.2912 -0.9423
 3019SOL    HW220520   1.256   2.764   6.540 -1.0362 -0.6301  0.0604
 3020SOL     OW20521   2.257   0.287  15.501 -0.5748  0.3917 -0.2435
 3020SOL    HW120522   2.169   0.252  15.486 -0.6056  0.5524 -0.4426
 3020SOL    HW220523   2.317   0.224  15.461 -0.4094  0.2704  0.1961
 3021SOL     OW20524   1.956   1.488   1.499  0.7072 -0.1940 -0.1077
 3021SOL    HW120525   1.872   1.481   1.456  0.9241  0.3272 -0.6145
 3021SOL    HW220526   1.979   1.397   1.482 -1.0120 -0.8206  0.8928
 3022SOL     OW20527   1.149   2.185   4.530  0.3257 -0.0372 -0.4703
 3022SOL    HW120528   1.171   2.165   4.439 -1.7919 -0.9481 -0.7778
 3022SOL    HW220529   1.127   2.278   4.521 -1.0205 -0.2411  0.8407
 3023SOL     OW20530   2.950   1.564   3.652 -0.1486  0.1324  0.3541
 3023SOL    HW120531   2.983   1.568   3.562  0.0174 -0.5200  0.3889
 3023SOL    HW220532   2.995   1.643   3.684 -0.6806  0.8549 -0.6625
 3024SOL     OW20533   4.492   1.241  11.391 -0.2685  0.5854  0.2023
 3024SOL    HW120534   4.566   1.187  11.416 -0.6316 -0.4093 -0.8627
 3024SOL    HW220535   4.509   1.254  11.298 -0.9627 -2.3327 -0.3232
 3025SOL     OW20536   3.358   1.026   9.593 -0.7051  0.9230 -0.4102
 3025SOL    HW120537   3.287   1.089   9.607  0.0457  1.9481 -1.1555
 3025SOL    HW220538   3.374   0.979   9.674 -1.4151  1.0527 -0.1986
 3026SOL     OW20539   4.074   0.538   4.787  0.5029 -0.3494  0.8270
 3026SOL    HW120540   4.109   0.567   4.703 -0.4764  2.0275  1.2463
 3026SOL    HW220541   4.087   0.618   4.839 -1.0312  1.4475 -1.5858
 3027SOL     OW20542   3.652   0.154   7.511  0.0413 -0.1163  0.6289
 3027SOL    HW120543   3.670   0.121   7.599  1.0061  0.0351  0.4984
 3027SOL    HW220544   3.689   0.091   7.450  2.0258 -0.6343  2.3461
 3028SOL     OW20545   4.038   3.653   7.026  0.6014 -0.0456  0.4690
 3028SOL    HW120546   4.059   3.568   7.064 -2.1109 -1.0185 -0.2284
 3028SOL    HW220547   4.036   3.702   7.108 -1.0844 -1.0813  1.0210
 3029SOL     OW20548   1.776   2.855   6.786  0.6797 -1.0233 -0.0740
 3029SOL    HW120549   1.774   2.855   6.882  1.2994 -1.2251 -0.0616
 3029SOL    HW220550   1.687   2.842   6.753 -0.3273  2.0853  1.4243
 3030SOL     OW20551   3.749   3.434   7.099 -0.0343  0.2881 -0.0668
 3030SOL    HW120552   3.661   3.429   7.061 -0.3833  4.6127  0.2232
 3030SOL    HW220553   3.739   3.508   7.159 -1.2148  0.7023 -0.7739
 3031SOL     OW20554   4.712   0.177   7.699  0.3165 -0.3569 -0.5254
 3031SOL    HW120555   4.624   0.146   7.720 -0.0365 -0.1298 -1.6708
 3031SOL    HW220556   4.722   0.145   7.610 -2.4304  1.3414 -1.4529
 3032SOL     OW20557   2.034   1.633  13.162 -0.0900  0.2194  0.3107
 3032SOL    HW120558   2.111   1.593  13.123  0.5132  0.5792  1.1444
 3032SOL    HW220559   1.982   1.568  13.209 -2.6390  1.7647 -0.3615
 3033SOL     OW20560   4.404   1.866   8.935 -0.6047 -0.2580 -0.4932
 3033SOL    HW120561   4.478   1.849   8.993 -1.4872 -0.3826  0.5903
 3033SOL    HW220562   4.354   1.925   8.991  1.1043 -1.0005  1.8495
 3034SOL     OW20563   4.364   0.072   3.366  0.0478 -0.1433  0.3761
 3034SOL    HW120564   4.455   0.103   3.371 -0.4843  1.6372 -1.1284
 3034SOL    HW220565   4.378   4.719   3.318  0.8025 -0.8635  1.8021
 3035SOL     OW20566   2.201   0.692   4.797 -0.4190  0.1041 -0.1390
 3035SOL    HW120567   2.269   0.681   4.864 -0.4454 -0.4368 -0.1970
 3035SOL    HW220568   2.124   0.676   4.851  0.6559 -0.9404  1.0766
 3036SOL     OW20569   0.994   3.684   0.682  0.3592  0.3285  0.2522
 3036SOL    HW120570   0.995   3.592   0.710  0.9488 -0.4363 -2.3043
 3036SOL    HW220571   0.908   3.679   0.640  1.5743 -0.8107 -2.0868
 3037SOL     OW20572   2.049   0.524   8.507  0.4837 -0.6132 -0.2456
 3037SOL    HW120573   2.031   0.616   8.490  0.1515 -1.0366 -2.1129
 3037SOL    HW220574   2.019   0.511   8.597  0.3284  0.6909 -0.1100
 3038SOL     OW20575   3.304   3.638   0.382 -0.1016  0.1960 -0.1052
 3038SOL    HW120576   3.218   3.678   0.391  0.2260  0.7581  0.5686
 3038SOL    HW220577   3.279   3.567   0.324  0.0363  0.1581 -0.1196
 3039SOL     OW20578   0.804   4.257   2.070 -0.8543 -0.5305 -0.1155
 3039SOL    HW120579   0.830   4.165   2.074 -0.8063 -0.4971  0.3570
 3039SOL    HW220580   0.756   4.259   1.987 -0.9152  1.7356 -0.0190
 3040SOL     OW20581   1.902   0.315  14.508 -0.1668  0.1068  0.2271
 3040SOL    HW120582   1.854   0.256  14.450  0.1144 -1.7544  1.8777
 3040SOL    HW220583   1.826   0.352  14.554 -0.8216 -0.4749 -0.3839
 3041SOL     OW20584   0.969   1.150   6.532 -0.1298 -0.0245  0.4197
 3041SOL    HW120585   0.985   1.191   6.617 -1.1455 -0.7151  0.9393
 3041SOL    HW220586   0.936   1.220   6.476  3.9981  0.8443 -0.9646
 3042SOL     OW20587   2.225   2.500   1.129 -0.3909  0.3830  0.4877
 3042SOL    HW120588   2.298   2.501   1.066 -0.9022  0.7776 -0.0967
 3042SOL    HW220589   2.263   2.477   1.214 -1.6243 -1.0302  0.6500
 3043SOL     OW20590   1.707   3.278  15.987  0.1765 -0.1829 -0.1217
 3043SOL    HW120591   1.748   3.290  15.901 -0.2192  1.6958 -0.0677
 3043SOL    HW220592   1.757   3.346  16.034  1.4862  2.2087 -4.8907
 3044SOL     OW20593   0.107   0.818   3.077 -0.0126 -0.5261 -0.3281
 3044SOL    HW120594   0.076   0.865   3.154 -0.0936  1.7348 -1.7472
 3044SOL    HW220595   0.110   0.888   3.012  4.9075 -0.4708 -0.0556
 3045SOL     OW20596   0.966   0.814   9.943 -0.2212  0.2966 -0.7335
 3045SOL    HW120597   0.964   0.718   9.951 -2.4906  0.3115 -1.2129
 3045SOL    HW220598   0.903   0.828  10.013  1.2864  2.9215  0.1013
 3046SOL     OW20599   2.116   1.256   6.539  0.0291  0.0130  0.5202
 3046SOL    HW120600   2.106   1.336   6.487 -3.0864 -2.1318 -2.1413
 3046SOL    HW220601   2.183   1.294   6.596  0.7018 -0.8488  0.2925
 3047SOL     OW20602   1.916   2.957   2.831 -0.3853 -0.0792 -0.2917
 3047SOL    HW120603   1.886   2.868   2.811 -0.8613  0.1989 -0.8328
 3047SOL    HW220604   1.879   2.965   2.918 -0.8046 -0.3256 -0.4450
 3048SOL     OW20605   0.936   3.947   1.923 -0.0068 -0.2698 -0.0214
 3048SOL    HW120606   0.917   3.951   2.017 -0.7238 -1.9158 -0.0902
 3048SOL    HW220607   0.856   3.900   1.899 -0.9435  1.1046  0.3509
 3049SOL     OW20608   1.803   1.841   4.428  0.0233  0.3602  0.3892
 3049SOL    HW120609   1.792   1.829   4.334 -0.3254 -0.9275  0.5883
 3049SOL    HW220610   1.870   1.908   4.442 -0.0707  0.5096  0.1253
 3050SOL     OW20611   0.918   4.133   4.434  0.6263 -0.0052 -0.2686
 3050SOL    HW120612   0.929   4.126   4.340 -1.1146 -1.2703 -0.3831
 3050SOL    HW220613   0.884   4.221   4.453  2.4019  0.8351 -0.9977
 3051SOL     OW20614   4.345   4.187  12.414  0.1662 -0.1817 -0.3533
 3051SOL    HW120615   4.356   4.280  12.392  0.8126 -0.5411 -1.5669
 3051SOL    HW220616   4.400   4.184  12.492 -2.2403  1.3910  1.4258
 3052SOL     OW20617   0.707   3.941   5.841  0.4686 -0.4168  0.0367
 3052SOL    HW120618   0.794   3.902   5.841  0.4417 -0.4587 -0.7326
 3052SOL    HW220619   0.647   3.868   5.859 -0.9930  1.1963  1.8052
 3053SOL     OW20620   4.198   4.528   4.805 -0.2662 -0.1023 -0.3870
 3053SOL    HW120621   4.236   4.441   4.792 -2.6876 -1.3414  0.8892
 3053SOL    HW220622   4.214   4.565   4.718 -0.6321  0.0989 -0.3667
 3054SOL     OW20623   1.633   0.907  13.615 -0.0569 -0.3743 -0.1482
 3054SOL    HW120624   1.577   0.844  13.570  0.1464 -0.4543 -0.2905
 3054SOL    HW220625   1.581   0.937  13.689  1.8483 -1.6035  1.7108
 3055SOL     OW20626   0.360   2.902   3.928  0.3010 -0.2204 -0.0982
 3055SOL    HW120627   0.314   2.980   3.897 -0.3428 -0.2670  0.7505
 3055SOL    HW220628   0.445   2.943   3.943 -1.3914  3.5503 -0.5681
 3056SOL     OW20629   3.456   0.399   5.874 -0.5755 -0.0121  0.3275
 3056SOL    HW120630   3.404   0.340   5.818 -2.2021  1.1809  0.5934
 3056SOL    HW220631   3.526   0.339   5.898 -1.8222 -1.9835 -0.9296
 3057SOL     OW20632   1.302   1.694   9.606 -0.2169 -0.2492  0.1842
 3057SOL    HW120633   1.288   1.684   9.700 -0.3806  1.1089  0.3084
 3057SOL    HW220634   1.366   1.765   9.613  0.3530 -0.8242  0.8390
 3058SOL     OW20635   3.653   3.430   3.870  0.5109 -0.1021  0.0283
 3058SOL    HW120636   3.666   3.413   3.777  0.7156  0.3066 -0.0196
 3058SOL    HW220637   3.562   3.460   3.875 -0.2902 -2.4689 -0.3259
 3059SOL     OW20638   4.671   3.345   0.970  0.2281  0.0437  0.1984
 3059SOL    HW120639   4.637   3.302   1.048 -0.3622 -0.1159 -0.1522
 3059SOL    HW220640   4.645   3.279   0.906 -0.3750  0.2757  0.2078
 3060SOL     OW20641   4.348   0.959   3.558  0.3281  0.3006  0.2375
 3060SOL    HW120642   4.273   1.013   3.584  2.3315  3.4195 -0.4977
 3060SOL    HW220643   4.374   1.014   3.484 -0.9258  1.8185  0.9307
 3061SOL     OW20644   2.531   0.789   9.005 -0.1586 -0.4423 -0.2997
 3061SOL    HW120645   2.449   0.780   8.955 -1.0482 -1.2645  1.3021
 3061SOL    HW220646   2.507   0.862   9.062 -0.0392 -1.2032  0.7267
 3062SOL     OW20647   4.416   0.299  10.794 -0.1150  0.2835  0.1270
 3062SOL    HW120648   4.467   0.307  10.713 -0.7636 -1.9876 -0.5245
 3062SOL    HW220649   4.341   0.258  10.751 -0.3326 -0.5792  1.3372
 3063SOL     OW20650   2.810   0.041  16.574  0.1886 -0.3072  0.6675
 3063SOL    HW120651   2.856   4.718  16.509  0.2865  2.8698 -1.7689
 3063SOL    HW220652   2.880   0.093  16.613  0.0786 -1.6290  2.6143
 3064SOL     OW20653   2.514   2.676   3.492 -0.0931  0.1559 -0.1716
 3064SOL    HW120654   2.546   2.737   3.558 -1.0413 -0.2965  0.7256
 3064SOL    HW220655   2.472   2.612   3.550  0.3073 -1.2384 -1.4359
 3065SOL     OW20656   2.222   2.263  16.511 -0.4014 -0.0614 -0.5949
 3065SOL    HW120657   2.138   2.231  16.478  0.0601 -2.2441  0.3223
 3065SOL    HW220658   2.262   2.179  16.533  0.8311  0.8621  0.6847
 3066SOL     OW20659   1.070   1.304   0.189 -0.5018 -0.0684  0.6103
 3066SOL    HW120660   1.079   1.377   0.127 -0.7073  0.9313  1.7476
 3066SOL    HW220661   1.094   1.347   0.271 -0.4885  1.5341 -0.2170
 3067SOL     OW20662   3.055   2.209   7.796  0.4248  0.1753  0.4135
 3067SOL    HW120663   3.108   2.158   7.734  0.8204  1.5810 -0.4188
 3067SOL    HW220664   3.060   2.153   7.873 -0.0064 -2.3772 -1.4065
 3068SOL     OW20665   4.652   3.569   4.286 -0.1141  0.1336  0.2396
 3068SOL    HW120666   4.675   3.548   4.195 -0.7382  2.0402 -0.3434
 3068SOL    HW220667   4.651   3.664   4.282 -0.3119  0.1779  1.3603
 3069SOL     OW20668   3.559   0.350   4.880  0.4071  0.4235  0.7532
 3069SOL    HW120669   3.489   0.309   4.931 -2.2284  3.5498 -0.3706
 3069SOL    HW220670   3.576   0.270   4.829 -0.4540  0.2638  0.7258
 3070SOL     OW20671   1.382   0.992   7.414  0.0139 -0.1118  0.1916
 3070SOL    HW120672   1.328   0.941   7.354 -0.8382 -0.5656  1.3509
 3070SOL    HW220673   1.470   0.962   7.393 -0.1027 -1.0182  0.9950
 3071SOL     OW20674   3.918   1.308  17.210  0.3176  0.2623  0.1188
 3071SOL    HW120675   3.934   1.322  17.117 -1.2122  0.6326 -0.0966
 3071SOL    HW220676   3.847   1.371  17.224 -1.5001 -2.1073  1.5827
 3072SOL     OW20677   1.192   4.549   3.091  0.3500  0.4375  0.1806
 3072SOL    HW120678   1.200   4.622   3.153  2.4428 -0.4755  0.9903
 3072SOL    HW220679   1.124   4.498   3.135  1.3928 -2.1210 -1.1786
 3073SOL     OW20680   2.286   0.397   2.950  0.3277 -0.4469  0.0091
 3073SOL    HW120681   2.312   0.404   3.041  1.3635 -0.0504 -0.3238
 3073SOL    HW220682   2.352   0.344   2.906  1.7168 -0.3722  2.0562
 3074SOL     OW20683   2.669   2.282  16.024  0.0693  0.1042 -0.7701
 3074SOL    HW120684   2.677   2.192  16.054 -0.7797  0.3963  0.3152
 3074SOL    HW220685   2.660   2.265  15.930  0.3919 -3.7596 -0.0895
 3075SOL     OW20686   0.228   0.297  16.671  0.0862  0.1959 -0.2169
 3075SOL    HW120687   0.160   0.276  16.734  0.3003  1.0464  0.3026
 3075SOL    HW220688   0.228   0.393  16.678 -1.8298  0.0736  1.4019
 3076SOL     OW20689   3.707   2.705   3.031  0.1881 -0.0040  0.6246
 3076SOL    HW120690   3.735   2.796   3.019  1.8279 -0.5716  0.2416
 3076SOL    HW220691   3.738   2.671   2.948 -1.3931 -1.7330  0.7468
 3077SOL     OW20692   0.646   1.363  13.343  0.1823  0.5654 -0.0204
 3077SOL    HW120693   0.568   1.377  13.289  0.9628  1.3221 -0.9553
 3077SOL    HW220694   0.657   1.268  13.339 -2.8208  0.2567 -0.6511
 3078SOL     OW20695   0.273   3.483   9.018 -1.0069  0.4059 -0.7424
 3078SOL    HW120696   0.203   3.423   9.045 -0.0227 -0.7367 -0.7542
 3078SOL    HW220697   0.248   3.560   9.068  0.8542 -1.0221  2.3620
 3079SOL     OW20698   1.021   1.101  10.052  0.3888 -0.1132  0.1193
 3079SOL    HW120699   0.927   1.111  10.035  0.0042 -1.9894  1.0973
 3079SOL    HW220700   1.065   1.126   9.970  0.1952  0.9823  0.3538
 3080SOL     OW20701   1.348   1.716   7.500  0.2604 -0.2496 -0.3450
 3080SOL    HW120702   1.321   1.790   7.445  0.3481 -0.1610 -0.2700
 3080SOL    HW220703   1.270   1.696   7.551  1.1138  0.1078  1.1251
 3081SOL     OW20704   2.065   0.603  12.065  0.8409  0.2907  0.3722
 3081SOL    HW120705   2.047   0.559  11.983  0.9114 -0.1806  0.6106
 3081SOL    HW220706   1.983   0.596  12.115  0.2058 -0.8687 -0.8416
 3082SOL     OW20707   0.057   4.237   8.958 -0.0209  0.5976 -0.4684
 3082SOL    HW120708   0.104   4.275   9.032 -0.9126  1.1961 -0.2073
 3082SOL    HW220709   0.070   4.142   8.964 -0.6473  0.4219 -1.7635
 3083SOL     OW20710   3.982   2.846   1.011  0.5916  0.0128  0.4917
 3083SOL    HW120711   4.026   2.929   1.025 -1.1309  1.2421 -1.3534
 3083SOL    HW220712   4.018   2.816   0.927  0.0379 -2.1217  1.0088
 3084SOL     OW20713   4.019   4.528   3.119 -0.1540 -0.4070  0.4176
 3084SOL    HW120714   4.012   4.521   3.024  0.6028  2.7399  0.1318
 3084SOL    HW220715   3.967   4.607   3.136 -0.0802 -0.2883  0.0886
 3085SOL     OW20716   1.243   4.135   8.440  0.5113  0.2937 -0.0443
 3085SOL    HW120717   1.317   4.077   8.424 -0.3166 -0.7104 -0.1472
 3085SOL    HW220718   1.265   4.169   8.527 -1.3981  1.8104 -0.1516
 3086SOL     OW20719   2.583   4.408   4.655 -0.2887 -0.3673  0.2797
 3086SOL    HW120720   2.676   4.432   4.653 -0.7338  1.2209 -1.2780
 3086SOL    HW220721   2.566   4.417   4.562  0.0076 -0.1219  0.2477
 3087SOL     OW20722   0.569   1.683   7.635 -0.4901 -0.2080  0.1907
 3087SOL    HW120723   0.497   1.671   7.698 -2.6221 -0.2960 -2.2541
 3087SOL    HW220724   0.643   1.691   7.695  0.5665 -2.6846 -0.7988
 3088SOL     OW20725   0.166   2.758   1.416 -0.1989  0.2791  0.5469
 3088SOL    HW120726   0.128   2.802   1.340  0.4881 -1.3010 -0.7047
 3088SOL    HW220727   0.094   2.769   1.477 -1.1300 -1.5839 -0.2197
 3089SOL     OW20728   0.623   0.901  14.004 -0.2838  0.4307  0.5707
 3089SOL    HW120729   0.554   0.908  14.070 -1.2465 -0.7210 -0.3079
 3089SOL    HW220730   0.699   0.889  14.061  0.8199  1.0778 -0.7412
 3090SOL     OW20731   2.533   4.361  11.140  0.1215  0.0547  0.2768
 3090SOL    HW120732   2.622   4.336  11.113 -0.4910 -1.5705 -0.1870
 3090SOL    HW220733   2.500   4.399  11.058 -1.2763 -1.6287  0.0647
 3091SOL     OW20734   0.024   4.640   3.125  0.4562 -0.3112  0.0239
 3091SOL    HW120735   0.024   4.599   3.038  0.7056  1.2348 -0.7123
 3091SOL    HW220736   0.091   4.589   3.170  1.1789  0.7625  0.1687
 3092SOL     OW20737   2.028   3.356   8.559  0.1722  0.4388 -0.8827
 3092SOL    HW120738   2.119   3.387   8.564  0.5813 -0.5643 -2.1048
 3092SOL    HW220739   1.984   3.428   8.602 -0.9668  0.1005 -1.4789
 3093SOL     OW20740   0.335   2.172   8.593 -0.0335 -0.2922  0.6009
 3093SOL    HW120741   0.425   2.180   8.623  0.2964  1.0981 -0.7664
 3093SOL    HW220742   0.346   2.199   8.502 -1.0604 -2.3125 -0.1350
 3094SOL     OW20743   3.878   2.853   9.716 -0.1012  0.7957  0.7159
 3094SOL    HW120744   3.902   2.847   9.808  1.9741  0.8199  0.1586
 3094SOL    HW220745   3.962   2.833   9.676 -1.0970 -0.6130 -0.6547
 3095SOL     OW20746   0.931   4.331  16.144 -0.0650 -0.0012  0.0828
 3095SOL    HW120747   0.969   4.309  16.059  0.0366  0.3327  0.0451
 3095SOL    HW220748   1.010   4.361  16.187  0.0431  1.7063 -1.3214
 3096SOL     OW20749   2.402   4.381  11.659  0.1902 -0.4286 -0.0308
 3096SOL    HW120750   2.491   4.411  11.642 -0.2921 -0.1645 -2.1960
 3096SOL    HW220751   2.364   4.343  11.579  1.1302  1.9763 -1.6259
 3097SOL     OW20752   3.736   3.541   0.479 -0.1875 -0.3932 -0.1171
 3097SOL    HW120753   3.742   3.460   0.429 -1.8491  0.7094 -2.1032
 3097SOL    HW220754   3.715   3.505   0.565 -0.0586  0.1508  0.1414
 3098SOL     OW20755   1.891   3.715  16.642 -0.6160 -0.0752 -0.0213
 3098SOL    HW120756   1.812   3.722  16.588 -0.6447  0.5356  0.0989
 3098SOL    HW220757   1.873   3.772  16.716  1.0521  1.8231 -1.0744
 3099SOL     OW20758   2.001   4.180   6.741  0.7733  0.8122 -0.6191
 3099SOL    HW120759   1.941   4.166   6.814  0.3031 -0.1891 -1.2095
 3099SOL    HW220760   2.047   4.097   6.733 -0.6520 -0.2012  1.5011
 3100SOL     OW20761   1.072   2.631   0.113  0.0916 -0.6907  0.2688
 3100SOL    HW120762   1.128   2.706   0.131 -0.4415 -0.4917  1.0482
 3100SOL    HW220763   1.001   2.680   0.072  0.4844 -1.0111 -0.8189
 3101SOL     OW20764   0.329   4.501  15.835 -0.4173 -0.2997  0.0172
 3101SOL    HW120765   0.337   4.486  15.741  0.4751  0.0712  0.0289
 3101SOL    HW220766   0.380   4.582  15.840  0.7221 -1.0839  1.0456
 3102SOL     OW20767   4.065   1.352   7.268  0.4914 -0.1340 -0.5135
 3102SOL    HW120768   4.102   1.322   7.350 -1.1862 -3.4357 -0.9752
 3102SOL    HW220769   4.138   1.328   7.210  1.1361 -0.5167  0.4693
 3103SOL     OW20770   4.425   2.628   8.979  0.6265  0.7990 -0.1062
 3103SOL    HW120771   4.372   2.705   9.004  1.3930  1.5629 -0.8649
 3103SOL    HW220772   4.391   2.565   9.043  2.7549 -1.5187 -1.2790
 3104SOL     OW20773   0.046   1.012   5.936  0.1127 -0.2936 -0.2867
 3104SOL    HW120774   0.046   1.069   6.013 -1.6569  0.1198 -0.5859
 3104SOL    HW220775   4.713   1.046   5.872 -0.3070  0.6655  0.6356
 3105SOL     OW20776   0.384   2.451   6.182  0.0845  0.7412  0.0546
 3105SOL    HW120777   0.318   2.509   6.220  0.7930  0.9135  1.0108
 3105SOL    HW220778   0.329   2.395   6.128  1.1156 -2.8928  2.7889
 3106SOL     OW20779   4.379   1.427   7.762  0.4974 -0.1121  0.0525
 3106SOL    HW120780   4.300   1.450   7.810  0.6608  0.7256 -0.0776
 3106SOL    HW220781   4.395   1.347   7.812 -1.0233 -0.2190  0.3668
 3107SOL     OW20782   3.126   1.485   5.008 -0.2772  0.3142 -0.1651
 3107SOL    HW120783   3.124   1.524   4.921 -0.8339  1.4234  0.3549
 3107SOL    HW220784   3.146   1.397   4.975  0.9057  0.1316  1.0416
 3108SOL     OW20785   3.175   1.536   5.583 -0.1752 -0.3338 -0.3568
 3108SOL    HW120786   3.270   1.528   5.569  0.0621  0.7779  0.6429
 3108SOL    HW220787   3.168   1.472   5.653  0.6113 -0.8281 -0.7238
 3109SOL     OW20788   1.400   3.253   6.795  0.0693 -0.0855 -0.0607
 3109SOL    HW120789   1.362   3.171   6.827 -0.5767 -0.0782 -0.8112
 3109SOL    HW220790   1.323   3.283   6.746  0.1799  1.1109  0.4869
 3110SOL     OW20791   3.205   3.738   3.899  0.0087  0.6024 -0.4039
 3110SOL    HW120792   3.181   3.667   3.840  0.3341 -0.6500  0.9795
 3110SOL    HW220793   3.125   3.766   3.945 -2.0608 -2.0693 -2.3586
 3111SOL     OW20794   1.269   2.266   9.671  0.2118 -0.0623 -0.6200
 3111SOL    HW120795   1.336   2.233   9.611 -1.5631 -1.1828 -1.9518
 3111SOL    HW220796   1.192   2.273   9.615 -0.2904  0.8510  0.2032
 3112SOL     OW20797   0.597   0.691   6.364  0.6145 -0.9229  0.2082
 3112SOL    HW120798   0.678   0.716   6.407  0.5362  0.6650 -0.5806
 3112SOL    HW220799   0.538   0.756   6.402 -0.1462 -0.9469 -0.9046
 3113SOL     OW20800   1.540   2.161   7.878 -0.2698  0.5001 -0.7358
 3113SOL    HW120801   1.464   2.130   7.829 -0.6132  2.3686 -1.3783
 3113SOL    HW220802   1.597   2.146   7.802  0.4895 -2.6018  0.4242
 3114SOL     OW20803   4.192   0.446   3.164  0.0315  0.3427  0.3769
 3114SOL    HW120804   4.207   0.499   3.087  0.5835  0.8065  0.8075
 3114SOL    HW220805   4.105   0.478   3.190 -0.5631 -0.6451 -0.3788
 3115SOL     OW20806   1.735   2.025   1.998  0.0505 -0.7047  0.4465
 3115SOL    HW120807   1.712   2.024   2.091  1.6171 -1.7776  0.8176
 3115SOL    HW220808   1.829   2.035   2.013  0.0297  1.6557 -0.9254
 3116SOL     OW20809   3.484   1.488   3.928 -0.3517  0.0033 -0.2078
 3116SOL    HW120810   3.487   1.522   3.838 -2.0812 -1.1073 -0.6826
 3116SOL    HW220811   3.417   1.422   3.914  1.0701 -1.6712  0.8577
 3117SOL     OW20812   0.589   4.655   2.571 -0.0637  0.0129  0.5811
 3117SOL    HW120813   0.653   4.722   2.550  0.5021 -0.5961  0.3520
 3117SOL    HW220814   0.519   4.717   2.591 -0.1227 -0.2396  1.1461
 3118SOL     OW20815   4.350   0.455   4.562  0.4333  0.0300 -0.2981
 3118SOL    HW120816   4.299   0.381   4.595  1.9850 -1.3895 -1.0288
 3118SOL    HW220817   4.395   0.499   4.634 -0.9481  1.0626 -0.0675
 3119SOL     OW20818   4.194   0.036   3.849  0.5378  0.3623  0.0473
 3119SOL    HW120819   4.131   0.101   3.880 -0.1369  0.2868 -1.1457
 3119SOL    HW220820   4.280   0.076   3.862  0.5036  1.0157 -1.7322
 3120SOL     OW20821   2.396   1.142  13.353  0.3690  0.3579 -0.1434
 3120SOL    HW120822   2.463   1.209  13.365  2.8213 -2.3300  1.0026
 3120SOL    HW220823   2.445   1.061  13.365 -0.1033  0.0486 -0.3164
 3121SOL     OW20824   0.576   1.475   2.322 -0.1894  0.1385 -0.0541
 3121SOL    HW120825   0.503   1.491   2.382  0.1325  0.8681  0.1372
 3121SOL    HW220826   0.599   1.566   2.303 -0.7676  0.0770 -1.0880
 3122SOL     OW20827   0.443   1.912   6.181 -0.1787  0.2163 -0.0309
 3122SOL    HW120828   0.442   1.958   6.097  0.0733  0.2368 -0.0234
 3122SOL    HW220829   0.409   1.986   6.232  1.1042  0.9030 -0.1700
 3123SOL     OW20830   0.803   2.522   4.499  0.0502  0.2013  0.3966
 3123SOL    HW120831   0.725   2.480   4.461  0.7829 -1.4910  0.7958
 3123SOL    HW220832   0.772   2.541   4.587 -1.2016 -1.6701  0.3818
 3124SOL     OW20833   1.507   4.114   5.312 -0.3425  0.0113 -0.3661
 3124SOL    HW120834   1.419   4.107   5.275 -0.0081  0.9354 -1.3276
 3124SOL    HW220835   1.561   4.066   5.249 -0.1791  1.3883 -1.2864
 3125SOL     OW20836   3.437   4.055   3.722  0.0789 -0.1405  0.1731
 3125SOL    HW120837   3.493   4.037   3.646 -0.0948 -0.8286  0.2129
 3125SOL    HW220838   3.495   4.028   3.793 -0.9571 -0.4322  0.9053
 3126SOL     OW20839   1.888   2.166  17.608 -0.1215  0.0323  0.1097
 3126SOL    HW120840   1.859   2.167  17.699  0.7513 -0.1543  0.3903
 3126SOL    HW220841   1.978   2.138  17.624 -0.0306 -0.2312 -0.8207
 3127SOL     OW20842   1.138   4.123  15.204 -0.0086 -0.0094  0.3059
 3127SOL    HW120843   1.114   4.152  15.292 -2.9040  2.5983 -1.3545
 3127SOL    HW220844   1.223   4.168  15.201  0.2903 -0.7764 -2.8395
 3128SOL     OW20845   2.588   4.124  12.946 -0.0775  0.3262 -0.6011
 3128SOL    HW120846   2.643   4.200  12.928 -0.9890  1.1523  0.0711
 3128SOL    HW220847   2.646   4.070  13.000  0.0482  0.0110 -1.0554
 3129SOL     OW20848   2.900   2.216   4.263  0.3876 -0.7687  0.4102
 3129SOL    HW120849   2.861   2.223   4.176  0.0070 -2.6410  0.4292
 3129SOL    HW220850   2.989   2.187   4.244  0.4824  0.6957 -1.3144
 3130SOL     OW20851   0.327   2.620   3.488  0.2585 -0.1556  0.2384
 3130SOL    HW120852   0.409   2.621   3.438 -0.1270 -0.3847 -0.3900
 3130SOL    HW220853   0.313   2.526   3.487 -0.9632  0.0063  1.5028
 3131SOL     OW20854   1.756   1.291  15.167 -0.2596  0.7094 -0.2813
 3131SOL    HW120855   1.682   1.350  15.178 -0.5189  0.3343 -0.0305
 3131SOL    HW220856   1.716   1.204  15.172  1.9253 -0.4379 -2.5974
 3132SOL     OW20857   0.237   2.616   2.609  0.3117 -0.0899 -0.5173
 3132SOL    HW120858   0.213   2.654   2.694  2.0653 -0.9773  0.3885
 3132SOL    HW220859   0.151   2.613   2.568  0.4845 -0.0633 -0.8772
 3133SOL     OW20860   3.128   3.369   3.338 -0.0685  0.0770  0.3789
 3133SOL    HW120861   3.071   3.294   3.355  0.5724 -0.9371 -1.8574
 3133SOL    HW220862   3.180   3.341   3.263 -1.8019 -0.3537 -0.6812
 3134SOL     OW20863   3.380   1.225   8.729 -0.5653  0.0681  0.0127
 3134SOL    HW120864   3.341   1.312   8.737  0.4948  0.5382  0.0794
 3134SOL    HW220865   3.341   1.211   8.643  1.8473 -1.2088 -0.8940
 3135SOL     OW20866   2.133   2.447   7.154 -0.0949 -0.6155 -0.2665
 3135SOL    HW120867   2.061   2.459   7.217  0.3847 -4.1596  0.9460
 3135SOL    HW220868   2.105   2.371   7.103 -1.3369 -0.7814  0.6401
 3136SOL     OW20869   3.700   4.058   1.947 -0.5911  1.1634  0.0663
 3136SOL    HW120870   3.616   4.098   1.972 -1.8157 -1.3531 -0.0218
 3136SOL    HW220871   3.762   4.117   1.989  0.3994 -0.0319  0.2886
 3137SOL     OW20872   2.292   2.485  16.254 -0.1581  0.1491  0.8257
 3137SOL    HW120873   2.196   2.483  16.249 -0.1180 -1.9210  0.9583
 3137SOL    HW220874   2.311   2.423  16.324  2.1802 -2.1161 -1.7961
 3138SOL     OW20875   1.498   3.845   9.972 -0.2540  0.4592 -0.2843
 3138SOL    HW120876   1.511   3.851  10.067  1.1315  0.1170 -0.4577
 3138SOL    HW220877   1.419   3.895   9.950 -0.2309  0.1755 -0.9983
 3139SOL     OW20878   2.756   1.024   8.452 -0.4690 -0.0579 -0.3516
 3139SOL    HW120879   2.831   0.975   8.419  0.4183  0.3672  1.0473
 3139SOL    HW220880   2.759   0.997   8.544  0.3738 -1.4195 -0.7846
 3140SOL     OW20881   2.484   1.658  13.413  0.2501  0.4839  0.8469
 3140SOL    HW120882   2.435   1.714  13.473  0.1292  0.6701  0.5753
 3140SOL    HW220883   2.574   1.691  13.421  0.4944 -0.1912  0.8680
 3141SOL     OW20884   0.638   4.173   1.811  0.8236  0.3370 -0.2025
 3141SOL    HW120885   0.600   4.260   1.807 -0.1154 -0.0916 -0.6434
 3141SOL    HW220886   0.566   4.116   1.841 -0.3698  0.5451 -2.6599
 3142SOL     OW20887   3.232   4.369   6.412 -0.3725  0.4334  0.4469
 3142SOL    HW120888   3.255   4.278   6.391  1.8125  1.1459 -0.2302
 3142SOL    HW220889   3.146   4.367   6.370 -1.3873 -0.9604  2.5490
 3143SOL     OW20890   3.521   3.164   0.652 -0.4193 -0.0836 -0.1449
 3143SOL    HW120891   3.446   3.224   0.652  0.6086  1.1892 -1.4941
 3143SOL    HW220892   3.527   3.143   0.745 -1.5346 -0.2633 -0.1134
 3144SOL     OW20893   1.901   3.649  14.363 -0.6322  0.3158  0.1236
 3144SOL    HW120894   1.935   3.641  14.452 -0.1589  0.9173 -0.0055
 3144SOL    HW220895   1.907   3.558  14.335  0.9544  0.8070 -1.1020
 3145SOL     OW20896   2.724   3.394   4.512 -0.2988 -0.0679 -0.1290
 3145SOL    HW120897   2.676   3.382   4.430 -1.6592  1.1660  0.4834
 3145SOL    HW220898   2.650   3.377   4.571 -0.0071  0.0599  0.2767
 3146SOL     OW20899   2.612   1.976   6.299  0.3615  0.2631  0.1757
 3146SOL    HW120900   2.525   1.949   6.328  0.9861  1.9528  3.6833
 3146SOL    HW220901   2.647   1.994   6.386 -0.1267 -0.3170  0.4906
 3147SOL     OW20902   1.350   2.538  11.439 -0.2364  0.2718  0.0287
 3147SOL    HW120903   1.360   2.450  11.473  0.9644 -0.3014 -1.8008
 3147SOL    HW220904   1.402   2.586  11.504 -1.0705  0.0861  0.8286
 3148SOL     OW20905   3.823   3.409   6.318 -0.5752  0.0542 -0.4706
 3148SOL    HW120906   3.736   3.374   6.334 -1.6104  1.9666 -1.9074
 3148SOL    HW220907   3.876   3.329   6.320  0.2280  0.6500  1.4414
 3149SOL     OW20908   2.563   3.825   3.729  0.5507  0.7982  0.0112
 3149SOL    HW120909   2.565   3.768   3.651 -0.9569 -1.3239  1.5198
 3149SOL    HW220910   2.649   3.811   3.767  0.7233  0.7867 -0.3854
 3150SOL     OW20911   4.307   2.755   3.789 -0.3795  0.5174 -0.6364
 3150SOL    HW120912   4.329   2.753   3.882 -0.9243  0.2058 -0.5117
 3150SOL    HW220913   4.225   2.707   3.774 -1.5612  2.4881 -0.4957
 3151SOL     OW20914   2.056   4.107  15.425  0.0550 -0.2334  0.3361
 3151SOL    HW120915   1.973   4.062  15.410  0.9934 -0.7462 -3.4842
 3151SOL    HW220916   2.054   4.181  15.364 -1.2049 -1.5399 -1.2208
 3152SOL     OW20917   3.717   2.939  10.038 -0.0611 -0.4355 -0.1232
 3152SOL    HW120918   3.674   2.996  10.102  0.7562  0.6359 -0.5229
 3152SOL    HW220919   3.688   2.976   9.955 -1.4009  1.0262  0.9756
 3153SOL     OW20920   2.874   4.472   4.052  0.3086  0.1107 -0.0153
 3153SOL    HW120921   2.919   4.455   3.970 -0.8724 -1.4994 -0.3283
 3153SOL    HW220922   2.934   4.432   4.115  1.2746  1.0502 -0.3439
 3154SOL     OW20923   2.995   0.972  15.177 -0.7151  0.2600  0.1360
 3154SOL    HW120924   3.035   0.886  15.187 -0.6379  0.1855 -0.8072
 3154SOL    HW220925   2.907   0.949  15.206 -1.1665 -0.1058 -1.5020
 3155SOL     OW20926   0.229   4.471  16.444 -0.1093 -0.2374 -0.0132
 3155SOL    HW120927   0.213   4.543  16.383 -0.5193  0.2358  0.6466
 3155SOL    HW220928   0.194   4.393  16.402 -0.2137 -0.2975  0.1849
 3156SOL     OW20929   2.993   2.206   6.060  0.4652 -0.2518 -0.5087
 3156SOL    HW120930   2.910   2.243   6.089  0.6192 -1.4148  1.4264
 3156SOL    HW220931   2.954   2.162   5.984  0.0572  0.1151 -0.5140
 3157SOL     OW20932   0.446   4.342  16.020  0.1146 -0.1884 -0.6152
 3157SOL    HW120933   0.424   4.420  15.969 -0.8908 -2.0717 -3.0681
 3157SOL    HW220934   0.515   4.310  15.962  0.6943  0.2602 -0.1703
 3158SOL     OW20935   1.750   1.581   4.482  0.3527  0.2216 -0.0307
 3158SOL    HW120936   1.771   1.674   4.484 -0.5799  0.4562 -1.5211
 3158SOL    HW220937   1.816   1.541   4.538 -0.4763  0.1893  0.9355
 3159SOL     OW20938   1.167   2.450   8.233  0.0763  0.0427 -0.0665
 3159SOL    HW120939   1.131   2.517   8.174 -0.2295  0.3289  0.4447
 3159SOL    HW220940   1.257   2.482   8.244 -0.9826  2.3380  1.9810
 3160SOL     OW20941   3.569   4.117   7.248 -0.3771 -0.5083  0.1608
 3160SOL    HW120942   3.528   4.202   7.264 -3.0714 -1.4831 -1.4257
 3160SOL    HW220943   3.582   4.108   7.153  0.6184 -0.5640  0.3082
 3161SOL     OW20944   1.018   0.001   8.469 -0.0728  0.4696 -0.2706
 3161SOL    HW120945   0.960   0.019   8.543 -1.7876 -1.8273 -1.0539
 3161SOL    HW220946   1.001   4.637   8.453  0.3029  0.1310  1.2973
 3162SOL     OW20947   1.532   3.402   2.374 -0.2850 -0.4279 -0.4358
 3162SOL    HW120948   1.576   3.381   2.292  2.0252  3.1075 -0.0919
 3162SOL    HW220949   1.463   3.458   2.337  2.3500  2.3927 -1.0585
 3163SOL     OW20950   3.301   4.228  11.126 -0.2088  0.6392 -0.0100
 3163SOL    HW120951   3.319   4.191  11.040  0.4628  2.1595 -0.5261
 3163SOL    HW220952   3.373   4.289  11.144  0.0782  0.0101  0.9589
 3164SOL     OW20953   1.630   1.766  15.092 -0.2657  0.1256  0.1080
 3164SOL    HW120954   1.725   1.756  15.092 -0.2693  0.0668  0.6679
 3164SOL    HW220955   1.614   1.694  15.030  0.5973 -0.4722  0.5733
 3165SOL     OW20956   1.946   1.585   3.242 -0.0750  0.0402 -0.2758
 3165SOL    HW120957   1.854   1.598   3.265 -0.3397 -1.9260 -0.2289
 3165SOL    HW220958   1.981   1.651   3.302  0.6790 -1.6748  1.1526
 3166SOL     OW20959   4.378   2.411   5.401  0.2077  0.1566 -0.1440
 3166SOL    HW120960   4.298   2.380   5.442  0.5486  0.8040  1.0025
 3166SOL    HW220961   4.338   2.456   5.326 -1.3972 -0.0737  0.5740
 3167SOL     OW20962   0.294   3.340   3.318 -0.4556  0.3634 -0.3137
 3167SOL    HW120963   0.281   3.263   3.262 -1.8318 -1.5635  2.6749
 3167SOL    HW220964   0.252   3.405   3.261 -1.4771  0.7912  0.9320
 3168SOL     OW20965   1.575   0.158  17.129 -0.5300 -0.0767 -0.1407
 3168SOL    HW120966   1.595   0.126  17.217 -3.3687 -1.8348 -0.1524
 3168SOL    HW220967   1.516   0.093  17.092 -0.9127  0.7290 -0.9456
 3169SOL     OW20968   4.157   3.136   6.621  0.2329 -0.3340  0.4317
 3169SOL    HW120969   4.206   3.072   6.672 -1.4747 -0.5593  1.8115
 3169SOL    HW220970   4.172   3.216   6.673 -0.5036  1.9187 -2.7961
 3170SOL     OW20971   1.946   4.061   3.117 -0.1506 -0.3574 -0.9436
 3170SOL    HW120972   1.986   4.015   3.042 -0.8253 -0.4353 -1.2620
 3170SOL    HW220973   1.984   4.148   3.112  1.2463 -1.0393 -2.3276
 3171SOL     OW20974   1.006   2.424   1.121 -0.0034  0.4882 -0.0403
 3171SOL    HW120975   1.099   2.429   1.144 -0.1960  1.6747  0.4939
 3171SOL    HW220976   0.976   2.514   1.136 -0.5416  0.7100 -2.4609
 3172SOL     OW20977   4.635   0.213  14.747  0.0830 -0.0852  0.3299
 3172SOL    HW120978   4.711   0.183  14.798  0.6772 -0.5484 -0.8377
 3172SOL    HW220979   4.675   0.254  14.670 -1.3001 -0.9568 -0.8468
 3173SOL     OW20980   1.180   1.503  16.825 -0.3785 -0.0281  0.7847
 3173SOL    HW120981   1.226   1.425  16.857 -1.9874 -0.5316  1.8664
 3173SOL    HW220982   1.237   1.563  16.874  0.6119  0.4237 -0.9271
 3174SOL     OW20983   2.155   2.994   9.623 -0.2373  0.0061 -0.5197
 3174SOL    HW120984   2.199   3.067   9.667  0.0771 -0.6987  0.3275
 3174SOL    HW220985   2.225   2.960   9.567  0.4620 -1.6574  1.3599
 3175SOL     OW20986   3.110   4.398   2.798 -0.3829 -1.1689 -0.2570
 3175SOL    HW120987   3.173   4.431   2.862 -2.5811 -0.2275  1.4197
 3175SOL    HW220988   3.137   4.449   2.722 -0.8437 -0.4883  0.0327
 3176SOL     OW20989   1.454   2.144   8.413  0.4205  0.4841 -0.2585
 3176SOL    HW120990   1.541   2.163   8.449  0.5773 -0.9965  0.1536
 3176SOL    HW220991   1.410   2.223   8.444 -0.0123  0.4320 -0.7407
 3177SOL     OW20992   2.010   2.991   9.911 -0.0956  0.2317 -0.5787
 3177SOL    HW120993   2.014   3.012   9.818 -1.1209 -1.3831 -0.9992
 3177SOL    HW220994   1.979   2.900   9.907  0.2063  0.0413  1.3750
 3178SOL     OW20995   0.633   1.906  16.026  0.5797 -0.3260  0.1897
 3178SOL    HW120996   0.650   1.979  15.967 -1.5908  0.0574  0.0456
 3178SOL    HW220997   0.703   1.912  16.091  0.8614 -2.8384  0.1027
 3179SOL     OW20998   0.512   3.634   6.977 -0.4486  0.0961  0.3652
 3179SOL    HW120999   0.558   3.610   6.897 -1.4070 -0.1804 -0.0993
 3179SOL    HW221000   0.585   3.636   7.040 -0.8137  0.2564  0.7824
 3180SOL     OW21001   3.480   1.194   6.489  0.3885  0.1483  0.4002
 3180SOL    HW121002   3.398   1.155   6.461 -0.1552  1.9043 -0.4777
 3180SOL    HW221003   3.459   1.285   6.510 -2.9330 -0.9974  2.0429
 3181SOL     OW21004   0.475   3.535   7.491 -0.3140 -0.6534  0.6489
 3181SOL    HW121005   0.421   3.519   7.413 -0.9530  0.1084  0.9414
 3181SOL    HW221006   0.557   3.507   7.451 -0.2251 -1.3187  1.3040
 3182SOL     OW21007   3.199   1.735   2.660 -0.2398  0.3529  0.7864
 3182SOL    HW121008   3.263   1.673   2.627  0.1513  0.2798  1.6845
 3182SOL    HW221009   3.239   1.755   2.745 -0.7987 -0.6808  1.2914
 3183SOL     OW21010   4.533   1.297   3.002  0.1469 -0.3464  0.0240
 3183SOL    HW121011   4.470   1.361   2.966  0.2457 -0.0901  0.3050
 3183SOL    HW221012   4.474   1.238   3.048 -0.3375  2.7824  3.4286
 3184SOL     OW21013   3.877   0.515   6.421 -0.2276  0.1484 -0.1370
 3184SOL    HW121014   3.887   0.501   6.327 -0.2554 -3.8317  0.4675
 3184SOL    HW221015   3.888   0.610   6.413 -0.9014  0.4239  2.2488
 3185SOL     OW21016   4.068   4.419   0.555  0.1247  0.1876 -0.5323
 3185SOL    HW121017   4.132   4.491   0.553 -0.0732  0.3913  0.7855
 3185SOL    HW221018   4.058   4.400   0.648  1.7010  0.6671 -0.2618
 3186SOL     OW21019   2.430   0.073   4.911  0.2007  0.0949  0.4048
 3186SOL    HW121020   2.517   0.107   4.935 -0.0004  0.8328  0.0739
 3186SOL    HW221021   2.409   0.110   4.826  1.0242  2.4376  1.2003
 3187SOL     OW21022   2.782   0.800   9.724 -0.0231 -0.1738  0.5361
 3187SOL    HW121023   2.744   0.854   9.654 -0.1607 -1.0495 -0.0604
 3187SOL    HW221024   2.800   0.875   9.780  1.6401  0.4347 -0.8065
 3188SOL     OW21025   1.622   2.289  11.096 -0.2385 -0.0013 -0.2476
 3188SOL    HW121026   1.578   2.362  11.140  0.0158  0.0006  0.0046
 3188SOL    HW221027   1.576   2.211  11.126 -0.0456 -0.2192 -0.5208
 3189SOL     OW21028   2.055   3.354   3.839 -0.1781  0.4440  0.1696
 3189SOL    HW121029   2.125   3.418   3.847 -0.9809  1.2717  0.7395
 3189SOL    HW221030   2.091   3.301   3.769 -3.3978 -0.6462 -0.6596
 3190SOL     OW21031   0.356   3.742   0.771  0.1990  0.4593  0.0886
 3190SOL    HW121032   0.311   3.749   0.687 -0.1895 -1.6640  0.1179
 3190SOL    HW221033   0.444   3.759   0.739 -0.0190 -0.5818 -1.0645
 3191SOL     OW21034   1.945   3.326  10.892  0.2967  1.2289 -0.8466
 3191SOL    HW121035   2.023   3.380  10.881  0.8305 -0.0169 -3.1967
 3191SOL    HW221036   1.932   3.352  10.983 -0.6298  2.8798 -1.4491
 3192SOL     OW21037   1.181   3.952  10.723  0.2734 -0.7058  0.2372
 3192SOL    HW121038   1.133   3.979  10.645  3.3309 -0.3258 -1.4848
 3192SOL    HW221039   1.144   4.009  10.791 -1.2001  0.0924 -1.2351
 3193SOL     OW21040   4.169   4.705   2.802  0.1482  0.4773  0.3844
 3193SOL    HW121041   4.122   0.059   2.793 -0.1205  0.3317  0.4675
 3193SOL    HW221042   4.224   4.726   2.877  1.6065 -0.4985 -0.3986
 3194SOL     OW21043   3.451   1.016  16.627 -0.0344 -0.2647  0.2896
 3194SOL    HW121044   3.389   1.000  16.556  0.2567  0.2979 -0.0956
 3194SOL    HW221045   3.522   0.967  16.585 -0.5179 -0.6888 -0.0390
 3195SOL     OW21046   0.625   2.866  10.823 -0.1822 -0.6860 -0.9024
 3195SOL    HW121047   0.560   2.909  10.879  0.7942  0.4753 -0.6492
 3195SOL    HW221048   0.695   2.928  10.803 -0.7282  0.4654  0.7689
 3196SOL     OW21049   4.506   0.702   8.710 -0.6768  0.0860  0.0421
 3196SOL    HW121050   4.430   0.758   8.725 -0.9168 -0.3352  0.4055
 3196SOL    HW221051   4.468   0.662   8.632 -1.0201  0.4815  0.0081
 3197SOL     OW21052   4.414   0.795   5.035 -0.1307 -0.1221 -0.3788
 3197SOL    HW121053   4.448   0.755   5.115  1.4987 -1.0585 -1.5486
 3197SOL    HW221054   4.486   0.782   4.974  0.3653  0.8571  0.0082
 3198SOL     OW21055   4.518   0.991   5.422  0.2857  0.2745 -0.0221
 3198SOL    HW121056   4.599   1.041   5.422  1.1909 -1.1864 -0.1739
 3198SOL    HW221057   4.521   0.947   5.507  1.2930  0.3189 -0.0363
 3199SOL     OW21058   2.907   2.430   8.092 -0.7616 -0.5855 -0.2153
 3199SOL    HW121059   2.936   2.353   8.141  1.8518 -0.6877 -1.9027
 3199SOL    HW221060   2.848   2.463   8.159  0.9347 -0.5232  1.2331
 3200SOL     OW21061   2.233   3.680   1.673 -0.2840 -0.0387 -0.0249
 3200SOL    HW121062   2.145   3.716   1.670  0.9806  3.2634  3.5961
 3200SOL    HW221063   2.269   3.702   1.587 -0.3541  1.4502  0.3249
 3201SOL     OW21064   0.349   1.473   2.502  0.2090  0.2959  0.0652
 3201SOL    HW121065   0.263   1.513   2.486 -0.0184 -0.3221 -0.2671
 3201SOL    HW221066   0.366   1.487   2.595 -2.2656 -0.4389  0.6268
 3202SOL     OW21067   2.668   4.113   4.311  0.7085 -0.6966 -0.0431
 3202SOL    HW121068   2.722   4.056   4.255  1.0439 -0.3180 -0.1084
 3202SOL    HW221069   2.592   4.062   4.282  0.1374 -0.1813  0.5612
 3203SOL     OW21070   0.698   1.069   6.355 -0.5639  0.2400 -0.0599
 3203SOL    HW121071   0.730   1.157   6.377  0.9372 -0.4594  0.5667
 3203SOL    HW221072   0.648   1.046   6.433  1.9755  0.3678  1.6022
 3204SOL     OW21073   0.261   3.769  10.027 -1.1551  0.0584  0.1535
 3204SOL    HW121074   0.335   3.718  10.061 -1.0425  0.8429  1.0907
 3204SOL    HW221075   0.259   3.828  10.103 -2.3652  2.5486 -1.8027
 3205SOL     OW21076   3.534   3.711   3.704 -0.1990 -0.4029 -0.3094
 3205SOL    HW121077   3.506   3.678   3.789 -1.5162  0.8074 -0.2677
 3205SOL    HW221078   3.446   3.720   3.669 -0.6803  0.8318  1.2129
 3206SOL     OW21079   0.079   2.914   6.716 -1.0275 -0.2830  0.2883
 3206SOL    HW121080   0.151   2.857   6.741 -0.5177 -0.0457 -0.6628
 3206SOL    HW221081   0.080   2.994   6.769  0.1098 -0.5735  0.6931
 3207SOL     OW21082   0.849   3.127   1.900  0.2497  0.4298 -0.3486
 3207SOL    HW121083   0.832   3.221   1.900 -0.6422  0.2581  1.2783
 3207SOL    HW221084   0.882   3.110   1.989  2.2825  1.4743 -0.8934
 3208SOL     OW21085   1.205   3.798  11.255 -0.0417  0.1617  0.3408
 3208SOL    HW121086   1.207   3.761  11.167 -0.9739 -0.3611  0.5370
 3208SOL    HW221087   1.158   3.728  11.302  0.1500  0.1253  0.4781
 3209SOL     OW21088   4.054   2.628   5.466  0.5510  0.1712 -0.1418
 3209SOL    HW121089   4.066   2.538   5.438 -0.5500 -0.1777  0.5013
 3209SOL    HW221090   3.961   2.631   5.444  0.8457  0.2562 -1.3919
 3210SOL     OW21091   0.855   1.334   5.349  0.1534  0.7083 -0.2552
 3210SOL    HW121092   0.855   1.338   5.444 -1.2839  0.6724 -0.2524
 3210SOL    HW221093   0.807   1.252   5.340  0.8158  0.1679  1.0817
 3211SOL     OW21094   0.721   0.237   2.254 -0.1814  0.2792 -0.0823
 3211SOL    HW121095   0.784   0.300   2.220  0.3469 -1.7565 -2.8873
 3211SOL    HW221096   0.733   0.155   2.205 -0.1210  0.0971  0.2398
 3212SOL     OW21097   2.610   4.102   7.776 -0.1483 -0.8129  0.1150
 3212SOL    HW121098   2.583   4.179   7.727  3.7773  0.0253 -0.6886
 3212SOL    HW221099   2.613   4.035   7.708 -0.6978 -0.2398 -0.4679
 3213SOL     OW21100   2.833   4.117   2.293  0.2284  0.3941  0.0308
 3213SOL    HW121101   2.749   4.075   2.275  1.0514 -0.8538 -0.8163
 3213SOL    HW221102   2.859   4.074   2.375  0.4579 -2.4821 -1.5675
 3214SOL     OW21103   4.645   3.460  14.810 -0.2913  0.4766  0.1281
 3214SOL    HW121104   4.714   3.464  14.876  0.0931 -0.0314 -0.2411
 3214SOL    HW221105   4.653   3.373  14.771  2.7698  0.1606  1.4366
 3215SOL     OW21106   1.397   0.652   7.126  0.1278 -0.3965  0.5216
 3215SOL    HW121107   1.430   0.720   7.184  1.1956 -1.5179  1.2520
 3215SOL    HW221108   1.338   0.702   7.071  0.7644 -1.7563 -1.4071
 3216SOL     OW21109   1.409   1.960   5.990 -0.4088  0.3432  0.6386
 3216SOL    HW121110   1.407   1.909   6.071 -2.0301 -1.6340 -0.6466
 3216SOL    HW221111   1.502   1.983   5.989 -0.3460  0.2327  3.0219
 3217SOL     OW21112   1.012   2.554  10.576  0.6579 -0.0263 -0.3614
 3217SOL    HW121113   1.005   2.503  10.657 -2.0915 -0.3826 -0.8095
 3217SOL    HW221114   0.955   2.629  10.596  1.5133  0.7401 -0.7981
 3218SOL     OW21115   1.959   3.722   7.229  0.3828  0.1267 -0.0253
 3218SOL    HW121116   1.984   3.645   7.178 -1.9691 -2.1202  2.1670
 3218SOL    HW221117   1.962   3.794   7.167  0.2434 -0.2151 -0.4301
 3219SOL     OW21118   4.481   2.491  13.994  0.6256  0.6337 -0.4600
 3219SOL    HW121119   4.392   2.477  14.027  0.9638 -0.7003 -0.0967
 3219SOL    HW221120   4.521   2.474  14.079 -1.1247 -1.6721 -0.0860
 3220SOL     OW21121   0.623   2.020   5.095 -0.1608  0.7313 -0.1674
 3220SOL    HW121122   0.673   2.005   5.015 -0.7613  0.8178 -0.5639
 3220SOL    HW221123   0.667   1.968   5.162 -0.8066  3.0335  2.0252
 3221SOL     OW21124   2.237   3.734   3.716 -0.4400 -0.3056  0.2212
 3221SOL    HW121125   2.308   3.762   3.774 -2.4393 -0.1958  2.6643
 3221SOL    HW221126   2.235   3.639   3.728  1.9577 -0.6290 -2.1155
 3222SOL     OW21127   4.076   1.488   5.254  0.7610 -0.2682  0.0434
 3222SOL    HW121128   4.095   1.406   5.299 -0.9535  0.5322  2.2480
 3222SOL    HW221129   4.112   1.544   5.323 -1.6899 -1.3685  2.2137
 3223SOL     OW21130   0.362   1.625   7.866 -0.3750  0.2806 -0.2699
 3223SOL    HW121131   0.341   1.682   7.941 -0.3288  1.6508 -1.3012
 3223SOL    HW221132   0.413   1.568   7.924 -0.8042 -1.6135 -1.7581
 3224SOL     OW21133   2.435   1.991   3.103  0.1380  0.1087  0.5119
 3224SOL    HW121134   2.399   2.078   3.119 -0.0532 -0.2166  1.8604
 3224SOL    HW221135   2.379   1.947   3.038 -0.6589 -0.5582  1.6463
 3225SOL     OW21136   4.407   1.552   4.950 -0.4855  0.0707  0.5110
 3225SOL    HW121137   4.495   1.515   4.940  0.7558  2.4839  2.5970
 3225SOL    HW221138   4.413   1.604   5.029 -3.3280 -0.9912  1.4247
 3226SOL     OW21139   0.121   1.904   6.510  0.9408 -0.6191 -0.1652
 3226SOL    HW121140   0.143   1.851   6.433 -2.9052 -1.9060 -0.3395
 3226SOL    HW221141   0.207   1.915   6.551  1.2945  0.0826 -1.1017
 3227SOL     OW21142   2.682   2.570  15.738 -0.1217  0.4530  0.1585
 3227SOL    HW121143   2.675   2.474  15.732 -0.3632  0.3431  2.0435
 3227SOL    HW221144   2.642   2.577  15.825 -0.4170 -2.1966  0.2446
 3228SOL     OW21145   1.052   4.245   1.049  0.0319  0.5311 -0.1042
 3228SOL    HW121146   1.029   4.186   1.120 -1.6271  0.2292 -0.8866
 3228SOL    HW221147   1.129   4.203   1.012 -1.1200 -0.8869 -0.9077
 3229SOL     OW21148   4.246   0.895   2.978  0.0442 -0.6341 -0.1938
 3229SOL    HW121149   4.217   0.877   2.888  0.0394  0.6270 -0.4459
 3229SOL    HW221150   4.290   0.812   2.998 -1.0078 -0.7357  1.6215
 3230SOL     OW21151   3.771   0.537  12.961  0.2095 -0.0153 -0.4755
 3230SOL    HW121152   3.715   0.493  13.025  1.5099 -0.9788  0.0008
 3230SOL    HW221153   3.800   0.615  13.007 -0.5343 -0.1262  0.1691
 3231SOL     OW21154   2.227   0.815  12.104 -0.0092 -0.6137 -0.2648
 3231SOL    HW121155   2.169   0.742  12.081  1.4145 -2.2614  1.3890
 3231SOL    HW221156   2.300   0.772  12.149 -1.3707 -2.3019  0.3488
 3232SOL     OW21157   2.971   4.213  16.433  0.2570  0.3639 -0.0868
 3232SOL    HW121158   2.984   4.228  16.339 -1.0261 -2.2393 -0.6665
 3232SOL    HW221159   2.935   4.125  16.420 -2.0968  0.9173  2.6449
 3233SOL     OW21160   1.367   2.146   3.161 -0.3191  0.2955 -0.1326
 3233SOL    HW121161   1.451   2.149   3.207 -0.3763  0.5194 -0.0430
 3233SOL    HW221162   1.357   2.240   3.151  0.8036  0.4248 -0.0335
 3234SOL     OW21163   4.596   0.295   1.705  0.2211  0.5652 -0.2102
 3234SOL    HW121164   4.567   0.274   1.793  1.2469 -0.0060 -0.0083
 3234SOL    HW221165   4.547   0.376   1.690 -0.3062  0.6681  2.1814
 3235SOL     OW21166   3.241   1.884   7.065 -0.2151  0.0114 -0.5587
 3235SOL    HW121167   3.220   1.791   7.073  2.6858 -0.2912  4.0490
 3235SOL    HW221168   3.334   1.880   7.091 -0.2787 -0.0548 -0.3381
 3236SOL     OW21169   2.846   3.992  13.964  0.4198  0.0128 -0.0782
 3236SOL    HW121170   2.813   3.902  13.960  2.1974 -0.7321  1.7879
 3236SOL    HW221171   2.896   3.981  13.883  1.7308  0.4810  0.6767
 3237SOL     OW21172   2.528   3.690   3.248  0.6032  1.1033  0.1697
 3237SOL    HW121173   2.457   3.666   3.308 -2.1940  1.8277 -2.8084
 3237SOL    HW221174   2.482   3.673   3.166  0.1942  0.6363  0.4997
 3238SOL     OW21175   2.229   1.963   1.721 -0.4197 -0.0393 -0.1550
 3238SOL    HW121176   2.172   1.891   1.697  1.8466 -2.1335  0.8023
 3238SOL    HW221177   2.311   1.935   1.760 -0.2362  0.1724 -0.3884
 3239SOL     OW21178   0.119   1.813  14.708  0.1641 -0.1508 -0.2938
 3239SOL    HW121179   0.158   1.749  14.768  2.1464 -0.9321 -2.4173
 3239SOL    HW221180   0.155   1.777  14.627 -3.1163 -1.0303 -1.3631
 3240SOL     OW21181   3.557   0.581   6.501 -0.3206  0.4931  0.5667
 3240SOL    HW121182   3.547   0.658   6.445  2.0277  1.3315  1.2953
 3240SOL    HW221183   3.596   0.522   6.436  1.0454  1.3097  0.6539
 3241SOL     OW21184   3.639   1.562   6.096 -0.1754  0.3734 -0.1575
 3241SOL    HW121185   3.702   1.598   6.033  0.0984 -0.7765 -0.5318
 3241SOL    HW221186   3.705   1.512   6.146  0.6665  0.1561 -1.4791
 3242SOL     OW21187   0.662   1.997  11.922 -0.0963 -0.3907 -0.2873
 3242SOL    HW121188   0.680   1.931  11.990  0.2246 -0.3698 -0.3552
 3242SOL    HW221189   0.753   2.017  11.902 -1.1496  2.7435 -1.7938
 3243SOL     OW21190   4.185   2.868   6.094  0.9251  0.0651 -0.0494
 3243SOL    HW121191   4.142   2.864   6.179 -1.6102 -0.4850 -1.3557
 3243SOL    HW221192   4.116   2.914   6.047 -1.0565  0.8163  3.6129
 3244SOL     OW21193   2.297   3.536   4.525 -0.3035  0.0654  0.6382
 3244SOL    HW121194   2.260   3.598   4.462 -0.1617 -2.4085 -1.8310
 3244SOL    HW221195   2.227   3.481   4.558 -0.6607  1.0538  1.5296
 3245SOL     OW21196   0.694   1.924  15.577 -0.3768  0.3378  0.4667
 3245SOL    HW121197   0.775   1.879  15.552 -0.6786 -0.1813  0.4179
 3245SOL    HW221198   0.654   1.933  15.490 -0.7533  0.2238  0.6293
 3246SOL     OW21199   0.010   4.700   2.714 -0.0159  0.2779  0.5402
 3246SOL    HW121200   4.685   0.045   2.743  0.7816  0.6355  1.1201
 3246SOL    HW221201   0.000   4.641   2.789 -1.6082  0.0310  0.1217
 3247SOL     OW21202   4.724   3.382   2.830  0.1714 -0.7055 -0.2916
 3247SOL    HW121203   4.715   3.432   2.748  0.7606 -1.6199 -0.9090
 3247SOL    HW221204   4.715   3.297   2.786  2.1000 -1.5046  0.8844
 3248SOL     OW21205   4.221   4.438   9.474 -0.9192  0.0350  0.4318
 3248SOL    HW121206   4.308   4.474   9.492 -0.3539 -0.3425 -1.6512
 3248SOL    HW221207   4.169   4.490   9.536  0.4051  1.5249  0.2832
 3249SOL     OW21208   2.580   2.757   7.624  0.1554  0.5698  0.2116
 3249SOL    HW121209   2.486   2.760   7.641  0.4702  0.2508  1.9914
 3249SOL    HW221210   2.585   2.662   7.638 -0.0287  0.1938 -2.2308
 3250SOL     OW21211   1.789   2.375   2.721 -0.6599 -0.3502  0.0131
 3250SOL    HW121212   1.705   2.328   2.729 -1.0278 -0.4214 -4.1520
 3250SOL    HW221213   1.822   2.361   2.810  0.6514 -1.5143 -0.6625
 3251SOL     OW21214   0.934   3.426   6.698 -0.3138 -0.7533  0.1574
 3251SOL    HW121215   0.946   3.374   6.619 -1.7604  0.4189 -0.8264
 3251SOL    HW221216   0.947   3.515   6.663 -0.3889 -0.0150  2.0120
 3252SOL     OW21217   4.043   3.822   7.249  0.2332  0.7525  0.0890
 3252SOL    HW121218   4.021   3.908   7.212 -0.1069 -0.6086 -2.8873
 3252SOL    HW221219   4.135   3.837   7.268  0.6963 -1.3753 -0.5806
 3253SOL     OW21220   1.024   0.896   1.536  0.3024  0.0059 -0.5915
 3253SOL    HW121221   0.931   0.874   1.539 -0.1193  2.0647  1.1783
 3253SOL    HW221222   1.017   0.977   1.485  1.7318  0.5522  0.0599
 3254SOL     OW21223   1.300   0.373   0.592 -0.3014  0.5500 -0.0519
 3254SOL    HW121224   1.207   0.395   0.585  0.2083  1.7024 -2.9230
 3254SOL    HW221225   1.345   0.444   0.548  0.2185  1.8315  2.5249
 3255SOL     OW21226   2.535   1.212   5.751  0.0377 -0.3694 -0.0485
 3255SOL    HW121227   2.549   1.130   5.798 -1.6325  0.0413  1.1535
 3255SOL    HW221228   2.510   1.269   5.824 -0.7347  2.4334 -2.5006
 3256SOL     OW21229   1.644   2.184   6.225 -0.1784 -0.2755  0.4163
 3256SOL    HW121230   1.668   2.265   6.181 -0.7020 -0.5036 -0.2873
 3256SOL    HW221231   1.649   2.118   6.155 -1.0594 -1.9967  1.9704
 3257SOL     OW21232   3.955   3.288   2.003  0.0446 -0.0659  0.1573
 3257SOL    HW121233   4.004   3.210   1.976  0.8275  0.4155  0.1909
 3257SOL    HW221234   3.869   3.245   1.998  1.4023 -3.0210  2.3081
 3258SOL     OW21235   0.114   2.258  14.718  0.2648 -0.1416 -0.2282
 3258SOL    HW121236   0.186   2.290  14.664  0.2183 -1.1513 -0.8880
 3258SOL    HW221237   0.078   2.339  14.756 -0.2984 -1.3138  1.7545
 3259SOL     OW21238   2.290   1.885   5.959 -0.5862 -0.0438 -0.8995
 3259SOL    HW121239   2.209   1.935   5.965 -1.9216 -2.0849 -1.7751
 3259SOL    HW221240   2.281   1.851   5.870  0.3080 -0.2679 -0.9075
 3260SOL     OW21241   4.170   0.250   2.535  0.0444 -0.3104 -0.3294
 3260SOL    HW121242   4.259   0.242   2.501  0.0707  0.6233 -0.4898
 3260SOL    HW221243   4.129   0.305   2.468 -0.2063  1.5508  1.3540
 3261SOL     OW21244   1.958   3.565   3.646  0.1098  0.3517  0.4006
 3261SOL    HW121245   1.971   3.499   3.714  2.1220 -0.4247 -0.7550
 3261SOL    HW221246   2.022   3.557   3.576 -0.6298  1.0004 -0.3623
 3262SOL     OW21247   3.919   2.146   6.605  0.5007  0.5067  0.0618
 3262SOL    HW121248   3.991   2.089   6.633  1.4525  2.6508  2.0326
 3262SOL    HW221249   3.888   2.196   6.681  1.2806  1.1765 -0.0604
 3263SOL     OW21250   4.422   2.283   2.292 -0.6909  0.0449 -0.0989
 3263SOL    HW121251   4.371   2.235   2.226  0.4436  2.7355 -2.9492
 3263SOL    HW221252   4.353   2.320   2.347 -0.5446  2.1442 -1.3207
 3264SOL     OW21253   3.165   1.729   3.805 -0.1874  0.4165 -0.0887
 3264SOL    HW121254   3.196   1.643   3.774  0.6501  0.0878  1.6939
 3264SOL    HW221255   3.204   1.720   3.892 -2.0583 -2.8473  0.4181
 3265SOL     OW21256   2.851   2.890   4.700 -0.2402  0.0522 -0.3012
 3265SOL    HW121257   2.828   2.960   4.639 -1.2487 -0.7421 -0.8251
 3265SOL    HW221258   2.874   2.941   4.778  0.0343  1.2630 -1.1628
 3266SOL     OW21259   2.789   4.118   0.193  0.0096  0.6566  0.1001
 3266SOL    HW121260   2.757   4.172   0.266 -0.9668 -0.4394  0.4783
 3266SOL    HW221261   2.738   4.149   0.118  0.1736 -2.3894 -1.2641
 3267SOL     OW21262   1.841   0.472  13.789 -0.2580 -0.2555 -0.1783
 3267SOL    HW121263   1.926   0.439  13.817  0.4041  1.5304 -0.0825
 3267SOL    HW221264   1.786   0.407  13.834  1.3544 -1.2240  0.3813
 3268SOL     OW21265   1.002   2.366   4.172  0.0768 -0.4037  0.0684
 3268SOL    HW121266   0.994   2.403   4.260  3.1552  2.1605 -0.7007
 3268SOL    HW221267   0.913   2.333   4.160  0.2684 -0.2235 -1.9154
 3269SOL     OW21268   3.222   4.123   9.341 -0.2349  0.2562 -0.0886
 3269SOL    HW121269   3.176   4.156   9.418 -1.5765  2.2673 -1.7620
 3269SOL    HW221270   3.289   4.065   9.380 -1.7014 -1.4708 -0.1280
 3270SOL     OW21271   3.645   1.584  14.529  0.0079 -0.1032  0.2640
 3270SOL    HW121272   3.626   1.653  14.593 -1.0415  0.8633 -1.0870
 3270SOL    HW221273   3.590   1.612  14.456 -0.9793  2.3110  1.9231
 3271SOL     OW21274   4.219   2.318   8.878 -0.2389 -0.3197 -0.0715
 3271SOL    HW121275   4.205   2.324   8.973  0.7113  1.2233 -0.0457
 3271SOL    HW221276   4.126   2.321   8.853 -0.4238 -3.3007  0.2451
 3272SOL     OW21277   3.537   2.332   1.709  0.5364 -0.6024 -1.0317
 3272SOL    HW121278   3.579   2.313   1.793 -0.2973  0.7263 -0.3074
 3272SOL    HW221279   3.605   2.394   1.684 -0.6472  1.1991  0.2395
 3273SOL     OW21280   2.971   3.122  12.532 -0.3865 -0.1189 -0.1744
 3273SOL    HW121281   3.022   3.161  12.602  1.5439 -2.0475 -0.5267
 3273SOL    HW221282   2.887   3.155  12.563  0.2281  1.2384  0.0106
 3274SOL     OW21283   0.472   4.048   1.540  0.4057 -0.1784 -0.2488
 3274SOL    HW121284   0.542   4.018   1.481  1.5929  1.9096  0.0848
 3274SOL    HW221285   0.497   3.997   1.617 -3.8364  1.6452  2.3254
 3275SOL     OW21286   1.024   1.679  11.982 -0.2138  0.5231 -0.2813
 3275SOL    HW121287   0.983   1.706  11.900 -0.3273  0.0569 -0.3776
 3275SOL    HW221288   0.953   1.693  12.044 -0.7443 -0.8357 -0.5813
 3276SOL     OW21289   1.821   1.004  11.046 -0.3353  0.4805 -0.6978
 3276SOL    HW121290   1.748   0.946  11.066 -0.7543  0.2284 -2.9362
 3276SOL    HW221291   1.848   1.033  11.133  1.6144 -0.3831 -1.0200
 3277SOL     OW21292   4.597   0.844   7.044 -0.3226 -0.6271  0.0371
 3277SOL    HW121293   4.555   0.816   7.125  2.0991 -2.2434  0.7304
 3277SOL    HW221294   4.674   0.897   7.066 -0.9211  0.3458 -0.2029
 3278SOL     OW21295   4.675   0.691   7.995 -0.2432 -0.3332  0.2415
 3278SOL    HW121296   4.643   0.602   8.006 -3.7638  1.1139  1.4801
 3278SOL    HW221297   0.032   0.677   7.954 -0.6008 -1.8419  0.0074
 3279SOL     OW21298   4.235   1.772  15.910  0.2770  0.1111 -0.3000
 3279SOL    HW121299   4.208   1.818  15.990  1.8270 -0.3207  0.4796
 3279SOL    HW221300   4.324   1.747  15.934 -0.1443 -3.1587 -2.2220
 3280SOL     OW21301   1.838   3.074   7.156 -0.2102  0.3406 -0.9672
 3280SOL    HW121302   1.764   3.124   7.192 -0.6457 -0.9225 -0.1072
 3280SOL    HW221303   1.911   3.135   7.165 -0.2269  0.4057 -1.2757
 3281SOL     OW21304   2.826   3.744   6.361  0.3474 -0.4426  0.0086
 3281SOL    HW121305   2.832   3.823   6.414 -1.0065 -0.9201  0.8740
 3281SOL    HW221306   2.906   3.708   6.400  0.1605 -0.3284  0.4883
 3282SOL     OW21307   4.211   4.123   5.831  0.0573  0.0103  0.4028
 3282SOL    HW121308   4.292   4.094   5.872  1.1356  1.5309 -0.6764
 3282SOL    HW221309   4.156   4.049   5.858 -1.9853  0.6737 -1.9254
 3283SOL     OW21310   0.239   1.815   7.159  0.3760  0.3766  0.1294
 3283SOL    HW121311   0.322   1.862   7.154  1.2512 -1.1724  0.1243
 3283SOL    HW221312   0.213   1.819   7.251  0.2130 -0.8493  0.1329
 3284SOL     OW21313   3.485   1.973   6.278  0.4414 -0.1015 -0.0763
 3284SOL    HW121314   3.403   2.019   6.259  0.5304 -0.0637 -0.3607
 3284SOL    HW221315   3.535   2.011   6.205  0.1398  0.7772  0.1704
 3285SOL     OW21316   1.272   1.699   4.730  0.3772 -0.1597 -0.2784
 3285SOL    HW121317   1.271   1.750   4.649  1.8316  1.7152  0.8727
 3285SOL    HW221318   1.220   1.756   4.787  0.6909 -0.7554  0.6017
 3286SOL     OW21319   3.937   3.072  11.866  0.0787  0.5935  0.0698
 3286SOL    HW121320   3.887   3.068  11.785 -1.1128 -0.7167  0.8641
 3286SOL    HW221321   3.983   2.988  11.858  0.1553  0.5340  1.1097
 3287SOL     OW21322   1.057   3.394   0.466  0.6923 -0.3596  0.0941
 3287SOL    HW121323   0.972   3.432   0.488  0.3172 -1.3304  0.3208
 3287SOL    HW221324   1.078   3.363   0.554 -2.1440 -1.4207  0.3993
 3288SOL     OW21325   0.322   0.434   3.558 -0.1214  0.1954  0.0898
 3288SOL    HW121326   0.378   0.356   3.562  2.3737  1.8690 -2.3192
 3288SOL    HW221327   0.238   0.394   3.534 -0.6249  1.9211 -1.0309
 3289SOL     OW21328   4.156   4.499   6.009 -0.4574  0.0777  0.1666
 3289SOL    HW121329   4.084   4.459   5.961  0.1672 -0.2224 -0.5135
 3289SOL    HW221330   4.190   4.569   5.953 -0.8552 -0.9840 -1.3976
 3290SOL     OW21331   4.401   2.721   4.396  0.3611 -0.0622  0.3399
 3290SOL    HW121332   4.482   2.726   4.346  1.4384 -1.7761  1.9212
 3290SOL    HW221333   4.365   2.809   4.382 -0.9431 -0.8215 -1.0047
 3291SOL     OW21334   1.988   3.357   7.919 -0.3546  0.1066 -0.2678
 3291SOL    HW121335   2.017   3.315   7.838  0.9036 -0.9774  0.7409
 3291SOL    HW221336   1.921   3.415   7.885 -0.3100 -0.3596 -1.1474
 3292SOL     OW21337   3.023   4.172   8.540 -0.1386 -0.4374  0.9469
 3292SOL    HW121338   3.001   4.224   8.617  1.0530  1.4595 -0.0099
 3292SOL    HW221339   2.951   4.192   8.481 -0.2537 -2.6683  0.3352
 3293SOL     OW21340   2.091   0.590   3.339  0.6107 -0.3812  0.0707
 3293SOL    HW121341   2.153   0.662   3.335 -2.0666  1.9581  0.0830
 3293SOL    HW221342   2.011   0.642   3.349  0.7330 -0.3991  1.0993
 3294SOL     OW21343   4.265   2.516   4.226  0.8625 -0.1043 -0.2250
 3294SOL    HW121344   4.309   2.596   4.254  2.2355 -0.5881 -1.0237
 3294SOL    HW221345   4.255   2.533   4.132 -0.8137  0.7131  0.1050
 3295SOL     OW21346   3.975   4.286   5.893 -0.5765  0.7005  0.2506
 3295SOL    HW121347   3.972   4.245   5.806 -1.1112 -0.0675  0.6271
 3295SOL    HW221348   4.049   4.242   5.934 -0.9100  0.9024  1.0675
 3296SOL     OW21349   4.336   1.662  11.025 -0.9326  0.2658  0.7476
 3296SOL    HW121350   4.245   1.666  10.994 -0.7704 -1.7190 -0.0040
 3296SOL    HW221351   4.348   1.751  11.058  2.2068 -0.2950  1.0893
 3297SOL     OW21352   1.690   1.997   6.651  0.1836  0.7478  1.1962
 3297SOL    HW121353   1.675   1.998   6.745 -1.1545 -1.7395  1.0009
 3297SOL    HW221354   1.747   1.920   6.655  0.1554  0.5953 -1.3109
 3298SOL     OW21355   0.985   1.533   1.956  0.3023  0.1633 -0.4593
 3298SOL    HW121356   0.890   1.540   1.941  0.2800  0.0760 -0.3635
 3298SOL    HW221357   1.012   1.598   1.891 -0.0057  1.3951  0.6171
 3299SOL     OW21358   4.688   4.202   0.789 -0.2279  0.1430  0.0542
 3299SOL    HW121359   4.599   4.220   0.760  0.2520  0.7870 -1.0354
 3299SOL    HW221360   4.656   4.150   0.863  0.5663 -1.0741 -0.4459
 3300SOL     OW21361   3.014   2.851  15.957 -0.0024  0.5502  0.8794
 3300SOL    HW121362   2.930   2.897  15.966 -0.5061 -0.4703  1.4859
 3300SOL    HW221363   2.999   2.777  16.016  1.8947 -0.5742 -0.0588
 3301SOL     OW21364   2.730   1.171  13.288  0.4986 -0.0476  0.3089
 3301SOL    HW121365   2.815   1.168  13.243  0.2843  0.4057 -0.1338
 3301SOL    HW221366   2.675   1.129  13.222  2.0565 -1.4709 -0.0733
 3302SOL     OW21367   3.546   3.667  14.186 -0.6765 -0.0191 -0.2173
 3302SOL    HW121368   3.480   3.683  14.118 -1.5746 -0.0301  0.6658
 3302SOL    HW221369   3.553   3.572  14.188  0.6899  0.0150 -2.3129
 3303SOL     OW21370   2.914   3.280   2.463 -0.1274 -0.1408 -0.3677
 3303SOL    HW121371   2.876   3.367   2.450  1.9231  1.1210  2.2194
 3303SOL    HW221372   3.007   3.282   2.441 -0.3428  3.5338 -0.9728
 3304SOL     OW21373   2.171   2.594  13.289 -0.0243 -0.0202  0.1089
 3304SOL    HW121374   2.141   2.587  13.380 -0.9875 -0.1944 -0.2248
 3304SOL    HW221375   2.144   2.685  13.275 -0.0301  0.2067  1.5368
 3305SOL     OW21376   0.131   3.538  14.582  0.0079 -0.2550 -0.4066
 3305SOL    HW121377   0.054   3.513  14.632 -1.0727  0.8220 -1.5187
 3305SOL    HW221378   0.102   3.536  14.490 -0.7336 -0.2156 -0.1698
 3306SOL     OW21379   0.801   1.250  16.600  0.1152  0.0332 -0.6414
 3306SOL    HW121380   0.775   1.201  16.522  0.3212 -0.7991 -0.1901
 3306SOL    HW221381   0.822   1.333  16.559  0.6185 -0.4244 -1.3127
 3307SOL     OW21382   0.941   4.612  16.132  0.9011 -0.0482 -0.0322
 3307SOL    HW121383   0.909   4.541  16.188 -0.0809  1.5631  1.4792
 3307SOL    HW221384   0.944   4.688  16.191 -0.5917 -0.6075  0.7844
 3308SOL     OW21385   4.305   2.105  10.376 -0.3158 -0.8267  0.4889
 3308SOL    HW121386   4.329   2.101  10.469  1.9919  0.6923 -0.0332
 3308SOL    HW221387   4.378   2.052  10.343  0.1437 -1.9182  3.2190
 3309SOL     OW21388   1.683   1.330  17.081 -0.8746 -0.0517 -0.5626
 3309SOL    HW121389   1.619   1.344  17.151  0.0581  0.2179  0.2386
 3309SOL    HW221390   1.674   1.235  17.078 -1.6193 -0.0309  1.1336
 3310SOL     OW21391   0.450   0.245   3.840 -0.0354 -0.0524 -0.0795
 3310SOL    HW121392   0.481   0.160   3.807  0.4196 -0.3023  1.0045
 3310SOL    HW221393   0.495   0.299   3.775  0.9547 -0.8728 -0.0830
 3311SOL     OW21394   0.458   1.498   7.476 -0.1031  0.5010 -0.0104
 3311SOL    HW121395   0.507   1.566   7.522  0.5777  0.8314 -1.2314
 3311SOL    HW221396   0.371   1.511   7.512  0.3504  3.1065  0.0823
 3312SOL     OW21397   2.036   3.570   4.297 -0.7142 -0.3019  0.2006
 3312SOL    HW121398   1.976   3.607   4.362  0.1781 -3.1221  2.5749
 3312SOL    HW221399   1.991   3.598   4.217  0.2244 -0.9899 -0.5657
 3313SOL     OW21400   2.415   2.816   0.845  0.1933  0.1804  0.2924
 3313SOL    HW121401   2.378   2.893   0.888 -0.1590  0.3577 -0.3432
 3313SOL    HW221402   2.473   2.874   0.795 -3.8399  3.6482 -0.3132
 3314SOL     OW21403   1.751   1.753  11.590  1.0039  0.2701  0.1668
 3314SOL    HW121404   1.749   1.709  11.674 -0.8751  0.1616  0.0806
 3314SOL    HW221405   1.684   1.814  11.621  0.7136  0.7044 -1.3146
 3315SOL     OW21406   2.387   0.090  10.060 -0.2820  0.2932  0.4017
 3315SOL    HW121407   2.331   0.128  10.128 -0.2406  2.9852 -1.0978
 3315SOL    HW221408   2.447   0.164  10.048  0.3783 -0.0718  1.4299
 3316SOL     OW21409   1.512   2.278  12.850  0.4515  0.6115  0.4337
 3316SOL    HW121410   1.506   2.187  12.881  0.4202  1.0185  1.6070
 3316SOL    HW221411   1.523   2.265  12.756  0.0428  3.4428 -0.0047
 3317SOL     OW21412   1.633   3.262   1.493  0.5590  0.2784 -0.0110
 3317SOL    HW121413   1.563   3.320   1.463  0.9866  1.1328  0.6782
 3317SOL    HW221414   1.646   3.221   1.407  1.3136  2.2697 -0.8441
 3318SOL     OW21415   3.308   0.167  11.645 -0.1621  0.2089  0.1993
 3318SOL    HW121416   3.395   0.138  11.673  0.4079  2.1041  0.3586
 3318SOL    HW221417   3.259   0.088  11.668  0.3196 -0.1785 -0.1067
 3319SOL     OW21418   0.811   2.781   6.550  0.0789  0.6042  0.4229
 3319SOL    HW121419   0.819   2.872   6.578 -0.8828  1.0372 -0.7464
 3319SOL    HW221420   0.766   2.792   6.467  3.3004 -3.7610 -1.9034
 3320SOL     OW21421   3.762   3.690  14.504 -0.2733 -0.3629 -0.3209
 3320SOL    HW121422   3.781   3.722  14.593  1.5090 -2.5928  0.0897
 3320SOL    HW221423   3.763   3.761  14.440 -1.7477  0.1448  0.2238
 3321SOL     OW21424   4.596   0.358  14.004  0.0796 -0.3017 -0.1892
 3321SOL    HW121425   4.676   0.349  14.056  0.7034 -0.1986 -1.1298
 3321SOL    HW221426   4.576   0.268  13.979  0.0786 -0.6983  1.2443
 3322SOL     OW21427   0.586   4.528   4.566 -0.0088  0.0905 -0.1076
 3322SOL    HW121428   0.607   4.578   4.487 -0.8868 -1.0556 -1.0494
 3322SOL    HW221429   0.554   4.600   4.620  0.1521  0.7309 -0.8633
 3323SOL     OW21430   3.541   2.075   6.796 -0.0890  0.1725  0.4836
 3323SOL    HW121431   3.459   2.101   6.753  0.2899 -0.1235 -0.4236
 3323SOL    HW221432   3.584   2.050   6.714  0.0433  0.9729  0.3138
 3324SOL     OW21433   2.538   1.938   5.003 -0.1588 -0.2332 -0.3445
 3324SOL    HW121434   2.582   1.878   4.942 -1.9871 -2.8638  0.9086
 3324SOL    HW221435   2.519   1.882   5.079 -1.3234  0.7803  0.1056
 3325SOL     OW21436   2.419   1.263   6.335 -0.2122 -0.0639 -0.0466
 3325SOL    HW121437   2.404   1.194   6.399 -0.5175  0.9655  0.9918
 3325SOL    HW221438   2.426   1.334   6.399 -0.6513  1.3095 -1.4937
 3326SOL     OW21439   1.229   4.252   3.030  0.1962  0.0431 -0.0840
 3326SOL    HW121440   1.242   4.210   2.945 -0.0314 -2.0433  0.9116
 3326SOL    HW221441   1.313   4.293   3.051 -0.5064  2.0268 -1.1638
 3327SOL     OW21442   2.297   3.881   0.810  0.4834  0.2698 -0.2080
 3327SOL    HW121443   2.209   3.881   0.846 -0.0554  1.1135 -1.5170
 3327SOL    HW221444   2.331   3.969   0.829  0.0255  0.4275 -0.1181
 3328SOL     OW21445   3.057   3.083   6.441 -0.1598  0.2345  0.1277
 3328SOL    HW121446   2.980   3.130   6.407  0.1209  0.0190 -0.8145
 3328SOL    HW221447   3.081   3.019   6.374  0.4166  2.2937 -1.6806
 3329SOL     OW21448   4.687   4.475   4.957  0.2759 -0.2612 -0.2834
 3329SOL    HW121449   0.047   4.511   4.957  0.0146  0.3873 -0.4305
 3329SOL    HW221450   4.651   4.542   4.899  0.2408  0.4168  0.5257
 3330SOL     OW21451   2.876   2.335   1.936  0.0601  0.1549  0.0902
 3330SOL    HW121452   2.923   2.329   1.853  1.3893  3.9334  0.5703
 3330SOL    HW221453   2.810   2.404   1.926 -0.4270 -0.1300  1.2517
 3331SOL     OW21454   3.794   0.408  11.232 -0.0830 -0.0976  0.1610
 3331SOL    HW121455   3.821   0.489  11.274 -1.0927  0.9073 -1.1463
 3331SOL    HW221456   3.738   0.374  11.301 -0.7864  0.3950 -0.1649
 3332SOL     OW21457   0.879   1.711   2.835  0.3017 -0.3282 -0.5710
 3332SOL    HW121458   0.949   1.762   2.876  0.6810  0.4429 -2.1901
 3332SOL    HW221459   0.933   1.643   2.796  0.7888 -0.3485  0.1384
 3333SOL     OW21460   2.456   4.023   6.748 -0.0553 -0.0197  0.1469
 3333SOL    HW121461   2.515   4.085   6.704 -0.9891 -0.7781 -2.1883
 3333SOL    HW221462   2.433   4.066   6.830 -0.1105  0.5103 -0.1461
 3334SOL     OW21463   2.848   0.694  15.424  0.3119 -0.2635  0.5481
 3334SOL    HW121464   2.843   0.786  15.398 -1.4647 -0.6597 -0.4804
 3334SOL    HW221465   2.763   0.663  15.394  0.6837  0.2655 -1.0669
 3335SOL     OW21466   0.959   1.903   0.780 -0.8643  0.0834 -0.2681
 3335SOL    HW121467   0.878   1.856   0.761 -1.0241  0.4323 -0.4549
 3335SOL    HW221468   0.929   1.993   0.791 -1.0229  0.1049 -0.8595
 3336SOL     OW21469   3.069   1.376   1.503  0.2577  0.2706  0.4161
 3336SOL    HW121470   2.989   1.399   1.551  0.2434 -0.1953  0.6143
 3336SOL    HW221471   3.045   1.359   1.412  0.7984 -0.5979  0.4354
 3337SOL     OW21472   2.950   2.755   4.128  0.2916  0.4671 -0.2704
 3337SOL    HW121473   2.905   2.777   4.209  2.2587  0.9621  0.6842
 3337SOL    HW221474   2.954   2.841   4.086  1.2315  0.7169  0.3447
 3338SOL     OW21475   0.948   0.250   2.613  0.5105 -0.2669 -0.5820
 3338SOL    HW121476   0.967   0.342   2.592  2.3554 -0.3658  0.7003
 3338SOL    HW221477   1.034   0.208   2.624  0.2369 -0.4158  0.8920
 3339SOL     OW21478   4.426   2.105   6.102 -0.2226 -0.9003  0.1407
 3339SOL    HW121479   4.488   2.149   6.043  0.2591 -0.8836  0.6548
 3339SOL    HW221480   4.367   2.174   6.133  0.8507  0.7318 -1.4248
 3340SOL     OW21481   3.715   4.464   4.449  0.3246  0.2597  0.3784
 3340SOL    HW121482   3.748   4.428   4.532 -1.7056  2.4378  2.1167
 3340SOL    HW221483   3.711   4.383   4.398 -2.2454 -1.0251  2.5631
 3341SOL     OW21484   3.357   2.235   0.617 -0.6819  1.1646  0.3362
 3341SOL    HW121485   3.440   2.257   0.660  0.7362 -3.5062 -0.0144
 3341SOL    HW221486   3.302   2.267   0.689  0.2521  1.1226  1.0833
 3342SOL     OW21487   2.134   1.470   0.203 -0.0970  0.1604 -0.7461
 3342SOL    HW121488   2.178   1.399   0.156  1.8206  1.4048 -0.7996
 3342SOL    HW221489   2.044   1.468   0.172 -0.0314 -3.2305 -0.7750
 3343SOL     OW21490   2.742   1.842  17.265  0.0082  0.2701  0.4611
 3343SOL    HW121491   2.773   1.757  17.298 -1.0337 -0.7572 -1.2372
 3343SOL    HW221492   2.706   1.875  17.348 -0.2869  0.8405  0.1036
 3344SOL     OW21493   3.366   3.246   7.897 -0.1716 -0.2290 -0.0102
 3344SOL    HW121494   3.347   3.263   7.989 -1.4451  2.1961 -0.7325
 3344SOL    HW221495   3.279   3.222   7.865  0.5755 -1.4139 -1.1414
 3345SOL     OW21496   3.446   0.314   3.197 -0.1629 -0.2090 -0.0354
 3345SOL    HW121497   3.495   0.231   3.200  1.6808  0.8717 -0.5924
 3345SOL    HW221498   3.503   0.380   3.236 -0.2843  1.2426 -2.3411
 3346SOL     OW21499   1.605   3.521   3.140 -0.2583  0.3402 -0.3910
 3346SOL    HW121500   1.550   3.567   3.077 -1.4044 -0.1895  0.2065
 3346SOL    HW221501   1.631   3.453   3.079  0.5812  1.0142 -0.7742
 3347SOL     OW21502   2.229   4.413   8.346 -0.5504 -0.8306  0.2438
 3347SOL    HW121503   2.136   4.425   8.364 -1.1552 -1.5011 -2.3493
 3347SOL    HW221504   2.268   4.448   8.426  0.0820 -0.0946 -0.3907
 3348SOL     OW21505   4.107   0.741   9.688 -1.0596 -0.0148 -0.2185
 3348SOL    HW121506   4.123   0.820   9.739  0.6595  0.6960 -1.8459
 3348SOL    HW221507   4.072   0.786   9.611 -0.2291  2.5529  0.9088
 3349SOL     OW21508   1.467   2.075   5.038 -0.5171  0.3123 -0.0081
 3349SOL    HW121509   1.536   2.053   5.101 -0.6348  1.1341  0.4151
 3349SOL    HW221510   1.389   2.047   5.086 -1.1853 -0.2216 -1.4051
 3350SOL     OW21511   2.815   2.801   1.612 -0.1155  0.2769 -0.6439
 3350SOL    HW121512   2.781   2.833   1.695 -0.8834 -0.2868 -0.7402
 3350SOL    HW221513   2.902   2.775   1.642 -1.3721 -2.1232  0.9435
 3351SOL     OW21514   4.318   0.474   6.470 -0.2922 -0.0419  0.1512
 3351SOL    HW121515   4.250   0.513   6.415 -0.3140  0.2470  0.3833
 3351SOL    HW221516   4.387   0.525   6.428 -2.5589  0.0098 -3.5236
 3352SOL     OW21517   1.195   0.813   3.264  0.2102  0.3184  0.5528
 3352SOL    HW121518   1.270   0.753   3.275 -0.2593 -0.6153 -1.3163
 3352SOL    HW221519   1.205   0.848   3.175  2.9897 -2.3939 -0.2171
 3353SOL     OW21520   0.956   4.594   6.300 -0.2214 -0.7945  0.0794
 3353SOL    HW121521   1.038   4.639   6.319  0.7123 -2.2363 -0.5270
 3353SOL    HW221522   0.892   4.644   6.350 -0.1517 -1.0592  0.4324
 3354SOL     OW21523   2.551   3.297   9.129  0.1432 -0.2518 -0.5701
 3354SOL    HW121524   2.567   3.304   9.223  1.4436  0.4102 -0.8398
 3354SOL    HW221525   2.624   3.336   9.081 -0.7431 -0.5319 -2.1454
 3355SOL     OW21526   3.583   3.383  10.721 -0.6243 -0.3763  0.2123
 3355SOL    HW121527   3.637   3.410  10.796  0.9071 -0.6707 -0.7928
 3355SOL    HW221528   3.585   3.288  10.728  2.3789 -0.2198  1.4237
 3356SOL     OW21529   0.685   1.038   2.006 -0.3768 -0.0393 -0.5773
 3356SOL    HW121530   0.610   1.068   2.056 -0.1329 -0.4964  0.0524
 3356SOL    HW221531   0.741   1.017   2.081 -0.3360  0.4343 -0.4802
 3357SOL     OW21532   1.383   2.555  12.904 -0.0411 -0.0903  0.3056
 3357SOL    HW121533   1.359   2.512  12.822 -0.6076 -1.4079  1.1560
 3357SOL    HW221534   1.476   2.559  12.883  0.2650 -0.3967  1.5735
 3358SOL     OW21535   2.295   4.668   9.869 -0.6008  0.0353  0.4685
 3358SOL    HW121536   2.331   4.719   9.796  2.2434 -1.6248  0.7062
 3358SOL    HW221537   2.323   4.728   9.938  1.0773  0.4567 -0.5682
 3359SOL     OW21538   2.513   1.605   8.727  0.1526 -0.4212 -0.2424
 3359SOL    HW121539   2.506   1.695   8.758  0.6603 -1.5554  3.1677
 3359SOL    HW221540   2.419   1.589   8.718 -0.2309  0.8558  1.6338
 3360SOL     OW21541   1.881   2.799  17.297 -0.1973  0.1628  0.0923
 3360SOL    HW121542   1.950   2.852  17.338 -0.0820  0.9402 -1.1062
 3360SOL    HW221543   1.935   2.741  17.243  1.9374 -0.9247  3.4133
 3361SOL     OW21544   4.244   2.439   7.629 -0.0204 -0.2229  0.3440
 3361SOL    HW121545   4.317   2.379   7.643  0.0103 -0.1634  0.4365
 3361SOL    HW221546   4.258   2.466   7.538 -2.9522  2.1594  0.6116
 3362SOL     OW21547   1.713   0.817   2.664 -0.5983 -0.1210 -0.5154
 3362SOL    HW121548   1.709   0.724   2.645 -2.5201 -0.4526  1.5212
 3362SOL    HW221549   1.759   0.851   2.588 -1.9695  0.4929 -1.0782
 3363SOL     OW21550   3.196   1.975  11.780 -0.4020 -0.1769 -0.4556
 3363SOL    HW121551   3.274   2.027  11.764  0.3314 -0.2259  3.0105
 3363SOL    HW221552   3.173   1.997  11.870 -1.1287  0.7141 -0.8634
 3364SOL     OW21553   2.413   4.471   7.445 -0.0977  0.2914 -0.2758
 3364SOL    HW121554   2.444   4.514   7.525  0.3164  1.0602 -0.8504
 3364SOL    HW221555   2.348   4.536   7.418 -2.2084 -2.1629 -1.1710
 3365SOL     OW21556   2.462   2.367   6.271 -0.1187  0.2337  0.1989
 3365SOL    HW121557   2.405   2.295   6.298 -0.7037  0.1851 -1.1246
 3365SOL    HW221558   2.487   2.421   6.346  2.0730 -1.5307  0.7121
 3366SOL     OW21559   4.519   1.984   5.235 -0.2118  0.6279 -1.1266
 3366SOL    HW121560   4.597   2.026   5.270  1.1031 -1.5067 -1.4961
 3366SOL    HW221561   4.456   2.026   5.294 -2.4420 -2.0584 -1.5890
 3367SOL     OW21562   4.055   4.725   1.137 -0.1630 -0.4142  0.1827
 3367SOL    HW121563   4.048   4.636   1.102  2.4854 -0.8876  0.8747
 3367SOL    HW221564   4.125   0.029   1.081  0.8342 -1.2313  0.9540
 3368SOL     OW21565   3.765   3.975  10.034  0.0546 -0.3039 -0.1724
 3368SOL    HW121566   3.854   3.962  10.002  1.0984  2.3404  1.6946
 3368SOL    HW221567   3.709   3.924   9.974  0.5060 -0.1222 -0.7441
 3369SOL     OW21568   0.672   3.747   1.967 -0.5776 -0.5534 -0.0621
 3369SOL    HW121569   0.715   3.689   2.031 -0.7521  0.4069  0.9275
 3369SOL    HW221570   0.586   3.749   2.009 -0.2212 -1.8646  0.7499
 3370SOL     OW21571   0.256   2.705   5.711  0.4418  0.3699 -0.8093
 3370SOL    HW121572   0.172   2.660   5.706 -0.1634  1.4720 -0.6403
 3370SOL    HW221573   0.313   2.631   5.732 -0.0404 -0.4427 -2.3348
 3371SOL     OW21574   2.986   2.548   5.128 -0.0083 -0.3582  0.4824
 3371SOL    HW121575   2.959   2.465   5.088  0.0856  0.1557 -0.6687
 3371SOL    HW221576   2.910   2.605   5.115  0.9472  0.3321 -2.1584
 3372SOL     OW21577   1.993   4.461  16.841  0.7767 -0.0145  0.5195
 3372SOL    HW121578   2.084   4.448  16.869  2.2460  1.1972 -3.6456
 3372SOL    HW221579   1.996   4.546  16.797  1.6998  0.2099  1.0067
 3373SOL     OW21580   4.278   3.351  11.917  0.1118  0.9084  0.0917
 3373SOL    HW121581   4.365   3.330  11.950 -0.6420 -0.3829  1.2334
 3373SOL    HW221582   4.277   3.296  11.838  0.6939 -1.7188  1.9085
 3374SOL     OW21583   4.392   0.685   8.038 -0.2332  0.1356 -0.5893
 3374SOL    HW121584   4.485   0.711   8.036 -0.1076 -0.2507  0.2350
 3374SOL    HW221585   4.369   0.692   7.946 -0.5977 -0.5859 -0.5516
 3375SOL     OW21586   1.219   1.596   1.364  0.0180 -0.0582  0.7751
 3375SOL    HW121587   1.143   1.631   1.411  1.8965  2.7310  1.7109
 3375SOL    HW221588   1.206   1.634   1.277  0.7053 -0.7846  0.3552
 3376SOL     OW21589   2.894   1.876  10.247 -0.2906 -0.1877 -0.4403
 3376SOL    HW121590   2.948   1.797  10.247  2.9700  2.0323 -1.7005
 3376SOL    HW221591   2.807   1.836  10.242 -0.1134 -0.5983 -0.2311
 3377SOL     OW21592   4.198   2.167  16.272 -0.0421 -0.1473  0.1506
 3377SOL    HW121593   4.277   2.128  16.309  0.2819 -0.2706 -0.6733
 3377SOL    HW221594   4.158   2.210  16.348 -1.0219  0.5582 -0.7599
 3378SOL     OW21595   1.607   3.339   6.168 -0.3139  0.0493 -0.4974
 3378SOL    HW121596   1.546   3.351   6.241  0.1691 -0.6485  0.0350
 3378SOL    HW221597   1.604   3.426   6.130  1.1144  0.1399 -0.4019
 3379SOL     OW21598   3.900   3.287   1.354  0.0658 -0.1683  0.2547
 3379SOL    HW121599   3.918   3.309   1.262  0.5897  0.7539  0.5759
 3379SOL    HW221600   3.823   3.338   1.380 -0.4631 -1.0825  0.4488
 3380SOL     OW21601   4.075   4.650  15.650 -0.0999 -0.2718 -0.2689
 3380SOL    HW121602   4.010   4.651  15.580 -0.6854  1.2312  0.2893
 3380SOL    HW221603   4.065   0.012  15.680 -1.0752  0.0355 -1.5148
 3381SOL     OW21604   1.721   3.912   3.142  0.1663 -0.3435  0.3622
 3381SOL    HW121605   1.806   3.957   3.141 -0.0944  0.1345 -0.8144
 3381SOL    HW221606   1.669   3.961   3.078 -0.0967 -1.6272 -0.4076
 3382SOL     OW21607   1.488   4.135  11.847  0.8201  0.0858  0.0724
 3382SOL    HW121608   1.516   4.047  11.875  1.7420  0.5343  0.5626
 3382SOL    HW221609   1.546   4.188  11.902  0.4933  0.1112  0.3886
 3383SOL     OW21610   2.287   4.679   3.595  0.4832 -0.2323  0.0964
 3383SOL    HW121611   2.360   0.001   3.631  1.7055 -2.2909  0.5470
 3383SOL    HW221612   2.281   4.717   3.507 -2.6993 -0.7093  0.1073
 3384SOL     OW21613   0.275   3.368   6.794 -0.2870 -0.3676 -0.8785
 3384SOL    HW121614   0.361   3.325   6.790 -0.6302 -0.8890 -2.6113
 3384SOL    HW221615   0.291   3.455   6.830 -1.5965 -0.9001  0.9619
 3385SOL     OW21616   0.557   0.634  11.738  0.3353  0.0403 -0.1903
 3385SOL    HW121617   0.601   0.715  11.763 -0.6826  1.0269 -1.5730
 3385SOL    HW221618   0.463   0.655  11.736  0.3628  0.2712  0.8459
 3386SOL     OW21619   3.755   3.843   2.441  0.0465 -0.1482 -0.3649
 3386SOL    HW121620   3.829   3.892   2.476 -1.1414  1.5312 -0.2473
 3386SOL    HW221621   3.783   3.840   2.349 -0.3635  0.2343 -0.5011
 3387SOL     OW21622   1.995   0.101   8.351  0.3161  0.3542  0.7295
 3387SOL    HW121623   1.995   0.087   8.445 -4.1111 -2.8100  0.2402
 3387SOL    HW221624   2.047   0.181   8.340 -1.8039  1.6393  0.0215
 3388SOL     OW21625   1.183   1.107   9.337  0.0420  0.5125 -0.6542
 3388SOL    HW121626   1.198   1.085   9.429 -0.8959 -4.8560 -1.7878
 3388SOL    HW221627   1.262   1.148   9.301  0.9173  0.7211  1.5392
 3389SOL     OW21628   1.659   0.630   8.516  0.5620 -0.2253  0.7632
 3389SOL    HW121629   1.617   0.578   8.447  1.7654 -2.2016  1.5166
 3389SOL    HW221630   1.736   0.663   8.470  0.4117 -1.1631 -0.1723
 3390SOL     OW21631   4.078   4.192   7.703 -0.0131 -0.1913 -0.3781
 3390SOL    HW121632   4.048   4.126   7.765  1.3543 -0.4693 -0.0327
 3390SOL    HW221633   4.167   4.207   7.734 -0.9681  0.3348  2.0554
 3391SOL     OW21634   2.157   0.212   1.632 -0.3428  0.3910 -0.1405
 3391SOL    HW121635   2.160   0.270   1.708 -0.7479  0.0001  0.1731
 3391SOL    HW221636   2.064   0.216   1.611 -0.2645 -2.0035 -0.9743
 3392SOL     OW21637   2.511   1.592  12.190 -0.7999 -0.1760 -0.4259
 3392SOL    HW121638   2.492   1.498  12.190  1.6393 -0.6943 -0.8632
 3392SOL    HW221639   2.607   1.588  12.187 -0.7676 -1.2840  2.0878
 3393SOL     OW21640   1.290   0.283   7.998  0.6290 -0.0844 -0.0520
 3393SOL    HW121641   1.344   0.289   7.920  1.7284  0.6771  0.7707
 3393SOL    HW221642   1.367   0.276   8.055 -0.1984 -2.0783  0.8450
 3394SOL     OW21643   3.784   1.864   6.009 -0.3842 -0.2163 -0.5755
 3394SOL    HW121644   3.802   1.773   5.988  0.4756 -0.1486 -0.1300
 3394SOL    HW221645   3.832   1.868   6.092 -0.8196 -1.4878 -0.2633
 3395SOL     OW21646   3.687   0.155   2.962  0.3950  0.2219 -0.0975
 3395SOL    HW121647   3.654   0.211   2.892 -1.8089 -0.9654 -0.0075
 3395SOL    HW221648   3.771   0.199   2.974  0.0468  0.6586  0.7278
 3396SOL     OW21649   1.735   3.271   2.207  0.1666  0.5920 -0.6658
 3396SOL    HW121650   1.703   3.350   2.163  1.3029  0.5891 -1.5137
 3396SOL    HW221651   1.768   3.215   2.137 -0.5961  0.5137 -0.9563
 3397SOL     OW21652   2.569   2.335   3.931  0.7857  0.2247  0.3564
 3397SOL    HW121653   2.660   2.305   3.933  0.4369 -0.8491 -0.0881
 3397SOL    HW221654   2.548   2.323   3.838  0.7253  1.9366  0.1373
 3398SOL     OW21655   1.226   1.222  13.854 -0.0235  0.6178  0.5754
 3398SOL    HW121656   1.179   1.286  13.799  0.4198  0.7103  0.3088
 3398SOL    HW221657   1.250   1.275  13.930 -1.3321  1.5175  0.3772
 3399SOL     OW21658   3.240   2.970  12.556  0.0568 -0.4293  0.4957
 3399SOL    HW121659   3.167   2.910  12.543  0.3364 -0.3784 -1.3968
 3399SOL    HW221660   3.312   2.916  12.590  2.2507  1.3277 -1.2950
 3400SOL     OW21661   1.133   3.410  11.538  0.4736 -0.2570 -0.6268
 3400SOL    HW121662   1.222   3.398  11.503  0.9452  4.5032 -0.9963
 3400SOL    HW221663   1.145   3.363  11.621 -0.7576 -0.6074 -0.6525
 3401SOL     OW21664   0.820   0.788  11.441  0.0923 -0.4033  0.1848
 3401SOL    HW121665   0.864   0.718  11.489 -0.3525  1.6101  3.5532
 3401SOL    HW221666   0.794   0.853  11.507  2.6046  0.3832  0.3693
 3402SOL     OW21667   3.822   2.327   5.271 -0.3075  0.1832 -0.9949
 3402SOL    HW121668   3.738   2.326   5.315  1.2677 -0.9497  1.9831
 3402SOL    HW221669   3.823   2.403   5.212 -2.4326  1.3598  0.5063
 3403SOL     OW21670   0.525   0.063  16.059  0.1838  0.1345  0.1874
 3403SOL    HW121671   0.478   0.028  15.983  0.2649  1.9189 -0.6781
 3403SOL    HW221672   0.616   0.050  16.035  0.3028 -0.3024  0.8822
 3404SOL     OW21673   4.076   1.210   0.930 -0.8022 -0.1787  0.0045
 3404SOL    HW121674   4.140   1.233   0.863 -0.0805 -0.9902  0.4093
 3404SOL    HW221675   3.998   1.226   0.877 -0.1557  1.3415 -0.5099
 3405SOL     OW21676   0.777   3.983   6.247 -0.5136 -0.4012  0.2441
 3405SOL    HW121677   0.713   3.912   6.250  0.8623 -1.6210  1.4131
 3405SOL    HW221678   0.718   4.058   6.252 -0.3900 -0.2678 -0.2877
 3406SOL     OW21679   1.962   3.687   4.057  0.1409  0.0753  0.5257
 3406SOL    HW121680   1.996   3.649   3.975  1.7603  0.0924  1.1827
 3406SOL    HW221681   1.987   3.778   4.040  1.0713 -0.3958 -0.7144
 3407SOL     OW21682   3.203   4.429   9.937  0.7697  0.5110 -0.1489
 3407SOL    HW121683   3.119   4.449   9.979  0.6945 -0.5227  0.2006
 3407SOL    HW221684   3.207   4.502   9.875  1.4860 -0.0481 -0.7607
 3408SOL     OW21685   1.258   1.299   2.875 -0.0084  0.0034  0.3819
 3408SOL    HW121686   1.201   1.275   2.948 -2.4608  0.1516 -1.4890
 3408SOL    HW221687   1.341   1.278   2.919 -0.3118 -0.0192  0.9376
 3409SOL     OW21688   1.723   2.005  17.424 -0.2236 -0.2147  0.1626
 3409SOL    HW121689   1.722   2.074  17.490 -2.7511  0.2871 -0.4280
 3409SOL    HW221690   1.816   1.982  17.418  0.1302  1.3764 -0.3923
 3410SOL     OW21691   3.498   4.656   3.977 -0.0469  0.6224 -0.4531
 3410SOL    HW121692   3.534   4.601   4.046 -0.4116  0.5979 -0.2829
 3410SOL    HW221693   3.427   4.702   4.022 -0.9308 -0.0259 -1.1772
 3411SOL     OW21694   3.813   1.989  15.618  0.2117 -0.2882 -0.7124
 3411SOL    HW121695   3.810   2.011  15.525  3.9431 -1.1757 -1.0451
 3411SOL    HW221696   3.905   1.973  15.638  0.5015  0.2604 -1.6191
 3412SOL     OW21697   1.916   3.335   2.471 -0.5096 -0.1447 -0.1799
 3412SOL    HW121698   1.850   3.310   2.406 -0.0863 -0.2701 -0.5652
 3412SOL    HW221699   1.897   3.276   2.544 -0.7052  1.2645  0.8995
 3413SOL     OW21700   3.023   0.915  14.619 -0.0868 -0.3003 -0.5327
 3413SOL    HW121701   3.020   0.866  14.537 -0.8474 -0.7506 -0.2323
 3413SOL    HW221702   2.941   0.964  14.613  0.3118  0.3054 -1.1754
 3414SOL     OW21703   1.734   0.609   6.102 -0.3965  0.3819 -0.4865
 3414SOL    HW121704   1.806   0.656   6.059 -1.0876 -1.2647 -3.4017
 3414SOL    HW221705   1.672   0.587   6.033  1.6205  0.8718 -2.4738
 3415SOL     OW21706   0.237   0.483   9.055 -0.2033  0.8160  0.2259
 3415SOL    HW121707   0.244   0.578   9.041  1.8506  0.6713  0.2143
 3415SOL    HW221708   0.319   0.474   9.104 -0.2373 -1.3113 -0.1265
 3416SOL     OW21709   3.042   2.791  12.513 -0.0343  1.2666 -0.2449
 3416SOL    HW121710   3.033   2.697  12.496  0.9775  0.8053  1.7009
 3416SOL    HW221711   2.989   2.814  12.437 -0.6476  0.0830 -0.1907
 3417SOL     OW21712   1.163   0.577   9.169 -0.3934  0.1113  0.0448
 3417SOL    HW121713   1.161   0.491   9.211  0.8270  0.5871  1.0832
 3417SOL    HW221714   1.168   0.640   9.241 -0.8792 -0.9172  0.9780
 3418SOL     OW21715   2.283   0.818   4.546 -0.0287  0.1883 -0.3825
 3418SOL    HW121716   2.339   0.873   4.601 -0.9476 -0.8259  1.5312
 3418SOL    HW221717   2.242   0.764   4.612  0.8561 -0.7124 -0.5731
 3419SOL     OW21718   3.402   4.688   7.626 -0.3936 -0.5467  0.2730
 3419SOL    HW121719   3.484   4.657   7.588 -1.2616 -1.8513 -0.5389
 3419SOL    HW221720   3.382   4.623   7.693 -0.5376 -0.1416  0.6227
 3420SOL     OW21721   0.402   4.010   5.158 -0.2278  0.1834  0.0836
 3420SOL    HW121722   0.387   4.104   5.158 -1.6043 -0.0371  0.0875
 3420SOL    HW221723   0.385   3.997   5.064  1.8178 -1.3236 -0.0722
 3421SOL     OW21724   0.770   0.111   2.486  0.2609  0.0471 -0.1802
 3421SOL    HW121725   0.846   0.160   2.519 -0.8316 -0.1698  2.6946
 3421SOL    HW221726   0.738   0.164   2.413 -1.0330 -0.9341 -0.3267
 3422SOL     OW21727   2.434   2.636  16.658  0.0548 -0.1490  0.0002
 3422SOL    HW121728   2.464   2.646  16.748 -0.0970  3.2827 -0.3586
 3422SOL    HW221729   2.343   2.607  16.666 -0.7643  2.9767  1.6712
 3423SOL     OW21730   2.988   4.561   9.106 -0.5671 -0.6111 -0.0036
 3423SOL    HW121731   2.898   4.546   9.078 -1.2103  0.5010  1.4694
 3423SOL    HW221732   3.002   4.478   9.152  3.7568 -0.4496 -1.0205
 3424SOL     OW21733   0.206   3.732   4.144 -0.2618  0.1547 -0.1584
 3424SOL    HW121734   0.122   3.758   4.105 -1.1509 -1.9154  0.3520
 3424SOL    HW221735   0.229   3.642   4.120 -0.2298 -0.0484  0.6126
 3425SOL     OW21736   2.576   0.287   8.984 -0.0709 -0.4777 -0.1060
 3425SOL    HW121737   2.500   0.267   9.039  0.4036 -0.1222  0.6875
 3425SOL    HW221738   2.613   0.354   9.042  3.5008 -1.3143 -1.4205
 3426SOL     OW21739   2.559   1.245   2.575 -0.2013  0.0564 -0.1389
 3426SOL    HW121740   2.472   1.261   2.539 -0.2666 -1.4879 -0.6535
 3426SOL    HW221741   2.574   1.327   2.623 -2.8600 -0.3194  1.3040
 3427SOL     OW21742   3.360   0.650   7.409  0.3935  0.1078 -0.1656
 3427SOL    HW121743   3.362   0.599   7.490  1.4554 -1.4643 -1.1747
 3427SOL    HW221744   3.305   0.595   7.354 -0.3282  2.0559 -1.3848
 3428SOL     OW21745   1.625   0.851   6.259 -0.2148  0.1451  0.1656
 3428SOL    HW121746   1.639   0.772   6.207 -0.0058  0.5292 -0.3583
 3428SOL    HW221747   1.715   0.876   6.280 -0.7807  2.5750 -0.2549
 3429SOL     OW21748   0.574   0.399   3.184 -0.0908 -0.0320  0.1320
 3429SOL    HW121749   0.490   0.362   3.212 -1.0659  2.2459  0.2428
 3429SOL    HW221750   0.629   0.372   3.257  2.7931  1.9985 -1.2623
 3430SOL     OW21751   1.455   0.634   4.163  0.1545  0.5546  0.1753
 3430SOL    HW121752   1.426   0.700   4.226  2.7191 -0.4967  2.4372
 3430SOL    HW221753   1.549   0.642   4.177 -0.0990  1.9049  1.1144
 3431SOL     OW21754   2.099   3.013  12.436  0.5486 -0.0016 -0.1204
 3431SOL    HW121755   2.138   3.021  12.523 -2.4185 -1.5024  1.3644
 3431SOL    HW221756   2.025   2.954  12.453  0.4242  0.5275  1.1870
 3432SOL     OW21757   3.037   2.287   8.278 -0.3458 -0.2733  0.1297
 3432SOL    HW121758   3.092   2.361   8.304  1.4830 -1.7738  0.5010
 3432SOL    HW221759   3.063   2.221   8.343  1.3307  0.8180  0.5602
 3433SOL     OW21760   1.754   1.022   8.336 -0.0935  0.1002 -0.1931
 3433SOL    HW121761   1.739   1.042   8.428 -0.3436 -0.6968 -0.0611
 3433SOL    HW221762   1.841   0.984   8.328  0.1036  0.2971  1.1329
 3434SOL     OW21763   4.133   0.766   4.986  0.4966 -0.3549  0.4446
 3434SOL    HW121764   4.103   0.834   5.046 -0.3637  0.9191 -1.4382
 3434SOL    HW221765   4.224   0.793   4.974  0.3830  0.3942  1.2866
 3435SOL     OW21766   2.294   3.787  11.738 -0.2210 -0.7830 -0.2106
 3435SOL    HW121767   2.301   3.828  11.652  0.0151  1.2067  0.7483
 3435SOL    HW221768   2.199   3.782  11.750 -0.3433 -1.1897 -1.3358
 3436SOL     OW21769   1.956   2.178   4.532 -0.2688 -0.2583 -0.1991
 3436SOL    HW121770   1.966   2.267   4.498 -0.2205  0.3772  1.4348
 3436SOL    HW221771   2.048   2.153   4.523 -1.4539 -2.8682 -4.8414
 3437SOL     OW21772   0.143   1.716   4.116  0.3394  0.0011 -0.3501
 3437SOL    HW121773   0.077   1.646   4.117  1.0211 -0.6422 -0.1849
 3437SOL    HW221774   0.157   1.737   4.024  0.0067 -1.1755 -0.6785
 3438SOL     OW21775   3.253   1.402   3.142  0.3736  0.4975  0.2062
 3438SOL    HW121776   3.169   1.441   3.117  1.0603 -0.8273 -4.1719
 3438SOL    HW221777   3.307   1.432   3.069  0.1430 -1.1276 -0.6423
 3439SOL     OW21778   4.680   1.649  12.904  0.5025  0.0113  0.5079
 3439SOL    HW121779   4.647   1.676  12.990 -0.3584  1.4859 -0.2832
 3439SOL    HW221780   4.602   1.610  12.866  1.0622  0.5048 -1.1445
 3440SOL     OW21781   4.054   2.007   8.485 -0.5794 -0.0206  0.0916
 3440SOL    HW121782   3.998   2.012   8.407  1.0966 -1.0087 -1.1514
 3440SOL    HW221783   3.983   2.008   8.550  1.2528  0.0594  2.0891
 3441SOL     OW21784   0.930   4.240   3.624  0.4361  0.3955  0.2673
 3441SOL    HW121785   1.015   4.231   3.667 -0.5996  0.0058  2.2422
 3441SOL    HW221786   0.925   4.172   3.557 -0.6651  0.4938  0.2442
 3442SOL     OW21787   0.736   0.354   6.116 -0.1032  0.1169  0.4216
 3442SOL    HW121788   0.671   0.422   6.130  0.7504  0.8820  0.6793
 3442SOL    HW221789   0.768   0.376   6.028 -0.5465  0.1033  0.2565
 3443SOL     OW21790   0.246   3.032  13.971 -0.1455  0.2376 -0.4167
 3443SOL    HW121791   0.284   3.092  13.907 -2.3601  1.2316 -0.8087
 3443SOL    HW221792   0.302   3.032  14.049  1.2210 -0.8832 -1.3987
 3444SOL     OW21793   1.535   1.641  11.222  0.0331 -0.2724  0.0226
 3444SOL    HW121794   1.619   1.610  11.256  0.4043  0.1864 -0.4803
 3444SOL    HW221795   1.509   1.707  11.285  3.4151  2.1250 -1.0961
 3445SOL     OW21796   2.798   0.409   2.755 -0.2633  0.2526 -0.6855
 3445SOL    HW121797   2.802   0.425   2.661  3.8926 -1.4678 -0.8023
 3445SOL    HW221798   2.846   0.326   2.756  0.4120  0.6210 -1.9954
 3446SOL     OW21799   3.569   3.210   3.357 -0.3967 -0.0406 -0.2489
 3446SOL    HW121800   3.632   3.168   3.414 -0.1565  0.3704 -0.2096
 3446SOL    HW221801   3.500   3.237   3.418  1.5587 -1.9196  2.7730
 3447SOL     OW21802   2.211   1.361  10.621 -0.0521  0.0896  0.0242
 3447SOL    HW121803   2.237   1.320  10.704 -0.3474  0.8298  0.4827
 3447SOL    HW221804   2.201   1.454  10.644 -0.3064 -0.5056  2.3610
 3448SOL     OW21805   1.560   4.575   5.834  0.5867  0.5822 -0.8897
 3448SOL    HW121806   1.564   4.486   5.798  1.8161  0.3753 -0.2072
 3448SOL    HW221807   1.624   4.617   5.777  1.4504 -0.8777 -0.9935
 3449SOL     OW21808   2.614   0.387   6.022  0.2513  0.1978  0.1024
 3449SOL    HW121809   2.704   0.398   5.991  1.1854 -1.4670  2.2753
 3449SOL    HW221810   2.634   0.334   6.099  1.6410  1.3354  0.5123
 3450SOL     OW21811   1.607   2.141   9.630  0.1512  0.2887  0.5823
 3450SOL    HW121812   1.650   2.087   9.695 -1.5185  1.1745  2.4124
 3450SOL    HW221813   1.631   2.228   9.660  1.0486  0.5186 -0.7732
 3451SOL     OW21814   2.203   3.437  17.394  0.6487 -0.2787 -0.2660
 3451SOL    HW121815   2.112   3.466  17.394  1.3318  1.8660 -0.8730
 3451SOL    HW221816   2.189   3.379  17.468  0.8067 -0.9468 -0.7575
 3452SOL     OW21817   2.364   1.399   5.535  0.2118 -0.3834 -0.3585
 3452SOL    HW121818   2.333   1.354   5.457  0.2439 -1.3072  0.1709
 3452SOL    HW221819   2.438   1.341   5.553  0.2034 -0.9255 -2.0717
 3453SOL     OW21820   3.918   1.471   6.200 -0.2373  0.7594  0.3778
 3453SOL    HW121821   4.012   1.486   6.194  0.0632 -0.4111  2.2286
 3453SOL    HW221822   3.899   1.497   6.291 -1.8244 -0.2966  0.3476
 3454SOL     OW21823   2.232   3.940  12.897  0.2185 -0.5403  0.3024
 3454SOL    HW121824   2.139   3.956  12.913  0.4486  1.5269 -0.3995
 3454SOL    HW221825   2.246   3.946  12.803  0.2689 -1.4495  0.2529
 3455SOL     OW21826   3.076   3.514   1.160  0.6190 -0.2077 -0.2921
 3455SOL    HW121827   3.027   3.574   1.104  2.0637  0.4907 -0.7998
 3455SOL    HW221828   3.004   3.464   1.198 -0.4267  1.2206 -0.3887
 3456SOL     OW21829   2.927   2.181  17.132  0.0458  0.1858  0.4995
 3456SOL    HW121830   2.962   2.098  17.163  1.3333  0.6647  0.3478
 3456SOL    HW221831   2.933   2.239  17.208 -0.0556 -0.3501  0.9128
 3457SOL     OW21832   4.271   2.291   6.647 -0.7171  0.0282 -0.3011
 3457SOL    HW121833   4.261   2.258   6.558 -2.0923 -1.3250  0.3774
 3457SOL    HW221834   4.292   2.213   6.697 -2.8390 -0.6028 -0.4084
 3458SOL     OW21835   1.184   4.470   2.307  0.3940  0.1319  0.0712
 3458SOL    HW121836   1.092   4.465   2.333 -0.0182  1.3448 -1.1742
 3458SOL    HW221837   1.217   4.559   2.300 -0.6345  0.4525 -0.5807
 3459SOL     OW21838   3.968   1.966  15.881 -0.3143 -0.2609 -0.1693
 3459SOL    HW121839   4.042   1.976  15.821  0.3859 -0.6339  0.6380
 3459SOL    HW221840   3.921   2.049  15.869  2.0347  1.2972  1.4867
 3460SOL     OW21841   4.621   0.424   3.637 -0.4290 -0.4723 -0.0883
 3460SOL    HW121842   4.654   0.423   3.547  0.1125  1.8115  0.0870
 3460SOL    HW221843   4.529   0.430   3.611 -0.4091  0.3282  0.0447
 3461SOL     OW21844   3.674   0.280  12.078  0.3984  0.4596  0.0384
 3461SOL    HW121845   3.591   0.269  12.033  0.6651 -0.2778 -0.2826
 3461SOL    HW221846   3.690   0.186  12.083 -0.6919  0.3222  0.9093
 3462SOL     OW21847   3.375   3.913  15.572  0.1485  0.5201 -0.3538
 3462SOL    HW121848   3.447   3.885  15.515 -0.1380  0.2663 -0.5906
 3462SOL    HW221849   3.315   3.937  15.502  1.0317  1.0942 -0.9095
 3463SOL     OW21850   0.437   1.461   8.081  0.1264 -0.2648 -0.2060
 3463SOL    HW121851   0.494   1.386   8.062 -0.5138 -0.4469 -1.4062
 3463SOL    HW221852   0.483   1.498   8.156 -2.1596  0.6585  0.7428
 3464SOL     OW21853   4.066   3.527   1.489 -0.0266  0.3851  0.0762
 3464SOL    HW121854   4.079   3.596   1.554  0.6246 -0.7654  1.1694
 3464SOL    HW221855   3.971   3.533   1.482  0.2456  1.8335 -2.2154
 3465SOL     OW21856   2.041   3.600   2.470  1.0747 -0.1181  0.4586
 3465SOL    HW121857   2.013   3.514   2.500 -1.9793 -0.0753 -2.2646
 3465SOL    HW221858   2.043   3.593   2.375 -1.0193  0.7199  0.3537
 3466SOL     OW21859   1.564   0.035  17.371 -0.1857 -0.5346 -0.5437
 3466SOL    HW121860   1.607   0.040  17.456 -0.1245 -0.3700 -0.5833
 3466SOL    HW221861   1.472   0.020  17.389 -1.0562  2.3684 -2.5532
 3467SOL     OW21862   1.038   1.437   3.643  0.1415 -0.4338  0.1158
 3467SOL    HW121863   0.962   1.485   3.609 -0.2656 -2.2846 -1.6247
 3467SOL    HW221864   1.085   1.514   3.673 -1.8372  0.8028  0.0909
 3468SOL     OW21865   3.574   1.811  17.704  0.3788 -0.5789  0.1552
 3468SOL    HW121866   3.613   1.849  17.625 -1.1168  0.3211 -0.1609
 3468SOL    HW221867   3.585   1.716  17.692 -0.0628 -0.7885  1.3932
 3469SOL     OW21868   4.409   0.789   2.657 -0.0921  0.1114 -0.0488
 3469SOL    HW121869   4.374   0.724   2.596  1.0614 -0.1108 -0.4637
 3469SOL    HW221870   4.382   0.875   2.624 -0.3253  0.0048 -0.1343
 3470SOL     OW21871   2.242   4.309   3.813  0.1271 -0.1110 -0.4197
 3470SOL    HW121872   2.223   4.393   3.854  1.3274 -0.6183  1.1740
 3470SOL    HW221873   2.173   4.319   3.747  0.0062  1.5599 -0.0296
 3471SOL     OW21874   0.527   4.188   2.705  0.3904 -0.1591 -0.0463
 3471SOL    HW121875   0.536   4.232   2.620 -0.2862  0.8646  0.4108
 3471SOL    HW221876   0.507   4.260   2.764  2.6474 -0.7604  1.4564
 3472SOL     OW21877   0.610   4.595  11.727  0.4022 -0.3729  0.1702
 3472SOL    HW121878   0.579   4.551  11.648 -0.4248  0.0392  0.2741
 3472SOL    HW221879   0.693   4.547  11.732  0.0131 -1.1534 -0.7574
 3473SOL     OW21880   2.605   1.105   2.988 -0.3734  0.3045  0.4441
 3473SOL    HW121881   2.619   1.163   3.063  0.1214  0.4818  0.2127
 3473SOL    HW221882   2.552   1.163   2.934 -1.8290 -0.5859  0.9124
 3474SOL     OW21883   2.291   4.107   8.913  0.1807  0.6536 -0.1368
 3474SOL    HW121884   2.351   4.048   8.867 -0.2624  0.1441 -0.0613
 3474SOL    HW221885   2.255   4.151   8.835  0.1149 -1.3056 -1.2226
 3475SOL     OW21886   1.065   3.497   5.870 -0.0051  0.2157  1.1906
 3475SOL    HW121887   0.992   3.468   5.815  0.7954  3.3079 -1.5454
 3475SOL    HW221888   1.131   3.465   5.809 -1.3553 -0.9081  0.3032
 3476SOL     OW21889   0.005   4.127  13.752 -0.2747 -0.2639  0.5325
 3476SOL    HW121890   4.646   4.104  13.721 -0.3419 -0.0224  0.5416
 3476SOL    HW221891   0.004   4.219  13.725 -1.2337  0.5496  3.3865
 3477SOL     OW21892   3.981   2.737   4.136 -0.3612 -0.1704  0.8246
 3477SOL    HW121893   3.992   2.832   4.135  0.4754 -0.2712  0.8594
 3477SOL    HW221894   4.009   2.704   4.050  0.2493  1.3744  0.4291
 3478SOL     OW21895   2.807   0.510  12.511  0.5736  0.4978  0.1474
 3478SOL    HW121896   2.814   0.606  12.518 -1.4357  0.7227 -0.9498
 3478SOL    HW221897   2.736   0.494  12.573  1.4027  1.5132  1.3547
 3479SOL     OW21898   2.342   1.254   3.386  0.5343  0.0267  0.1286
 3479SOL    HW121899   2.268   1.234   3.444  0.2135 -1.2697 -0.7107
 3479SOL    HW221900   2.309   1.328   3.334  3.3671  1.8227  0.9188
 3480SOL     OW21901   3.141   0.895  10.985  0.2424  0.0271  0.3430
 3480SOL    HW121902   3.110   0.817  10.940 -0.9595 -0.4517  1.9938
 3480SOL    HW221903   3.158   0.959  10.916  0.7124 -0.8888 -0.3845
 3481SOL     OW21904   1.829   3.726   3.364 -0.0476 -0.0927  0.1532
 3481SOL    HW121905   1.744   3.703   3.402 -1.4460 -0.4662 -3.1272
 3481SOL    HW221906   1.791   3.767   3.285 -0.3057 -0.3163  0.1606
 3482SOL     OW21907   2.122   2.842   0.987  0.1310  0.4001  0.1071
 3482SOL    HW121908   2.081   2.798   1.062  0.0497 -0.4671 -0.4470
 3482SOL    HW221909   2.124   2.771   0.923 -1.7572 -0.8363  1.4292
 3483SOL     OW21910   1.737   1.805   2.903 -0.2973 -0.4030 -0.4909
 3483SOL    HW121911   1.655   1.795   2.952 -1.0807 -0.6489 -1.8733
 3483SOL    HW221912   1.718   1.777   2.814  1.1064  0.1431 -0.9537
 3484SOL     OW21913   3.642   1.259   8.743 -0.3719 -0.3583  0.4664
 3484SOL    HW121914   3.693   1.180   8.723  0.1112  0.3775 -1.1832
 3484SOL    HW221915   3.554   1.244   8.709 -0.0737 -0.5716 -0.2113
 3485SOL     OW21916   1.348   3.566   2.665 -0.2803 -0.0097 -0.1430
 3485SOL    HW121917   1.318   3.608   2.746  0.0231 -0.0531 -0.0092
 3485SOL    HW221918   1.278   3.579   2.601 -1.1730  0.7476  0.9869
 3486SOL     OW21919   1.215   1.931   3.208 -0.0603 -0.4599  0.7175
 3486SOL    HW121920   1.138   1.949   3.261  0.3056  0.8533  0.8029
 3486SOL    HW221921   1.245   2.019   3.186  0.0330 -0.5437  0.5029
 3487SOL     OW21922   1.820   2.530   0.808  0.1195  0.0373  0.5864
 3487SOL    HW121923   1.800   2.512   0.716 -0.0021 -1.4641  0.9056
 3487SOL    HW221924   1.908   2.492   0.808  0.5455  1.0323  0.9708
 3488SOL     OW21925   1.442   2.833   3.301 -0.1195 -0.1538 -0.4026
 3488SOL    HW121926   1.378   2.826   3.372 -0.6039  0.8637 -0.7362
 3488SOL    HW221927   1.523   2.793   3.332 -1.2631 -2.1858 -0.0854
 3489SOL     OW21928   1.456   0.864   4.608  0.0739  0.6043  0.0240
 3489SOL    HW121929   1.484   0.934   4.548 -2.9180  0.7414 -1.2547
 3489SOL    HW221930   1.482   0.788   4.556  0.1945  0.5515  0.1631
 3490SOL     OW21931   3.590   3.397   3.139 -0.0137  0.8256 -0.3219
 3490SOL    HW121932   3.567   3.325   3.198 -0.6867  0.1746 -1.3726
 3490SOL    HW221933   3.561   3.472   3.191 -2.3887  0.6090 -1.3497
 3491SOL     OW21934   4.229   4.511   7.980  0.1704  0.1819 -0.0881
 3491SOL    HW121935   4.243   4.582   8.043  2.6538  0.7494 -1.2717
 3491SOL    HW221936   4.153   4.462   8.013  0.7564 -1.8764 -1.7454
 3492SOL     OW21937   1.143   3.176   8.695  0.3350 -0.2526  0.5063
 3492SOL    HW121938   1.090   3.097   8.706  0.0727 -0.2241 -0.5074
 3492SOL    HW221939   1.182   3.179   8.782 -0.3697  2.0380  0.7578
 3493SOL     OW21940   0.148   4.240   2.849  0.1244 -0.4704 -0.4477
 3493SOL    HW121941   0.130   4.158   2.803  0.0979 -1.4714  1.3388
 3493SOL    HW221942   0.230   4.226   2.897 -0.2935  0.8209  0.6707
 3494SOL     OW21943   2.193   3.020   3.888 -0.0411  0.3184 -0.1615
 3494SOL    HW121944   2.144   3.067   3.955 -0.9116  2.5164 -2.3219
 3494SOL    HW221945   2.121   2.990   3.832 -1.8533  0.5385  2.0465
 3495SOL     OW21946   4.017   2.766   1.891  0.0682  0.2798  0.1400
 3495SOL    HW121947   4.087   2.749   1.954 -1.0701  0.9284  1.5722
 3495SOL    HW221948   3.931   2.752   1.933  0.1406  0.0684  0.2207
 3496SOL     OW21949   0.315   4.318  11.952 -0.3616  0.0983 -0.0994
 3496SOL    HW121950   0.397   4.297  11.997 -0.9885 -0.9598  0.5252
 3496SOL    HW221951   0.245   4.280  12.005 -1.7308  1.7573 -0.7104
 3497SOL     OW21952   3.480   2.933   0.178  0.1258  0.6483  0.1809
 3497SOL    HW121953   3.428   2.857   0.204  0.0761  0.0697 -1.6046
 3497SOL    HW221954   3.478   2.995   0.251 -0.8441 -0.4472  1.0758
 3498SOL     OW21955   2.331   1.819   4.175  0.8502  1.0879  0.4043
 3498SOL    HW121956   2.249   1.862   4.151  1.6499  1.2188 -2.0904
 3498SOL    HW221957   2.339   1.754   4.105 -1.5801  1.3185 -0.0872
 3499SOL     OW21958   4.656   3.650  13.407 -0.2551 -0.6539  0.2633
 3499SOL    HW121959   4.696   3.716  13.463 -0.1213  0.5307 -1.2286
 3499SOL    HW221960   4.574   3.629  13.452 -1.3005  1.0799 -0.8310
 3500SOL     OW21961   3.617   0.010  10.683 -0.0029 -0.3408  0.6630
 3500SOL    HW121962   3.673   0.043  10.753  2.5383  2.3520 -2.6667
 3500SOL    HW221963   3.530   0.022  10.720  0.1154  0.1098  0.7859
 3501SOL     OW21964   0.037   2.948  13.106 -0.0583  0.2058 -0.1063
 3501SOL    HW121965   0.017   2.862  13.146  0.6654  0.6434  1.1982
 3501SOL    HW221966   0.042   2.927  13.013 -0.0552 -2.2949  0.4354
 3502SOL     OW21967   4.710   2.076  11.719 -0.0506  0.2028 -0.0321
 3502SOL    HW121968   4.703   1.987  11.754  0.6759  0.6616  1.2887
 3502SOL    HW221969   4.641   2.061  11.654 -1.6490 -1.4970  2.0693
 3503SOL     OW21970   3.347   0.465  13.886  0.1906 -0.2216 -0.4972
 3503SOL    HW121971   3.327   0.549  13.926 -0.2593 -1.8680  2.7310
 3503SOL    HW221972   3.297   0.415  13.951 -0.5523  0.6991 -0.3587
 3504SOL     OW21973   2.988   0.446   4.969 -0.1695  0.1621  0.2970
 3504SOL    HW121974   2.912   0.504   4.968 -0.7717 -0.6643 -0.7063
 3504SOL    HW221975   2.954   0.357   4.971 -0.1838  0.1738  0.5935
 3505SOL     OW21976   1.791   3.540   7.755 -0.2654  0.1686 -0.3164
 3505SOL    HW121977   1.735   3.531   7.832 -1.4874  0.3454 -1.1992
 3505SOL    HW221978   1.740   3.493   7.690  1.3548  1.6070 -2.6124
 3506SOL     OW21979   0.263   1.895   2.525  0.1730 -0.6268  0.3662
 3506SOL    HW121980   0.349   1.860   2.547  0.5859  0.4184  0.4187
 3506SOL    HW221981   0.201   1.833   2.563  1.0443 -1.2010  0.8470
 3507SOL     OW21982   3.575   2.801   9.016 -0.5168 -0.3457 -0.1267
 3507SOL    HW121983   3.536   2.719   8.987  0.7126 -0.9730  0.0262
 3507SOL    HW221984   3.637   2.816   8.945  0.4164 -2.8625  0.1835
 3508SOL     OW21985   2.681   4.529  11.334  0.2819 -0.0805  0.3624
 3508SOL    HW121986   2.635   4.465  11.280  1.7517 -0.3402 -0.5815
 3508SOL    HW221987   2.652   4.614  11.300  0.5624 -0.1472 -0.0411
 3509SOL     OW21988   4.233   3.272   9.349 -0.2203 -0.3688  0.2829
 3509SOL    HW121989   4.202   3.182   9.350  0.9032 -0.7596  0.1502
 3509SOL    HW221990   4.316   3.261   9.396  0.2691 -1.0670 -0.7476
 3510SOL     OW21991   4.566   0.366  16.128  0.2953 -0.2051  0.5632
 3510SOL    HW121992   4.584   0.293  16.070 -1.3748 -1.2713  1.4191
 3510SOL    HW221993   4.563   0.318  16.211 -0.8708  0.3040  0.8179
 3511SOL     OW21994   4.425   1.468   4.017  0.7741  0.5589  0.0595
 3511SOL    HW121995   4.381   1.524   4.080 -1.1709  0.1843 -0.9754
 3511SOL    HW221996   4.374   1.387   4.025 -1.9311  2.0272 -2.1195
 3512SOL     OW21997   2.019   4.247   7.978 -0.4374  0.2525 -0.4733
 3512SOL    HW121998   2.009   4.152   7.976 -0.5616  0.2369  0.5893
 3512SOL    HW221999   2.058   4.252   7.891 -1.0332 -0.2785 -0.7659
 3513SOL     OW22000   3.231   1.992   4.182  0.3195 -0.4078 -0.2080
 3513SOL    HW122001   3.322   1.979   4.154  0.6969  2.3646 -0.2387
 3513SOL    HW222002   3.203   2.082   4.165 -2.1347 -1.4747 -1.9365
 3514SOL     OW22003   3.846   3.371  15.490  0.1366 -0.1107  0.5469
 3514SOL    HW122004   3.824   3.330  15.406 -1.8192  0.4327  0.7774
 3514SOL    HW222005   3.900   3.444  15.460 -0.5948 -0.6545 -2.1037
 3515SOL     OW22006   2.594   0.471   7.044 -0.3369  0.4278 -0.5321
 3515SOL    HW122007   2.610   0.414   7.119 -0.1756  1.4647  0.2287
 3515SOL    HW222008   2.579   0.553   7.091 -1.4084 -1.4179  2.3508
 3516SOL     OW22009   3.198   0.197   3.147  0.8133 -0.5760 -0.2095
 3516SOL    HW122010   3.273   0.253   3.169 -1.4039  2.0366  0.7417
 3516SOL    HW222011   3.152   0.193   3.231 -1.3202  1.5577 -1.2732
 3517SOL     OW22012   0.464   3.279  11.189  0.0060  0.7648  0.3538
 3517SOL    HW122013   0.446   3.197  11.144  1.0509  0.6788  0.0877
 3517SOL    HW222014   0.560   3.283  11.183 -0.1352  2.0791 -1.1661
 3518SOL     OW22015   3.277   0.720  13.957  0.6161  0.3604  0.8917
 3518SOL    HW122016   3.325   0.726  14.039  2.0369  0.0786  0.0741
 3518SOL    HW222017   3.311   0.786  13.896  0.7135  1.5608  2.2311
 3519SOL     OW22018   3.160   3.815   2.711  0.0357  0.0144  0.6471
 3519SOL    HW122019   3.246   3.803   2.751  0.6776 -0.7236 -0.9229
 3519SOL    HW222020   3.099   3.798   2.783  1.5340  0.3426  1.9814
 3520SOL     OW22021   1.844   4.575  10.433  0.0057  0.0289  0.1330
 3520SOL    HW122022   1.855   4.665  10.462  0.3713  0.0033  0.0737
 3520SOL    HW222023   1.753   4.559  10.458  0.0303 -0.6788 -0.2201
 3521SOL     OW22024   4.577   1.273   3.545  0.3007  0.7931 -0.4915
 3521SOL    HW122025   4.517   1.214   3.591  4.3183  0.2921  4.1784
 3521SOL    HW222026   4.514   1.326   3.497  1.0862 -1.6702 -4.2910
 3522SOL     OW22027   0.620   4.662   3.421  0.3165  0.2924  0.0312
 3522SOL    HW122028   0.634   4.578   3.466 -0.4740  0.8227  1.2811
 3522SOL    HW222029   0.555   4.627   3.360 -1.2622  3.3909 -0.0388
 3523SOL     OW22030   0.045   1.998   3.293 -0.7792  0.0208  0.0080
 3523SOL    HW122031   4.710   1.939   3.333  0.0891 -1.4169 -0.7524
 3523SOL    HW222032   0.086   2.015   3.378  3.7874 -0.6771 -2.0373
 3524SOL     OW22033   4.596   4.350   6.641  0.3742  0.6962  0.3132
 3524SOL    HW122034   4.656   4.300   6.586 -2.2541  1.0013 -2.8748
 3524SOL    HW222035   4.562   4.421   6.586  0.1986 -1.7265 -2.7138
 3525SOL     OW22036   3.963   0.552   5.702  0.1811 -0.3750  0.1669
 3525SOL    HW122037   3.972   0.476   5.760 -2.0707 -1.0268 -0.3322
 3525SOL    HW222038   4.047   0.597   5.710 -0.1963  0.1433  1.1477
 3526SOL     OW22039   1.834   3.390   3.262  0.2847  0.1685  0.2034
 3526SOL    HW122040   1.817   3.420   3.351  0.5129 -0.4231  0.4420
 3526SOL    HW222041   1.757   3.426   3.217  1.8922  4.4592  0.8717
 3527SOL     OW22042   2.663   1.928  15.529 -0.2052  0.1457 -0.0932
 3527SOL    HW122043   2.681   1.979  15.608  2.7074 -0.4423 -0.3974
 3527SOL    HW222044   2.741   1.875  15.517 -1.1193 -1.6498  1.9410
 3528SOL     OW22045   1.337   0.727   8.354  0.1877 -0.2199 -0.0678
 3528SOL    HW122046   1.364   0.681   8.433  1.2454 -0.2145 -0.4302
 3528SOL    HW222047   1.304   0.809   8.391 -1.2719 -0.6036 -0.5242
 3529SOL     OW22048   1.447   1.018   5.467 -0.1452  0.5791  0.2161
 3529SOL    HW122049   1.373   1.068   5.501 -0.0910  1.9592 -1.6615
 3529SOL    HW222050   1.439   0.939   5.520  0.4444  1.6309  1.8695
 3530SOL     OW22051   2.586   0.552   1.028  0.7015 -0.4068 -1.0422
 3530SOL    HW122052   2.535   0.472   1.012 -0.2586  0.2364 -1.1439
 3530SOL    HW222053   2.614   0.582   0.942  2.5804  0.9632  0.0564
 3531SOL     OW22054   3.663   1.613   8.167  0.3005  0.1540 -0.5402
 3531SOL    HW122055   3.683   1.665   8.245  0.6444  0.2724 -0.7091
 3531SOL    HW222056   3.569   1.599   8.167  0.2218  0.7051 -0.4078
 3532SOL     OW22057   2.733   4.727  14.852  0.3241 -0.2866 -0.4952
 3532SOL    HW122058   2.651   4.683  14.874  1.0090 -0.4575  1.6826
 3532SOL    HW222059   2.748   4.678  14.771 -0.5020 -1.3632  0.0165
 3533SOL     OW22060   1.058   2.912  15.903 -0.1311  0.0465  0.6366
 3533SOL    HW122061   1.127   2.943  15.962 -1.0817  2.3263  0.5797
 3533SOL    HW222062   1.003   2.991  15.893  0.9361  0.4091 -2.3046
 3534SOL     OW22063   0.092   3.332   6.492  0.2097  0.1334  0.0322
 3534SOL    HW122064   0.095   3.349   6.586 -1.0001 -1.8198  0.4151
 3534SOL    HW222065   4.727   3.322   6.475  0.6951 -0.7790 -2.0983
 3535SOL     OW22066   4.686   0.302   7.204 -0.5890 -0.4862 -0.3328
 3535SOL    HW122067   0.049   0.300   7.177 -0.1704  0.4899  1.0296
 3535SOL    HW222068   4.662   0.209   7.196 -1.7048 -0.1944 -0.4370
 3536SOL     OW22069   1.902   1.211  14.500 -0.8999  0.0284  0.2434
 3536SOL    HW122070   1.912   1.116  14.489 -1.4106 -0.1025  0.8540
 3536SOL    HW222071   1.929   1.246  14.415  1.5396 -1.7371  0.2934
 3537SOL     OW22072   3.561   2.006   1.798  0.3810  0.0666  0.6009
 3537SOL    HW122073   3.627   2.075   1.795  0.3775  0.0310 -0.3502
 3537SOL    HW222074   3.499   2.035   1.732  0.6223 -1.3533 -0.2695
 3538SOL     OW22075   1.934   1.815   6.123  0.1555 -0.0713 -0.3468
 3538SOL    HW122076   1.923   1.746   6.058 -0.2240 -0.4955  0.1619
 3538SOL    HW222077   1.952   1.896   6.076  1.9850 -1.3231 -1.7947
 3539SOL     OW22078   1.536   4.208   4.789 -0.1035 -0.0288 -0.1188
 3539SOL    HW122079   1.479   4.205   4.713  1.1266 -2.6379 -0.9194
 3539SOL    HW222080   1.593   4.283   4.772  1.7244 -1.4774 -0.3708
 3540SOL     OW22081   3.477   3.494   0.543  0.3975  0.4267  0.2698
 3540SOL    HW122082   3.536   3.458   0.477  1.8238  1.6573  0.8499
 3540SOL    HW222083   3.416   3.546   0.491 -1.1299 -1.2324  0.4256
 3541SOL     OW22084   0.539   4.053   8.319 -0.1467 -0.4058  0.6189
 3541SOL    HW122085   0.571   4.086   8.235 -4.9099 -0.7297 -1.3070
 3541SOL    HW222086   0.511   4.139   8.350  1.7534  0.2719  0.4146
 3542SOL     OW22087   2.285   1.901  13.421  0.2562 -0.1630  0.2284
 3542SOL    HW122088   2.332   1.892  13.504 -0.5524 -1.0229  0.5986
 3542SOL    HW222089   2.254   1.991  13.422 -0.6706 -0.4922  1.0465
 3543SOL     OW22090   1.182   4.314  14.867  0.2219 -0.5725 -0.0504
 3543SOL    HW122091   1.217   4.226  14.861  1.5319 -0.1300  1.0333
 3543SOL    HW222092   1.256   4.365  14.835 -1.5978  1.6293 -0.7499
 3544SOL     OW22093   3.509   1.301   6.149  0.2995  0.0784  0.5411
 3544SOL    HW122094   3.455   1.375   6.175  3.6917  2.5814  0.4783
 3544SOL    HW222095   3.561   1.339   6.078 -0.4937  0.1458 -0.0090
 3545SOL     OW22096   4.358   2.965   6.696 -0.0012 -0.5516  0.1289
 3545SOL    HW122097   4.347   2.870   6.702  1.2182 -0.7492 -0.7826
 3545SOL    HW222098   4.427   2.962   6.630 -2.0979 -1.1295 -2.0372
 3546SOL     OW22099   4.361   0.168   9.274 -0.1479 -0.0424  0.3200
 3546SOL    HW122100   4.371   0.178   9.180  0.0966 -0.7563  0.2681
 3546SOL    HW222101   4.267   0.185   9.278 -0.0738  0.1010  1.6230
 3547SOL     OW22102   4.722   2.174   6.426 -0.0707  0.0405 -0.3326
 3547SOL    HW122103   4.656   2.232   6.464  1.8602  1.5969  0.6656
 3547SOL    HW222104   4.687   2.085   6.429  3.6293 -1.4119 -0.3970
 3548SOL     OW22105   4.282   2.605   1.747 -0.1943 -0.7686  0.2421
 3548SOL    HW122106   4.371   2.576   1.764 -0.2837 -1.6682 -0.8129
 3548SOL    HW222107   4.252   2.613   1.837 -3.0848 -2.8403 -0.5231
 3549SOL     OW22108   2.668   1.824   2.823  0.3310 -0.0709  0.1406
 3549SOL    HW122109   2.603   1.761   2.853 -0.6485  1.4679  1.2506
 3549SOL    HW222110   2.630   1.909   2.845 -0.9733 -0.2045 -1.6129
 3550SOL     OW22111   0.288   0.497   2.510  0.6655  0.5292  0.1788
 3550SOL    HW122112   0.353   0.453   2.563  1.4037  0.0613 -1.1090
 3550SOL    HW222113   0.230   0.522   2.582  1.1468 -0.1431  0.7956
 3551SOL     OW22114   3.311   1.338   0.441  0.3215  0.3296 -0.0124
 3551SOL    HW122115   3.376   1.287   0.393  0.1285  1.5551 -1.6040
 3551SOL    HW222116   3.304   1.412   0.380 -1.8478  1.7093  1.9038
 3552SOL     OW22117   4.121   3.087   1.825  0.1702  0.1795  0.5364
 3552SOL    HW122118   4.085   3.122   1.743 -1.5295 -1.3895  0.6159
 3552SOL    HW222119   4.148   2.999   1.802  1.7996  0.9351 -0.4425
 3553SOL     OW22120   1.280   3.612   4.410  0.3881  0.2934  0.4061
 3553SOL    HW122121   1.308   3.552   4.341 -1.0500 -0.1422  0.1991
 3553SOL    HW222122   1.357   3.609   4.468  0.8524 -1.8415 -0.3029
 3554SOL     OW22123   3.847   1.622  17.315 -0.2266 -0.1866  0.0542
 3554SOL    HW122124   3.768   1.577  17.285 -0.8258  1.6000 -1.0666
 3554SOL    HW222125   3.850   1.696  17.254  1.9228 -1.9384 -2.0005
 3555SOL     OW22126   3.409   3.434   1.651 -0.3107 -0.2401 -0.9363
 3555SOL    HW122127   3.366   3.427   1.566 -1.4779  2.3624 -0.5817
 3555SOL    HW222128   3.370   3.510   1.695 -0.2563  0.1715 -1.6004
 3556SOL     OW22129   0.533   1.734   4.568 -0.2389  0.1321  0.0754
 3556SOL    HW122130   0.494   1.778   4.493  0.6561  0.3821 -0.2497
 3556SOL    HW222131   0.607   1.795   4.579  0.8163 -0.7798 -1.9467
 3557SOL     OW22132   3.250   3.079  14.277  0.1780  0.4798 -0.0675
 3557SOL    HW122133   3.342   3.058  14.263 -0.6247 -2.4762 -0.8118
 3557SOL    HW222134   3.242   3.170  14.248  1.1864 -0.2895 -2.7059
 3558SOL     OW22135   3.466   3.202  12.201  0.6343 -0.3967 -0.5523
 3558SOL    HW122136   3.526   3.130  12.219  0.2848 -1.0400 -2.0298
 3558SOL    HW222137   3.414   3.211  12.281 -4.1101 -1.2344 -3.5214
 3559SOL     OW22138   3.952   2.048   5.415  0.6708  0.1512 -0.1106
 3559SOL    HW122139   3.899   2.083   5.488  0.7914  0.9061 -0.3897
 3559SOL    HW222140   4.039   2.053   5.453  0.2016 -1.4822  1.2090
 3560SOL     OW22141   1.656   0.799  13.314  0.2076 -0.3474  0.0225
 3560SOL    HW122142   1.568   0.776  13.343  1.0077 -1.6352  1.4069
 3560SOL    HW222143   1.651   0.895  13.317  0.5368 -0.3773  1.3280
 3561SOL     OW22144   3.267   1.380   0.031  0.2243 -0.0307 -1.0013
 3561SOL    HW122145   3.239   1.288   0.033  0.5018 -0.0871  0.5970
 3561SOL    HW222146   3.261   1.396  17.652 -0.2970  1.2482 -0.7608
 3562SOL     OW22147   1.215   2.232   2.221 -0.4619  0.3548  0.4614
 3562SOL    HW122148   1.269   2.256   2.295  3.6882 -0.1621 -2.3813
 3562SOL    HW222149   1.152   2.175   2.266 -1.2494 -1.6593 -3.1562
 3563SOL     OW22150   0.298   0.260   9.551 -0.2712 -0.1338  0.3940
 3563SOL    HW122151   0.356   0.336   9.562 -2.7254  1.9482 -0.9451
 3563SOL    HW222152   0.216   0.304   9.526 -0.1753 -0.5611 -0.6697
 3564SOL     OW22153   3.438   2.284   4.755  0.5528 -0.1366 -0.0771
 3564SOL    HW122154   3.505   2.332   4.707  0.1331  0.7791  0.2552
 3564SOL    HW222155   3.380   2.252   4.686 -1.0023 -1.3792  1.8098
 3565SOL     OW22156   4.292   3.753   3.101  0.0096 -0.3767  0.1112
 3565SOL    HW122157   4.272   3.814   3.030  0.2565  1.0081  1.2401
 3565SOL    HW222158   4.311   3.819   3.168 -0.8063 -0.3255  0.2913
 3566SOL     OW22159   0.122   3.111  15.893  0.5434 -0.2002 -0.0247
 3566SOL    HW122160   0.106   3.022  15.924  0.5492  0.4580  1.9119
 3566SOL    HW222161   0.036   3.145  15.916  0.4494  0.9389 -2.1039
 3567SOL     OW22162   0.495   3.204   1.803  0.3688 -0.0944  0.4466
 3567SOL    HW122163   0.409   3.170   1.778  2.1702 -3.0212 -1.7074
 3567SOL    HW222164   0.481   3.220   1.896  2.1391 -1.3704  0.9178
 3568SOL     OW22165   1.108   2.455   5.170 -0.1768  0.3387 -0.6820
 3568SOL    HW122166   1.192   2.470   5.213  0.5802  0.5455 -2.2206
 3568SOL    HW222167   1.116   2.513   5.093  1.1423  1.4172  0.2711
 3569SOL     OW22168   0.403   1.521   0.617 -0.5864 -0.7439 -0.1076
 3569SOL    HW122169   0.349   1.591   0.581 -0.9698  0.1589  2.1833
 3569SOL    HW222170   0.417   1.546   0.708 -0.6241 -3.1251  0.5703
 3570SOL     OW22171   3.259   3.711   4.852  0.2295 -0.5262  0.6622
 3570SOL    HW122172   3.284   3.803   4.842 -3.0600  0.1077 -1.4970
 3570SOL    HW222173   3.348   3.682   4.876  0.1453  0.4390  2.1756
 3571SOL     OW22174   4.149   0.098   6.652 -0.1157 -0.4125  0.0478
 3571SOL    HW122175   4.146   0.191   6.675  0.5479  0.0618 -1.7596
 3571SOL    HW222176   4.224   0.059   6.697 -0.3229  0.3073  1.0332
 3572SOL     OW22177   1.270   4.008   6.695 -0.2216  0.1980  0.5138
 3572SOL    HW122178   1.219   4.008   6.776 -1.8765  0.2731 -0.5346
 3572SOL    HW222179   1.314   4.092   6.710  0.2906  0.5099 -2.6160
 3573SOL     OW22180   2.430   3.268  12.195 -0.1657  0.0143 -0.4652
 3573SOL    HW122181   2.434   3.193  12.136 -0.5119  0.8299 -1.5461
 3573SOL    HW222182   2.344   3.260  12.236  0.3313  0.5124  0.6692
 3574SOL     OW22183   0.182   2.281  13.648 -0.1216 -0.0704 -0.1617
 3574SOL    HW122184   0.122   2.219  13.607 -0.5877  0.3021 -0.0397
 3574SOL    HW222185   0.256   2.227  13.676 -1.7496 -1.1365  2.0103
 3575SOL     OW22186   4.460   0.081   4.791 -0.4585  0.8627 -0.0628
 3575SOL    HW122187   4.521   0.155   4.795  1.0135 -0.3177 -0.7689
 3575SOL    HW222188   4.395   0.107   4.727 -2.0520  0.2760  1.3048
 3576SOL     OW22189   4.152   0.798   3.988 -0.3271  0.7214 -0.1186
 3576SOL    HW122190   4.230   0.831   3.945  0.3318 -0.1818  0.3783
 3576SOL    HW222191   4.187   0.719   4.030 -2.4195 -0.1008  0.0925
 3577SOL     OW22192   2.872   1.376   2.824 -0.3032  0.2445 -0.4680
 3577SOL    HW122193   2.792   1.416   2.789  0.1755  2.2394  0.6718
 3577SOL    HW222194   2.936   1.428   2.774 -0.6871  1.8342  0.6731
 3578SOL     OW22195   3.835   1.322   3.702 -0.4452 -0.2871 -0.4433
 3578SOL    HW122196   3.898   1.312   3.631  0.9142 -1.3061  0.8890
 3578SOL    HW222197   3.898   1.346   3.770  0.0801  2.1666 -1.8025
 3579SOL     OW22198   2.589   4.506   6.984 -0.3356  0.0595 -0.0650
 3579SOL    HW122199   2.521   4.505   7.051  0.0816  1.8995  0.3664
 3579SOL    HW222200   2.632   4.420   6.980  0.1674  0.2077  2.2571
 3580SOL     OW22201   4.000   0.474  17.017  0.5326 -0.7779  0.5386
 3580SOL    HW122202   4.002   0.536  17.090  1.3349 -1.9623  1.5209
 3580SOL    HW222203   4.041   0.529  16.950  1.0939 -0.3728  1.2148
 3581SOL     OW22204   3.860   2.258   3.802  0.4997 -0.1734  0.2776
 3581SOL    HW122205   3.890   2.261   3.712 -2.0066 -1.0977 -0.5787
 3581SOL    HW222206   3.803   2.335   3.801  1.1745  0.3571  1.6752
 3582SOL     OW22207   2.175   1.603  10.741 -0.0551 -0.3056  0.1835
 3582SOL    HW122208   2.235   1.578  10.811 -1.4333 -2.3166  0.6255
 3582SOL    HW222209   2.175   1.697  10.759  0.6538 -0.1814 -0.4361
 3583SOL     OW22210   1.161   2.186  12.613 -0.4250 -0.2590  0.1383
 3583SOL    HW122211   1.157   2.092  12.631 -0.2201 -0.5383 -1.2149
 3583SOL    HW222212   1.163   2.176  12.518  1.4434 -0.0772  0.1666
 3584SOL     OW22213   2.480   3.614   8.211 -0.1621 -0.3507  0.2026
 3584SOL    HW122214   2.479   3.709   8.214 -2.0607 -0.3925  1.2364
 3584SOL    HW222215   2.563   3.592   8.254 -0.9564 -0.7795  1.5165
 3585SOL     OW22216   4.590   3.802   3.668  0.2749 -0.0486 -0.2429
 3585SOL    HW122217   4.535   3.784   3.744 -0.4120 -1.1254 -0.9997
 3585SOL    HW222218   4.606   3.895   3.686 -0.8176 -0.1398  1.2293
 3586SOL     OW22219   3.882   3.246  12.713  0.0380 -0.3820 -0.6093
 3586SOL    HW122220   3.889   3.281  12.802  2.4591 -0.8639 -0.5972
 3586SOL    HW222221   3.966   3.267  12.672  1.2698 -0.2156  2.0110
 3587SOL     OW22222   2.088   2.737   5.220  0.2069  0.1631  0.0002
 3587SOL    HW122223   2.161   2.767   5.167 -0.2455 -2.2005 -1.9829
 3587SOL    HW222224   2.023   2.741   5.149  0.5480  2.9110 -0.1286
 3588SOL     OW22225   0.805   2.224   4.644  0.1122 -0.5325  0.2443
 3588SOL    HW122226   0.744   2.269   4.585  0.3526  0.4665  0.7644
 3588SOL    HW222227   0.759   2.231   4.727 -0.4150 -0.9362 -0.0187
 3589SOL     OW22228   1.404   2.476   0.656 -0.3949  0.7045 -0.5096
 3589SOL    HW122229   1.448   2.561   0.663 -2.5477  1.5081  3.6837
 3589SOL    HW222230   1.458   2.429   0.592  0.9524  2.0886 -0.4037
 3590SOL     OW22231   3.205   0.032   4.076  1.0707 -0.3512  0.1009
 3590SOL    HW122232   3.200   0.111   4.131  0.3750  0.5633 -1.2596
 3590SOL    HW222233   3.198   0.078   3.992 -1.1660 -0.8099  0.0137
 3591SOL     OW22234   4.109   3.061   4.804 -0.7414 -0.5441  0.2760
 3591SOL    HW122235   4.141   3.035   4.718  1.9515  1.1538  0.7732
 3591SOL    HW222236   4.192   3.054   4.851 -0.9770  1.6176  1.0469
 3592SOL     OW22237   0.914   3.968   7.894 -0.3286  0.5043  0.6662
 3592SOL    HW122238   0.958   4.051   7.911 -0.5433  0.9585 -1.0312
 3592SOL    HW222239   0.827   3.992   7.861 -0.7854 -1.0667  0.7435
 3593SOL     OW22240   3.990   3.789   8.932  0.3276 -0.4056 -0.1004
 3593SOL    HW122241   4.068   3.750   8.972  2.3387  3.1911 -0.4643
 3593SOL    HW222242   3.939   3.708   8.927 -0.7002  0.0887  2.3222
 3594SOL     OW22243   3.790   3.051   6.323  0.3669  0.3534 -0.0274
 3594SOL    HW122244   3.729   3.060   6.396  1.0423  0.8752  0.4692
 3594SOL    HW222245   3.859   3.107   6.359  1.5941  1.0781 -3.4544
 3595SOL     OW22246   0.983   3.660   4.671  0.7805 -0.0417 -0.0326
 3595SOL    HW122247   0.959   3.724   4.604 -1.0859 -1.3456 -0.6090
 3595SOL    HW222248   0.908   3.657   4.730  0.4662  1.2635 -0.3726
 3596SOL     OW22249   1.494   3.996   8.229  0.5240 -0.7564 -0.4368
 3596SOL    HW122250   1.431   3.927   8.252 -2.3731  1.5622 -1.4404
 3596SOL    HW222251   1.515   4.041   8.311  2.6379  0.3394 -1.5804
 3597SOL     OW22252   1.591   2.905   1.147  0.8644 -0.2713  0.0141
 3597SOL    HW122253   1.588   2.891   1.052 -1.0037 -1.5996  0.2587
 3597SOL    HW222254   1.648   2.831   1.166 -0.0745 -0.8171  0.6984
 3598SOL     OW22255   4.540   4.020   8.028  0.6522  0.0206  0.7416
 3598SOL    HW122256   4.570   4.053   7.944 -0.7601 -2.4179 -0.7229
 3598SOL    HW222257   4.621   4.036   8.076  0.9482 -0.0251  0.2589
 3599SOL     OW22258   4.152   1.119   4.960  0.5941  0.0890 -0.1731
 3599SOL    HW122259   4.169   1.213   4.970  1.6344 -0.2206  0.9540
 3599SOL    HW222260   4.163   1.096   5.052 -0.8369  2.6860  0.6504
 3600SOL     OW22261   3.284   2.216   4.465  0.2049 -0.0081 -0.6837
 3600SOL    HW122262   3.287   2.307   4.494 -1.2346  0.0052 -0.5886
 3600SOL    HW222263   3.263   2.227   4.372  1.1783 -0.0368 -0.9106
 3601SOL     OW22264   4.279   0.961   7.958  0.3862  0.1112  0.4205
 3601SOL    HW122265   4.324   1.025   7.902 -0.0236 -0.4116 -0.5091
 3601SOL    HW222266   4.217   0.918   7.899  1.7509  1.4701 -2.0359
 3602SOL     OW22267   2.413   1.326  12.161  0.1372  0.3515 -1.0012
 3602SOL    HW122268   2.431   1.233  12.170  1.2028  0.3498 -3.0983
 3602SOL    HW222269   2.321   1.335  12.138  0.2781  0.5466 -1.5029
 3603SOL     OW22270   0.271   3.163  10.041 -0.0899 -0.7373  0.2352
 3603SOL    HW122271   0.244   3.191  10.129 -0.6491  1.6311 -0.6918
 3603SOL    HW222272   0.358   3.125  10.053  0.7238  1.3612  0.9915
 3604SOL     OW22273   1.780   1.445   0.699  0.3140 -0.0441  0.1765
 3604SOL    HW122274   1.801   1.533   0.668 -4.6651  0.0544 -2.9037
 3604SOL    HW222275   1.807   1.387   0.627 -1.4891 -2.3399  1.3428
 3605SOL     OW22276   2.758   2.962  17.129  0.3850  0.1383 -0.1055
 3605SOL    HW122277   2.703   3.008  17.193 -0.7658 -1.9261  0.3562
 3605SOL    HW222278   2.823   3.031  17.112 -1.5171  1.7007 -1.0569
 3606SOL     OW22279   4.355   3.508  17.176  0.3224  0.3248  0.2897
 3606SOL    HW122280   4.333   3.591  17.220  0.0626  0.3490  0.1163
 3606SOL    HW222281   4.285   3.503  17.111 -0.8495 -1.2697  1.6875
 3607SOL     OW22282   4.697   2.567   8.948  0.1152  0.0805  0.0078
 3607SOL    HW122283   4.603   2.569   8.934  0.2802  1.0173 -1.0209
 3607SOL    HW222284   4.714   2.661   8.963 -0.7002  0.1679  0.3656
 3608SOL     OW22285   4.064   0.231   8.801  0.2350  0.1712 -0.4015
 3608SOL    HW122286   4.015   0.157   8.837 -1.8391  1.6350 -0.2251
 3608SOL    HW222287   3.993   0.290   8.775 -0.3100 -0.5172 -0.4772
 3609SOL     OW22288   1.380   1.758   5.802 -0.7646 -0.1167  0.6372
 3609SOL    HW122289   1.471   1.755   5.831 -0.5315 -0.7802 -0.1708
 3609SOL    HW222290   1.347   1.808   5.877 -0.6762 -1.1395  1.3520
 3610SOL     OW22291   2.992   1.224   3.535 -0.1207  0.3331  0.6411
 3610SOL    HW122292   3.068   1.166   3.542  0.1800  0.6067 -0.2877
 3610SOL    HW222293   2.950   1.176   3.464  0.5713  1.2548 -0.3960
 3611SOL     OW22294   4.139   1.966  10.996 -0.6297  0.3441 -0.1091
 3611SOL    HW122295   4.224   1.981  10.954 -0.6842 -0.5684 -0.5527
 3611SOL    HW222296   4.131   1.873  10.976 -1.2425  0.6533 -1.3182
 3612SOL     OW22297   0.119   0.961   4.475  0.5365  0.2436  0.0390
 3612SOL    HW122298   0.028   0.981   4.450  0.7196  0.6943 -0.2758
 3612SOL    HW222299   0.142   0.906   4.400  2.2099 -0.1686  0.8603
 3613SOL     OW22300   3.740   3.726   3.540 -0.2355  0.2522 -0.6008
 3613SOL    HW122301   3.774   3.814   3.556 -0.0740 -0.1135  1.0029
 3613SOL    HW222302   3.648   3.727   3.567 -0.3188  1.2528 -0.9332
 3614SOL     OW22303   2.156   2.614   1.633 -0.6133  0.2996 -0.0302
 3614SOL    HW122304   2.161   2.706   1.608  2.2953  0.3342  0.6261
 3614SOL    HW222305   2.245   2.616   1.669 -0.2327  1.3371 -1.0471
 3615SOL     OW22306   3.514   3.366   6.040 -0.2353  0.0054 -0.0815
 3615SOL    HW122307   3.516   3.301   6.111  0.1410  1.5657  1.3166
 3615SOL    HW222308   3.603   3.399   6.041 -0.5833  0.8887  1.5516
 3616SOL     OW22309   3.790   2.659   5.446  0.0096  0.6138 -0.3241
 3616SOL    HW122310   3.790   2.754   5.459 -0.6408  1.0048 -3.2502
 3616SOL    HW222311   3.719   2.651   5.382  0.4320  1.2979 -0.8881
 3617SOL     OW22312   0.602   1.850   7.398 -0.0544  0.0275 -0.0469
 3617SOL    HW122313   0.632   1.913   7.463  1.7125 -0.1365 -0.7230
 3617SOL    HW222314   0.566   1.783   7.456  1.2463 -0.1400  0.5672
 3618SOL     OW22315   0.127   0.068   1.118  0.5276 -0.2160 -0.2743
 3618SOL    HW122316   0.182   0.143   1.142 -1.0342  1.1573 -0.9413
 3618SOL    HW222317   0.177   0.044   1.040 -1.2088  0.4860 -1.6175
 3619SOL     OW22318   1.644   4.134   2.986 -0.2101  0.4639  0.4055
 3619SOL    HW122319   1.623   4.214   3.034  0.6142  0.6079  0.5302
 3619SOL    HW222320   1.667   4.171   2.901  0.8593  1.7106  1.2455
 3620SOL     OW22321   4.219   3.831  17.226  0.3791  0.2491  0.2670
 3620SOL    HW122322   4.271   3.912  17.219  0.2144  0.2348 -1.0046
 3620SOL    HW222323   4.256   3.801  17.309 -1.0213  0.4923  0.9820
 3621SOL     OW22324   2.099   3.428   8.199 -0.0584  0.0662 -0.1386
 3621SOL    HW122325   2.164   3.475   8.147  0.8562 -2.5425 -1.3550
 3621SOL    HW222326   2.052   3.393   8.123 -0.4081 -1.0180  0.5737
 3622SOL     OW22327   4.571   1.234   8.819 -0.3566 -0.4040 -0.4020
 3622SOL    HW122328   4.525   1.158   8.855  1.0897 -0.8526  0.5084
 3622SOL    HW222329   4.619   1.282   8.887 -2.1489  0.6054  0.1556
 3623SOL     OW22330   0.021   2.740  13.288 -0.4817  0.2056  0.1049
 3623SOL    HW122331   0.111   2.711  13.298 -0.5333 -0.4987 -1.3897
 3623SOL    HW222332   4.696   2.665  13.314 -3.1663  2.5659  1.3524
 3624SOL     OW22333   2.920   2.614  10.677  0.2177  0.5414 -0.3222
 3624SOL    HW122334   2.950   2.592  10.589  2.9007 -0.7537  0.9249
 3624SOL    HW222335   2.870   2.537  10.705 -1.9784  1.9006 -0.4460
 3625SOL     OW22336   3.705   3.108   5.095 -0.0777 -0.0095 -0.2401
 3625SOL    HW122337   3.764   3.104   5.170 -0.7016 -2.3137  0.1142
 3625SOL    HW222338   3.650   3.181   5.124 -0.0928  0.6916 -2.0619
 3626SOL     OW22339   1.039   0.696  12.840 -0.2345  0.9538 -0.8672
 3626SOL    HW122340   0.998   0.775  12.877  0.8126  0.7508  0.6985
 3626SOL    HW222341   1.100   0.678  12.911 -1.6762 -1.7118 -0.3104
 3627SOL     OW22342   2.016   4.313  15.253 -0.4994 -0.2399 -0.5927
 3627SOL    HW122343   1.929   4.336  15.284  1.0148  0.8082  2.9052
 3627SOL    HW222344   2.035   4.393  15.204 -1.8564 -0.2183 -1.0846
 3628SOL     OW22345   4.152   3.929  15.975 -0.3992 -0.1094 -0.1564
 3628SOL    HW122346   4.095   4.005  15.985 -0.8387 -1.0096  3.9741
 3628SOL    HW222347   4.180   3.903  16.062 -0.8180  0.7930  0.2455
 3629SOL     OW22348   1.196   1.681   0.324 -0.3921 -0.3983  0.4821
 3629SOL    HW122349   1.286   1.682   0.355  0.7182  1.7789 -2.7871
 3629SOL    HW222350   1.153   1.731   0.393 -0.8964 -0.9829  0.5895
 3630SOL     OW22351   1.912   2.940   0.766 -0.0810  0.3912 -0.5358
 3630SOL    HW122352   1.844   2.999   0.733 -1.1851 -0.6005 -0.0375
 3630SOL    HW222353   1.860   2.880   0.820  1.6630 -1.8492 -1.3332
 3631SOL     OW22354   0.249   3.620   4.748 -0.4744 -0.2973 -0.5811
 3631SOL    HW122355   0.310   3.652   4.681 -0.9427  1.2598 -0.2747
 3631SOL    HW222356   0.293   3.539   4.773  1.0028 -0.2195 -2.9134
 3632SOL     OW22357   0.560   1.518   8.319 -0.3150 -0.0289  0.2625
 3632SOL    HW122358   0.588   1.565   8.398 -0.5031  0.8460 -0.1942
 3632SOL    HW222359   0.535   1.437   8.363  2.9728 -0.8857  0.5811
 3633SOL     OW22360   1.092   2.558  10.100  0.0311 -0.2497  0.2602
 3633SOL    HW122361   1.109   2.501  10.024  3.8745  1.0037  0.1951
 3633SOL    HW222362   1.006   2.592  10.073  0.3125 -0.8769 -1.4414
 3634SOL     OW22363   0.793   4.238   0.877 -0.2610 -0.0497  0.5132
 3634SOL    HW122364   0.823   4.241   0.786 -4.4751 -0.0066 -0.9075
 3634SOL    HW222365   0.871   4.265   0.925 -1.6683  2.6216  1.2607
 3635SOL     OW22366   0.368   4.360   3.599  0.5964  0.3804  0.0548
 3635SOL    HW122367   0.282   4.333   3.565 -0.1605  0.6308  1.7600
 3635SOL    HW222368   0.421   4.298   3.549 -0.4987  0.9299 -1.7918
 3636SOL     OW22369   0.714   4.424  12.343  0.3465 -0.3928 -0.3547
 3636SOL    HW122370   0.700   4.495  12.280  1.5749  0.6330  0.5267
 3636SOL    HW222371   0.730   4.352  12.282 -0.2011  1.2695 -2.4759
 3637SOL     OW22372   0.936   2.288   5.580 -0.2389 -0.5233  0.4163
 3637SOL    HW122373   0.863   2.226   5.576  0.8980 -1.9627  1.7636
 3637SOL    HW222374   0.989   2.270   5.503 -0.3951 -0.0552  0.2006
 3638SOL     OW22375   0.676   3.323   2.675  0.1812  0.3215 -0.1152
 3638SOL    HW122376   0.636   3.409   2.658 -0.7131  0.1850  1.2399
 3638SOL    HW222377   0.682   3.286   2.587  0.0352  0.8446 -0.3520
 3639SOL     OW22378   0.204   2.116   9.851 -0.1216 -0.5802  0.0447
 3639SOL    HW122379   0.204   2.020   9.846 -0.6385 -0.5057 -1.4651
 3639SOL    HW222380   0.208   2.137   9.758  1.2655 -1.8891 -0.1898
 3640SOL     OW22381   3.388   2.583   4.759  0.4754 -0.9040  0.1143
 3640SOL    HW122382   3.395   2.587   4.663  0.0393 -2.7455  0.0051
 3640SOL    HW222383   3.384   2.677   4.780 -2.5387 -1.0295  0.1674
 3641SOL     OW22384   4.048   4.008  10.538  0.0625 -0.1475 -0.1014
 3641SOL    HW122385   4.116   4.028  10.603  0.2928 -0.1959 -0.3278
 3641SOL    HW222386   4.093   4.001  10.454  2.4376  1.7604  1.0269
 3642SOL     OW22387   2.614   0.752   2.339  0.4023 -0.3073 -0.7112
 3642SOL    HW122388   2.680   0.704   2.289  2.1850  0.5849  0.8062
 3642SOL    HW222389   2.619   0.839   2.298  1.2348  0.4350  0.9805
 3643SOL     OW22390   2.528   3.962   3.277  0.0336  0.5036 -0.4440
 3643SOL    HW122391   2.521   3.866   3.274 -2.2339  0.6545  0.1050
 3643SOL    HW222392   2.509   3.985   3.187 -0.3090  0.8451 -0.2828
 3644SOL     OW22393   4.204   2.387   2.444  0.3658 -0.0298  0.5304
 3644SOL    HW122394   4.133   2.323   2.450 -0.4068  0.7569 -0.1394
 3644SOL    HW222395   4.186   2.431   2.527  1.6300  0.7005  0.4054
 3645SOL     OW22396   0.852   3.325   2.875 -0.1873  0.1707  0.2096
 3645SOL    HW122397   0.791   3.309   2.803 -0.2986  0.8930  0.1450
 3645SOL    HW222398   0.931   3.294   2.830 -0.3849  1.4105 -0.9648
 3646SOL     OW22399   4.213   1.006   2.174 -0.5391 -0.5838  0.2780
 3646SOL    HW122400   4.203   0.973   2.084  0.6629 -1.9800  0.6548
 3646SOL    HW222401   4.200   0.921   2.217 -0.9864  0.5601  2.3612
 3647SOL     OW22402   4.427   3.429   4.386  0.2690  0.0382  0.2579
 3647SOL    HW122403   4.482   3.492   4.340 -0.5278 -0.4371 -1.3689
 3647SOL    HW222404   4.438   3.447   4.479 -1.4382 -0.6071  0.5906
 3648SOL     OW22405   4.092   1.104   3.292 -0.1551 -0.1433  0.9297
 3648SOL    HW122406   4.049   1.047   3.228  0.4064 -0.0596  0.4837
 3648SOL    HW222407   4.184   1.112   3.269 -0.3423  1.3080  0.7157
 3649SOL     OW22408   1.687   0.939   7.044 -0.4640  0.1976 -0.3223
 3649SOL    HW122409   1.651   1.013   6.995  0.8254  0.0018 -1.5934
 3649SOL    HW222410   1.782   0.949   7.039 -0.5846  1.1093 -0.7412
 3650SOL     OW22411   1.053   1.295   2.551 -0.5131 -0.4549 -0.2301
 3650SOL    HW122412   0.997   1.338   2.486  0.8581 -0.2230 -1.2446
 3650SOL    HW222413   1.027   1.203   2.556  1.4897 -0.9259  1.1422
 3651SOL     OW22414   3.197   0.856   7.483  0.6334 -0.1190 -0.3214
 3651SOL    HW122415   3.257   0.790   7.447 -1.4408 -1.9300 -0.5011
 3651SOL    HW222416   3.262   0.921   7.509 -0.5375  0.0032  2.2477
 3652SOL     OW22417   0.786   0.105   2.797 -0.0364 -0.1306 -0.4592
 3652SOL    HW122418   0.843   0.112   2.874  0.2560  0.3527 -0.7208
 3652SOL    HW222419   0.818   0.169   2.734 -0.7251 -0.8284 -1.5040
 3653SOL     OW22420   1.950   3.897   4.298  0.1147 -0.1698  0.0051
 3653SOL    HW122421   1.982   3.921   4.211 -1.7658 -1.3082 -1.0004
 3653SOL    HW222422   2.016   3.941   4.352  0.3857 -1.4161  0.7056
 3654SOL     OW22423   2.751   3.663  16.286  0.1391 -0.2134  0.0650
 3654SOL    HW122424   2.804   3.686  16.209  0.2175  1.1941  0.5407
 3654SOL    HW222425   2.685   3.603  16.251 -0.7631 -0.3923  2.1273
 3655SOL     OW22426   1.506   1.973  17.268  0.0368 -0.0688  0.0324
 3655SOL    HW122427   1.443   1.994  17.337  0.2239 -1.0450  0.5041
 3655SOL    HW222428   1.588   1.992  17.313  0.5296  0.1952 -0.9658
 3656SOL     OW22429   4.424   0.026   8.615 -0.2265  0.0978  0.1336
 3656SOL    HW122430   4.404   4.674   8.663 -0.1251  0.6122  1.0311
 3656SOL    HW222431   4.511   0.002   8.581  0.1007  0.3223  0.8137
 3657SOL     OW22432   1.478   2.157  14.268  0.3274  0.2641 -0.1276
 3657SOL    HW122433   1.562   2.177  14.226  2.4127 -1.4872  3.3104
 3657SOL    HW222434   1.508   2.166  14.358  0.9706 -4.1425  0.0951
 3658SOL     OW22435   1.040   2.893  17.128  0.3456  0.6828 -0.4402
 3658SOL    HW122436   0.946   2.877  17.116  0.6308  0.2297 -2.0671
 3658SOL    HW222437   1.049   2.959  17.196 -0.5189 -0.2369  0.5839
 3659SOL     OW22438   4.689   1.402   8.557  0.4077  0.1650 -0.1635
 3659SOL    HW122439   4.654   1.358   8.634  1.7662 -0.3047  0.1815
 3659SOL    HW222440   4.707   1.489   8.592  0.7021 -0.9952  2.5659
 3660SOL     OW22441   2.549   0.940   7.550  0.6060  0.9769  0.3860
 3660SOL    HW122442   2.519   0.924   7.639 -0.9505  2.0085  0.0453
 3660SOL    HW222443   2.471   0.906   7.507 -0.0347  0.3491  2.0416
 3661SOL     OW22444   3.738   2.148  15.814  0.1766  0.5506 -0.2799
 3661SOL    HW122445   3.650   2.125  15.843  0.0222 -1.3164 -2.2562
 3661SOL    HW222446   3.742   2.089  15.739  2.0868 -1.5506  1.4486
 3662SOL     OW22447   1.460   1.309   0.400  0.4295  0.1663  0.2112
 3662SOL    HW122448   1.438   1.296   0.308  0.6553  1.5501 -0.0339
 3662SOL    HW222449   1.460   1.220   0.436  2.3928 -0.4572 -1.3311
 3663SOL     OW22450   2.558   3.375   4.286 -0.2168  0.0358 -0.3189
 3663SOL    HW122451   2.555   3.280   4.277 -0.8437 -0.0657  0.9320
 3663SOL    HW222452   2.476   3.408   4.249 -0.3632 -3.8753 -3.4289
 3664SOL     OW22453   3.786   4.192   3.787 -0.5816  0.0012  0.0900
 3664SOL    HW122454   3.788   4.111   3.838  0.2132 -0.5593 -0.8488
 3664SOL    HW222455   3.752   4.167   3.702  0.4697  1.6445 -0.8202
 3665SOL     OW22456   2.716   2.983  13.668  0.2627 -0.0046  0.1036
 3665SOL    HW122457   2.750   2.929  13.597  2.7102  2.0156 -0.2606
 3665SOL    HW222458   2.625   2.987  13.639  1.2023 -2.2185 -3.1807
 3666SOL     OW22459   4.662   1.098  11.816  0.2304 -0.2205 -0.1011
 3666SOL    HW122460   4.643   1.149  11.738 -1.6441 -0.4274  0.2394
 3666SOL    HW222461   4.601   1.132  11.880 -0.6285 -0.1531 -0.9612
 3667SOL     OW22462   0.483   1.057   4.433  0.0906  0.5205 -0.8616
 3667SOL    HW122463   0.465   1.039   4.525  2.1316 -2.6680 -1.1125
 3667SOL    HW222464   0.554   0.999   4.408  0.8092 -0.2418  2.9050
 3668SOL     OW22465   4.674   2.911  10.811  0.1565 -0.8792 -0.2986
 3668SOL    HW122466   0.035   2.940  10.794  0.8356 -2.3374  0.7677
 3668SOL    HW222467   4.641   2.905  10.721 -2.9885 -0.0764  0.8079
 3669SOL     OW22468   3.899   0.992   7.185  0.0188  0.7459 -0.0594
 3669SOL    HW122469   3.904   1.042   7.267 -0.2809  0.4561  0.1331
 3669SOL    HW222470   3.954   1.051   7.133 -0.0208 -0.8123 -1.8247
 3670SOL     OW22471   0.448   2.268   9.404 -0.0750  0.5274  0.2876
 3670SOL    HW122472   0.456   2.258   9.309 -2.4158 -0.1514  0.1624
 3670SOL    HW222473   0.370   2.214   9.414 -0.6459  1.1977 -0.5453
 3671SOL     OW22474   2.530   1.552   6.215 -0.3986 -0.1683  0.0472
 3671SOL    HW122475   2.459   1.589   6.163 -1.1125 -0.4094  0.8345
 3671SOL    HW222476   2.478   1.521   6.290  0.2094 -1.9687 -0.2794
 3672SOL     OW22477   3.472   1.610   5.342  0.6497 -0.1465  0.2193
 3672SOL    HW122478   3.542   1.609   5.406  0.3067  2.3265  0.6351
 3672SOL    HW222479   3.522   1.617   5.260  0.2622 -0.3840 -0.0386
 3673SOL     OW22480   1.731   0.744  14.390 -0.0445  0.2953 -0.0817
 3673SOL    HW122481   1.642   0.719  14.365  0.7087  1.1163 -3.5392
 3673SOL    HW222482   1.775   0.742  14.305  1.7388  0.8887  0.8322
 3674SOL     OW22483   0.642   4.679  11.076  0.3572 -0.1002  0.5205
 3674SOL    HW122484   0.575   0.003  11.120  1.2070  0.7676  0.7617
 3674SOL    HW222485   0.695   0.015  11.030 -0.5428 -0.3076 -0.8198
 3675SOL     OW22486   3.927   0.768   4.154  0.1856  0.2264 -0.2784
 3675SOL    HW122487   3.999   0.751   4.093 -0.3721  0.3140 -0.9690
 3675SOL    HW222488   3.983   0.763   4.232 -0.4001  3.1514  0.3259
 3676SOL     OW22489   0.846   3.420   4.194  0.5808 -0.2254  0.3894
 3676SOL    HW122490   0.900   3.442   4.119  1.0100 -0.5190  0.6133
 3676SOL    HW222491   0.895   3.469   4.260 -1.0626 -0.3344  1.6947
 3677SOL     OW22492   2.317   4.342  15.018 -0.6583  0.3137  0.1056
 3677SOL    HW122493   2.275   4.334  15.103  0.7967 -0.0940  0.7845
 3677SOL    HW222494   2.235   4.342  14.969 -1.8549  1.7586  2.1082
 3678SOL     OW22495   4.657   3.124   2.991  0.6871  0.1215  0.5244
 3678SOL    HW122496   4.589   3.083   2.939  0.8170 -1.7372  1.8047
 3678SOL    HW222497   4.624   3.213   2.980  0.7667 -0.0657 -1.1478
 3679SOL     OW22498   2.991   3.909  11.236  0.3801 -0.3622  0.2847
 3679SOL    HW122499   2.911   3.941  11.193  0.3150 -0.8873  0.0103
 3679SOL    HW222500   3.031   3.992  11.262 -0.1264 -0.2893  0.8261
 3680SOL     OW22501   3.586   2.797   2.676 -0.1109 -0.2193  0.1719
 3680SOL    HW122502   3.561   2.878   2.720  0.0981  0.3070 -0.6774
 3680SOL    HW222503   3.636   2.828   2.600 -0.2737 -0.7393 -0.1448
 3681SOL     OW22504   1.621   3.011   8.138  0.3379 -0.2535 -0.0539
 3681SOL    HW122505   1.616   3.018   8.233 -3.2224  1.5979 -0.3732
 3681SOL    HW222506   1.636   3.101   8.108  3.2540 -0.8820 -0.4824
 3682SOL     OW22507   1.707   2.238   6.516  0.8317  0.2952  0.0653
 3682SOL    HW122508   1.697   2.215   6.423 -2.0187 -0.9285  0.6619
 3682SOL    HW222509   1.685   2.151   6.549 -0.6419 -0.0342 -1.7379
 3683SOL     OW22510   1.844   1.610   8.710 -0.1221 -0.5408 -0.0650
 3683SOL    HW122511   1.880   1.676   8.768  2.7830 -1.6189 -0.6440
 3683SOL    HW222512   1.805   1.662   8.640 -0.0132 -1.4347 -0.8053
 3684SOL     OW22513   3.117   0.149   7.883  0.3923  0.0122  0.2378
 3684SOL    HW122514   3.094   0.153   7.790 -2.4619  0.2390  0.9478
 3684SOL    HW222515   3.070   0.075   7.921 -0.1540  0.7926  1.0962
 3685SOL     OW22516   1.763   3.686   4.870  0.0936 -0.0691 -0.5323
 3685SOL    HW122517   1.762   3.781   4.882 -0.4442  0.0573 -1.5707
 3685SOL    HW222518   1.697   3.657   4.933  1.2558  1.0640  1.2333
 3686SOL     OW22519   0.368   1.476   5.022  0.0538  0.8895 -0.6180
 3686SOL    HW122520   0.323   1.394   5.000 -2.3833  2.1619 -0.3014
 3686SOL    HW222521   0.334   1.501   5.108 -0.5411  2.5996 -1.3613
 3687SOL     OW22522   3.831   4.505  15.312  0.1747 -0.0435 -0.4254
 3687SOL    HW122523   3.905   4.503  15.251 -1.8907  0.5105 -2.9288
 3687SOL    HW222524   3.785   4.435  15.265  2.5746  0.0592 -2.9128
 3688SOL     OW22525   0.533   1.626   0.904 -0.1209  0.2321 -0.0556
 3688SOL    HW122526   0.548   1.683   0.980  2.0588  1.9755 -1.8141
 3688SOL    HW222527   0.438   1.623   0.916 -0.0820  0.6833  0.4013
 3689SOL     OW22528   2.913   0.142   8.441  0.0287  0.2313 -0.3732
 3689SOL    HW122529   2.906   0.229   8.481  1.3645  0.0627  0.2226
 3689SOL    HW222530   2.963   0.155   8.360  1.9018  1.8301  1.0321
 3690SOL     OW22531   0.115   2.552  16.746 -0.2620 -0.0163  0.1936
 3690SOL    HW122532   0.032   2.534  16.790  1.0364 -2.8655  1.4580
 3690SOL    HW222533   0.101   2.519  16.657 -0.3333 -1.5509  0.7862
 3691SOL     OW22534   0.377   3.557  14.456  0.2428 -0.1192 -0.1243
 3691SOL    HW122535   0.411   3.475  14.490 -2.3640 -1.3428 -0.5224
 3691SOL    HW222536   0.297   3.567  14.506 -0.9738 -1.1132 -1.8953
 3692SOL     OW22537   1.170   0.852   7.258 -0.0672 -0.2808  0.2485
 3692SOL    HW122538   1.088   0.837   7.212 -0.2688  0.1396  0.4758
 3692SOL    HW222539   1.121   0.852   7.340  0.0218 -0.3997  0.3027
 3693SOL     OW22540   1.452   1.853  16.772  0.4908  0.3848 -0.0035
 3693SOL    HW122541   1.512   1.927  16.771 -0.8595  1.4821  0.8645
 3693SOL    HW222542   1.372   1.888  16.812  0.0371 -1.2118  0.5163
 3694SOL     OW22543   3.195   4.650   4.343 -0.1508  0.9767  0.4891
 3694SOL    HW122544   3.267   4.586   4.348 -0.3577  0.9122  2.7519
 3694SOL    HW222545   3.200   4.673   4.251  0.4371 -2.4648 -0.3313
 3695SOL     OW22546   0.113   1.320   2.357  0.1683  0.2055 -0.4319
 3695SOL    HW122547   0.053   1.254   2.322  0.3085 -0.2846  0.2600
 3695SOL    HW222548   0.187   1.275   2.397  0.7724  1.9145  0.3653
 3696SOL     OW22549   0.439   3.773   3.233 -0.2238  0.3693  0.0538
 3696SOL    HW122550   0.440   3.864   3.204  0.4336  1.0551  2.1994
 3696SOL    HW222551   0.357   3.770   3.283  1.1023  1.3605  2.2949
 3697SOL     OW22552   4.381   3.044   9.613  0.1679 -0.1995 -0.4033
 3697SOL    HW122553   4.290   3.020   9.631  0.2169  0.1528  0.3314
 3697SOL    HW222554   4.391   3.090   9.696  2.0998  0.0842 -0.8050
 3698SOL     OW22555   0.186   2.125   4.352  0.2956  0.2238  0.1861
 3698SOL    HW122556   0.113   2.064   4.344  0.7945 -0.1634 -1.4372
 3698SOL    HW222557   0.170   2.179   4.429 -0.3550 -1.8837  1.5177
 3699SOL     OW22558   4.374   2.657   0.151 -0.3442 -0.4730 -0.6050
 3699SOL    HW122559   4.362   2.590   0.219 -0.3290 -0.6631 -0.7891
 3699SOL    HW222560   4.313   2.725   0.179  1.7560  0.1661  2.4591
 3700SOL     OW22561   4.490   3.346   8.859  0.7314 -0.5385  0.3124
 3700SOL    HW122562   4.450   3.333   8.773  0.4051 -3.6922  0.9255
 3700SOL    HW222563   4.568   3.290   8.852  0.3028 -1.5926  3.7048
 3701SOL     OW22564   3.077   1.807  13.510 -0.4785 -0.3999 -0.5639
 3701SOL    HW122565   3.159   1.855  13.519 -1.2635  0.8585 -0.2098
 3701SOL    HW222566   3.062   1.793  13.603 -0.5390  1.9446 -0.2436
 3702SOL     OW22567   2.851   2.985   5.500  0.0073  0.3702 -0.6436
 3702SOL    HW122568   2.944   2.978   5.521 -0.0895  1.5853  0.1886
 3702SOL    HW222569   2.820   3.065   5.543  0.0145 -0.2720  0.5317
 3703SOL     OW22570   0.172   3.613   7.882 -0.2870  0.0733 -0.0067
 3703SOL    HW122571   0.216   3.698   7.892 -1.4249  0.6043  0.4142
 3703SOL    HW222572   0.182   3.591   7.975  1.4170  1.2870  0.1046
 3704SOL     OW22573   2.234   3.618   1.989  0.1214  0.5081 -0.1426
 3704SOL    HW122574   2.284   3.536   1.991 -1.3452 -0.3853 -0.3423
 3704SOL    HW222575   2.165   3.598   1.926 -1.2044  0.5471  1.3076
 3705SOL     OW22576   4.373   3.886   8.669  0.3305 -0.0356  0.1033
 3705SOL    HW122577   4.369   3.933   8.586 -1.2482  1.4828  1.0388
 3705SOL    HW222578   4.282   3.859   8.685  0.1160  0.8072  0.3125
 3706SOL     OW22579   3.514   4.519   9.588  0.1600  0.1419 -0.3930
 3706SOL    HW122580   3.439   4.564   9.549  1.1009  0.8393 -1.4083
 3706SOL    HW222581   3.471   4.443   9.627 -0.5572 -0.8711 -3.1453
 3707SOL     OW22582   3.424   2.206   2.087  0.1032  0.4363 -0.2458
 3707SOL    HW122583   3.498   2.212   2.027  0.0411  0.5056 -0.3157
 3707SOL    HW222584   3.462   2.234   2.171  0.6569  0.3441 -0.4713
 3708SOL     OW22585   4.705   4.402   0.362  0.0526 -0.1698  0.0072
 3708SOL    HW122586   0.063   4.423   0.326 -0.2310  1.4545  0.2849
 3708SOL    HW222587   4.720   4.321   0.410 -1.7981 -0.1844  0.5315
 3709SOL     OW22588   2.305   3.770   1.428 -0.4874  0.2996  0.4322
 3709SOL    HW122589   2.215   3.772   1.396 -0.9296 -2.3657  1.4966
 3709SOL    HW222590   2.352   3.710   1.369 -0.6585  0.2051  0.3908
 3710SOL     OW22591   4.698   1.394  10.811 -0.3893  0.2770 -0.6738
 3710SOL    HW122592   0.024   1.367  10.885  1.7485 -0.1221 -2.4083
 3710SOL    HW222593   0.031   1.441  10.756  0.7507 -0.3033  0.1093
 3711SOL     OW22594   2.226   4.072   5.311 -0.2403 -0.3133 -0.3246
 3711SOL    HW122595   2.250   4.104   5.224  0.3482  0.5761  0.1751
 3711SOL    HW222596   2.269   3.987   5.303 -0.4380 -0.4973  0.5810
 3712SOL     OW22597   2.032   3.727  15.095 -0.2911 -0.2340 -0.0137
 3712SOL    HW122598   2.067   3.754  15.180  0.0208 -0.4363 -0.0774
 3712SOL    HW222599   2.059   3.804  15.045  2.0396 -0.4918  0.8610
 3713SOL     OW22600   0.015   4.151   8.363 -0.4514 -0.5446  0.3562
 3713SOL    HW122601   4.683   4.085   8.397 -1.2337 -0.0794 -0.1605
 3713SOL    HW222602   0.094   4.097   8.356 -0.1516  0.1037 -1.1551
 3714SOL     OW22603   1.734   1.083   0.196  0.2523  0.2053 -0.1679
 3714SOL    HW122604   1.816   1.132   0.200  0.1259  0.4588 -0.6490
 3714SOL    HW222605   1.724   1.064   0.289 -1.4252 -2.5897 -0.9198
 3715SOL     OW22606   3.793   1.832  17.514 -0.2603  0.2020 -0.1354
 3715SOL    HW122607   3.815   1.740  17.508  0.6695  0.3369  1.2582
 3715SOL    HW222608   3.731   1.855  17.444  0.2548  1.3031 -0.2309
 3716SOL     OW22609   3.583   2.237   7.780 -0.4921 -0.5967 -0.3692
 3716SOL    HW122610   3.532   2.282   7.713  0.3409  1.2850  0.2551
 3716SOL    HW222611   3.673   2.222   7.751  0.6210  0.5334  2.4671
 3717SOL     OW22612   3.162   1.011  14.822  0.6736  0.4270  0.2003
 3717SOL    HW122613   3.117   0.997  14.739  2.3146  1.1706 -0.8325
 3717SOL    HW222614   3.243   1.056  14.799  0.1622  1.5273  0.5912
 3718SOL     OW22615   0.906   4.020   3.497  0.2966 -0.4214  0.5576
 3718SOL    HW122616   0.892   3.986   3.409 -0.6758 -0.4490  0.7160
 3718SOL    HW222617   0.882   3.941   3.546  1.3617 -0.9724  0.1876
 3719SOL     OW22618   4.606   1.160   2.194 -0.4294  0.3334  0.1625
 3719SOL    HW122619   4.621   1.102   2.269  0.3187 -0.5787 -0.6765
 3719SOL    HW222620   4.573   1.095   2.131  1.4870 -1.5188  1.0649
 3720SOL     OW22621   0.493   3.581   1.627  0.2158 -0.3458 -0.0126
 3720SOL    HW122622   0.567   3.524   1.607  0.6238  0.3702 -0.5386
 3720SOL    HW222623   0.451   3.595   1.542 -0.7219 -2.8043  0.0263
 3721SOL     OW22624   0.150   2.596   4.773 -0.5298 -0.3831 -0.2559
 3721SOL    HW122625   0.206   2.672   4.785  0.0647 -0.8113 -0.3563
 3721SOL    HW222626   0.137   2.592   4.678 -0.5466  0.8189 -0.3035
 3722SOL     OW22627   4.265   2.659   2.036  0.1146  0.0978 -0.2097
 3722SOL    HW122628   4.218   2.590   2.081 -0.2538 -1.0777 -2.4072
 3722SOL    HW222629   4.356   2.645   2.065 -0.3070 -0.3682  0.8859
 3723SOL     OW22630   0.083   2.543   8.672 -0.0671 -0.5672 -0.4926
 3723SOL    HW122631   0.086   2.558   8.766  0.1545 -0.3867 -0.5251
 3723SOL    HW222632   4.727   2.580   8.649 -1.0979 -1.9877  1.0646
 3724SOL     OW22633   1.293   3.290   7.130 -0.2809 -0.0205 -0.5936
 3724SOL    HW122634   1.300   3.384   7.115  0.6301 -0.5415 -3.4283
 3724SOL    HW222635   1.224   3.269   7.068 -1.2764  0.6262  0.3048
 3725SOL     OW22636   2.238   1.322   2.770 -0.2743  0.1572  0.0743
 3725SOL    HW122637   2.160   1.267   2.760 -0.0075 -0.3280  0.6642
 3725SOL    HW222638   2.277   1.317   2.682  1.4086  0.6983  0.7823
 3726SOL     OW22639   3.453   4.251  15.987  0.2063 -0.3093 -0.1786
 3726SOL    HW122640   3.516   4.222  16.053 -0.4937 -0.0451  0.6078
 3726SOL    HW222641   3.380   4.282  16.041  1.1715  0.2080  0.8146
 3727SOL     OW22642   4.329   2.085   5.410 -0.5853 -0.0764 -0.8721
 3727SOL    HW122643   4.293   2.061   5.495  1.6111 -1.8569 -0.4599
 3727SOL    HW222644   4.258   2.132   5.365 -1.7942  0.1525  1.2672
 3728SOL     OW22645   3.932   3.007   0.474  0.0553 -0.0361 -0.1228
 3728SOL    HW122646   3.950   3.060   0.396  0.0350 -0.1960 -0.2354
 3728SOL    HW222647   3.991   3.045   0.538  0.7725 -4.2165  1.6622
 3729SOL     OW22648   3.361   0.976   7.126  0.2180  0.6108  0.0279
 3729SOL    HW122649   3.436   0.933   7.167 -0.9996  0.5510  2.1769
 3729SOL    HW222650   3.322   1.014   7.204  0.1881 -0.1732  0.4006
 3730SOL     OW22651   3.154   0.322  10.749 -0.0004 -0.1332 -0.1087
 3730SOL    HW122652   3.190   0.390  10.806 -0.8309  0.0796  0.1560
 3730SOL    HW222653   3.066   0.355  10.732 -0.4506 -0.9719  0.5902
 3731SOL     OW22654   4.723   1.462   3.106  0.3460 -0.3630 -0.0586
 3731SOL    HW122655   4.662   1.413   3.051  0.4510  0.2211 -0.6962
 3731SOL    HW222656   4.685   1.549   3.089  0.0641 -0.5666 -0.4745
 3732SOL     OW22657   2.004   3.525   1.190  0.3020 -0.0141  0.0343
 3732SOL    HW122658   2.000   3.617   1.166  4.1054 -0.0843 -0.8647
 3732SOL    HW222659   1.924   3.519   1.242 -0.9741 -1.1472 -2.0362
 3733SOL     OW22660   0.861   3.369   6.408  0.0274  0.1003 -0.2234
 3733SOL    HW122661   0.929   3.392   6.345 -1.6575 -1.1985 -2.5178
 3733SOL    HW222662   0.811   3.451   6.413 -2.1370 -1.3297  1.7489
 3734SOL     OW22663   2.032   2.174  17.233 -0.5097 -0.2225  0.7147
 3734SOL    HW122664   2.123   2.183  17.206 -0.9881 -0.5825 -1.0499
 3734SOL    HW222665   2.036   2.126  17.315  0.6644  0.9123  1.3237
 3735SOL     OW22666   1.443   3.217  16.006  0.1011 -0.1781 -0.0541
 3735SOL    HW122667   1.535   3.243  16.008 -0.3126  1.0893  1.9395
 3735SOL    HW222668   1.410   3.253  16.088 -0.1345  1.0095 -0.6830
 3736SOL     OW22669   1.384   2.487   9.462 -0.1458 -0.3876  0.0151
 3736SOL    HW122670   1.300   2.530   9.474 -1.0889 -1.9799 -0.8185
 3736SOL    HW222671   1.363   2.433   9.386 -1.5405 -1.0463  0.8765
 3737SOL     OW22672   0.103   3.226   4.612 -0.3952 -0.2949 -0.1994
 3737SOL    HW122673   0.033   3.250   4.672  1.8783  0.4116  2.1714
 3737SOL    HW222674   0.174   3.286   4.636  0.6238 -2.0623  1.2607
 3738SOL     OW22675   1.297   1.083   5.734  0.1681  0.4729 -0.2601
 3738SOL    HW122676   1.232   1.146   5.764 -0.1401  0.2226 -0.3990
 3738SOL    HW222677   1.247   1.002   5.743 -0.7479  1.0399 -0.2505
 3739SOL     OW22678   2.571   0.644   8.548  0.4452 -0.3561  0.1583
 3739SOL    HW122679   2.558   0.573   8.611  0.2708  0.0904  0.6211
 3739SOL    HW222680   2.631   0.700   8.597 -0.5715  1.0360 -0.1996
 3740SOL     OW22681   1.432   2.656   3.100 -0.1303 -0.0225  0.1083
 3740SOL    HW122682   1.444   2.711   3.177  0.9177  1.7214 -1.2930
 3740SOL    HW222683   1.352   2.703   3.076 -0.9256 -0.7245  1.4345
 3741SOL     OW22684   4.543   4.050  15.986 -0.1846  0.9764 -0.3493
 3741SOL    HW122685   4.489   4.111  15.937  2.6877  3.4167 -0.4526
 3741SOL    HW222686   4.572   4.104  16.060 -0.3016  0.5064  0.0483
 3742SOL     OW22687   2.233   4.507  16.596  0.1136 -0.4541 -0.2430
 3742SOL    HW122688   2.285   4.550  16.529  2.7905 -0.6821  1.7019
 3742SOL    HW222689   2.152   4.556  16.583 -0.8368 -1.3362  2.3339
 3743SOL     OW22690   2.944   0.189   2.749  0.2991 -0.4559  0.3475
 3743SOL    HW122691   2.948   0.124   2.820  1.6701 -2.4116 -1.5293
 3743SOL    HW222692   3.036   0.212   2.742 -0.1150  1.7317  1.8927
 3744SOL     OW22693   3.728   1.914   4.968 -0.0372  0.6298  0.4094
 3744SOL    HW122694   3.684   1.992   4.934 -0.0867  1.1946  1.7647
 3744SOL    HW222695   3.760   1.941   5.054  1.7064 -0.6601  0.1724
 3745SOL     OW22696   0.215   1.637  13.081 -0.3086  0.7787 -0.1339
 3745SOL    HW122697   0.148   1.656  13.147 -1.8976 -1.2735 -1.1124
 3745SOL    HW222698   0.241   1.726  13.058 -0.3545  0.9786  0.6045
 3746SOL     OW22699   3.600   0.471   6.256 -0.0359  0.2766  0.1219
 3746SOL    HW122700   3.688   0.488   6.221  0.2642 -1.2673  0.1219
 3746SOL    HW222701   3.604   0.375   6.263  0.9179  0.3293  0.3674
 3747SOL     OW22702   2.809   1.100   9.038 -0.0171  0.3009  0.9484
 3747SOL    HW122703   2.795   1.108   8.943  1.4126 -1.2012  0.6161
 3747SOL    HW222704   2.901   1.074   9.035 -0.5721 -1.4731 -0.2227
 3748SOL     OW22705   1.837   2.014  17.088 -0.1472  0.2777 -0.3846
 3748SOL    HW122706   1.862   1.924  17.110  0.5912  0.0930 -1.9185
 3748SOL    HW222707   1.903   2.069  17.131 -1.5121  0.5323  1.3253
 3749SOL     OW22708   4.690   2.299   4.085 -0.1815  0.0341 -0.1622
 3749SOL    HW122709   4.649   2.214   4.066  0.5434 -0.2014 -0.6571
 3749SOL    HW222710   4.636   2.366   4.043  0.9829  0.5976 -0.7545
 3750SOL     OW22711   1.527   1.523  14.526  0.0130  0.8057  0.4810
 3750SOL    HW122712   1.620   1.500  14.530 -0.4013 -1.1094 -0.8238
 3750SOL    HW222713   1.524   1.612  14.491 -0.3281  0.3355 -0.6751
 3751SOL     OW22714   4.151   0.767   2.319 -0.7120  0.0905  0.5035
 3751SOL    HW122715   4.090   0.738   2.251 -0.5809  2.9197 -0.8575
 3751SOL    HW222716   4.193   0.682   2.329  0.5355  0.3922 -1.9724
 3752SOL     OW22717   3.301   4.125   6.396  0.4925  0.5204  0.0105
 3752SOL    HW122718   3.382   4.101   6.352  1.0434 -1.3029  2.0061
 3752SOL    HW222719   3.307   4.066   6.470 -3.7088  0.6709  0.4912
 3753SOL     OW22720   0.148   1.428   8.137 -0.1516  0.4743  0.4738
 3753SOL    HW122721   0.227   1.420   8.084 -0.5764  1.2601 -0.2729
 3753SOL    HW222722   0.171   1.372   8.211 -1.1641 -1.3748 -0.6065
 3754SOL     OW22723   4.364   0.259   5.602 -0.6899 -0.5414  0.2283
 3754SOL    HW122724   4.376   0.231   5.511 -0.0636 -1.0154  0.4578
 3754SOL    HW222725   4.397   0.183   5.649  0.2204 -0.1813  0.1808
 3755SOL     OW22726   4.340   3.987   6.789  0.1232 -0.2131  0.3686
 3755SOL    HW122727   4.362   4.001   6.697 -1.5633  1.0636  0.1551
 3755SOL    HW222728   4.289   3.908   6.772 -0.2388  0.1778 -0.3815
 3756SOL     OW22729   3.374   3.272   2.751  0.0344  0.4583  0.1114
 3756SOL    HW122730   3.368   3.350   2.806  0.5393 -0.0365  0.8629
 3756SOL    HW222731   3.462   3.243   2.775  0.3896  1.3341 -0.1292
 3757SOL     OW22732   4.586   3.070   7.924 -0.0555  0.0733  0.6302
 3757SOL    HW122733   4.510   3.115   7.960 -1.4785 -0.7457 -1.3818
 3757SOL    HW222734   4.627   3.147   7.885 -1.5825  0.0476 -0.9897
 3758SOL     OW22735   0.263   3.231   6.276  0.1199 -0.1463  0.0888
 3758SOL    HW122736   0.221   3.258   6.358 -1.1483 -0.5090 -0.4279
 3758SOL    HW222737   0.260   3.139   6.302  2.3101 -0.4052 -0.6295
 3759SOL     OW22738   4.313   1.285   7.439  0.0381 -0.2168  0.2755
 3759SOL    HW122739   4.359   1.292   7.355  0.4541  1.4079  0.6234
 3759SOL    HW222740   4.317   1.372   7.479  2.3063  0.9991 -2.5199
 3760SOL     OW22741   0.621   4.309   3.251 -0.3583  0.2233 -0.2058
 3760SOL    HW122742   0.702   4.322   3.201  1.4489 -0.0203  2.6454
 3760SOL    HW222743   0.595   4.221   3.224 -1.4553  0.1550  1.0748
 3761SOL     OW22744   0.680   1.213   3.860  0.1777 -0.3673  0.3048
 3761SOL    HW122745   0.615   1.282   3.876  0.7821  0.8154 -2.4079
 3761SOL    HW222746   0.736   1.210   3.937  2.2354 -2.9843 -1.2959
 3762SOL     OW22747   2.982   4.696   6.708  0.7304  0.0828  0.1444
 3762SOL    HW122748   3.011   0.057   6.726  0.2955 -0.0890  1.7268
 3762SOL    HW222749   2.898   4.694   6.754  1.1925  0.2347  0.9963
 3763SOL     OW22750   3.868   1.430   4.419 -0.3156  0.2217  0.4045
 3763SOL    HW122751   3.892   1.519   4.446  1.1346 -1.4275  4.5628
 3763SOL    HW222752   3.904   1.378   4.490  0.6194  3.0042  1.9966
 3764SOL     OW22753   2.399   1.739  11.466  0.1725  0.2854 -0.8631
 3764SOL    HW122754   2.370   1.685  11.393  0.3029  1.4351 -1.7491
 3764SOL    HW222755   2.485   1.699  11.480 -0.1833 -0.8917 -1.9974
 3765SOL     OW22756   3.724   4.713   3.819 -0.6349  0.0588 -0.0347
 3765SOL    HW122757   3.752   4.622   3.831  0.1740  0.6726  2.6786
 3765SOL    HW222758   3.645   4.697   3.871 -0.6571 -2.9746 -0.9621
 3766SOL     OW22759   4.035   4.354   4.459  0.1211 -0.2419 -0.1495
 3766SOL    HW122760   4.031   4.446   4.486  0.7479 -0.1216 -0.4703
 3766SOL    HW222761   4.034   4.299   4.538  0.0111  0.3953  0.2901
 3767SOL     OW22762   0.003   2.418   8.413  0.4117  0.3874 -0.1275
 3767SOL    HW122763   4.666   2.366   8.459 -1.1150  4.0027  1.6940
 3767SOL    HW222764   0.072   2.429   8.478 -0.1331  2.0781  0.1615
 3768SOL     OW22765   4.350   2.379   9.424  0.2112 -0.2172  0.3257
 3768SOL    HW122766   4.276   2.343   9.473 -0.4042  1.3522  0.5789
 3768SOL    HW222767   4.422   2.327   9.458 -0.0934  0.2409  1.6713
 3769SOL     OW22768   0.313   2.328  14.523 -0.3732 -0.2950  0.6119
 3769SOL    HW122769   0.280   2.267  14.457  0.2146 -0.1988  0.2239
 3769SOL    HW222770   0.406   2.318  14.502 -0.2466 -0.8925  1.4822
 3770SOL     OW22771   2.577   3.378  12.525 -0.0484 -0.1594 -0.3500
 3770SOL    HW122772   2.670   3.354  12.519 -0.7181 -2.5654 -1.1501
 3770SOL    HW222773   2.543   3.288  12.528 -0.1453 -0.1541 -1.2667
 3771SOL     OW22774   3.412   0.246   9.078 -0.5326  0.5871  0.1219
 3771SOL    HW122775   3.333   0.214   9.122  0.7779 -2.6150  0.1200
 3771SOL    HW222776   3.483   0.255   9.142 -0.2970 -1.7222  0.1915
 3772SOL     OW22777   2.811   0.866  15.654  0.4781  0.6010 -0.3877
 3772SOL    HW122778   2.818   0.809  15.578  0.8990 -0.9744  0.8457
 3772SOL    HW222779   2.901   0.861  15.685 -0.2973  0.5676  1.8790
 3773SOL     OW22780   0.736   4.642   9.593 -0.2530  0.0736  0.1951
 3773SOL    HW122781   0.658   4.591   9.571  1.4616 -3.0146  1.3567
 3773SOL    HW222782   0.798   4.627   9.522 -0.5009  2.2200 -0.4747
 3774SOL     OW22783   0.159   3.641  10.921 -0.9120  0.0103 -0.7361
 3774SOL    HW122784   0.090   3.644  10.987 -0.6705  0.3880 -0.5026
 3774SOL    HW222785   0.143   3.551  10.894  3.3705 -1.0957  0.5993
 3775SOL     OW22786   4.668   3.206  13.143 -0.3140  0.6149 -0.0561
 3775SOL    HW122787   4.708   3.200  13.056 -4.0077 -2.3812 -1.5583
 3775SOL    HW222788   4.673   3.112  13.159  0.0964  0.7818  0.7787
 3776SOL     OW22789   1.375   2.937   1.619  0.0457 -0.1147  0.4346
 3776SOL    HW122790   1.393   2.912   1.528  0.3444  1.5601  0.0490
 3776SOL    HW222791   1.336   2.859   1.660 -1.1516 -0.0012 -0.4689
 3777SOL     OW22792   3.038   2.492   0.035 -0.2899 -0.0149  0.2994
 3777SOL    HW122793   2.971   2.522  17.688 -0.0615 -0.2960 -0.0861
 3777SOL    HW222794   2.988   2.478   0.115 -1.4095  3.4610  0.2238
 3778SOL     OW22795   3.931   1.337   4.702  0.1072  0.4875 -0.0487
 3778SOL    HW122796   3.848   1.296   4.727  0.0485 -0.8155 -2.3965
 3778SOL    HW222797   3.933   1.428   4.733  0.1592  1.1221 -1.8736
 3779SOL     OW22798   4.424   2.715   3.039 -0.5209 -0.0880 -0.7536
 3779SOL    HW122799   4.378   2.746   2.962 -2.2490 -0.3959  0.1575
 3779SOL    HW222800   4.421   2.789   3.099  1.8181 -0.5200 -0.0898
 3780SOL     OW22801   2.587   3.522   6.998  0.0628 -0.7940 -0.3718
 3780SOL    HW122802   2.576   3.459   7.070 -1.8536  2.1356  1.8763
 3780SOL    HW222803   2.514   3.583   7.003 -0.4299 -1.3945 -0.2012
 3781SOL     OW22804   4.274   2.510  15.057 -0.0276  0.1787  0.1211
 3781SOL    HW122805   4.366   2.530  15.036  0.5001 -0.5731  1.6703
 3781SOL    HW222806   4.284   2.427  15.104  1.5670  1.6933  2.4478
 3782SOL     OW22807   4.331   2.073   9.110  0.7550 -0.1173  0.9526
 3782SOL    HW122808   4.384   2.145   9.076  0.4139  0.0860  0.8575
 3782SOL    HW222809   4.251   2.123   9.128 -0.1000 -0.7520 -1.1502
 3783SOL     OW22810   2.202   0.785   7.087  1.0592  0.1472 -0.1344
 3783SOL    HW122811   2.217   0.764   7.179  0.2081  1.0112  0.2067
 3783SOL    HW222812   2.268   0.851   7.066  1.4147 -0.5151 -1.0943
 3784SOL     OW22813   3.395   3.023  16.045 -0.5744  0.1253 -0.4180
 3784SOL    HW122814   3.367   3.065  15.964 -2.8791 -0.9999 -0.1746
 3784SOL    HW222815   3.349   3.085  16.102 -1.6224  0.5604 -1.7514
 3785SOL     OW22816   0.851   3.959   8.277  0.1465 -0.6633  0.0407
 3785SOL    HW122817   0.792   3.982   8.205  0.6716  2.7448  0.6815
 3785SOL    HW222818   0.902   4.040   8.272  0.3591 -0.8244 -0.4378
 3786SOL     OW22819   2.390   3.010   0.159  0.0612 -0.4728 -0.4787
 3786SOL    HW122820   2.380   3.094   0.204 -0.0199  0.1697 -1.6827
 3786SOL    HW222821   2.469   2.979   0.202 -0.1017 -0.2824 -0.0421
 3787SOL     OW22822   1.558   3.945  17.360  0.1165  0.2039 -0.0137
 3787SOL    HW122823   1.514   3.998  17.426  3.4867  1.8357  0.9559
 3787SOL    HW222824   1.567   4.009  17.289 -1.0269 -1.1567 -1.3642
 3788SOL     OW22825   3.090   3.115   4.671  0.1331 -0.0367 -0.1465
 3788SOL    HW122826   3.007   3.149   4.637 -0.0930  1.3072  1.7671
 3788SOL    HW222827   3.052   3.052   4.731  0.3773 -0.3602 -0.3309
 3789SOL     OW22828   3.472   1.899   4.121 -0.4121  0.8140  0.8444
 3789SOL    HW122829   3.456   1.871   4.211 -0.2768  1.3674  1.0436
 3789SOL    HW222830   3.536   1.970   4.132  0.9870 -0.2734 -0.1948
 3790SOL     OW22831   0.666   1.743  14.090 -0.5062  0.4469  0.3949
 3790SOL    HW122832   0.635   1.701  14.010  2.9476  0.3743 -0.8792
 3790SOL    HW222833   0.594   1.716  14.147 -1.0995  0.5111 -0.3311
 3791SOL     OW22834   0.620   1.756   2.290 -0.0784 -0.0995 -0.4160
 3791SOL    HW122835   0.563   1.769   2.366  0.3067  1.1209 -0.3318
 3791SOL    HW222836   0.564   1.773   2.215 -0.3513  1.2762  0.0958
 3792SOL     OW22837   4.248   2.743  15.757  0.1441  0.4231 -0.2240
 3792SOL    HW122838   4.209   2.828  15.774  0.8599  0.7831 -0.4005
 3792SOL    HW222839   4.170   2.692  15.733 -0.0922 -0.5041  2.5399
 3793SOL     OW22840   3.196   2.286   5.061 -0.0964  0.5876 -0.1526
 3793SOL    HW122841   3.223   2.195   5.076  1.2253  1.0975  0.5922
 3793SOL    HW222842   3.140   2.304   5.136 -1.2562 -0.6761 -0.7271
 3794SOL     OW22843   1.417   2.976   8.831 -0.3685  0.4929  0.5056
 3794SOL    HW122844   1.364   3.049   8.864 -2.1925 -0.0836 -1.1374
 3794SOL    HW222845   1.486   3.035   8.803  0.8553 -2.0415 -1.8344
 3795SOL     OW22846   1.214   1.111   0.567  0.2071  0.1008 -0.1833
 3795SOL    HW122847   1.182   1.056   0.639  0.5113  0.2725  0.0847
 3795SOL    HW222848   1.154   1.185   0.580 -0.0374  0.4310 -3.2542
 3796SOL     OW22849   3.556   2.724   3.660 -0.3307 -0.2354 -0.0244
 3796SOL    HW122850   3.515   2.718   3.574  2.6214 -1.5752 -1.3176
 3796SOL    HW222851   3.504   2.791   3.705  0.4972  0.3378  0.0893
 3797SOL     OW22852   4.003   3.754   5.030 -0.1317  0.3728 -0.1395
 3797SOL    HW122853   4.001   3.842   5.070 -1.5334  0.3995 -0.2464
 3797SOL    HW222854   4.095   3.734   5.017  0.3873  1.6797  1.4450
 3798SOL     OW22855   1.439   4.392  11.751 -0.7502 -0.2050  0.6597
 3798SOL    HW122856   1.477   4.412  11.836 -0.6050 -1.2673  0.8464
 3798SOL    HW222857   1.420   4.300  11.767  0.6559 -0.3990  1.1551
 3799SOL     OW22858   1.349   1.354   1.366  0.2748  0.1885 -0.4142
 3799SOL    HW122859   1.409   1.352   1.291  0.7722 -1.5270  0.0386
 3799SOL    HW222860   1.311   1.441   1.352  1.8406  1.0645  0.7450
 3800SOL     OW22861   2.295   1.220   3.078  0.0083 -0.2532  0.3160
 3800SOL    HW122862   2.231   1.156   3.109  1.3085 -0.4337  2.6092
 3800SOL    HW222863   2.243   1.255   3.006 -0.5684 -0.9655  0.3867
 3801SOL     OW22864   1.289   0.559   5.707  0.4235  0.7783 -0.4228
 3801SOL    HW122865   1.200   0.593   5.695  0.0868 -0.1578 -0.5469
 3801SOL    HW222866   1.267   0.474   5.744  0.2360  1.4382  0.9722
 3802SOL     OW22867   0.340   2.731  15.958  0.0476 -0.4910  0.1251
 3802SOL    HW122868   0.330   2.656  15.901 -0.1441 -0.4409  0.0904
 3802SOL    HW222869   0.266   2.785  15.930 -0.0465 -1.0082 -0.5979
 3803SOL     OW22870   2.542   0.798   1.123  0.2566 -0.1436  0.5325
 3803SOL    HW122871   2.549   0.703   1.125 -1.3118 -0.2943 -1.6784
 3803SOL    HW222872   2.617   0.830   1.072 -0.3141 -0.7050 -0.6514
 3804SOL     OW22873   3.116   1.673   8.130 -0.4572 -0.5762  0.0279
 3804SOL    HW122874   3.138   1.613   8.059 -0.9834 -2.7239  1.6692
 3804SOL    HW222875   3.041   1.719   8.093 -1.1217  0.3263  2.5240
 3805SOL     OW22876   0.979   4.229   8.712 -0.4140 -0.0751 -0.0400
 3805SOL    HW122877   0.987   4.248   8.618  0.7066 -1.2324 -0.1760
 3805SOL    HW222878   0.995   4.316   8.749  0.7223 -0.5843  0.6778
 3806SOL     OW22879   4.630   3.191   2.621  0.4219  0.3261  0.2625
 3806SOL    HW122880   4.598   3.237   2.543 -0.1738 -0.5193  0.0164
 3806SOL    HW222881   4.638   3.102   2.587 -2.2529  0.1402  0.0883
 3807SOL     OW22882   3.581   3.173  14.430  0.3564 -0.4977 -0.7650
 3807SOL    HW122883   3.562   3.091  14.384 -1.0918  0.4886 -1.9464
 3807SOL    HW222884   3.492   3.203  14.448  1.2934  1.2500  0.8911
 3808SOL     OW22885   3.997   0.065   1.999 -0.2958  0.1929  0.4922
 3808SOL    HW122886   3.974   0.114   1.920 -2.5765 -1.1220  0.3321
 3808SOL    HW222887   4.072   0.014   1.970 -0.1719  0.2705  0.6826
 3809SOL     OW22888   2.297   0.747   8.891  0.3658 -0.2254 -0.0414
 3809SOL    HW122889   2.245   0.670   8.913 -1.8599  1.1293 -0.5459
 3809SOL    HW222890   2.321   0.736   8.799 -1.5521 -1.3529 -0.4019
 3810SOL     OW22891   3.272   1.043   5.505  0.3520 -0.2483  0.6825
 3810SOL    HW122892   3.323   1.108   5.553  0.4239 -1.4760  2.2757
 3810SOL    HW222893   3.185   1.067   5.536  1.0801 -0.0404  2.5178
 3811SOL     OW22894   2.890   1.855   6.937 -0.7247 -0.0697 -0.6056
 3811SOL    HW122895   2.886   1.804   7.017 -1.8804 -0.1977 -0.7472
 3811SOL    HW222896   2.912   1.792   6.868  1.2433  0.9549 -0.9294
 3812SOL     OW22897   4.623   3.454  17.312  0.0829  0.2966  0.0542
 3812SOL    HW122898   4.585   3.367  17.310 -0.7466  0.7287 -2.4186
 3812SOL    HW222899   4.616   3.482  17.221  1.0299  0.5999  0.0773
 3813SOL     OW22900   1.401   3.478   7.797 -0.3599 -0.0325 -0.3983
 3813SOL    HW122901   1.387   3.554   7.853 -0.3908  0.9242 -1.6993
 3813SOL    HW222902   1.340   3.483   7.724  0.4285 -0.4320 -1.0923
 3814SOL     OW22903   2.412   0.538  12.367 -0.3235  0.4518 -0.2676
 3814SOL    HW122904   2.400   0.527  12.461  0.2523  0.6473 -0.1665
 3814SOL    HW222905   2.333   0.488  12.346 -1.3598  1.5100  1.1373
 3815SOL     OW22906   3.239   4.028   5.435 -0.8148 -0.2728  0.2848
 3815SOL    HW122907   3.155   3.987   5.457 -1.4980  0.5453 -0.7992
 3815SOL    HW222908   3.206   4.091   5.371  0.8957 -1.7457 -2.0527
 3816SOL     OW22909   2.783   3.434   6.539 -0.1963 -0.1463  0.7123
 3816SOL    HW122910   2.721   3.461   6.606 -1.7062 -0.8396 -0.3894
 3816SOL    HW222911   2.841   3.508   6.522 -2.0501  1.2402  0.4537
 3817SOL     OW22912   3.076   4.564   8.298  0.5729 -0.3534 -0.3998
 3817SOL    HW122913   3.077   4.477   8.259 -0.5974  0.6791 -2.6911
 3817SOL    HW222914   3.011   4.551   8.367  2.8431  1.0434  2.0178
 3818SOL     OW22915   2.281   3.944   5.723  0.1228 -0.0030  0.1777
 3818SOL    HW122916   2.193   3.982   5.725 -0.0581 -0.3594 -1.5321
 3818SOL    HW222917   2.332   4.014   5.765 -0.8728  0.1268  1.1855
 3819SOL     OW22918   3.388   4.378  12.862  0.2261  0.1344 -0.1937
 3819SOL    HW122919   3.408   4.401  12.953  0.2200  0.5328 -0.2932
 3819SOL    HW222920   3.395   4.283  12.866  1.6592  0.2782  0.6172
 3820SOL     OW22921   0.138   1.055  10.540  0.4161  0.0271  0.1909
 3820SOL    HW122922   0.058   1.090  10.579  0.4333 -0.9145  1.0984
 3820SOL    HW222923   0.147   1.097  10.455  0.4856 -1.9342 -0.7653
 3821SOL     OW22924   2.037   4.720   9.795  0.0277 -0.5707  0.6387
 3821SOL    HW122925   2.112   4.700   9.850  0.0000  1.2201  1.3187
 3821SOL    HW222926   1.971   4.709   9.863  1.0707 -2.0862  1.4050
 3822SOL     OW22927   4.610   3.657   6.104  0.3031 -0.4263  0.9892
 3822SOL    HW122928   4.625   3.585   6.165 -1.2029 -2.1930 -0.7341
 3822SOL    HW222929   4.682   3.649   6.042 -0.0141 -0.3262  0.6087
 3823SOL     OW22930   3.712   0.567   4.160 -0.2068 -0.2622  0.0108
 3823SOL    HW122931   3.795   0.592   4.200 -1.5659 -0.1443  2.7540
 3823SOL    HW222932   3.733   0.591   4.070  0.6268  0.2751  0.3506
 3824SOL     OW22933   1.287   3.600   6.037  0.0578 -0.0487  0.0837
 3824SOL    HW122934   1.363   3.544   6.022  1.0495  1.1018  0.8248
 3824SOL    HW222935   1.224   3.563   5.976  2.1468  1.1750 -2.7865
 3825SOL     OW22936   0.519   1.105   7.885 -0.0006  0.2479 -0.1774
 3825SOL    HW122937   0.518   1.187   7.837 -0.4359  0.4886  0.2514
 3825SOL    HW222938   0.429   1.080   7.866  0.3699 -1.9139  0.8227
 3826SOL     OW22939   0.761   2.301   2.091  0.4643 -0.0134  0.3931
 3826SOL    HW122940   0.675   2.264   2.070  0.6520 -0.4462  0.3786
 3826SOL    HW222941   0.768   2.290   2.186 -2.1698  3.9228  1.0417
 3827SOL     OW22942   1.184   2.174   1.744 -0.4220 -0.1844  0.1523
 3827SOL    HW122943   1.114   2.115   1.770  0.6468 -0.2693  2.9096
 3827SOL    HW222944   1.189   2.236   1.817 -2.2252  2.4391 -1.9823
 3828SOL     OW22945   0.677   1.611   5.427 -0.7547  0.4108 -0.0628
 3828SOL    HW122946   0.657   1.588   5.336 -0.7062 -0.6590  0.2028
 3828SOL    HW222947   0.597   1.608   5.479 -1.5697  0.4113 -1.3059
 3829SOL     OW22948   1.250   1.748   6.603  0.2515  0.0234 -0.1937
 3829SOL    HW122949   1.166   1.721   6.639  0.8644 -0.9456  0.5225
 3829SOL    HW222950   1.287   1.784   6.684  1.5281 -1.5406 -0.0835
 3830SOL     OW22951   0.911   3.756   6.121 -0.1017 -0.4728 -0.4767
 3830SOL    HW122952   0.856   3.818   6.169  0.1693 -0.4925 -0.1361
 3830SOL    HW222953   0.846   3.701   6.076 -1.1010 -2.1439  3.0047
 3831SOL     OW22954   0.464   0.824   5.311 -0.6176 -0.2117  0.1643
 3831SOL    HW122955   0.479   0.913   5.279  1.2103 -1.2153 -1.7753
 3831SOL    HW222956   0.555   0.801   5.332 -0.4955  3.0804  3.3722
 3832SOL     OW22957   0.222   0.039   2.064  0.1982  0.1053 -0.3990
 3832SOL    HW122958   0.163   0.038   2.140  3.6272 -0.6270  2.3072
 3832SOL    HW222959   0.221   0.133   2.047 -1.5731 -0.0280 -1.0323
 3833SOL     OW22960   3.599   4.162   5.898 -0.1023  0.2596 -0.1582
 3833SOL    HW122961   3.656   4.225   5.942 -1.3482  1.4134 -0.1967
 3833SOL    HW222962   3.511   4.193   5.917 -0.0938  0.7920 -0.9558
 3834SOL     OW22963   0.859   0.909  15.167 -0.2469 -0.6668  0.1908
 3834SOL    HW122964   0.948   0.877  15.185 -0.8103 -1.2012  2.0397
 3834SOL    HW222965   0.828   0.878  15.082 -0.5099  1.5482 -0.5347
 3835SOL     OW22966   4.533   1.661   1.847 -0.1508 -0.2329 -0.1550
 3835SOL    HW122967   4.610   1.610   1.823 -0.8596 -1.2433 -0.3273
 3835SOL    HW222968   4.565   1.675   1.936  3.7817 -0.2971 -1.5976
 3836SOL     OW22969   3.219   1.439   8.760  0.1864 -0.4539  0.0283
 3836SOL    HW122970   3.133   1.399   8.749 -1.1054  2.5623 -0.7100
 3836SOL    HW222971   3.225   1.502   8.689  0.4638  1.1536  1.4673
 3837SOL     OW22972   0.489   2.677   8.830  0.0044  0.0530  0.2350
 3837SOL    HW122973   0.440   2.659   8.749  1.0140 -0.6470 -0.2152
 3837SOL    HW222974   0.442   2.758   8.850  0.6423  0.1300  1.3957
 3838SOL     OW22975   0.589   3.201  10.893  0.0533  0.2781  0.5105
 3838SOL    HW122976   0.554   3.139  10.958 -0.4536 -0.4902 -0.4814
 3838SOL    HW222977   0.680   3.173  10.890  0.4130  1.4549  0.6001
 3839SOL     OW22978   3.102   0.090   5.549 -0.3642 -0.3412  0.0189
 3839SOL    HW122979   3.134   0.075   5.460 -0.9624  2.3475 -0.6229
 3839SOL    HW222980   3.014   0.054   5.538 -0.5785  0.3803 -0.6121
 3840SOL     OW22981   0.309   3.610  11.388 -0.1912 -0.1222 -1.3098
 3840SOL    HW122982   0.217   3.598  11.410 -0.8859 -1.0227 -4.7905
 3840SOL    HW222983   0.348   3.618  11.476 -0.5342 -3.0644 -0.8933
 3841SOL     OW22984   4.499   3.574   2.086 -0.3293 -0.3152  0.1642
 3841SOL    HW122985   4.580   3.620   2.065 -1.5168  1.1030 -1.4266
 3841SOL    HW222986   4.437   3.639   2.052  0.9823 -0.1564 -1.9062
 3842SOL     OW22987   3.790   2.118  10.944 -0.1945 -0.2573  0.2452
 3842SOL    HW122988   3.801   2.067  11.024 -0.4783  2.4859  2.0424
 3842SOL    HW222989   3.881   2.129  10.917  0.8610 -2.0999  3.0886
 3843SOL     OW22990   4.429   3.112   8.378 -0.3635  0.3887 -0.0649
 3843SOL    HW122991   4.391   3.178   8.320 -0.6070 -1.0954 -1.6026
 3843SOL    HW222992   4.444   3.036   8.321 -0.9780 -2.2755  3.3671
 3844SOL     OW22993   2.865   3.298  15.597 -0.4804 -0.0233  0.1881
 3844SOL    HW122994   2.870   3.251  15.514 -0.4530 -0.3844  0.3886
 3844SOL    HW222995   2.870   3.237  15.671 -1.5738 -0.5586 -0.1812
 3845SOL     OW22996   0.246   2.167  17.697 -0.6261 -0.1680  0.0814
 3845SOL    HW122997   0.308   2.199   0.048 -1.0587  1.2446 -0.2119
 3845SOL    HW222998   0.300   2.134  17.625  0.6836 -0.8135  1.3573
 3846SOL     OW22999   2.624   2.646   0.274  0.2022  0.1546  0.1723
 3846SOL    HW123000   2.577   2.563   0.260 -0.2967  0.3686  0.5916
 3846SOL    HW223001   2.682   2.640   0.198 -1.8804  0.1243 -1.4202
 3847SOL     OW23002   3.579   0.958   3.973  0.0261 -0.5362  0.2429
 3847SOL    HW123003   3.585   1.044   3.930 -0.5460  0.4410  2.0815
 3847SOL    HW223004   3.661   0.967   4.022  2.0200 -0.7552 -3.0544
 3848SOL     OW23005   4.486   4.674   2.929  0.0938 -0.0409 -0.6283
 3848SOL    HW123006   4.480   4.689   2.834  1.1029 -2.7188 -1.1223
 3848SOL    HW223007   4.534   0.020   2.963 -0.0226 -0.6891  0.9357
 3849SOL     OW23008   2.817   2.494   7.520 -0.0120  0.0267  0.0704
 3849SOL    HW123009   2.819   2.398   7.525  2.5222  0.0084 -1.1833
 3849SOL    HW223010   2.722   2.504   7.514  0.2271  2.2204 -0.0170
 3850SOL     OW23011   3.107   4.248  16.720 -0.2394 -0.0670 -0.4046
 3850SOL    HW123012   3.120   4.159  16.754 -1.8886 -0.0888  0.1254
 3850SOL    HW223013   3.053   4.235  16.641  0.2998  2.6291 -1.1963
 3851SOL     OW23014   2.579   2.106   0.103 -0.3076  0.1292  0.0921
 3851SOL    HW123015   2.541   2.048   0.169 -0.9925 -0.2275 -0.6263
 3851SOL    HW223016   2.674   2.104   0.108 -0.2069 -0.6522 -2.3342
 3852SOL     OW23017   2.840   3.917   3.478 -0.0190  0.2898 -0.4161
 3852SOL    HW123018   2.790   3.986   3.434 -0.0101  1.1786  0.9603
 3852SOL    HW223019   2.886   3.965   3.547  0.8221 -0.9893 -0.0887
 3853SOL     OW23020   0.089   4.278  12.132  0.1172  0.1522  0.1971
 3853SOL    HW123021   0.156   4.252  12.195  2.5657 -0.8907 -2.8465
 3853SOL    HW223022   0.086   4.368  12.164  0.9272  0.5192 -0.7696
 3854SOL     OW23023   1.456   2.947   0.443 -0.1697  0.3105  0.2059
 3854SOL    HW123024   1.378   2.897   0.419  0.1855  0.3001 -0.8856
 3854SOL    HW223025   1.520   2.897   0.392  0.4038  1.3949 -0.1346
 3855SOL     OW23026   3.289   0.337   5.301  0.3188 -0.3159 -0.2668
 3855SOL    HW123027   3.336   0.337   5.385 -1.5015 -1.9904  0.7829
 3855SOL    HW223028   3.295   0.245   5.274 -2.8020 -0.0428 -1.8414
 3856SOL     OW23029   3.006   3.782   7.238  0.6556 -0.4982  0.0787
 3856SOL    HW123030   2.933   3.720   7.249  0.2368  0.0401  0.2992
 3856SOL    HW223031   2.966   3.863   7.270  0.3165 -0.2136 -1.0676
 3857SOL     OW23032   0.163   3.835   3.782 -0.2274 -0.1129 -0.4130
 3857SOL    HW123033   0.096   3.774   3.752 -1.1716  1.6027 -1.7927
 3857SOL    HW223034   0.122   3.850   3.867  0.1101 -1.5928 -0.0041
 3858SOL     OW23035   0.638   1.896   9.254 -0.1943  0.4773 -0.3106
 3858SOL    HW123036   0.667   1.888   9.345  1.4105 -0.0428 -0.8768
 3858SOL    HW223037   0.710   1.858   9.205 -1.0563 -1.8838  0.2608
 3859SOL     OW23038   0.922   2.170   8.128  0.0992  0.0340  0.5494
 3859SOL    HW123039   0.875   2.129   8.200 -0.7305  0.4150  0.2227
 3859SOL    HW223040   0.994   2.108   8.116  0.5877  0.3181  2.0675
 3860SOL     OW23041   4.426   4.165  12.147  0.8910  0.0534  0.2868
 3860SOL    HW123042   4.403   4.254  12.174  0.7011 -0.1958  0.9393
 3860SOL    HW223043   4.384   4.120  12.220 -0.2062 -1.5906 -1.3592
 3861SOL     OW23044   2.866   0.999   3.074  0.2878 -0.2423 -0.3128
 3861SOL    HW123045   2.789   1.052   3.093 -0.1583 -0.9687 -0.0627
 3861SOL    HW223046   2.918   1.052   3.014  1.4802  1.2842  2.0812
 3862SOL     OW23047   1.724   0.321  10.081  0.3128 -0.0764  0.4596
 3862SOL    HW123048   1.678   0.384  10.026  0.5640  0.0814  0.4326
 3862SOL    HW223049   1.693   0.354  10.165  1.7456  2.6947 -0.1256
 3863SOL     OW23050   0.201   0.367  16.410 -0.1689 -0.3659 -0.0559
 3863SOL    HW123051   0.205   0.458  16.439  1.8633 -1.1041  2.0164
 3863SOL    HW223052   0.198   0.317  16.491  0.9418 -1.8533 -0.9265
 3864SOL     OW23053   1.894   2.264   3.363 -0.0453 -0.1070  0.7094
 3864SOL    HW123054   1.933   2.257   3.275 -1.7934  0.7785 -0.1314
 3864SOL    HW223055   1.912   2.354   3.391 -1.6820  0.2202  0.6884
 3865SOL     OW23056   4.342   1.253  10.661 -0.0252 -0.9994 -0.1405
 3865SOL    HW123057   4.370   1.328  10.712  0.1144  0.7749 -2.8003
 3865SOL    HW223058   4.297   1.197  10.724 -1.3011  0.9558  0.6871
 3866SOL     OW23059   3.269   1.374   0.902  0.8699  0.0575 -0.1248
 3866SOL    HW123060   3.357   1.386   0.936 -0.6616  2.6026  2.8957
 3866SOL    HW223061   3.296   1.318   0.829 -2.2872  0.5681 -1.6979
 3867SOL     OW23062   0.726   2.063   9.477  0.1447 -0.1391  0.1433
 3867SOL    HW123063   0.652   2.107   9.517 -1.4181 -2.1156 -0.5280
 3867SOL    HW223064   0.799   2.085   9.533  2.4915 -0.7447 -2.6644
 3868SOL     OW23065   2.303   1.743   3.390 -0.0604 -0.4847  0.2247
 3868SOL    HW123066   2.397   1.730   3.375  0.4904  2.2164  1.4284
 3868SOL    HW223067   2.272   1.722   3.302  1.7514 -0.0677 -0.5180
 3869SOL     OW23068   1.119   4.282  15.415 -0.3474  0.0698 -0.2377
 3869SOL    HW123069   1.098   4.272  15.508 -0.7158 -0.1699 -0.3467
 3869SOL    HW223070   1.177   4.358  15.419 -0.0877 -0.0967 -0.9724
 3870SOL     OW23071   2.417   0.606   6.003  0.1786  0.0449 -0.6093
 3870SOL    HW123072   2.481   0.547   5.964  0.3096  0.9393 -1.7278
 3870SOL    HW223073   2.380   0.554   6.075  1.9999  0.7425  0.8237
 3871SOL     OW23074   4.674   2.105   8.260  0.1334 -0.2815 -0.1431
 3871SOL    HW123075   4.618   2.031   8.238 -0.2456 -0.1943  0.5230
 3871SOL    HW223076   4.699   2.075   8.348  0.6672 -0.3921 -0.3330
 3872SOL     OW23077   4.383   0.155  17.530 -0.1991 -1.0819  0.4265
 3872SOL    HW123078   4.410   0.102  17.455 -1.7814 -1.6345  0.2427
 3872SOL    HW223079   4.421   0.237  17.497 -0.0727 -1.3080  0.0079
 3873SOL     OW23080   3.331   3.911   6.608 -0.0592 -0.1580  0.0215
 3873SOL    HW123081   3.423   3.885   6.598 -0.2861 -1.4699  1.3572
 3873SOL    HW223082   3.293   3.824   6.619 -1.1411  0.3412  0.2310
 3874SOL     OW23083   1.892   0.892   6.336  0.0352 -0.1123  0.2967
 3874SOL    HW123084   1.896   0.927   6.247 -1.0066  1.2634  0.7990
 3874SOL    HW223085   1.976   0.846   6.330  0.2492  0.1041  1.6023
 3875SOL     OW23086   1.887   3.071   0.343 -0.2319  0.5027 -0.3788
 3875SOL    HW123087   1.854   3.037   0.426  0.6614  0.5723  0.0030
 3875SOL    HW223088   1.841   3.153   0.328 -1.5859 -0.2166 -0.1545
 3876SOL     OW23089   0.680   1.902  11.309 -0.3511 -0.4902  0.2605
 3876SOL    HW123090   0.609   1.942  11.358 -0.1060 -0.1140  0.3091
 3876SOL    HW223091   0.674   1.948  11.225  0.3973  0.8047  0.9090
 3877SOL     OW23092   3.823   3.946   0.388  0.1219  0.2582 -0.1313
 3877SOL    HW123093   3.842   3.996   0.309  0.7321  1.3544  0.7000
 3877SOL    HW223094   3.837   4.006   0.462  0.7260 -0.9170  0.7141
 3878SOL     OW23095   4.526   4.118   9.450 -0.7959  0.0951 -0.3934
 3878SOL    HW123096   4.511   4.102   9.357 -2.2048 -2.8181  0.3583
 3878SOL    HW223097   4.470   4.055   9.494 -1.1821 -0.3019 -1.4613
 3879SOL     OW23098   2.467   3.937   4.139 -0.1925  0.1669 -0.1166
 3879SOL    HW123099   2.444   3.965   4.051 -0.6017  1.2642  0.3288
 3879SOL    HW223100   2.560   3.927   4.120 -0.5913  0.6456 -2.2699
 3880SOL     OW23101   4.715   3.534   0.573  0.3079 -0.2019  0.3387
 3880SOL    HW123102   4.708   3.439   0.561  0.0463 -0.2143  0.5767
 3880SOL    HW223103   0.034   3.547   0.654 -0.0781  1.3660  0.3142
 3881SOL     OW23104   0.408   4.205  12.623  0.1532 -0.6410 -0.4898
 3881SOL    HW123105   0.370   4.292  12.609  0.0534 -0.7242 -0.7385
 3881SOL    HW223106   0.409   4.195  12.718 -0.0328 -1.3793 -0.5646
 3882SOL     OW23107   1.642   3.492  12.125 -0.5048  0.5073  0.2876
 3882SOL    HW123108   1.679   3.450  12.203 -0.2507 -1.2865 -0.8234
 3882SOL    HW223109   1.687   3.440  12.060 -0.3771 -0.3594  1.0753
 3883SOL     OW23110   0.623   4.631   4.906  0.4588  0.3358  0.4186
 3883SOL    HW123111   0.704   4.658   4.863 -0.7019 -0.4889 -2.2934
 3883SOL    HW223112   0.559   4.646   4.836  0.5337 -0.9959  0.0594
 3884SOL     OW23113   0.548   0.081  15.572 -0.3529  0.0625  0.3858
 3884SOL    HW123114   0.640   0.107  15.580 -0.1429 -0.3554 -0.6722
 3884SOL    HW223115   0.516   0.146  15.509  0.0629 -1.8444 -1.7692
 3885SOL     OW23116   0.300   0.290  16.179  0.1888 -0.4561  0.2708
 3885SOL    HW123117   0.274   0.324  16.265 -2.8584 -1.6207 -0.1688
 3885SOL    HW223118   0.390   0.318  16.163 -0.8451  1.8578 -1.4098
 3886SOL     OW23119   3.003   1.390  13.828 -0.5756  0.3993 -0.5375
 3886SOL    HW123120   2.972   1.324  13.766  0.4857  0.7092 -1.3912
 3886SOL    HW223121   2.927   1.388  13.887  0.6489 -2.1616  0.9615
 3887SOL     OW23122   2.166   3.337   2.284  0.1163 -0.0553  0.3858
 3887SOL    HW123123   2.088   3.378   2.248  0.3611  0.9925  1.0463
 3887SOL    HW223124   2.136   3.335   2.375  0.9339 -2.2089  0.6122
 3888SOL     OW23125   2.045   3.251  13.246  0.5957  0.5664 -0.1769
 3888SOL    HW123126   1.973   3.193  13.271 -0.3121  1.5422 -0.5200
 3888SOL    HW223127   1.983   3.312  13.204 -0.5530 -0.9027 -0.6349
 3889SOL     OW23128   3.349   1.529  14.105  0.2082  0.1328  0.0575
 3889SOL    HW123129   3.276   1.574  14.147 -0.2920  0.1658 -0.8392
 3889SOL    HW223130   3.315   1.439  14.110  1.6759 -0.3870  0.8380
 3890SOL     OW23131   4.063   3.659   3.285 -0.0952 -0.1141 -0.1269
 3890SOL    HW123132   4.035   3.750   3.272  1.1121 -0.3416 -4.3482
 3890SOL    HW223133   4.042   3.626   3.197 -1.1558 -0.3912  0.2407
 3891SOL     OW23134   3.425   0.844   8.084 -0.1779 -0.2088  0.1951
 3891SOL    HW123135   3.372   0.764   8.093  1.2169 -1.0818  0.6358
 3891SOL    HW223136   3.458   0.836   8.173 -0.4394  1.5951  0.4499
 3892SOL     OW23137   3.234   2.297   3.680  0.6396  0.3651 -0.2112
 3892SOL    HW123138   3.261   2.269   3.592 -0.5100  1.8147 -1.0282
 3892SOL    HW223139   3.266   2.226   3.736 -1.3338 -0.7522 -0.5006
 3893SOL     OW23140   3.744   2.522   3.754 -0.2999 -0.8941 -0.2836
 3893SOL    HW123141   3.658   2.565   3.762 -0.0332 -0.2201 -0.9987
 3893SOL    HW223142   3.778   2.565   3.675 -1.9677  2.1178  0.6167
 3894SOL     OW23143   1.122   4.495  12.442 -0.4128  0.1853 -0.3339
 3894SOL    HW123144   1.048   4.435  12.447 -1.8359  2.3781  4.3895
 3894SOL    HW223145   1.197   4.436  12.433 -1.4750 -1.2005 -0.1007
 3895SOL     OW23146   3.124   4.384   9.547  0.4961  0.7984  0.6181
 3895SOL    HW123147   3.213   4.375   9.581  0.1770 -1.5949  0.8221
 3895SOL    HW223148   3.077   4.322   9.602  1.4527 -0.3532  0.1265
 3896SOL     OW23149   2.596   0.465  17.629 -0.0673 -0.3397  0.4099
 3896SOL    HW123150   2.617   0.442   0.005  0.9356 -0.6925  0.0893
 3896SOL    HW223151   2.665   0.418  17.581  1.5661  1.5707  0.9090
 3897SOL     OW23152   1.313   4.284   4.928  0.4693 -0.7256  0.0009
 3897SOL    HW123153   1.359   4.307   5.008 -0.4312 -1.4211  0.7186
 3897SOL    HW223154   1.386   4.242   4.881  1.2831  0.2346  0.4247
 3898SOL     OW23155   0.336   4.075  11.810 -0.2316  0.2887 -0.0722
 3898SOL    HW123156   0.335   4.115  11.723  0.8532  1.0640  0.2727
 3898SOL    HW223157   0.334   4.157  11.859  0.3226  1.3760 -1.9108
 3899SOL     OW23158   2.890   3.225  14.896  0.0430 -0.3763  0.1735
 3899SOL    HW123159   2.981   3.201  14.915  0.4266  0.6380 -0.3464
 3899SOL    HW223160   2.878   3.193  14.807 -1.4987  2.6601 -0.7284
 3900SOL     OW23161   2.128   2.905   0.606 -0.0747 -0.5023 -0.2052
 3900SOL    HW123162   2.050   2.923   0.659  2.0159 -2.1109  3.4086
 3900SOL    HW223163   2.154   2.997   0.597  0.1571 -0.3162  2.4213
 3901SOL     OW23164   2.317   2.203   6.025 -0.7896 -0.1757  0.3064
 3901SOL    HW123165   2.341   2.296   6.022 -1.2916 -0.0714 -0.4840
 3901SOL    HW223166   2.400   2.159   6.043 -0.9330 -0.2276  0.8198
 3902SOL     OW23167   0.843   2.194   3.544  0.3537 -0.0558  0.0925
 3902SOL    HW123168   0.870   2.247   3.469  2.8707  0.9146  1.6706
 3902SOL    HW223169   0.816   2.264   3.603 -2.4127 -0.4478 -0.7143
 3903SOL     OW23170   1.229   2.736   6.991 -1.0534  0.4912 -0.4968
 3903SOL    HW123171   1.279   2.712   7.069  0.3424  0.6007 -1.3575
 3903SOL    HW223172   1.141   2.742   7.028 -0.4593 -1.3116  1.2318
 3904SOL     OW23173   0.221   0.155   3.467 -0.0893 -0.3043 -0.8735
 3904SOL    HW123174   0.315   0.172   3.476 -0.4590  1.0384  0.3775
 3904SOL    HW223175   0.221   0.060   3.474 -0.2791 -0.1605  0.9871
 3905SOL     OW23176   1.811   4.411   7.816 -0.3092 -0.4798 -0.1555
 3905SOL    HW123177   1.740   4.473   7.802  0.4380  0.5921  0.7511
 3905SOL    HW223178   1.843   4.386   7.729 -2.6110  2.2578 -1.7870
 3906SOL     OW23179   3.174   4.218   5.227 -0.4483 -0.1230  0.3280
 3906SOL    HW123180   3.240   4.269   5.180 -0.3845 -0.9219 -0.4360
 3906SOL    HW223181   3.139   4.158   5.161 -0.8269  0.7192 -0.2346
 3907SOL     OW23182   0.045   0.939  12.303 -0.2347 -0.0970  0.2795
 3907SOL    HW123183   0.032   1.027  12.338 -0.4332  0.1471 -0.4112
 3907SOL    HW223184   0.048   0.956  12.209  0.8303 -0.3683  0.2656
 3908SOL     OW23185   1.309   1.392  14.072  0.0891 -0.0847  0.1055
 3908SOL    HW123186   1.234   1.394  14.131  0.6074 -0.1981  0.7581
 3908SOL    HW223187   1.331   1.485  14.071 -0.3062  0.0049 -0.3469
 3909SOL     OW23188   2.039   3.111   4.997  0.0534 -0.5751 -0.3883
 3909SOL    HW123189   2.042   3.105   4.902 -0.7747  2.3568 -0.5868
 3909SOL    HW223190   1.944   3.118   5.006 -0.0618  1.2324 -3.0498
 3910SOL     OW23191   2.464   3.468   6.029  0.2610  0.1783 -0.0313
 3910SOL    HW123192   2.513   3.474   5.947  1.6780  4.0746  1.0675
 3910SOL    HW223193   2.528   3.428   6.088 -1.3381 -0.2203  1.4260
 3911SOL     OW23194   1.675   1.094   0.447 -0.1392  0.2206  0.1612
 3911SOL    HW123195   1.726   1.079   0.527  1.1063  0.6401 -0.5535
 3911SOL    HW223196   1.590   1.061   0.476  1.1062 -2.2118  1.0759
 3912SOL     OW23197   4.192   4.297  11.445  0.0604  0.1665 -0.6183
 3912SOL    HW123198   4.243   4.329  11.518 -3.0827  1.8682  0.8384
 3912SOL    HW223199   4.239   4.338  11.372  0.2147  1.5918  0.2896
 3913SOL     OW23200   1.604   2.940   0.208  0.7168 -0.7189  0.4091
 3913SOL    HW123201   1.553   2.902   0.137  3.8230 -0.5320 -1.8851
 3913SOL    HW223202   1.646   3.008   0.156  1.3538 -1.5848 -0.2108
 3914SOL     OW23203   1.054   3.450   0.833 -0.1625 -0.2786  0.0432
 3914SOL    HW123204   0.965   3.416   0.825 -0.1156  0.2788 -2.6707
 3914SOL    HW223205   1.039   3.518   0.898 -0.9170 -0.5621  0.1620
 3915SOL     OW23206   3.435   3.030   2.343  0.6821 -0.5150  0.4086
 3915SOL    HW123207   3.435   3.106   2.402 -2.5497  0.6241 -1.1189
 3915SOL    HW223208   3.394   3.062   2.263  0.0444 -3.0516 -0.2572
 3916SOL     OW23209   0.772   0.505   5.574 -0.6496 -0.0390  0.5616
 3916SOL    HW123210   0.746   0.414   5.559 -0.9078  0.3222 -1.1624
 3916SOL    HW223211   0.716   0.553   5.513  0.4989 -0.7246 -1.0082
 3917SOL     OW23212   2.777   0.629   9.001 -0.1367 -0.4169  0.1234
 3917SOL    HW123213   2.817   0.702   9.049  1.0406 -0.3444 -0.9866
 3917SOL    HW223214   2.689   0.668   9.005 -0.5716 -1.4027  0.0911
 3918SOL     OW23215   4.232   3.937   2.892  0.3190  0.1462  0.3665
 3918SOL    HW123216   4.186   4.015   2.923  0.7620  1.0339 -1.2151
 3918SOL    HW223217   4.181   3.904   2.819 -0.9038  0.9270  0.8765
 3919SOL     OW23218   0.083   0.409   9.469 -0.0666 -0.2002  0.2862
 3919SOL    HW123219   0.083   0.484   9.409 -0.4429 -0.5404 -0.1390
 3919SOL    HW223220   0.017   0.451   9.526 -0.0748 -1.7581  1.4204
 3920SOL     OW23221   0.536   3.694   3.937 -0.2798  0.3685  0.3341
 3920SOL    HW123222   0.546   3.632   4.010  2.1858  1.9224  1.3206
 3920SOL    HW223223   0.517   3.640   3.861  0.5675  1.2645 -0.4991
 3921SOL     OW23224   4.610   2.320  11.875 -0.5553  0.6365 -0.4566
 3921SOL    HW123225   4.615   2.242  11.820  0.3011  1.6865 -1.8899
 3921SOL    HW223226   4.524   2.311  11.914  0.4778 -0.2018  1.5751
 3922SOL     OW23227   3.746   1.884   0.921 -0.3858 -0.3571 -0.4990
 3922SOL    HW123228   3.669   1.906   0.869  0.8877  4.2096 -0.4963
 3922SOL    HW223229   3.768   1.798   0.885  0.5021 -0.8242  1.1498
 3923SOL     OW23230   2.097   0.735   2.576 -0.2343  0.0568  0.0520
 3923SOL    HW123231   2.022   0.676   2.573 -0.2681  0.1035 -0.0248
 3923SOL    HW223232   2.158   0.675   2.619  0.0852  1.8702  2.1246
 3924SOL     OW23233   1.041   4.274   5.167 -0.3781 -0.3137  0.0517
 3924SOL    HW123234   0.976   4.250   5.233  0.8418  0.9204  1.7314
 3924SOL    HW223235   1.099   4.324   5.225  2.3943  0.5998 -3.4638
 3925SOL     OW23236   4.061   0.549   3.805  0.1334  0.3423 -0.2931
 3925SOL    HW123237   4.113   0.473   3.832  0.5151  0.2497 -1.3163
 3925SOL    HW223238   4.105   0.625   3.844  0.7886  0.4092 -1.1737
 3926SOL     OW23239   3.957   3.492  14.681  0.4140 -0.0952  0.1034
 3926SOL    HW123240   3.881   3.439  14.706  0.4705 -0.6509 -0.8655
 3926SOL    HW223241   3.934   3.580  14.708  0.3642  0.1457 -0.7036
 3927SOL     OW23242   2.126   4.536   4.859 -0.3735 -0.2243 -0.3160
 3927SOL    HW123243   2.032   4.519   4.866 -0.5736  0.9016 -0.3592
 3927SOL    HW223244   2.142   4.445   4.833 -1.3178 -0.9648  1.6474
 3928SOL     OW23245   1.506   3.031   1.846  0.6390  0.2278 -0.1895
 3928SOL    HW123246   1.497   2.945   1.887  1.1868  0.1656 -0.1993
 3928SOL    HW223247   1.455   3.028   1.765  0.0035 -0.0106  0.2209
 3929SOL     OW23248   2.139   4.230   4.792 -0.0562 -0.3836 -0.0009
 3929SOL    HW123249   2.142   4.214   4.886  1.9822  0.2137  0.0393
 3929SOL    HW223250   2.094   4.154   4.754 -0.5798  0.8374 -1.8521
 3930SOL     OW23251   1.245   1.575  14.298  1.0627 -0.2166  0.1794
 3930SOL    HW123252   1.222   1.606  14.210  1.3732 -0.4683  0.0083
 3930SOL    HW223253   1.188   1.629  14.354  3.1146 -0.1619  2.1997
 3931SOL     OW23254   0.647   0.660   9.762  0.6428 -0.1397  0.2336
 3931SOL    HW123255   0.664   0.752   9.783  0.3720  0.6553 -3.0580
 3931SOL    HW223256   0.701   0.612   9.824  1.0622  0.2512  0.1715
 3932SOL     OW23257   4.499   1.675   2.178 -0.1879  0.1691 -0.4175
 3932SOL    HW123258   4.511   1.582   2.195  0.9387  0.0150 -2.1182
 3932SOL    HW223259   4.419   1.667   2.127  0.7207  1.7342 -2.1029
 3933SOL     OW23260   0.905   3.474   8.701  0.1107 -0.5483  0.2748
 3933SOL    HW123261   0.882   3.555   8.747 -2.4632  0.3795 -2.6401
 3933SOL    HW223262   0.934   3.422   8.776 -0.5261  1.8934  2.2264
 3934SOL     OW23263   1.189   1.714   5.614  0.1518  0.3892  0.5472
 3934SOL    HW123264   1.201   1.791   5.558 -1.2355 -0.8918 -1.5186
 3934SOL    HW223265   1.262   1.725   5.675 -0.5095 -3.4836  2.0276
 3935SOL     OW23266   4.263   4.427   7.573 -0.4503  0.2763  0.3996
 3935SOL    HW123267   4.175   4.402   7.601 -0.3520  1.9568  2.2108
 3935SOL    HW223268   4.262   4.512   7.529  0.8705  0.4039  0.6009
 3936SOL     OW23269   3.758   3.691   1.579 -0.0900  0.1780 -0.0627
 3936SOL    HW123270   3.683   3.749   1.568  0.3294  0.6204 -0.6452
 3936SOL    HW223271   3.826   3.755   1.555 -1.1376  1.0953 -0.5650
 3937SOL     OW23272   2.432   2.068  17.378 -0.2357  0.7551  0.3459
 3937SOL    HW123273   2.399   2.115  17.302 -0.8928 -2.5285 -1.3906
 3937SOL    HW223274   2.393   2.112  17.454 -2.9362  0.2995 -0.7906
 3938SOL     OW23275   0.019   1.918   4.278 -0.2152 -0.0208  0.1982
 3938SOL    HW123276   0.057   1.886   4.196  0.2897 -1.2129  0.9025
 3938SOL    HW223277   4.672   1.859   4.283 -0.1783 -0.1103 -0.2391
 3939SOL     OW23278   0.763   2.161   0.791  0.0619 -1.1827 -0.0060
 3939SOL    HW123279   0.780   2.175   0.698  0.0865  0.4623  0.2566
 3939SOL    HW223280   0.811   2.234   0.829  1.1339 -1.9387  0.1079
 3940SOL     OW23281   1.509   2.868   7.637 -0.8167 -0.2803 -0.3683
 3940SOL    HW123282   1.514   2.794   7.575  0.1948 -0.3178 -0.2548
 3940SOL    HW223283   1.490   2.823   7.719  0.8545  2.1036  1.3300
 3941SOL     OW23284   1.436   2.419   4.446  0.1514  0.8231  0.6179
 3941SOL    HW123285   1.442   2.337   4.495 -1.4779  0.1857 -0.2530
 3941SOL    HW223286   1.423   2.483   4.516  1.1627  1.8603 -0.1457
 3942SOL     OW23287   1.658   4.219   8.379 -0.1181 -0.0596 -0.4853
 3942SOL    HW123288   1.726   4.197   8.316 -0.4864 -2.1548 -0.1390
 3942SOL    HW223289   1.677   4.177   8.463  1.5205 -2.2218 -1.9595
 3943SOL     OW23290   2.693   4.594  10.701 -0.3181 -0.0408 -0.4716
 3943SOL    HW123291   2.713   4.559  10.614  2.1103  2.4538 -0.9078
 3943SOL    HW223292   2.777   4.613  10.743 -1.4584 -0.3638  1.9475
 3944SOL     OW23293   4.241   4.205   0.545  0.2447  0.0466  0.5866
 3944SOL    HW123294   4.214   4.138   0.482  1.7975  2.3627 -2.5566
 3944SOL    HW223295   4.184   4.277   0.517  0.0323  0.0195  0.9472
 3945SOL     OW23296   4.688   3.110   7.468  0.1813  0.0744 -0.2088
 3945SOL    HW123297   4.678   3.146   7.556 -1.0697 -3.8103  1.2243
 3945SOL    HW223298   0.042   3.146   7.435  1.1815  0.6375  2.9313
 3946SOL     OW23299   1.886   3.427  16.554  0.3305  0.2827 -0.1225
 3946SOL    HW123300   1.805   3.434  16.503  0.1720 -1.3650 -0.0901
 3946SOL    HW223301   1.889   3.507  16.606  1.8861 -0.6516  1.2246
 3947SOL     OW23302   1.700   3.749   0.167  0.0187 -0.1116  0.2224
 3947SOL    HW123303   1.682   3.843   0.171  0.1424 -0.2545  3.6798
 3947SOL    HW223304   1.775   3.759   0.109 -0.2375 -2.8675 -0.5511
 3948SOL     OW23305   2.356   2.342   4.781  0.1000 -0.0529 -0.1639
 3948SOL    HW123306   2.263   2.351   4.761 -0.1619  0.2721  1.1880
 3948SOL    HW223307   2.375   2.257   4.820  0.7016  0.1320 -0.0446
 3949SOL     OW23308   1.708   3.857  16.456  0.0840 -0.3378 -0.5884
 3949SOL    HW123309   1.670   3.943  16.436 -2.1552 -0.4418  3.4194
 3949SOL    HW223310   1.803   3.872  16.451 -0.0479  0.3583 -1.1177
 3950SOL     OW23311   0.434   4.725   4.726  0.3322  0.4742 -0.2601
 3950SOL    HW123312   0.359   0.035   4.771  0.3524  0.2130 -0.0061
 3950SOL    HW223313   0.484   0.075   4.706  1.7278 -0.2821  0.2572
 3951SOL     OW23314   2.533   4.430   4.372  0.0224  0.2514  0.8069
 3951SOL    HW123315   2.583   4.357   4.335 -1.3249 -0.2633 -0.0002
 3951SOL    HW223316   2.591   4.505   4.357 -0.6170  1.1933  3.1434
 3952SOL     OW23317   1.612   4.516   2.857 -0.5317 -0.1000  0.4017
 3952SOL    HW123318   1.555   4.559   2.921 -1.3013 -0.7969  0.1961
 3952SOL    HW223319   1.654   4.455   2.918 -0.7383 -1.4369 -0.7800
 3953SOL     OW23320   0.841   0.935   6.652 -0.1888  0.0075  0.0684
 3953SOL    HW123321   0.884   0.937   6.738  1.1938 -0.1923 -0.6254
 3953SOL    HW223322   0.885   1.002   6.601  0.5612 -2.0694 -2.0194
 3954SOL     OW23323   1.337   2.049   6.459 -0.7583  0.3998  0.3801
 3954SOL    HW123324   1.410   2.002   6.419 -0.9880  0.5470 -0.2090
 3954SOL    HW223325   1.291   2.084   6.383 -1.1599 -3.1460 -0.9910
 3955SOL     OW23326   0.049   0.970   1.405 -0.0474 -0.2013  0.3030
 3955SOL    HW123327   0.010   1.042   1.355 -1.6834 -0.3366  1.3650
 3955SOL    HW223328   0.141   0.991   1.394 -0.5768  1.4668 -0.9529
 3956SOL     OW23329   2.778   1.064   5.184 -0.4637 -0.2337 -0.0320
 3956SOL    HW123330   2.709   1.028   5.129 -1.8123  0.0551  1.4797
 3956SOL    HW223331   2.819   1.127   5.125 -0.5447  1.4626  1.7537
 3957SOL     OW23332   3.344   4.542   8.409  0.0593 -0.4726 -0.1766
 3957SOL    HW123333   3.381   4.630   8.417  1.5536 -1.0186 -1.0490
 3957SOL    HW223334   3.257   4.557   8.372  0.7258  0.1100 -1.5140
 3958SOL     OW23335   3.068   4.233   3.490 -0.1598 -0.0740 -0.2120
 3958SOL    HW123336   3.087   4.320   3.524 -1.4780 -0.1588  0.7293
 3958SOL    HW223337   3.143   4.204   3.438  0.4798  1.0040  0.1154
 3959SOL     OW23338   2.560   1.157   8.291 -0.3871 -0.5303 -0.0950
 3959SOL    HW123339   2.564   1.102   8.212  0.1961 -1.2210  0.4240
 3959SOL    HW223340   2.622   1.104   8.342 -1.0274  1.6240  2.8809
 3960SOL     OW23341   1.864   4.591   8.232 -0.5789 -0.5783 -0.3046
 3960SOL    HW123342   1.937   4.647   8.257 -1.1608 -0.2415  0.6372
 3960SOL    HW223343   1.812   4.647   8.175 -1.2255 -0.8055  0.0531
 3961SOL     OW23344   1.866   2.133  11.087  0.0818  0.1760  0.0975
 3961SOL    HW123345   1.787   2.187  11.099  0.3613  0.1233  2.1834
 3961SOL    HW223346   1.881   2.141  10.993  2.5010  0.0568  0.4681
 3962SOL     OW23347   4.701   1.572  15.197 -0.3157  0.0906 -0.6927
 3962SOL    HW123348   4.693   1.667  15.194 -0.8272  0.0351 -1.0388
 3962SOL    HW223349   4.655   1.536  15.122 -0.0103 -0.8668 -0.4234
 3963SOL     OW23350   3.162   3.833  16.569  0.0961 -0.0809 -0.0081
 3963SOL    HW123351   3.129   3.754  16.611  1.9622 -0.7139  0.2554
 3963SOL    HW223352   3.174   3.886  16.648  0.5176  0.5153 -0.4727
 3964SOL     OW23353   1.882   3.597  10.172 -0.1926  0.2378 -0.2522
 3964SOL    HW123354   1.800   3.643  10.189 -1.0099 -1.8053  1.3365
 3964SOL    HW223355   1.880   3.527  10.238 -0.1012  2.0348  1.6476
 3965SOL     OW23356   1.690   3.393  17.672  0.4815 -0.0011 -0.2939
 3965SOL    HW123357   1.767   3.415  17.619  0.4502  1.8431  0.4464
 3965SOL    HW223358   1.613   3.420  17.623  0.7473  0.9787 -0.1807
 3966SOL     OW23359   2.640   0.170  16.371  0.1141 -0.3027  0.1706
 3966SOL    HW123360   2.675   0.129  16.450  1.8045  1.4948  0.3404
 3966SOL    HW223361   2.653   0.106  16.302 -0.6234 -0.2806  0.0040
 3967SOL     OW23362   3.219   2.150  16.512  0.2933 -0.1926  0.8665
 3967SOL    HW123363   3.240   2.235  16.475 -0.3452 -0.3940  0.0410
 3967SOL    HW223364   3.270   2.157  16.592  0.1048  2.7697  0.7120
 3968SOL     OW23365   2.144   1.687   4.377 -0.1938  0.1632 -0.8268
 3968SOL    HW123366   2.236   1.686   4.348  0.3309  0.0795  0.8009
 3968SOL    HW223367   2.144   1.634   4.457 -0.6457  0.6959 -0.4756
 3969SOL     OW23368   2.012   2.600  15.223 -0.0809  0.2331 -0.0864
 3969SOL    HW123369   1.946   2.533  15.245  1.6297 -2.2562 -2.4819
 3969SOL    HW223370   1.957   2.677  15.231  0.6693  0.7151  0.3486
 3970SOL     OW23371   0.467   1.984   8.322 -0.0374 -0.1411  0.3920
 3970SOL    HW123372   0.411   2.060   8.308 -0.7672 -0.8397 -0.5358
 3970SOL    HW223373   0.406   1.932   8.375 -0.0167 -2.1058 -1.4755
 3971SOL     OW23374   1.808   3.992   7.302  0.5696 -0.0017 -0.1699
 3971SOL    HW123375   1.846   3.953   7.223 -0.7617 -0.6303 -0.4971
 3971SOL    HW223376   1.887   4.038   7.330 -0.1672  1.1999 -0.0819
 3972SOL     OW23377   1.248   2.129  14.137  0.2089  0.0425 -0.0408
 3972SOL    HW123378   1.323   2.146  14.193 -1.2391  0.4977  1.7772
 3972SOL    HW223379   1.271   2.159  14.050 -3.7214  0.4215 -0.9785
 3973SOL     OW23380   3.212   2.822   8.206  0.6025 -0.2649 -1.0087
 3973SOL    HW123381   3.171   2.907   8.191 -0.0670 -0.0629  2.0140
 3973SOL    HW223382   3.135   2.765   8.198 -0.4928  0.7719  2.2184
 3974SOL     OW23383   2.685   4.108  15.019 -0.0932 -0.1676  0.1065
 3974SOL    HW123384   2.692   4.195  15.058  0.1716 -0.0519 -0.2026
 3974SOL    HW223385   2.702   4.054  15.095  0.6134 -0.7959 -0.4999
 3975SOL     OW23386   3.423   1.980   3.526 -0.0947 -0.5144 -0.1582
 3975SOL    HW123387   3.511   1.942   3.532  0.3511  0.2658 -1.7567
 3975SOL    HW223388   3.391   1.961   3.438 -1.1751  1.1224 -0.1106
 3976SOL     OW23389   1.154   2.392  17.677 -0.3019 -0.3224  0.5552
 3976SOL    HW123390   1.129   2.473   0.006  1.4435  0.1716  0.6671
 3976SOL    HW223391   1.248   2.413  17.677  0.0813 -2.0776  1.8424
 3977SOL     OW23392   3.590   0.322   2.760 -0.4798  0.2935 -0.2507
 3977SOL    HW123393   3.506   0.281   2.783 -1.4133  1.8591 -0.8660
 3977SOL    HW223394   3.572   0.408   2.797  1.3197  0.2730  0.6698
 3978SOL     OW23395   1.573   1.371   8.457 -0.1641 -0.0931 -0.6528
 3978SOL    HW123396   1.540   1.399   8.543  1.5657  1.9244 -0.6461
 3978SOL    HW223397   1.606   1.286   8.486 -0.5071  0.7896  2.3755
 3979SOL     OW23398   4.436   4.287  15.519 -0.2362 -0.0848  0.1369
 3979SOL    HW123399   4.345   4.313  15.506  0.5338  2.0245 -0.9236
 3979SOL    HW223400   4.437   4.196  15.489 -0.1103 -0.6060  1.7450
 3980SOL     OW23401   2.111   0.865   5.633  0.2662  0.0487 -0.2302
 3980SOL    HW123402   2.188   0.838   5.682 -0.0837  0.9312  0.7999
 3980SOL    HW223403   2.059   0.786   5.645  2.0765 -0.7168  2.4608
 3981SOL     OW23404   0.652   3.887   5.234 -0.1293 -0.0589  0.1442
 3981SOL    HW123405   0.583   3.948   5.210  0.7769  0.9347  0.0327
 3981SOL    HW223406   0.621   3.824   5.169  1.6986 -1.4527  0.6249
 3982SOL     OW23407   4.492   2.323   8.201  0.0849 -0.3164  0.0700
 3982SOL    HW123408   4.544   2.244   8.185  0.2340 -0.1652 -0.1779
 3982SOL    HW223409   4.410   2.290   8.239 -0.4185  1.9699  0.9476
 3983SOL     OW23410   3.365   1.829   9.271  0.0244 -0.3761  0.6263
 3983SOL    HW123411   3.413   1.778   9.337  1.0101 -1.0862 -0.6420
 3983SOL    HW223412   3.430   1.847   9.204 -0.2996 -0.3570  0.3140
 3984SOL     OW23413   0.140   3.122   2.417 -0.5318 -0.6367  0.1717
 3984SOL    HW123414   0.129   3.203   2.466  2.4327  0.0703 -0.3827
 3984SOL    HW223415   0.201   3.149   2.349 -0.1329  0.3466  0.9220
 3985SOL     OW23416   1.012   3.031   8.339  0.2313 -0.0554  0.5847
 3985SOL    HW123417   1.090   3.079   8.366  0.0335  0.4610  0.2391
 3985SOL    HW223418   1.046   2.998   8.256  1.4493  0.3982  0.9072
 3986SOL     OW23419   2.451   2.649  16.923  0.3768 -0.3329  0.5174
 3986SOL    HW123420   2.397   2.679  16.996  0.7653  0.6011  0.4166
 3986SOL    HW223421   2.526   2.708  16.926 -0.3722  0.6349  0.3171
 3987SOL     OW23422   4.664   0.364   3.895  0.1840  0.1603 -0.1736
 3987SOL    HW123423   4.647   0.390   3.804 -3.3142 -0.8306  0.1883
 3987SOL    HW223424   4.728   0.294   3.880  0.0985 -0.1287  0.8192
 3988SOL     OW23425   0.004   0.224   8.717  0.4999  0.7730  0.1736
 3988SOL    HW123426   4.719   0.251   8.626  0.0944 -2.8254 -0.8407
 3988SOL    HW223427   4.719   0.310   8.757  1.6085  0.7163  0.6789
 3989SOL     OW23428   2.307   1.639   7.516  0.5442  0.0228  0.2941
 3989SOL    HW123429   2.227   1.662   7.562  2.0901  1.8068  2.1028
 3989SOL    HW223430   2.286   1.668   7.428  0.1284 -0.6447  0.1752
 3990SOL     OW23431   0.780   1.066  15.366  0.2726  0.3812  0.2269
 3990SOL    HW123432   0.688   1.056  15.340 -0.0379  1.2073  0.9892
 3990SOL    HW223433   0.824   1.019  15.295  0.3193  0.9090 -0.0968
 3991SOL     OW23434   0.554   2.102   2.817  0.1861  0.1421  0.6588
 3991SOL    HW123435   0.557   2.182   2.765  0.4751 -1.1045 -1.2460
 3991SOL    HW223436   0.587   2.044   2.748  2.1831 -0.7006  2.3333
 3992SOL     OW23437   4.081   1.973   4.428 -0.4740  0.4311 -0.2145
 3992SOL    HW123438   4.147   1.970   4.498 -1.7498  1.0237  1.0059
 3992SOL    HW223439   4.011   1.944   4.486 -0.5619 -0.8238 -0.9519
 3993SOL     OW23440   1.090   4.119   4.949 -0.3192 -0.1738 -0.4757
 3993SOL    HW123441   1.178   4.155   4.939 -0.1024 -0.5899 -0.0843
 3993SOL    HW223442   1.059   4.186   5.010  1.4672 -1.6007  1.9760
 3994SOL     OW23443   3.726   3.119   2.042  0.0992  0.2155  0.3427
 3994SOL    HW123444   3.636   3.133   2.011  0.3979  1.3770  0.0116
 3994SOL    HW223445   3.728   3.176   2.118 -1.0254  0.6442  0.0650
 3995SOL     OW23446   1.123   2.574  12.287 -0.2740 -0.4309  0.1752
 3995SOL    HW123447   1.176   2.502  12.321 -0.2687 -2.1306 -3.4020
 3995SOL    HW223448   1.040   2.536  12.258 -0.9215  2.4963 -1.8653
 3996SOL     OW23449   4.648   3.928   1.382  1.0181 -0.9885  0.0741
 3996SOL    HW123450   0.001   3.910   1.335  0.2707 -0.0040 -1.6098
 3996SOL    HW223451   4.601   3.845   1.389 -0.0639 -0.3361  0.5159
 3997SOL     OW23452   2.086   1.070   1.160  0.7992  0.2698  0.5661
 3997SOL    HW123453   2.061   0.986   1.198  2.0951 -0.7009 -0.7210
 3997SOL    HW223454   2.177   1.046   1.141 -0.3697 -2.1889 -1.9041
 3998SOL     OW23455   2.676   1.084   9.865 -0.9521  0.0762  0.1002
 3998SOL    HW123456   2.712   1.132   9.939  0.4824 -0.4002 -0.2934
 3998SOL    HW223457   2.592   1.055   9.901 -0.8084 -0.2661  0.1584
 3999SOL     OW23458   0.185   4.171   9.795 -0.3421 -0.2426  0.2571
 3999SOL    HW123459   0.218   4.236   9.856 -0.9730 -0.1456  0.4938
 3999SOL    HW223460   0.106   4.143   9.840 -1.6870  2.0080 -0.6976
 4000SOL     OW23461   1.477   0.824   7.715  0.3335 -0.4192  0.2277
 4000SOL    HW123462   1.453   0.880   7.789 -0.8316 -3.4304  2.1629
 4000SOL    HW223463   1.422   0.867   7.650  0.1130 -0.6907  0.2309
 4001SOL     OW23464   1.948   3.243  15.810  0.3205  0.3298 -0.2077
 4001SOL    HW123465   2.027   3.205  15.848 -0.4321  2.4972  3.5137
 4001SOL    HW223466   1.981   3.331  15.793  0.0008  0.5235  0.1782
 4002SOL     OW23467   2.393   3.109   2.494  0.1217  0.0467  0.8390
 4002SOL    HW123468   2.388   3.156   2.410  0.7586  0.0397  0.7949
 4002SOL    HW223469   2.478   3.065   2.492 -1.2610 -2.5871  1.9701
 4003SOL     OW23470   3.913   1.278   8.407 -0.0674 -0.6946 -0.4593
 4003SOL    HW123471   3.839   1.218   8.413 -0.7460  0.3467  1.4555
 4003SOL    HW223472   3.934   1.280   8.501  2.2140  2.4144 -1.0354
 4004SOL     OW23473   1.931   0.511   6.920 -0.0279  0.1323 -0.0482
 4004SOL    HW123474   1.930   0.562   7.001 -1.9278 -1.4948  0.9410
 4004SOL    HW223475   1.842   0.476   6.917  1.0195 -2.4956  0.2810
 4005SOL     OW23476   1.925   4.689   4.362 -0.0867  0.1521  0.4494
 4005SOL    HW123477   1.884   4.686   4.276  0.5707 -0.6305  0.1583
 4005SOL    HW223478   2.001   0.012   4.335  0.3930 -0.6632  0.2522
 4006SOL     OW23479   0.306   2.685  11.474  1.0896 -0.0427 -0.3111
 4006SOL    HW123480   0.311   2.613  11.411  0.0703  0.8000 -1.3632
 4006SOL    HW223481   0.389   2.732  11.477  1.0786 -0.0055 -0.5850
 4007SOL     OW23482   3.553   3.530   7.529 -0.3306  0.2198 -0.0769
 4007SOL    HW123483   3.504   3.512   7.448 -1.9165  0.6686  0.7840
 4007SOL    HW223484   3.480   3.548   7.588 -0.7336 -0.1224 -0.4695
 4008SOL     OW23485   1.306   2.493   7.609 -1.0122  0.1049  0.4555
 4008SOL    HW123486   1.256   2.565   7.570  0.7343  1.1120  0.1079
 4008SOL    HW223487   1.267   2.423   7.556 -0.3564 -0.1468  0.3094
 4009SOL     OW23488   2.925   3.139   7.480  0.2823 -0.7057 -0.7102
 4009SOL    HW123489   2.865   3.071   7.510  0.4500 -1.2378 -1.5622
 4009SOL    HW223490   3.006   3.091   7.500  0.4248  0.7406  2.1668
 4010SOL     OW23491   1.015   0.297   6.625  0.5842 -0.2739  0.1852
 4010SOL    HW123492   0.928   0.273   6.592  1.0029 -1.7872  0.1904
 4010SOL    HW223493   0.995   0.346   6.704 -1.5328 -1.2608  0.2602
 4011SOL     OW23494   2.446   3.103  12.606  0.1581  0.6708  0.4669
 4011SOL    HW123495   2.364   3.072  12.644  1.3654 -1.6036  1.2204
 4011SOL    HW223496   2.479   3.017  12.581  1.8694  0.6479  2.8057
 4012SOL     OW23497   3.776   2.576   5.130 -0.0345  0.5295  0.1820
 4012SOL    HW123498   3.834   2.651   5.144 -0.4329  0.8681  0.0228
 4012SOL    HW223499   3.717   2.621   5.070 -0.5074  0.1879  0.3911
 4013SOL     OW23500   3.061   4.668   7.420  0.4017 -0.8329 -0.0463
 4013SOL    HW123501   3.152   4.664   7.390 -0.0276 -1.1980 -1.2926
 4013SOL    HW223502   3.026   4.589   7.379 -0.5991 -0.8581  0.8722
 4014SOL     OW23503   2.347   3.899  12.095 -0.2384 -0.0235 -0.4688
 4014SOL    HW123504   2.253   3.900  12.076 -0.0804 -1.2352 -1.2928
 4014SOL    HW223505   2.366   3.993  12.095  1.6609 -0.3870  1.3649
 4015SOL     OW23506   1.036   1.009  11.885  0.5794 -0.3248 -0.4025
 4015SOL    HW123507   0.976   1.056  11.942 -0.5693 -0.9100 -1.1155
 4015SOL    HW223508   1.081   0.955  11.949  0.4998 -0.6908 -0.6516
 4016SOL     OW23509   0.375   1.823   3.836 -0.3964 -0.1827 -0.3068
 4016SOL    HW123510   0.439   1.803   3.904 -2.0099  1.0657  1.5644
 4016SOL    HW223511   0.427   1.891   3.792  0.3168  0.0129  0.8597
 4017SOL     OW23512   4.466   1.407   2.220 -0.1920  0.0186  0.2263
 4017SOL    HW123513   4.374   1.392   2.198  0.0401 -0.5273 -0.3652
 4017SOL    HW223514   4.492   1.315   2.231 -0.0825  0.0436  0.1665
 4018SOL     OW23515   2.889   3.424   5.092 -0.3891 -0.2895  0.4654
 4018SOL    HW123516   2.834   3.446   5.167  0.2009 -1.8196  1.3486
 4018SOL    HW223517   2.862   3.487   5.025  3.2109  2.1808  1.3425
 4019SOL     OW23518   0.530   0.509   6.183 -0.4962 -0.4036  0.1910
 4019SOL    HW123519   0.459   0.547   6.131 -0.5662 -0.3971  0.2903
 4019SOL    HW223520   0.545   0.589   6.232 -0.7240  0.7820 -1.6773
 4020SOL     OW23521   1.210   1.912   5.422  0.2404 -0.4447 -0.8334
 4020SOL    HW123522   1.228   1.901   5.329 -0.0235 -2.5562 -0.6406
 4020SOL    HW223523   1.237   2.002   5.435  1.2080 -0.7352 -0.8824
 4021SOL     OW23524   2.855   0.724   3.106  0.1171  0.0226 -0.0013
 4021SOL    HW123525   2.890   0.685   3.026 -0.1725 -0.8307  0.2872
 4021SOL    HW223526   2.864   0.817   3.085  1.2745  0.1348  1.0165
 4022SOL     OW23527   1.180   0.054   2.647  0.0522 -0.5646 -0.2027
 4022SOL    HW123528   1.126   4.715   2.606 -0.0265 -0.0143 -1.0160
 4022SOL    HW223529   1.239   4.727   2.697  2.3779  0.5696 -1.6983
 4023SOL     OW23530   0.406   4.514   6.673 -0.5525 -0.4336 -0.4266
 4023SOL    HW123531   0.371   4.437   6.717  0.6154 -1.7422 -1.7996
 4023SOL    HW223532   0.326   4.566   6.667 -0.3660  0.0372  1.0726
 4024SOL     OW23533   3.657   0.201   6.574  0.4940  0.2564  0.5633
 4024SOL    HW123534   3.671   0.127   6.633 -0.6994 -0.3548  0.0894
 4024SOL    HW223535   3.743   0.241   6.564  1.1512 -1.3293  0.0738
 4025SOL     OW23536   3.230   4.490   2.573  0.5216 -0.8304 -0.7322
 4025SOL    HW123537   3.182   4.467   2.494  0.0223  0.8287 -0.9277
 4025SOL    HW223538   3.276   4.573   2.555  0.9664 -0.1955  3.3331
 4026SOL     OW23539   0.729   1.226   9.356 -0.2178 -0.1642 -0.2675
 4026SOL    HW123540   0.734   1.183   9.442  0.4049  1.0915  0.3192
 4026SOL    HW223541   0.740   1.318   9.379  1.9824  0.0460 -2.2364
 4027SOL     OW23542   1.706   0.714   3.088 -0.5738  0.2339 -0.1759
 4027SOL    HW123543   1.661   0.693   3.006  1.6316  0.6367 -1.5003
 4027SOL    HW223544   1.668   0.652   3.150  2.0645 -1.2245 -0.0313
 4028SOL     OW23545   3.247   0.193   4.940 -0.5940  0.1022 -0.3815
 4028SOL    HW123546   3.159   0.158   4.953 -0.1033 -1.3728 -0.9749
 4028SOL    HW223547   3.226   0.281   4.910  0.9065  0.5291 -0.1748
 4029SOL     OW23548   1.782   1.349  11.369  0.4721 -0.3025  0.4425
 4029SOL    HW123549   1.857   1.334  11.427  0.1130  4.1524  2.0856
 4029SOL    HW223550   1.770   1.444  11.370 -2.0317 -0.6154  0.7938
 4030SOL     OW23551   2.872   1.154   8.119 -0.7911 -0.3153 -0.0163
 4030SOL    HW123552   2.802   1.216   8.098  0.8781  1.4431 -0.4150
 4030SOL    HW223553   2.827   1.073   8.143 -0.7193  0.0752  1.4472
 4031SOL     OW23554   2.881   2.409   3.689 -0.7312 -0.7662 -0.4354
 4031SOL    HW123555   2.934   2.463   3.747 -1.5599 -0.5241  0.0892
 4031SOL    HW223556   2.897   2.326   3.733 -1.0271 -0.6128 -0.0465
 4032SOL     OW23557   3.679   1.030   7.812 -0.1944 -0.3621 -0.2905
 4032SOL    HW123558   3.714   1.057   7.897  1.3118 -2.8302 -0.1199
 4032SOL    HW223559   3.594   0.997   7.842 -0.4617  1.4393  0.9701
 4033SOL     OW23560   1.642   1.278   1.943 -0.4042 -1.2925  0.3167
 4033SOL    HW123561   1.575   1.259   2.008 -1.4355 -1.2990 -0.7449
 4033SOL    HW223562   1.724   1.270   1.991 -0.1788  1.2709  0.3972
 4034SOL     OW23563   1.837   3.455   5.906 -0.4035 -0.2552  0.5293
 4034SOL    HW123564   1.830   3.469   6.000 -0.8231  0.0708  0.4511
 4034SOL    HW223565   1.862   3.540   5.870  0.1931  0.3318  2.3204
 4035SOL     OW23566   0.961   0.144   4.078  0.2643 -0.0960  0.3438
 4035SOL    HW123567   1.046   0.116   4.112 -1.0614 -1.2991  2.6490
 4035SOL    HW223568   0.934   0.069   4.025  0.9771 -0.4882  0.5265
 4036SOL     OW23569   2.317   0.500  13.150  0.0371  0.0945 -0.3932
 4036SOL    HW123570   2.226   0.470  13.151  0.2001 -0.3861  0.3835
 4036SOL    HW223571   2.348   0.483  13.061  0.4815  0.9938 -0.4030
 4037SOL     OW23572   0.355   3.374   8.515  1.1007 -0.3546  0.0665
 4037SOL    HW123573   0.351   3.454   8.567 -1.9343 -1.6602  1.8253
 4037SOL    HW223574   0.437   3.385   8.466  0.9783 -2.5770 -0.6489
 4038SOL     OW23575   2.082   2.142   4.859 -0.5882 -0.1611  0.1592
 4038SOL    HW123576   2.171   2.149   4.893  0.2444 -1.0424 -1.8614
 4038SOL    HW223577   2.082   2.056   4.817 -0.3454 -1.2275  2.3326
 4039SOL     OW23578   0.440   3.349  16.702 -0.4766 -0.1892 -0.5887
 4039SOL    HW123579   0.483   3.428  16.735 -2.0121 -0.1896  1.3560
 4039SOL    HW223580   0.351   3.382  16.691 -0.5591  0.3205  1.5625
 4040SOL     OW23581   3.377   3.346   3.478  0.2068  0.2352  0.2730
 4040SOL    HW123582   3.340   3.322   3.563 -1.2391  2.5221  0.2666
 4040SOL    HW223583   3.299   3.382   3.435  3.2263  2.7961 -3.1168
 4041SOL     OW23584   3.306   3.213  14.617  0.3340  0.6794  0.3027
 4041SOL    HW123585   3.243   3.143  14.635  0.8410  0.4627  1.1960
 4041SOL    HW223586   3.248   3.278  14.576  0.6457 -0.2703 -1.6224
 4042SOL     OW23587   0.431   2.080  10.006  0.3092  0.2880  0.1049
 4042SOL    HW123588   0.482   2.160  10.020 -3.2781  2.6098  0.0612
 4042SOL    HW223589   0.359   2.119   9.956 -1.5614 -1.5876  1.3609
 4043SOL     OW23590   1.791   1.011  10.666 -0.3535 -0.0772  0.5191
 4043SOL    HW123591   1.747   1.073  10.724  1.4425 -0.7267  2.5855
 4043SOL    HW223592   1.802   0.928  10.711 -0.5397 -0.6103 -0.4162
 4044SOL     OW23593   2.159   2.395   7.721 -0.5962 -0.2446 -0.3716
 4044SOL    HW123594   2.243   2.356   7.697  1.0072  2.0902  1.4738
 4044SOL    HW223595   2.178   2.425   7.810 -1.2524 -2.4763  0.5309
 4045SOL     OW23596   0.235   0.970   8.618 -0.3145  0.0223  0.0286
 4045SOL    HW123597   0.153   1.000   8.658 -1.1551 -1.1544 -0.8354
 4045SOL    HW223598   0.289   0.962   8.697 -1.1213 -0.1326  0.5617
 4046SOL     OW23599   2.444   2.719   2.543 -0.1627  0.0476  0.1368
 4046SOL    HW123600   2.452   2.648   2.479 -1.3991 -0.3807  0.4663
 4046SOL    HW223601   2.492   2.791   2.503  0.6515 -1.7648 -2.1622
 4047SOL     OW23602   3.744   0.998   4.416  0.4113 -0.5379  0.0328
 4047SOL    HW123603   3.687   0.990   4.493  3.2082 -1.5610  1.9878
 4047SOL    HW223604   3.791   0.915   4.417  0.6950 -0.4217 -2.5441
 4048SOL     OW23605   2.361   4.102  13.228  0.2111  0.1028 -0.2026
 4048SOL    HW123606   2.402   4.029  13.181 -1.5785 -1.3761  0.5373
 4048SOL    HW223607   2.268   4.089  13.211  0.0207 -0.5136  1.3611
 4049SOL     OW23608   3.964   1.952   7.706 -0.2550 -0.2569  0.0667
 4049SOL    HW123609   4.016   1.893   7.761  0.3649  0.5483  0.3535
 4049SOL    HW223610   3.891   1.892   7.698  0.1187 -0.5919 -0.7531
 4050SOL     OW23611   0.299   1.350  17.549  0.2179  0.2630 -0.5438
 4050SOL    HW123612   0.387   1.380  17.525  0.1084  1.2545  0.3239
 4050SOL    HW223613   0.261   1.415  17.490 -0.5552 -0.1182 -0.4581
 4051SOL     OW23614   3.852   4.047  12.318  0.1173 -0.0293  0.0283
 4051SOL    HW123615   3.774   4.090  12.351 -0.0001  0.5860 -1.0567
 4051SOL    HW223616   3.893   4.024  12.401 -0.2284  3.1467  1.0600
 4052SOL     OW23617   4.203   3.660   6.439 -0.5448  0.5128 -0.5131
 4052SOL    HW123618   4.293   3.628   6.449 -0.9816 -0.8451 -0.8375
 4052SOL    HW223619   4.178   3.668   6.531  0.3796  0.0933 -0.2301
 4053SOL     OW23620   4.395   2.684   6.044  0.1193  0.0227 -0.1033
 4053SOL    HW123621   4.346   2.765   6.057  0.3121 -0.5053  3.6717
 4053SOL    HW223622   4.327   2.622   6.018  1.0604 -1.5484  1.2549
 4054SOL     OW23623   2.163   0.335   8.360 -0.8069  0.4952  0.3623
 4054SOL    HW123624   2.134   0.411   8.411 -0.0339  0.2105  1.2337
 4054SOL    HW223625   2.177   0.369   8.272  1.2228  0.3978  0.6475
 4055SOL     OW23626   0.507   2.216   2.407  0.5900 -0.1936 -0.3008
 4055SOL    HW123627   0.496   2.291   2.348 -1.4905 -0.3060 -0.0599
 4055SOL    HW223628   0.431   2.233   2.462  1.5200  1.1752  0.5488
 4056SOL     OW23629   3.913   2.516   6.760  0.1153  0.2737 -0.5163
 4056SOL    HW123630   3.880   2.431   6.791  1.1055  0.8882  2.2293
 4056SOL    HW223631   4.001   2.511   6.798 -0.5330  0.7651  1.0685
 4057SOL     OW23632   2.368   0.050   0.980 -0.3265 -0.0520  0.6561
 4057SOL    HW123633   2.339   0.010   1.062 -2.1821  0.5532  0.2897
 4057SOL    HW223634   2.301   0.118   0.971  0.1825  0.4496  0.6519
 4058SOL     OW23635   1.032   4.207   3.203 -0.0350  0.0811  0.1531
 4058SOL    HW123636   1.033   4.278   3.267 -2.0152  0.3135 -0.0515
 4058SOL    HW223637   1.102   4.241   3.148 -1.4278 -1.0630 -2.3528
 4059SOL     OW23638   4.493   3.397   3.013 -0.2240  0.2644 -0.0586
 4059SOL    HW123639   4.403   3.419   2.991 -0.6899 -1.4773  0.0909
 4059SOL    HW223640   4.534   3.446   2.943  1.1051  0.5629  0.9241
 4060SOL     OW23641   3.594   1.643   2.618 -0.4048 -1.0115 -0.3744
 4060SOL    HW123642   3.615   1.693   2.539  1.4987 -0.1460  0.6769
 4060SOL    HW223643   3.522   1.589   2.584 -0.3364 -0.9425 -0.6331
 4061SOL     OW23644   4.624   2.172  12.675  0.2924 -0.6337  0.6272
 4061SOL    HW123645   4.585   2.192  12.590  1.2628  2.9313  0.9983
 4061SOL    HW223646   4.706   2.220  12.664  0.3253 -1.2487 -1.6818
 4062SOL     OW23647   4.685   3.713   2.974  0.7571 -0.0833  0.1462
 4062SOL    HW123648   4.682   3.662   3.056  3.6448 -0.0498  0.2672
 4062SOL    HW223649   0.047   3.699   2.947  0.6815  1.9079 -1.0715
 4063SOL     OW23650   3.761   1.637   2.032 -0.0886  0.0516  0.0597
 4063SOL    HW123651   3.767   1.705   1.964  0.2464  1.1382  1.1610
 4063SOL    HW223652   3.687   1.671   2.081  1.1493  0.4267  1.6883
 4064SOL     OW23653   4.714   2.085   6.693  0.1395 -0.8561 -0.2849
 4064SOL    HW123654   4.726   2.027   6.768  0.0040  1.3028  1.4060
 4064SOL    HW223655   0.036   2.038   6.626 -1.3201 -0.2260 -1.8344
 4065SOL     OW23656   0.502   1.131  13.267 -0.1474 -0.2649 -0.0887
 4065SOL    HW123657   0.465   1.142  13.179  0.5367  2.9642  0.0572
 4065SOL    HW223658   0.431   1.148  13.329 -0.0989  1.5587 -0.5534
 4066SOL     OW23659   3.067   4.467   5.649  0.2966 -0.4007 -0.0612
 4066SOL    HW123660   2.990   4.416   5.622 -0.4068  0.5350  0.1756
 4066SOL    HW223661   3.023   4.541   5.691  2.3255  0.9625 -0.3437
 4067SOL     OW23662   2.907   1.978   7.573  0.4843 -0.0639 -0.1452
 4067SOL    HW123663   2.968   1.925   7.521  0.4127 -2.1615  1.9399
 4067SOL    HW223664   2.948   1.983   7.659 -0.9392 -2.0802  0.6714
 4068SOL     OW23665   1.775   3.590   5.238  0.3608 -0.2504  0.9374
 4068SOL    HW123666   1.805   3.499   5.237  1.4999  0.1868 -3.7772
 4068SOL    HW223667   1.691   3.589   5.193  0.7337  0.9636  0.2030
 4069SOL     OW23668   3.418   1.494  16.732 -0.1237 -0.6700  0.6952
 4069SOL    HW123669   3.360   1.440  16.679 -0.7007 -0.0269  0.6707
 4069SOL    HW223670   3.499   1.495  16.681  0.2660  1.8102  1.3658
 4070SOL     OW23671   3.825   2.366   3.321 -0.0101  0.6269 -0.0198
 4070SOL    HW123672   3.779   2.285   3.297  2.5241 -1.1387  1.0033
 4070SOL    HW223673   3.762   2.421   3.276  1.1673  2.0655  0.1005
 4071SOL     OW23674   1.269   4.145   1.325 -0.4780  0.2177 -0.0552
 4071SOL    HW123675   1.231   4.147   1.413  0.8371 -0.6736  0.5536
 4071SOL    HW223676   1.197   4.162   1.265 -0.5780 -3.0343 -0.8307
 4072SOL     OW23677   4.589   4.248   9.761 -0.5306  0.0689  0.5839
 4072SOL    HW123678   4.648   4.297   9.818 -0.8262  1.8509 -0.6297
 4072SOL    HW223679   4.502   4.286   9.775 -0.3223  0.9968 -0.6679
 4073SOL     OW23680   1.066   0.538   5.975  0.1494  0.3674  0.1136
 4073SOL    HW123681   1.134   0.519   6.040  0.3575  0.6544 -0.0164
 4073SOL    HW223682   1.059   0.460   5.919  0.4196  0.9490 -0.7428
 4074SOL     OW23683   1.691   4.130   7.714  0.2012 -0.4582  0.2458
 4074SOL    HW123684   1.623   4.155   7.651 -2.4533 -1.5781  2.6851
 4074SOL    HW223685   1.749   4.070   7.667 -0.5678  1.4301 -3.0711
 4075SOL     OW23686   1.801   2.739   1.207 -0.7866 -0.5205 -0.5199
 4075SOL    HW123687   1.856   2.662   1.192  1.8363  1.1400  0.6391
 4075SOL    HW223688   1.745   2.715   1.281  1.5986  2.8967  2.3656
 4076SOL     OW23689   2.457   1.964  12.804 -0.2752  0.2777  0.1035
 4076SOL    HW123690   2.459   1.977  12.709 -0.2714 -0.0090  0.0637
 4076SOL    HW223691   2.459   2.057  12.824  0.1807 -0.2972  2.8124
 4077SOL     OW23692   1.932   1.210   3.367  0.7409 -0.3259  0.0650
 4077SOL    HW123693   1.919   1.169   3.281  0.6895  2.7362 -1.3959
 4077SOL    HW223694   1.921   1.303   3.349  1.1740 -0.2126  0.3834
 4078SOL     OW23695   3.054   0.139  17.078  0.4334  0.4196  0.1443
 4078SOL    HW123696   3.071   0.214  17.021  0.4833 -0.3964 -0.9192
 4078SOL    HW223697   3.008   0.088  17.011 -1.3497 -0.8501  2.3042
 4079SOL     OW23698   0.123   0.761   1.204  0.6664 -0.4571 -0.0865
 4079SOL    HW123699   0.102   0.790   1.292  3.6589  2.0520 -0.2055
 4079SOL    HW223700   0.068   0.683   1.190  1.0331 -0.8002  0.3946
 4080SOL     OW23701   1.359   2.556   8.637  0.9641 -0.2492 -0.0053
 4080SOL    HW123702   1.454   2.550   8.624  1.1410  2.5944 -0.0885
 4080SOL    HW223703   1.335   2.625   8.576 -3.1278 -2.1036 -0.4583
 4081SOL     OW23704   2.222   1.667   1.218  0.1770 -0.4459 -0.5616
 4081SOL    HW123705   2.206   1.583   1.174 -1.2256 -0.3433 -0.2320
 4081SOL    HW223706   2.155   1.725   1.182  0.3145  1.8834  2.9646
 4082SOL     OW23707   4.229   1.740   4.290  0.1576 -0.0622  0.5087
 4082SOL    HW123708   4.137   1.763   4.282 -0.0013 -1.0038 -0.4133
 4082SOL    HW223709   4.235   1.648   4.261 -1.2025 -0.2152  0.7345
 4083SOL     OW23710   1.829   2.820  15.200 -0.6281 -0.2701 -0.0323
 4083SOL    HW123711   1.739   2.793  15.219 -0.1123 -1.2796  0.9315
 4083SOL    HW223712   1.822   2.906  15.240  2.0528 -0.2051  0.2929
 4084SOL     OW23713   3.686   0.329  10.187  0.3382 -0.3536 -0.2777
 4084SOL    HW123714   3.744   0.261  10.220 -0.3946 -0.1994  1.3098
 4084SOL    HW223715   3.720   0.340  10.098 -2.0744 -1.3120 -1.3283
 4085SOL     OW23716   0.362   2.024   5.020  0.0911  0.4420  0.6813
 4085SOL    HW123717   0.456   2.013   5.032 -0.3167  0.6577  4.0425
 4085SOL    HW223718   0.349   2.017   4.926 -0.6026 -0.8208  0.8663
 4086SOL     OW23719   2.517   4.247   4.055 -0.0100 -0.0230 -0.2787
 4086SOL    HW123720   2.489   4.194   3.980 -0.9629 -0.1625  0.1784
 4086SOL    HW223721   2.436   4.243   4.106 -0.1818 -2.0096 -0.6745
 4087SOL     OW23722   1.248   1.205  12.061  0.4386  0.3162 -0.0668
 4087SOL    HW123723   1.179   1.258  12.100 -0.1990 -1.9404  1.9167
 4087SOL    HW223724   1.228   1.115  12.088  0.8863  0.6569  1.4320
 4088SOL     OW23725   0.275   2.448  10.079 -0.4993  0.5195  0.0031
 4088SOL    HW123726   0.209   2.461  10.011 -0.0248  0.1342 -0.5339
 4088SOL    HW223727   0.230   2.486  10.154 -0.0549 -2.1810  1.6270
 4089SOL     OW23728   0.854   0.138   3.679 -0.3624 -0.1002  0.4508
 4089SOL    HW123729   0.826   0.229   3.682  2.4777  0.7339  1.8091
 4089SOL    HW223730   0.948   0.153   3.672 -0.2459 -0.6372  0.8666
 4090SOL     OW23731   0.489   3.766   9.669 -0.1614 -0.5549 -0.8700
 4090SOL    HW123732   0.528   3.843   9.628 -0.9113  1.6517  2.5528
 4090SOL    HW223733   0.396   3.791   9.667  0.1340  0.6831  1.5162
 4091SOL     OW23734   3.951   0.351  11.825 -0.3652 -0.3938 -1.3314
 4091SOL    HW123735   3.914   0.278  11.875  0.1555  0.2619  0.0113
 4091SOL    HW223736   3.916   0.325  11.740  3.5497 -2.4704 -2.3438
 4092SOL     OW23737   2.750   0.850   3.325  0.0159 -0.6480 -0.1167
 4092SOL    HW123738   2.666   0.836   3.280 -1.0947  0.3332  1.6636
 4092SOL    HW223739   2.803   0.797   3.265  1.7055  1.8854 -0.8294
 4093SOL     OW23740   1.329   0.441   2.350  0.0670 -0.3882  0.1391
 4093SOL    HW123741   1.413   0.486   2.346  0.3256 -0.9448 -0.6862
 4093SOL    HW223742   1.340   0.392   2.432 -2.3899  1.1926  1.3869
 4094SOL     OW23743   2.448   4.227   0.445  0.0609  0.5858 -0.6752
 4094SOL    HW123744   2.442   4.139   0.481 -0.6977  1.5466  1.5261
 4094SOL    HW223745   2.541   4.242   0.430  0.5070  0.7666  2.3164
 4095SOL     OW23746   2.391   0.745  11.449 -0.2176  0.0204  0.0359
 4095SOL    HW123747   2.448   0.703  11.513 -1.5585 -1.1066  0.4768
 4095SOL    HW223748   2.460   0.803  11.417 -0.2138  0.1668  0.3083
 4096SOL     OW23749   0.500   4.130   4.891 -0.2317 -0.5525  0.1466
 4096SOL    HW123750   0.423   4.186   4.883 -0.5984 -0.7897  2.0960
 4096SOL    HW223751   0.554   4.205   4.916 -0.7223 -0.1285 -0.0662
 4097SOL     OW23752   2.656   0.973   6.384  0.4513 -0.1499 -0.0007
 4097SOL    HW123753   2.727   0.911   6.397 -0.6772 -1.5838 -0.6518
 4097SOL    HW223754   2.607   0.934   6.311  1.0664 -0.4545 -0.2455
 4098SOL     OW23755   3.270   3.736   7.201  0.4824  0.1856  0.0946
 4098SOL    HW123756   3.291   3.731   7.294 -0.1936  1.7126  0.3278
 4098SOL    HW223757   3.175   3.746   7.202  0.2642 -1.6217 -2.0655
 4099SOL     OW23758   3.355   0.278   9.862 -0.1738 -0.2045  1.0614
 4099SOL    HW123759   3.410   0.210   9.823  2.7102  2.8139 -0.0820
 4099SOL    HW223760   3.367   0.262   9.955  1.2181  1.3293  1.1356
 4100SOL     OW23761   0.098   4.584  12.161 -0.4735 -0.5641  0.4779
 4100SOL    HW123762   0.059   4.630  12.087 -0.3841 -2.1546 -0.5552
 4100SOL    HW223763   0.107   4.663  12.214 -3.9689 -0.4892  1.0003
 4101SOL     OW23764   0.472   3.727   2.455 -0.7130 -0.7627  0.8366
 4101SOL    HW123765   0.394   3.719   2.400  0.5693  0.7247 -1.1817
 4101SOL    HW223766   0.475   3.819   2.481 -0.9529 -0.2984 -0.7680
 4102SOL     OW23767   3.444   3.457  12.532  0.2829  0.4772 -0.1056
 4102SOL    HW123768   3.414   3.369  12.555 -0.6522  0.8267  0.0121
 4102SOL    HW223769   3.477   3.488  12.616  0.0232 -1.2500  0.6430
 4103SOL     OW23770   2.636   4.208   6.663 -0.6467  0.0456  0.4098
 4103SOL    HW123771   2.721   4.177   6.632 -0.3069  1.4629 -0.0757
 4103SOL    HW223772   2.672   4.290   6.697 -0.9221 -0.2212  1.3360
 4104SOL     OW23773   2.079   4.440   4.379  0.4259 -0.3004  0.0161
 4104SOL    HW123774   2.015   4.511   4.383  0.0018 -0.7427  1.0053
 4104SOL    HW223775   2.142   4.474   4.315  0.3524 -0.1767  0.0098
 4105SOL     OW23776   2.586   0.311   2.892 -0.0314  0.4473  0.2187
 4105SOL    HW123777   2.631   0.342   2.970  0.6553 -1.9306  0.7727
 4105SOL    HW223778   2.645   0.352   2.828  1.5789 -0.1570  1.3180
 4106SOL     OW23779   2.389   1.948   8.503  0.1445  0.7600  0.2233
 4106SOL    HW123780   2.327   2.001   8.452 -1.0809 -1.0997 -0.2099
 4106SOL    HW223781   2.403   1.877   8.440  1.5979  0.3752  0.9848
 4107SOL     OW23782   0.446   0.492   9.220 -0.8279  0.0699  0.2163
 4107SOL    HW123783   0.410   0.537   9.297 -0.1998  0.5946  0.2090
 4107SOL    HW223784   0.542   0.496   9.222 -0.8828  0.6329  1.6348
 4108SOL     OW23785   4.448   2.829  17.009 -0.2982  0.0868  0.6126
 4108SOL    HW123786   4.446   2.792  17.098  0.5008 -0.2995  0.4718
 4108SOL    HW223787   4.416   2.917  17.027  1.4728  1.1329 -1.5435
 4109SOL     OW23788   1.645   2.218   5.468  0.1863 -0.4930 -0.2626
 4109SOL    HW123789   1.665   2.278   5.540 -1.7305  1.1105 -1.0559
 4109SOL    HW223790   1.633   2.135   5.514 -2.4145  2.0730  3.6793
 4110SOL     OW23791   2.836   1.567   8.566  0.2842  0.5036 -0.2067
 4110SOL    HW123792   2.837   1.472   8.551  1.5462  0.0073  3.0295
 4110SOL    HW223793   2.813   1.569   8.659  1.2180  0.4338  0.0246
 4111SOL     OW23794   1.657   2.279   5.010 -0.0611  0.2267  0.3412
 4111SOL    HW123795   1.581   2.301   4.956 -0.6686 -1.5882  0.4703
 4111SOL    HW223796   1.629   2.215   5.075 -0.4738  2.9514  2.8362
 4112SOL     OW23797   4.436   0.204   2.425  0.0721 -0.1108 -0.2665
 4112SOL    HW123798   4.498   0.133   2.444 -0.2512 -0.5483 -0.8505
 4112SOL    HW223799   4.435   0.195   2.330 -2.6350 -0.7390 -0.1808
 4113SOL     OW23800   0.723   1.416  10.150 -0.2798 -0.1815 -0.1970
 4113SOL    HW123801   0.810   1.415  10.190  0.5724  1.0970 -2.0274
 4113SOL    HW223802   0.682   1.493  10.189 -1.3875 -0.5904 -0.5400
 4114SOL     OW23803   1.568   0.580   4.695 -0.1881 -0.0471  0.2823
 4114SOL    HW123804   1.500   0.576   4.629  0.6704 -0.0724 -0.6073
 4114SOL    HW223805   1.649   0.599   4.647  0.2342 -0.5488  0.7766
 4115SOL     OW23806   1.244   2.344  16.371 -0.7359 -0.2986  0.7124
 4115SOL    HW123807   1.168   2.384  16.330  0.2233  0.9121  0.1282
 4115SOL    HW223808   1.289   2.312  16.293 -0.4128  1.4032  0.2107
 4116SOL     OW23809   4.382   4.272   8.316  0.4131 -0.3353  0.2452
 4116SOL    HW123810   4.434   4.311   8.386 -0.4256 -1.3625  1.4494
 4116SOL    HW223811   4.315   4.340   8.313 -0.6021 -1.3119  0.9866
 4117SOL     OW23812   1.165   0.754   9.378  0.5768  0.0918 -0.1164
 4117SOL    HW123813   1.232   0.821   9.391  1.6765 -0.7830 -1.3151
 4117SOL    HW223814   1.102   0.778   9.446 -0.1252 -0.1528 -0.6762
 4118SOL     OW23815   2.449   0.827  12.672 -0.7473  0.2039  0.2568
 4118SOL    HW123816   2.376   0.794  12.725 -0.5600  0.6604  0.8006
 4118SOL    HW223817   2.492   0.879  12.740  0.8812 -0.3426 -0.3646
 4119SOL     OW23818   1.511   0.391   0.787 -0.0006  0.0703  0.5175
 4119SOL    HW123819   1.468   0.323   0.840  0.7394 -2.0432 -1.5789
 4119SOL    HW223820   1.434   0.423   0.741 -0.2609 -0.7551  0.3699
 4120SOL     OW23821   3.266   4.390   3.935 -0.2829  0.0272  0.3079
 4120SOL    HW123822   3.225   4.344   4.008  2.3160  0.9040  2.3195
 4120SOL    HW223823   3.194   4.444   3.902 -0.4911 -0.3700  0.1131
 4121SOL     OW23824   2.602   4.172  13.982 -0.3326  0.0532 -0.4008
 4121SOL    HW123825   2.562   4.091  13.951  1.1862 -1.1825  0.9169
 4121SOL    HW223826   2.533   4.232  13.953  0.7728  1.3689 -0.3444
 4122SOL     OW23827   2.309   4.329   2.050  0.2335  0.6632 -0.0688
 4122SOL    HW123828   2.338   4.254   1.998 -1.8913 -0.2715  0.0620
 4122SOL    HW223829   2.385   4.373   2.089  0.5487  0.2367 -0.2016
 4123SOL     OW23830   3.498   4.441   8.866  0.3926 -0.6917  0.6015
 4123SOL    HW123831   3.441   4.414   8.794  1.1799  0.0257 -0.2837
 4123SOL    HW223832   3.563   4.371   8.862 -0.1509 -1.1017 -1.1754
 4124SOL     OW23833   3.005   1.592   5.893 -0.2861  0.4210 -0.0265
 4124SOL    HW123834   3.071   1.532   5.858 -0.5605  0.4606 -0.6024
 4124SOL    HW223835   2.922   1.547   5.878 -0.3793  1.1886 -1.8505
 4125SOL     OW23836   1.167   4.599   4.515 -0.0299 -0.0447  0.4677
 4125SOL    HW123837   1.073   4.583   4.524  0.0505 -0.0874  1.2361
 4125SOL    HW223838   1.200   4.532   4.574 -2.0386  0.9715  2.7383
 4126SOL     OW23839   3.150   3.721   5.090  0.0427 -0.2474  0.1923
 4126SOL    HW123840   3.157   3.703   4.996  1.3312 -2.8443  0.7781
 4126SOL    HW223841   3.243   3.739   5.107  0.0495  0.4390 -0.6067
 4127SOL     OW23842   0.831   1.550  14.109 -0.0947 -0.0834 -0.3328
 4127SOL    HW123843   0.760   1.485  14.106  1.0984 -1.3535 -1.4364
 4127SOL    HW223844   0.776   1.627  14.124 -0.3333 -0.8053  2.5163
 4128SOL     OW23845   0.212   1.428   6.341  0.0585 -0.5580  0.1940
 4128SOL    HW123846   0.280   1.373   6.301 -0.1286  0.0604 -0.9762
 4128SOL    HW223847   0.139   1.369   6.358 -0.1422  0.0411  1.3993
 4129SOL     OW23848   3.572   1.756   6.521  0.1680 -0.5024 -0.0325
 4129SOL    HW123849   3.659   1.747   6.560 -0.8220 -0.8353  2.0877
 4129SOL    HW223850   3.577   1.850   6.501 -0.8014  0.0714  2.5455
 4130SOL     OW23851   2.699   3.417   5.265 -0.5369 -0.3647  0.1708
 4130SOL    HW123852   2.631   3.350   5.263 -1.2930  0.3815  0.4690
 4130SOL    HW223853   2.649   3.499   5.254 -2.7905 -1.8723 -0.8540
 4131SOL     OW23854   2.899   2.594   4.776  0.1830 -0.0382  0.1461
 4131SOL    HW123855   2.918   2.682   4.745 -0.1563 -0.4382 -1.1691
 4131SOL    HW223856   2.804   2.605   4.771  0.3730  2.0423  1.0609
 4132SOL     OW23857   1.749   4.085   6.159  0.0441  0.3417  0.5244
 4132SOL    HW123858   1.723   4.174   6.136 -0.3162  0.0473 -0.2081
 4132SOL    HW223859   1.789   4.106   6.244 -0.2540  0.3155  0.6730
 4133SOL     OW23860   3.717   1.263   3.359  0.0060  0.2593 -0.2048
 4133SOL    HW123861   3.683   1.348   3.330 -1.2802 -0.2638 -0.2205
 4133SOL    HW223862   3.669   1.208   3.297 -3.2771  1.0370  1.6537
 4134SOL     OW23863   1.411   3.304   8.082  0.6544  0.0082  0.1333
 4134SOL    HW123864   1.334   3.356   8.105  2.4414  1.5555  2.6127
 4134SOL    HW223865   1.476   3.354   8.131  0.5482 -2.0028  2.3433
 4135SOL     OW23866   2.672   2.727   7.304  0.0806  0.9288 -0.2441
 4135SOL    HW123867   2.724   2.648   7.292 -1.5973 -0.3298  0.8730
 4135SOL    HW223868   2.665   2.723   7.400  3.0342  0.6795 -0.0486
 4136SOL     OW23869   2.927   3.721  12.803  1.0188 -0.8319  0.1561
 4136SOL    HW123870   2.985   3.698  12.875 -0.9800 -2.8593  1.1021
 4136SOL    HW223871   2.889   3.634  12.796 -0.3141 -0.0485 -2.2743
 4137SOL     OW23872   0.676   0.082   4.533  0.3267  0.2396  0.0443
 4137SOL    HW123873   0.627   0.145   4.480 -1.7227 -0.6655  0.8634
 4137SOL    HW223874   0.696   0.014   4.468 -1.5552 -1.2439  1.0111
 4138SOL     OW23875   3.648   3.129   3.727  0.0809  0.1922 -0.3917
 4138SOL    HW123876   3.723   3.131   3.787 -1.8744  2.1296  2.0007
 4138SOL    HW223877   3.701   3.145   3.649 -0.3790  1.6876 -0.3960
 4139SOL     OW23878   0.137   0.330   2.874 -0.6205 -0.0656  0.9144
 4139SOL    HW123879   0.230   0.334   2.852 -0.6214  0.2449  0.9559
 4139SOL    HW223880   0.130   0.388   2.950 -3.3992 -0.0987  0.6831
 4140SOL     OW23881   0.620   0.299   1.613  0.6235 -0.0614  0.1306
 4140SOL    HW123882   0.534   0.308   1.572  1.4112 -0.0946 -1.5017
 4140SOL    HW223883   0.665   0.253   1.543  0.7520  1.7986 -1.0061
 4141SOL     OW23884   2.277   4.707   7.849 -0.4456 -0.2327 -0.4014
 4141SOL    HW123885   2.282   4.724   7.943 -1.4896 -2.7905  0.1433
 4141SOL    HW223886   2.195   4.658   7.836 -1.2288  0.8591  0.5342
 4142SOL     OW23887   3.620   2.890   3.968 -0.1782 -0.1741 -0.0601
 4142SOL    HW123888   3.595   2.819   4.028 -0.9371  0.6942  0.6487
 4142SOL    HW223889   3.543   2.892   3.912 -1.3161  0.8043  1.5408
 4143SOL     OW23890   0.241   1.879  13.292 -0.0813  0.2357  0.1681
 4143SOL    HW123891   0.170   1.821  13.264 -0.3388  0.6570 -0.0352
 4143SOL    HW223892   0.316   1.819  13.294  0.0179  0.4202  2.6730
 4144SOL     OW23893   3.971   0.208   0.946  0.5476  0.2238  0.2999
 4144SOL    HW123894   4.040   0.254   0.899 -1.0385  2.3644  0.0825
 4144SOL    HW223895   4.004   0.219   1.036 -2.6252  2.3888  1.1829
 4145SOL     OW23896   0.686   0.709   1.938 -0.3095 -0.1615  0.0595
 4145SOL    HW123897   0.621   0.714   2.008 -0.4249  0.2665 -0.0797
 4145SOL    HW223898   0.729   0.629   1.970 -0.9571 -1.3791 -2.0832
 4146SOL     OW23899   1.622   3.066   8.387 -0.2287 -0.6605 -0.3540
 4146SOL    HW123900   1.692   3.130   8.383  1.0324 -1.9980  0.1933
 4146SOL    HW223901   1.653   2.997   8.445  0.3567 -0.9698 -1.0289
 4147SOL     OW23902   3.476   3.036   3.146  0.3421  0.1054 -0.1488
 4147SOL    HW123903   3.461   2.943   3.166 -2.3795  0.2122 -1.8070
 4147SOL    HW223904   3.541   3.060   3.212  2.3738  0.7302 -2.3626
 4148SOL     OW23905   2.626   0.692   2.653  1.0980 -0.2528 -0.1343
 4148SOL    HW123906   2.593   0.713   2.741  2.5300  1.3186  0.0233
 4148SOL    HW223907   2.553   0.703   2.592 -0.1733 -0.9563  1.2513
 4149SOL     OW23908   0.148   1.157   1.106  0.0979  0.8369 -0.1442
 4149SOL    HW123909   0.136   1.220   1.034 -0.8381  0.4884 -0.3018
 4149SOL    HW223910   0.236   1.126   1.088 -1.2960 -2.4950 -1.2150
 4150SOL     OW23911   0.887   0.741   7.168  0.2419  0.1819 -0.1450
 4150SOL    HW123912   0.898   0.648   7.187 -1.8863  0.0885  0.7195
 4150SOL    HW223913   0.820   0.771   7.229  1.4722  0.9071  0.8467
 4151SOL     OW23914   4.277   3.919   4.183 -0.1169  0.2963 -0.3527
 4151SOL    HW123915   4.206   3.921   4.119 -3.6634  0.7957  3.6218
 4151SOL    HW223916   4.305   3.827   4.185 -1.2175 -0.0541 -1.1681
 4152SOL     OW23917   0.628   1.182   2.548 -0.1485 -0.3774  0.0736
 4152SOL    HW123918   0.644   1.215   2.636 -1.7316  0.2219  0.1346
 4152SOL    HW223919   0.712   1.141   2.524 -0.1771 -0.1919 -0.3517
 4153SOL     OW23920   0.033   3.967   5.942 -0.1430  0.4411  0.4234
 4153SOL    HW123921   4.678   3.962   5.897  0.9740 -0.2850 -1.5572
 4153SOL    HW223922   0.083   3.906   5.887  2.1817 -1.3183  4.4543
 4154SOL     OW23923   1.207   0.936   3.022 -0.1461  0.1528  0.5816
 4154SOL    HW123924   1.168   1.018   3.053 -1.2267 -0.6658  1.4184
 4154SOL    HW223925   1.148   0.920   2.949 -0.3971 -2.0180  1.2442
 4155SOL     OW23926   1.995   1.177  15.065 -0.3359 -0.3507  0.1844
 4155SOL    HW123927   1.913   1.214  15.097  0.0533 -0.8681  1.7475
 4155SOL    HW223928   1.959   1.093  15.033 -0.7734 -0.1062  0.0283
 4156SOL     OW23929   3.818   2.390  12.424 -0.3115 -0.7004  0.4999
 4156SOL    HW123930   3.830   2.461  12.361 -1.2992 -1.6838 -0.7762
 4156SOL    HW223931   3.732   2.422  12.452 -0.3055 -0.5187  0.3055
 4157SOL     OW23932   1.459   3.249   0.293 -0.3690  0.3782 -0.2998
 4157SOL    HW123933   1.531   3.188   0.276 -2.0730 -1.7268  0.1510
 4157SOL    HW223934   1.493   3.335   0.268 -0.5522 -0.0620 -2.0619
 4158SOL     OW23935   3.650   1.780   3.173  0.2302  0.2538 -0.3128
 4158SOL    HW123936   3.635   1.852   3.112 -2.4973  0.8582  1.0860
 4158SOL    HW223937   3.742   1.760   3.155  0.4881 -0.6092  1.8523
 4159SOL     OW23938   4.075   1.171   6.107 -0.7873  0.0355  0.9990
 4159SOL    HW123939   4.149   1.187   6.165 -1.7401  2.7998  1.4285
 4159SOL    HW223940   4.046   1.258   6.079  1.1946  0.0642 -0.8982
 4160SOL     OW23941   1.160   1.875  14.408 -0.5014  0.2206  0.1539
 4160SOL    HW123942   1.118   1.960  14.399 -0.5268  0.4160  2.0549
 4160SOL    HW223943   1.243   1.899  14.449 -0.3139  0.0713 -0.1389
 4161SOL     OW23944   3.543   0.597   2.927 -0.5075 -0.2265  0.4602
 4161SOL    HW123945   3.529   0.655   2.852  0.4021  1.1913  1.3878
 4161SOL    HW223946   3.454   0.575   2.951 -0.6823 -0.5549 -0.4595
 4162SOL     OW23947   3.071   2.653   5.865 -0.3617  0.2420 -0.1738
 4162SOL    HW123948   3.087   2.568   5.907 -0.0496  0.3007 -0.1707
 4162SOL    HW223949   2.976   2.649   5.861 -0.4365  2.7581 -0.6483
 4163SOL     OW23950   4.564   2.863   9.166  0.5422 -0.8465  0.3352
 4163SOL    HW123951   4.567   2.954   9.138 -1.5042 -0.2767  1.9566
 4163SOL    HW223952   4.533   2.876   9.255  1.8811 -1.0782  0.8276
 4164SOL     OW23953   1.045   1.348  14.163 -0.0999 -0.8472  0.2715
 4164SOL    HW123954   0.973   1.288  14.147  0.3274 -0.6757 -2.3507
 4164SOL    HW223955   1.018   1.420  14.106 -0.0027 -0.2884  0.9334
 4165SOL     OW23956   3.215   0.576   8.926  0.0854 -0.5069  0.1474
 4165SOL    HW123957   3.209   0.652   8.983 -0.7505 -0.8477  0.5112
 4165SOL    HW223958   3.310   0.562   8.924  0.0207 -1.1719  2.4311
 4166SOL     OW23959   3.231   2.606   5.051 -0.2469 -0.4032  0.0680
 4166SOL    HW123960   3.141   2.589   5.079  0.7900 -0.2909  3.4776
 4166SOL    HW223961   3.262   2.660   5.124 -2.3936  2.1296 -0.9094
 4167SOL     OW23962   1.428   1.147   2.360 -0.1404  0.2356 -0.2008
 4167SOL    HW123963   1.374   1.190   2.427 -0.1146 -0.1284  0.0557
 4167SOL    HW223964   1.374   1.072   2.335  2.5123 -1.5070 -0.6918
 4168SOL     OW23965   1.633   0.194  15.951 -0.1119 -0.5443  0.7770
 4168SOL    HW123966   1.565   0.208  16.016  1.8971  2.5341  2.2066
 4168SOL    HW223967   1.634   0.099  15.961 -1.1135 -0.7766 -1.3055
 4169SOL     OW23968   0.165   4.143  15.199  0.3654 -0.5203  0.5530
 4169SOL    HW123969   0.101   4.072  15.197 -3.2494  2.7709 -1.4571
 4169SOL    HW223970   0.246   4.101  15.169  0.0887 -1.6390  1.4044
 4170SOL     OW23971   3.666   0.791  11.785 -0.0050 -0.5317 -0.3139
 4170SOL    HW123972   3.671   0.721  11.849  0.2875 -1.6623 -1.5599
 4170SOL    HW223973   3.746   0.842  11.799 -0.7646  0.3613  0.7728
 4171SOL     OW23974   0.629   4.534   5.752 -0.6165  0.0074  0.1845
 4171SOL    HW123975   0.574   4.463   5.721 -0.4952  0.4835 -1.1168
 4171SOL    HW223976   0.705   4.480   5.776 -1.0056 -1.2587 -1.4724
 4172SOL     OW23977   4.424   1.894  11.127  0.2186 -0.6187  0.1685
 4172SOL    HW123978   4.373   1.949  11.067  1.7301 -1.4806 -1.9070
 4172SOL    HW223979   4.453   1.957  11.192 -2.1615  1.6840 -1.0181
 4173SOL     OW23980   2.078   0.016   4.027  0.7192  0.3874  0.6055
 4173SOL    HW123981   2.162   0.061   4.038  0.5437  0.6680  0.7765
 4173SOL    HW223982   2.092   4.680   3.957 -1.4086  0.1886  0.3569
 4174SOL     OW23983   2.227   2.856   3.056 -0.3950 -0.1242 -0.7128
 4174SOL    HW123984   2.212   2.818   2.970  2.8753  2.5578 -2.4659
 4174SOL    HW223985   2.319   2.828   3.063 -0.1314  1.5575  2.6857
 4175SOL     OW23986   0.009   0.959   4.162 -0.3217  0.3042  0.0088
 4175SOL    HW123987   4.676   0.922   4.098  0.5890 -1.3662  0.1205
 4175SOL    HW223988   4.682   0.986   4.235  1.6284 -2.1113  2.3827
 4176SOL     OW23989   2.514   3.980   2.747  0.0599  0.6980  0.2096
 4176SOL    HW123990   2.458   3.969   2.670 -0.0034 -0.7513  0.4694
 4176SOL    HW223991   2.448   3.944   2.806 -1.6568  2.8496 -0.3904
 4177SOL     OW23992   4.092   3.124   4.403  0.1258  0.1938 -0.1188
 4177SOL    HW123993   4.158   3.171   4.352 -0.4249 -0.3515 -1.3433
 4177SOL    HW223994   4.089   3.184   4.477  4.4762  2.2236 -1.6237
 4178SOL     OW23995   0.244   2.892   9.604 -0.1890 -0.4078  0.0201
 4178SOL    HW123996   0.231   2.921   9.695 -1.5701  1.4506 -0.7689
 4178SOL    HW223997   0.170   2.833   9.592 -0.1263 -0.8193  1.6120
 4179SOL     OW23998   0.544   4.291   8.890 -0.0837  0.4217 -0.1199
 4179SOL    HW123999   0.636   4.308   8.912 -0.6840  2.0363  1.1858
 4179SOL    HW224000   0.543   4.205   8.932  1.5917  0.4701  0.0008
 4180SOL     OW24001   2.022   0.015   8.632 -0.3616  0.0645  0.8363
 4180SOL    HW124002   1.927   0.006   8.618 -0.1474 -0.7078 -0.0975
 4180SOL    HW224003   2.040   4.653   8.654 -0.6181  0.0645  1.0550
 4181SOL     OW24004   4.159   3.320   9.070  0.4907  0.3328  0.4122
 4181SOL    HW124005   4.200   3.283   9.148  0.8426  0.8316  0.4626
 4181SOL    HW224006   4.206   3.273   9.002 -2.2564 -0.6224 -0.8211
 4182SOL     OW24007   0.201   4.358   8.406 -0.6735 -0.2503  0.0860
 4182SOL    HW124008   0.176   4.359   8.498 -1.0885  0.2386 -0.0325
 4182SOL    HW224009   0.147   4.291   8.363  1.5119 -1.2383 -1.1205
 4183SOL     OW24010   1.329   3.879   6.374  0.4675 -0.1189  0.0757
 4183SOL    HW124011   1.308   3.797   6.329  0.3975 -0.3392  0.5126
 4183SOL    HW224012   1.384   3.913   6.304 -0.8961  0.4739 -0.7093
 4184SOL     OW24013   3.445   3.030  16.386  0.0324  0.0194 -0.2300
 4184SOL    HW124014   3.485   3.056  16.468 -0.3478 -0.8261  0.2315
 4184SOL    HW224015   3.370   2.989  16.428 -0.6572  1.1889 -0.3239
 4185SOL     OW24016   1.882   0.788   3.329 -0.0771 -0.1408 -0.2873
 4185SOL    HW124017   1.937   0.866   3.323 -2.1906  1.6163  3.6554
 4185SOL    HW224018   1.855   0.781   3.237  0.3119  0.6482 -0.4629
 4186SOL     OW24019   2.481   4.477   3.753  0.1910 -0.3652  0.4218
 4186SOL    HW124020   2.522   4.455   3.836 -0.2984 -2.4313  0.1053
 4186SOL    HW224021   2.394   4.443   3.772  0.6072 -0.1516  2.6819
 4187SOL     OW24022   2.181   2.686   7.489 -0.6468 -0.2557 -0.1012
 4187SOL    HW124023   2.259   2.632   7.500 -0.1042  0.7025  0.7174
 4187SOL    HW224024   2.128   2.675   7.568  0.0463 -2.0152  0.1189
 4188SOL     OW24025   1.840   0.753  10.794  0.2504  0.5113 -0.2653
 4188SOL    HW124026   1.763   0.770  10.849  0.3227 -2.7855  0.8363
 4188SOL    HW224027   1.898   0.710  10.856 -0.8035  0.1217  0.4451
 4189SOL     OW24028   1.475   0.959   0.572  0.6150 -0.4065  0.1830
 4189SOL    HW124029   1.389   0.990   0.599  0.5553 -0.0841 -0.3719
 4189SOL    HW224030   1.499   0.896   0.640  0.1241 -0.7982 -0.0123
 4190SOL     OW24031   2.351   3.536  10.120  0.1125  0.0971  0.0075
 4190SOL    HW124032   2.284   3.576  10.175 -0.7131  2.9140 -3.0596
 4190SOL    HW224033   2.407   3.612  10.105 -0.4793  0.1603 -1.8264
 4191SOL     OW24034   1.750   2.594  14.946 -0.1254 -0.3453 -0.4826
 4191SOL    HW124035   1.759   2.658  14.875  1.7030  1.2721  1.2130
 4191SOL    HW224036   1.659   2.569  14.961  0.1354 -0.4315  0.9254
 4192SOL     OW24037   4.367   3.451   9.662 -0.3476 -0.1532  0.3363
 4192SOL    HW124038   4.355   3.537   9.622  2.9690 -1.1713 -2.8232
 4192SOL    HW224039   4.462   3.455   9.666 -0.4367  2.7067 -0.3577
 4193SOL     OW24040   0.103   1.092  15.035 -0.1295 -0.2432 -0.4140
 4193SOL    HW124041   0.023   1.046  15.011 -1.7445  1.3564  1.9877
 4193SOL    HW224042   0.155   1.089  14.954  0.4281  0.0093 -0.0680
 4194SOL     OW24043   1.230   1.776   1.140  0.0654  0.8178  0.7523
 4194SOL    HW124044   1.301   1.782   1.076 -1.2724  0.1126 -0.8120
 4194SOL    HW224045   1.261   1.847   1.197  1.8606  2.0698 -1.8059
 4195SOL     OW24046   3.230   3.103   6.875  0.6937 -0.2137  0.0548
 4195SOL    HW124047   3.234   3.166   6.947  2.3167 -1.8970  1.4251
 4195SOL    HW224048   3.151   3.132   6.829  1.9489 -0.1450 -2.0655
 4196SOL     OW24049   0.447   2.406   7.563 -0.3836  0.1757  0.4228
 4196SOL    HW124050   0.353   2.401   7.584 -0.6175 -2.3709 -1.2462
 4196SOL    HW224051   0.491   2.349   7.626 -0.1251  0.8737  0.8658
 4197SOL     OW24052   4.503   2.001   7.533 -0.4271 -0.6702  0.3104
 4197SOL    HW124053   4.443   1.977   7.604 -1.2305 -1.7215 -0.7261
 4197SOL    HW224054   4.432   2.045   7.487  0.3144  0.0239 -0.1606
 4198SOL     OW24055   2.534   3.074  15.694 -0.0246  0.4085  0.6997
 4198SOL    HW124056   2.570   2.985  15.695  0.4585  0.6101  0.8733
 4198SOL    HW224057   2.591   3.123  15.635 -1.8966  1.8686  0.0849
 4199SOL     OW24058   2.774   3.127   6.934  0.0929  0.1099  0.2668
 4199SOL    HW124059   2.781   3.192   7.004 -2.4106  1.2227 -0.5499
 4199SOL    HW224060   2.847   3.161   6.883 -0.8167  1.7190  0.0401
 4200SOL     OW24061   2.095   2.330   4.177  0.4153  0.0336  0.3737
 4200SOL    HW124062   2.188   2.312   4.186  0.9483  2.4958 -0.0654
 4200SOL    HW224063   2.074   2.377   4.258 -0.1360 -1.9953  1.3953
 4201SOL     OW24064   0.611   4.215   6.226  0.0520  0.1673 -0.5220
 4201SOL    HW124065   0.680   4.281   6.226  1.5391 -1.4462  4.2260
 4201SOL    HW224066   0.615   4.199   6.131  2.1715 -0.8994 -0.2408
 4202SOL     OW24067   4.558   3.935   6.332 -0.1475  0.0095  0.2275
 4202SOL    HW124068   4.645   3.960   6.301 -0.0718 -0.1158  0.3375
 4202SOL    HW224069   4.585   3.846   6.355  3.3303  1.4311  1.7529
 4203SOL     OW24070   4.192   0.793   7.312  0.7642  0.1557 -0.3649
 4203SOL    HW124071   4.161   0.868   7.362 -0.2469 -1.0302  0.7907
 4203SOL    HW224072   4.110   0.749   7.289 -0.5305  3.5206 -2.0262
 4204SOL     OW24073   4.198   1.920   1.247  0.0925 -0.4623 -0.1087
 4204SOL    HW124074   4.184   1.881   1.334 -3.8093  2.2709  0.4627
 4204SOL    HW224075   4.225   2.007   1.276 -0.2090 -0.8100  1.2257
 4205SOL     OW24076   4.366   0.356   9.889 -0.2631  0.3654 -0.2086
 4205SOL    HW124077   4.453   0.340   9.926 -1.0502  0.3383  1.6653
 4205SOL    HW224078   4.379   0.449   9.868  1.6008  0.2473  0.4688
 4206SOL     OW24079   2.673   2.217  15.014 -0.5162 -0.0847 -0.1327
 4206SOL    HW124080   2.680   2.163  14.935  1.0748 -1.2457  0.7939
 4206SOL    HW224081   2.683   2.295  14.961 -2.4056 -0.4675 -1.0477
 4207SOL     OW24082   0.649   2.548   3.053  0.3233  0.4339 -0.2597
 4207SOL    HW124083   0.727   2.518   3.005  0.0763  2.7327 -2.1214
 4207SOL    HW224084   0.637   2.634   3.012  0.5507  0.6847  0.2053
 4208SOL     OW24085   4.087   3.944  11.886 -0.2240  0.4085  0.0550
 4208SOL    HW124086   4.013   3.927  11.945 -1.0315 -1.1842 -1.4220
 4208SOL    HW224087   4.089   3.866  11.831  2.5985  0.4009  0.1507
 4209SOL     OW24088   3.755   0.250   4.173  0.2232 -0.2458 -0.4187
 4209SOL    HW124089   3.703   0.182   4.215  0.2669  0.2167  0.3786
 4209SOL    HW224090   3.780   0.305   4.247  0.2865  0.4906 -0.9799
 4210SOL     OW24091   3.349   1.863  15.839 -0.1946  0.4020 -0.0189
 4210SOL    HW124092   3.384   1.951  15.851 -1.2258  1.0309 -1.5454
 4210SOL    HW224093   3.284   1.844  15.907 -0.7883  0.4564 -0.5752
 4211SOL     OW24094   2.927   3.248   3.724 -0.5310 -0.1093 -0.2195
 4211SOL    HW124095   2.854   3.186   3.727 -0.3342 -0.3887 -1.0019
 4211SOL    HW224096   2.977   3.213   3.650  0.9271  1.3384  0.0816
 4212SOL     OW24097   1.883   2.676   6.167 -0.2709 -0.1599 -0.1386
 4212SOL    HW124098   1.919   2.675   6.256  1.3747  0.7787 -0.7911
 4212SOL    HW224099   1.855   2.767   6.172  0.0367 -0.0141 -1.0563
 4213SOL     OW24100   2.591   2.577   1.501  0.3220 -0.5014  0.5824
 4213SOL    HW124101   2.670   2.531   1.531  0.9409 -0.2141 -0.6091
 4213SOL    HW224102   2.624   2.628   1.427 -1.2814 -1.2708 -0.6687
 4214SOL     OW24103   0.580   1.373   2.068  0.7069 -0.3071  0.0686
 4214SOL    HW124104   0.529   1.294   2.084  2.7692 -1.8596 -1.0203
 4214SOL    HW224105   0.596   1.397   2.159  1.2487 -0.5313  0.0365
 4215SOL     OW24106   0.052   2.173   9.220 -0.3733 -0.2193 -0.3590
 4215SOL    HW124107   4.726   2.223   9.282  0.4821  1.3626 -0.8693
 4215SOL    HW224108   0.064   2.240   9.153  1.9197 -0.4775 -0.1886
 4216SOL     OW24109   4.535   1.385  13.633 -0.1821 -0.7590 -0.0484
 4216SOL    HW124110   4.592   1.325  13.584 -2.2399 -2.1086 -0.7989
 4216SOL    HW224111   4.592   1.401  13.708 -1.0738 -1.2148  0.7129
 4217SOL     OW24112   3.397   1.030   6.180  0.1187  0.0920 -0.1368
 4217SOL    HW124113   3.412   1.124   6.192 -0.9631  0.2915 -0.3681
 4217SOL    HW224114   3.373   1.038   6.088  1.3698 -2.2835 -0.6716
 4218SOL     OW24115   1.652   0.270  16.855 -0.2629 -0.2467 -0.1011
 4218SOL    HW124116   1.609   0.234  16.934 -1.5738  2.8915  0.6123
 4218SOL    HW224117   1.679   0.356  16.885  0.5974 -0.4459 -0.3189
 4219SOL     OW24118   0.089   2.462  11.687  0.2443 -0.1743  0.3502
 4219SOL    HW124119   0.163   2.404  11.705 -0.1768 -0.4328  1.2339
 4219SOL    HW224120   0.058   2.478  11.776  0.7953 -0.2119  0.5528
 4220SOL     OW24121   1.389   3.310   0.985  0.2345  0.0193  0.0504
 4220SOL    HW124122   1.480   3.308   1.015  0.5626  2.1075 -0.7999
 4220SOL    HW224123   1.405   3.347   0.898  0.0716 -0.4321 -0.1743
 4221SOL     OW24124   4.101   4.651   7.379 -0.0403  0.3345 -0.6547
 4221SOL    HW124125   4.101   4.632   7.286  0.0785 -0.9336 -0.3973
 4221SOL    HW224126   4.196   4.653   7.387 -0.0002  0.3274 -1.1296
 4222SOL     OW24127   4.014   1.114   9.503  0.0429  0.1550 -0.0332
 4222SOL    HW124128   3.932   1.158   9.484  1.0427  1.4363 -1.3861
 4222SOL    HW224129   4.045   1.178   9.566  1.0428 -0.9432  0.5907
 4223SOL     OW24130   4.196   0.905   1.920 -0.1481  0.1451  0.3616
 4223SOL    HW124131   4.118   0.885   1.867  0.1077 -3.8485  1.5244
 4223SOL    HW224132   4.264   0.913   1.853 -0.6497 -0.1946 -0.1989
 4224SOL     OW24133   3.917   0.711   7.290 -0.1435 -0.4750  0.3284
 4224SOL    HW124134   3.870   0.776   7.237  1.1975  0.3515  0.1422
 4224SOL    HW224135   3.858   0.703   7.364 -1.2002 -0.9909 -0.5719
 4225SOL     OW24136   2.902   4.062   7.022  0.0785  0.0770 -0.2136
 4225SOL    HW124137   2.970   4.099   7.077 -0.3489 -0.2347  0.5249
 4225SOL    HW224138   2.872   3.991   7.078  1.5834 -1.5797 -1.4865
 4226SOL     OW24139   0.203   2.245   6.112 -0.4678 -0.3364 -0.0605
 4226SOL    HW124140   0.214   2.211   6.201 -1.4756  1.8877  0.8851
 4226SOL    HW224141   0.135   2.182   6.089 -0.1945 -0.5648 -0.2524
 4227SOL     OW24142   3.875   0.946  13.918 -0.1332 -0.3582  0.6051
 4227SOL    HW124143   3.786   0.931  13.950 -0.8023 -1.9021 -1.9697
 4227SOL    HW224144   3.904   1.026  13.962 -0.6811 -0.0689  0.4482
 4228SOL     OW24145   3.040   2.871   6.747 -0.9869  0.1333  0.0032
 4228SOL    HW124146   3.120   2.848   6.794 -1.2868  0.6763  0.7950
 4228SOL    HW224147   3.054   2.842   6.657 -0.9914 -0.1090  0.0819
 4229SOL     OW24148   3.647   4.656  10.416  0.0219 -0.6171 -0.0309
 4229SOL    HW124149   3.596   4.575  10.423  0.7087 -0.8821  1.6871
 4229SOL    HW224150   3.631   4.679  10.507 -1.4513 -0.4846 -0.3209
 4230SOL     OW24151   4.112   0.806   5.447  0.1392  0.1985  0.4917
 4230SOL    HW124152   4.154   0.774   5.527 -1.3141 -2.3664  0.2221
 4230SOL    HW224153   4.094   0.718   5.415 -0.3862  0.6348 -0.3978
 4231SOL     OW24154   2.748   3.636   8.276  0.4309  0.2541 -0.0499
 4231SOL    HW124155   2.802   3.634   8.355  0.0697  0.3528  0.2028
 4231SOL    HW224156   2.807   3.677   8.213  0.7599  0.5123  0.4273
 4232SOL     OW24157   3.663   2.518  17.711 -0.0413  0.3584 -0.1201
 4232SOL    HW124158   3.621   2.442   0.035  2.6596 -0.5731  0.9714
 4232SOL    HW224159   3.669   2.489  17.620 -0.4799 -0.0716 -0.0108
 4233SOL     OW24160   4.103   0.232   5.549 -0.1654 -0.6637 -0.4619
 4233SOL    HW124161   4.193   0.255   5.573 -0.1838 -1.7784  0.6607
 4233SOL    HW224162   4.092   0.296   5.479 -1.2425 -1.9581 -1.4844
 4234SOL     OW24163   0.956   1.592   0.741  0.0062 -0.4325 -0.4448
 4234SOL    HW124164   0.899   1.653   0.694 -1.2500 -0.1552  1.4285
 4234SOL    HW224165   0.893   1.567   0.809  0.0219  0.4179 -0.1226
 4235SOL     OW24166   1.279   3.179   5.099  0.4562  0.6841 -0.0119
 4235SOL    HW124167   1.291   3.210   5.189 -1.2472  1.2669  0.0220
 4235SOL    HW224168   1.309   3.254   5.048  0.2114  0.9862  0.2824
 4236SOL     OW24169   0.718   1.490   5.157 -0.2436  0.2447 -0.5438
 4236SOL    HW124170   0.778   1.470   5.228  1.2125  0.0147 -1.8321
 4236SOL    HW224171   0.774   1.448   5.091 -0.9897  1.1505 -1.7468
 4237SOL     OW24172   0.018   4.447   6.897  0.1177  0.3127 -0.0866
 4237SOL    HW124173   0.000   4.408   6.811 -2.6479  0.1916  0.5588
 4237SOL    HW224174   0.096   4.393   6.910 -0.1096 -0.5161 -2.1027
 4238SOL     OW24175   0.325   2.034   4.143  0.3176 -0.3984  0.0951
 4238SOL    HW124176   0.256   2.070   4.199 -1.6603 -1.2502 -1.8082
 4238SOL    HW224177   0.313   2.090   4.066  2.3733  0.3409  0.3076
 4239SOL     OW24178   0.174   0.534   7.078  0.3290  0.1360  0.1542
 4239SOL    HW124179   0.211   0.621   7.084  0.9403 -0.0203 -1.5128
 4239SOL    HW224180   0.118   0.547   7.155  0.1577 -0.6835  0.1694
 4240SOL     OW24181   0.970   2.692  13.677  0.3962 -0.1658  0.2227
 4240SOL    HW124182   1.060   2.659  13.687  0.6429  0.9208  1.5446
 4240SOL    HW224183   0.931   2.628  13.737  2.6339 -0.9659  0.8625
 4241SOL     OW24184   0.470   0.164   2.565 -0.3488 -0.0754  0.0117
 4241SOL    HW124185   0.408   0.163   2.492  0.2625 -1.8141 -0.4817
 4241SOL    HW224186   0.524   0.240   2.543 -0.4778  0.5303  1.7941
 4242SOL     OW24187   4.662   1.146   1.253 -0.2643 -0.2830  0.3808
 4242SOL    HW124188   4.611   1.157   1.173 -1.9261  0.3270  1.5252
 4242SOL    HW224189   0.021   1.145   1.216 -0.5812 -1.6312 -0.3616
 4243SOL     OW24190   4.158   1.642   3.913  0.0590 -0.1971  0.0369
 4243SOL    HW124191   4.099   1.688   3.972 -1.3055 -0.3347 -1.2241
 4243SOL    HW224192   4.118   1.676   3.833  0.5736  0.5654  0.1019
 4244SOL     OW24193   1.608   2.430   3.658  0.1055  0.5654  0.6550
 4244SOL    HW124194   1.643   2.341   3.646 -2.1306 -0.5172  2.2792
 4244SOL    HW224195   1.595   2.412   3.751  2.1100 -1.7150  0.5124
 4245SOL     OW24196   1.368   4.554  15.401 -0.5618  0.4670  0.9347
 4245SOL    HW124197   1.401   4.644  15.399 -1.3758  0.7843  1.9488
 4245SOL    HW224198   1.365   4.535  15.495 -2.0889  0.0466  0.7946
 4246SOL     OW24199   0.914   2.192   6.767  0.1551 -0.2470 -0.1866
 4246SOL    HW124200   0.875   2.222   6.685 -0.6585  0.5493  0.4952
 4246SOL    HW224201   0.988   2.138   6.738  1.2832  0.8789  0.5746
 4247SOL     OW24202   2.317   0.881   3.589  0.1148  0.0291  0.1266
 4247SOL    HW124203   2.221   0.887   3.585 -0.1395 -1.3862  3.5631
 4247SOL    HW224204   2.339   0.930   3.669  0.6691  0.8490 -0.5323
 4248SOL     OW24205   2.551   3.456   0.755 -0.2015 -0.3147 -0.0490
 4248SOL    HW124206   2.556   3.407   0.837  0.0141 -1.1693 -0.5738
 4248SOL    HW224207   2.487   3.522   0.781  1.3430  1.4367 -0.7057
 4249SOL     OW24208   3.759   0.156  17.235  0.4680 -0.1107 -0.3852
 4249SOL    HW124209   3.690   0.122  17.293  0.7075  3.1512  1.7988
 4249SOL    HW224210   3.746   0.100  17.158  1.0343  1.1697 -1.4215
 4250SOL     OW24211   3.143   4.548  11.368 -1.0179  0.2504 -0.4463
 4250SOL    HW124212   3.069   4.499  11.332 -0.5874  0.9134 -2.2505
 4250SOL    HW224213   3.139   4.525  11.461 -1.4273  0.7542 -0.3397
 4251SOL     OW24214   1.066   0.404  16.200  0.6767  0.2143  0.1659
 4251SOL    HW124215   1.029   0.317  16.215  0.1898  0.6113  1.2508
 4251SOL    HW224216   0.993   0.465  16.208  0.5076 -0.3023  2.5494
 4252SOL     OW24217   3.425   0.247  10.972  0.5550  0.2978  0.2551
 4252SOL    HW124218   3.499   0.307  10.967  2.3558 -1.9456  0.3471
 4252SOL    HW224219   3.355   0.301  11.011  1.1199  1.3606 -0.2190
 4253SOL     OW24220   2.566   2.357   6.622 -0.3689  0.6525 -0.5776
 4253SOL    HW124221   2.562   2.445   6.583  2.2669  1.3955  0.7371
 4253SOL    HW224222   2.594   2.311   6.543  0.9219  0.7720 -0.1978
 4254SOL     OW24223   1.040   3.743   6.764 -0.7549 -0.5454  0.3265
 4254SOL    HW124224   0.984   3.818   6.782 -0.2833  0.3263 -1.8795
 4254SOL    HW224225   1.020   3.690   6.841  2.1038 -0.5715  1.0595
 4255SOL     OW24226   2.430   2.860   8.014 -0.3341  0.5585  0.0985
 4255SOL    HW124227   2.353   2.803   8.014  0.6124 -0.7000  0.9642
 4255SOL    HW224228   2.386   2.934   8.056  0.8416  1.0566  0.4386
 4256SOL     OW24229   1.305   4.407   7.179  0.6007  0.0028  0.1704
 4256SOL    HW124230   1.362   4.483   7.183 -1.1693  1.2401  1.7668
 4256SOL    HW224231   1.221   4.450   7.195 -0.3228 -2.1039  1.0746
 4257SOL     OW24232   3.145   4.065   1.922  0.0313  0.2472 -0.1334
 4257SOL    HW124233   3.113   4.069   2.012  3.2801 -0.9417  1.0700
 4257SOL    HW224234   3.148   3.969   1.916 -2.4512  0.2830 -1.9968
 4258SOL     OW24235   2.964   1.042   0.829  0.1765 -0.2186 -0.3727
 4258SOL    HW124236   2.893   1.107   0.825  1.7339  1.5280  0.8838
 4258SOL    HW224237   2.941   0.987   0.754 -0.5606 -0.6313  0.1618
 4259SOL     OW24238   2.981   0.570  11.835  0.3427  0.0618 -0.1268
 4259SOL    HW124239   2.961   0.642  11.774  0.2657 -0.3722 -0.6111
 4259SOL    HW224240   2.932   0.590  11.915  1.4604  0.7595  0.3940
 4260SOL     OW24241   0.696   1.097   5.367  0.2505 -0.2906 -0.1154
 4260SOL    HW124242   0.642   1.085   5.289  1.3126 -0.6608 -0.7991
 4260SOL    HW224243   0.627   1.117   5.430 -1.0756 -1.2106 -1.2524
 4261SOL     OW24244   4.270   0.723   1.646 -0.2012  0.0426  0.4078
 4261SOL    HW124245   4.197   0.761   1.598  0.8092 -0.9824 -1.8986
 4261SOL    HW224246   4.311   0.805   1.674 -0.2814 -0.0920  0.9270
 4262SOL     OW24247   0.019   1.027   8.715 -0.6693  0.4305 -0.1946
 4262SOL    HW124248   4.672   0.992   8.667 -2.1431  1.3723  1.4668
 4262SOL    HW224249   4.708   1.108   8.747 -1.7263 -0.5327  0.9216
 4263SOL     OW24250   4.166   3.117  10.548  0.1381 -0.3755 -0.1526
 4263SOL    HW124251   4.254   3.121  10.586 -1.2100  0.1725  2.9103
 4263SOL    HW224252   4.187   3.154  10.463 -1.5992 -1.3665 -1.0073
 4264SOL     OW24253   3.730   1.094   8.084 -0.6637  0.1433  0.1115
 4264SOL    HW124254   3.727   1.187   8.104 -1.3543 -0.1227  1.2724
 4264SOL    HW224255   3.752   1.051   8.167 -0.9847  1.7522  1.0275
 4265SOL     OW24256   4.274   2.392  13.398  0.4235  0.1871  0.8273
 4265SOL    HW124257   4.200   2.451  13.384 -0.9432 -1.5546  0.6803
 4265SOL    HW224258   4.236   2.304  13.391 -0.1670  0.6644 -1.9043
 4266SOL     OW24259   4.414   0.206   5.343  0.1462  0.2362  0.0971
 4266SOL    HW124260   4.476   0.279   5.339  2.2602 -1.6267 -1.0531
 4266SOL    HW224261   4.411   0.182   5.250 -0.7102  1.3836 -0.1657
 4267SOL     OW24262   0.565   0.707  15.892  0.3113  0.3138  0.2630
 4267SOL    HW124263   0.573   0.767  15.966 -0.0375 -0.8913  1.2810
 4267SOL    HW224264   0.649   0.711  15.847 -0.5055 -0.3768 -1.3380
 4268SOL     OW24265   1.190   3.645  12.237  0.4181 -0.7455  0.1847
 4268SOL    HW124266   1.193   3.717  12.300 -0.2493 -0.6435  0.1043
 4268SOL    HW224267   1.258   3.590  12.275  1.5093  0.8131  0.4674
 4269SOL     OW24268   4.562   3.476  16.933  0.0421 -0.4838 -0.1248
 4269SOL    HW124269   4.470   3.496  16.918 -0.1167 -0.4560  0.8806
 4269SOL    HW224270   4.585   3.544  16.997 -0.7310 -1.1229  0.8434
 4270SOL     OW24271   2.756   2.362   5.366  0.0748  0.4277  0.2927
 4270SOL    HW124272   2.707   2.317   5.297 -0.0010  0.8329  0.0836
 4270SOL    HW224273   2.835   2.363   5.312 -0.3695  2.9454 -0.2828
 4271SOL     OW24274   3.021   0.896   7.209  0.4800  0.0049  0.1985
 4271SOL    HW124275   3.033   0.825   7.272 -0.1288  0.1315  0.4647
 4271SOL    HW224276   3.111   0.896   7.178 -0.5876 -2.4909 -2.8561
 4272SOL     OW24277   2.470   1.026   3.376 -0.2776  0.0677  0.3640
 4272SOL    HW124278   2.417   1.104   3.360 -0.4583 -0.0928  0.1844
 4272SOL    HW224279   2.442   1.014   3.467  1.2997 -0.7557  0.7341
 4273SOL     OW24280   4.442   4.670   6.700 -0.5493 -0.2993  0.7432
 4273SOL    HW124281   4.451   4.620   6.619  0.1108 -1.5837  1.5967
 4273SOL    HW224282   4.485   0.022   6.674 -0.8276 -1.2890 -2.7106
 4274SOL     OW24283   3.231   3.273   7.347  0.0759 -0.1284 -0.2369
 4274SOL    HW124284   3.189   3.284   7.433 -0.4351  0.4370 -0.5575
 4274SOL    HW224285   3.264   3.183   7.346  2.6227  0.8118  0.6151
 4275SOL     OW24286   3.014   0.504   7.679 -0.0118  0.3982  0.0456
 4275SOL    HW124287   3.000   0.597   7.664 -1.3583  0.5225  2.1392
 4275SOL    HW224288   3.024   0.471   7.590 -0.2181 -1.2182  0.6182
 4276SOL     OW24289   3.177   2.311   5.717  0.0039  0.3269 -0.1385
 4276SOL    HW124290   3.253   2.264   5.750 -1.4307 -1.8128  0.1244
 4276SOL    HW224291   3.124   2.327   5.795  1.7767  3.6774  0.3721
 4277SOL     OW24292   3.331   2.206   3.948  0.7286  0.2264 -0.4428
 4277SOL    HW124293   3.284   2.155   3.883 -1.6572 -0.0186  1.4951
 4277SOL    HW224294   3.422   2.176   3.943  0.2955 -0.9611 -1.0962
 4278SOL     OW24295   3.303   1.777   6.416  0.4374 -0.2083 -0.5080
 4278SOL    HW124296   3.393   1.785   6.449  0.3877  1.0599 -0.6911
 4278SOL    HW224297   3.319   1.763   6.322 -2.7489 -2.1211 -0.7614
 4279SOL     OW24298   3.495   0.805   8.364 -0.4513 -0.0792 -0.2009
 4279SOL    HW124299   3.489   0.850   8.448 -2.0774 -0.3062 -0.2020
 4279SOL    HW224300   3.413   0.756   8.368 -0.2514 -0.4728 -0.9174
 4280SOL     OW24301   2.351   1.569  17.629  0.1854 -0.3661  0.2607
 4280SOL    HW124302   2.373   1.585  17.537 -1.3150  1.1908  0.1716
 4280SOL    HW224303   2.433   1.578  17.679  1.6862  3.8591 -2.9284
 4281SOL     OW24304   3.262   4.206   1.458  0.2807  0.1537 -0.3187
 4281SOL    HW124305   3.348   4.238   1.432 -0.8595  0.8640 -3.2681
 4281SOL    HW224306   3.247   4.252   1.540  0.3907  0.7388 -0.6241
 4282SOL     OW24307   4.700   1.981   7.370  0.6823 -0.4674 -0.1928
 4282SOL    HW124308   4.619   1.962   7.418  0.1357  0.3592 -0.7812
 4282SOL    HW224309   4.670   1.967   7.280 -0.5070  0.0135  0.1276
 4283SOL     OW24310   2.572   0.841   6.898  0.0185  0.0021 -0.6295
 4283SOL    HW124311   2.662   0.814   6.913 -0.5972 -1.8291 -0.1676
 4283SOL    HW224312   2.573   0.830   6.803  2.1986 -1.3741 -0.4342
 4284SOL     OW24313   1.911   2.926   7.771 -0.3363 -0.5431  0.1122
 4284SOL    HW124314   1.817   2.939   7.757 -0.6065 -2.4958  0.1017
 4284SOL    HW224315   1.937   2.878   7.693  0.5149  1.0995 -0.6226
 4285SOL     OW24316   3.106   4.388  12.911 -0.2145 -0.4551 -0.0935
 4285SOL    HW124317   3.200   4.408  12.905  0.2068 -1.8665  1.8586
 4285SOL    HW224318   3.061   4.468  12.885 -0.2523  0.1858  1.9120
 4286SOL     OW24319   1.026   3.055   7.830 -0.5281  0.2842  0.2599
 4286SOL    HW124320   0.972   3.094   7.761 -2.2171  2.3500  2.7874
 4286SOL    HW224321   1.066   2.984   7.778 -1.6514 -0.5547  0.5452
 4287SOL     OW24322   2.967   0.131   5.816  0.3544 -0.5496  0.3309
 4287SOL    HW124323   3.015   0.106   5.737 -1.0122  1.0876 -1.0182
 4287SOL    HW224324   2.976   0.046   5.860 -3.1405 -0.7206  0.7018
 4288SOL     OW24325   3.544   3.011   2.833  0.0264  0.2542 -0.1437
 4288SOL    HW124326   3.551   2.968   2.918 -1.5110 -2.2509 -1.2707
 4288SOL    HW224327   3.575   3.096   2.865 -0.8964 -0.1097  1.7135
 4289SOL     OW24328   0.027   3.646  10.063  0.3892 -0.2016  0.4862
 4289SOL    HW124329   0.112   3.676  10.032  1.3766 -1.9059  1.5179
 4289SOL    HW224330   0.039   3.556  10.093 -0.6922  0.1499  2.0213
 4290SOL     OW24331   4.098   2.592  11.267  0.0760 -0.5985  0.3276
 4290SOL    HW124332   4.167   2.575  11.203 -2.1759 -1.4071 -1.8906
 4290SOL    HW224333   4.160   2.630  11.329 -1.6347  0.7905  1.2061
 4291SOL     OW24334   2.315   2.733  17.164 -0.0769 -0.5192 -0.8047
 4291SOL    HW124335   2.219   2.729  17.165 -0.0011 -2.0433  0.1430
 4291SOL    HW224336   2.328   2.814  17.212 -0.7554 -0.4918 -0.6709
 4292SOL     OW24337   4.020   1.653  14.718 -0.3865  0.4296  0.3834
 4292SOL    HW124338   3.938   1.652  14.670  0.0711 -0.6935 -0.3729
 4292SOL    HW224339   3.988   1.666  14.807  0.5372 -2.7954  1.1992
 4293SOL     OW24340   0.917   4.224  12.198  0.2583  0.0519 -0.1845
 4293SOL    HW124341   0.950   4.309  12.172  0.4354  0.6666  2.0557
 4293SOL    HW224342   0.978   4.160  12.162 -1.5548 -0.6383 -1.9952
 4294SOL     OW24343   3.878   3.180  14.369  0.0970  0.1551  0.2520
 4294SOL    HW124344   3.836   3.200  14.286  1.6001  2.2065 -0.0059
 4294SOL    HW224345   3.879   3.264  14.416  0.3427 -0.0162  0.5552
 4295SOL     OW24346   0.344   0.357  10.021  0.0701  0.1405  0.4358
 4295SOL    HW124347   0.423   0.308  10.045 -0.7296 -0.6043  1.5364
 4295SOL    HW224348   0.386   0.443  10.028 -0.8060  0.4211  2.2508
 4296SOL     OW24349   4.461   3.775   7.066 -0.2021 -0.4772  0.0719
 4296SOL    HW124350   4.423   3.818   6.989  2.3150  1.5888 -0.0256
 4296SOL    HW224351   4.399   3.802   7.133 -0.6825 -2.3077  0.3613
 4297SOL     OW24352   2.020   4.082   0.776  0.2980 -0.3165 -0.2016
 4297SOL    HW124353   1.957   4.059   0.845  1.1195 -0.4733  0.4950
 4297SOL    HW224354   1.981   4.043   0.697 -1.6073 -1.0000  1.0662
 4298SOL     OW24355   0.546   1.441  16.554 -1.0465 -0.5151 -0.0280
 4298SOL    HW124356   0.560   1.347  16.565  3.1682  0.0904 -0.0900
 4298SOL    HW224357   0.477   1.459  16.619 -0.5066 -2.0081  0.9517
 4299SOL     OW24358   3.792   3.401   4.848  0.4539  1.0342  0.5925
 4299SOL    HW124359   3.776   3.374   4.939 -1.6594  0.2991 -0.0012
 4299SOL    HW224360   3.758   3.490   4.857  0.7494  1.0649  1.3835
 4300SOL     OW24361   3.131   3.735  11.414 -0.2495 -0.5561  0.7887
 4300SOL    HW124362   3.071   3.769  11.347 -0.3946  1.0257  1.7206
 4300SOL    HW224363   3.129   3.640  11.400  2.6187 -0.7814  1.9721
 4301SOL     OW24364   0.965   2.094   0.152  0.6554  0.5246  0.1936
 4301SOL    HW124365   0.872   2.079   0.136 -0.1995  1.9962  3.6203
 4301SOL    HW224366   0.975   2.107   0.247 -0.5204  3.9206 -0.1755
 4302SOL     OW24367   4.561   2.539  16.366 -0.9229  0.4529  0.1876
 4302SOL    HW124368   4.618   2.480  16.415 -3.6366 -0.7640  1.8623
 4302SOL    HW224369   4.481   2.487  16.358 -2.0684  1.7116  3.5317
 4303SOL     OW24370   4.443   1.020   9.236 -0.3064  0.1560  0.1736
 4303SOL    HW124371   4.524   0.970   9.228 -0.6135 -0.0793 -1.5773
 4303SOL    HW224372   4.423   0.985   9.323  1.6116  2.1233  1.3945
 4304SOL     OW24373   0.429   2.832  13.062  0.0993 -0.2228  0.2673
 4304SOL    HW124374   0.504   2.846  13.119 -0.3358  1.5379  0.3920
 4304SOL    HW224375   0.423   2.737  13.050  2.1830 -0.0379 -2.0834
 4305SOL     OW24376   3.872   3.061   5.683  0.2555  0.2739  0.3814
 4305SOL    HW124377   3.919   3.130   5.635  0.7794 -0.8955 -0.7958
 4305SOL    HW224378   3.793   3.105   5.715  0.1016 -0.5706  1.1572
 4306SOL     OW24379   3.997   2.060   4.829  0.1307 -0.1124  0.0865
 4306SOL    HW124380   4.016   2.056   4.923 -2.0661  0.0972  0.5438
 4306SOL    HW224381   4.068   2.002   4.800  0.6918  1.3967 -1.5060
 4307SOL     OW24382   4.579   1.581   7.653 -0.3774  0.1526 -0.3487
 4307SOL    HW124383   4.592   1.649   7.719  2.3497 -1.3862  0.7159
 4307SOL    HW224384   4.516   1.519   7.689  1.1727 -0.2692  1.6249
 4308SOL     OW24385   3.938   1.665   5.095  0.1602 -0.2253  0.0036
 4308SOL    HW124386   4.001   1.596   5.118 -0.9100 -1.5372 -1.0605
 4308SOL    HW224387   3.954   1.736   5.158  4.0745 -3.1207  2.3054
 4309SOL     OW24388   2.282   4.703  13.643  0.3748  0.4018  0.1950
 4309SOL    HW124389   2.377   4.707  13.629  0.1625  1.6240 -0.9343
 4309SOL    HW224390   2.263   4.664  13.557 -0.7189  1.6292 -0.1186
 4310SOL     OW24391   4.441   0.343   2.667  0.9933 -0.1366  0.0715
 4310SOL    HW124392   4.467   0.275   2.729 -1.7234 -0.7592  0.5389
 4310SOL    HW224393   4.433   0.286   2.591 -0.1801 -1.9565  1.5613
 4311SOL     OW24394   4.705   1.944   9.062 -0.1084  1.0119 -0.4315
 4311SOL    HW124395   0.069   1.921   9.064 -0.5184 -0.4908  1.5549
 4311SOL    HW224396   4.713   2.039   9.075 -0.5889  0.9339  0.4475
 4312SOL     OW24397   1.130   2.286   8.800  0.0329  0.3358 -0.0834
 4312SOL    HW124398   1.091   2.240   8.874 -0.9326  0.0807 -0.7458
 4312SOL    HW224399   1.118   2.377   8.829  0.3701 -0.5556  2.7952
 4313SOL     OW24400   3.462   1.260   8.312 -0.3152 -0.2596 -0.1396
 4313SOL    HW124401   3.546   1.215   8.317  0.4729  1.2727  0.6129
 4313SOL    HW224402   3.487   1.351   8.299 -0.2110 -0.1172  1.0637
 4314SOL     OW24403   2.415   1.801   3.727 -0.0387 -0.1276 -0.3944
 4314SOL    HW124404   2.336   1.828   3.680 -0.5860 -0.3513  0.4060
 4314SOL    HW224405   2.451   1.736   3.666 -0.9507 -0.1201 -0.9336
 4315SOL     OW24406   2.368   2.431   4.286 -0.4569  0.3146  0.1378
 4315SOL    HW124407   2.403   2.358   4.236 -1.3023 -0.3527  0.5365
 4315SOL    HW224408   2.391   2.421   4.379 -0.6798  2.4945  0.4424
 4316SOL     OW24409   0.204   3.331   4.345  0.1805 -0.5645 -0.2539
 4316SOL    HW124410   0.285   3.308   4.391  0.7970  1.9338 -0.0702
 4316SOL    HW224411   0.166   3.411   4.382  2.3864  0.3798 -0.0461
 4317SOL     OW24412   3.602   3.480  12.765 -0.0142  1.0590 -0.0624
 4317SOL    HW124413   3.541   3.518  12.829 -1.1594 -0.9867  0.0700
 4317SOL    HW224414   3.588   3.387  12.781 -3.5949  1.9707  2.2184
 4318SOL     OW24415   3.510   0.657   5.460 -0.1701 -0.0730  1.0876
 4318SOL    HW124416   3.590   0.678   5.508 -0.0234 -1.9930  1.6950
 4318SOL    HW224417   3.549   0.634   5.376 -2.9825 -0.3803 -0.1462
 4319SOL     OW24418   0.728   1.173  15.066 -0.0370 -0.3197 -0.2795
 4319SOL    HW124419   0.699   1.109  15.001 -1.0697  0.3499 -0.4671
 4319SOL    HW224420   0.691   1.136  15.146  1.1369  2.0254  1.3498
 4320SOL     OW24421   1.115   0.197   3.717  0.2191 -0.7071 -0.0797
 4320SOL    HW124422   1.144   0.213   3.628 -0.3145 -2.6549 -0.5984
 4320SOL    HW224423   1.177   0.249   3.768  0.2061  1.1759 -1.9711
 4321SOL     OW24424   1.625   1.195   3.981  0.4660  0.1183  0.5889
 4321SOL    HW124425   1.565   1.257   4.022 -0.5561 -1.7518  1.8854
 4321SOL    HW224426   1.583   1.165   3.900 -0.6295  4.7556 -0.5644
 4322SOL     OW24427   3.339   4.198   4.413 -0.4798  0.0667  0.4012
 4322SOL    HW124428   3.410   4.149   4.455 -0.3210 -0.8922 -1.0000
 4322SOL    HW224429   3.269   4.133   4.420 -0.5552  0.1435  0.3579
 4323SOL     OW24430   3.299   4.004  16.363  0.3279 -0.2353  0.3920
 4323SOL    HW124431   3.241   3.934  16.393 -0.5879  0.8761  1.2452
 4323SOL    HW224432   3.346   4.036  16.441  0.8839 -1.2751  0.4829
 4324SOL     OW24433   4.104   0.489   3.530 -0.1352  0.3312 -0.2632
 4324SOL    HW124434   4.168   0.557   3.548  0.4558 -0.8089  1.9810
 4324SOL    HW224435   4.065   0.487   3.618  2.4545  2.7277  0.9363
 4325SOL     OW24436   3.658   2.643   7.963  0.6924  0.5284  0.9873
 4325SOL    HW124437   3.668   2.720   7.907  0.5269  0.0037  0.2353
 4325SOL    HW224438   3.629   2.686   8.044  0.0492  3.2593 -0.7031
 4326SOL     OW24439   3.376   1.463  16.117 -0.0923 -0.0686 -0.2314
 4326SOL    HW124440   3.421   1.536  16.074 -0.9185  1.0641  0.8369
 4326SOL    HW224441   3.437   1.444  16.190 -1.2414  0.4219  0.8555
 4327SOL     OW24442   0.741   4.472   7.311  0.5279 -0.2058  0.4926
 4327SOL    HW124443   0.731   4.441   7.401 -0.1262  1.4812  0.9926
 4327SOL    HW224444   0.800   4.401   7.285 -0.9089 -0.3348 -2.5561
 4328SOL     OW24445   0.241   4.263   6.830  0.5503  0.1325  0.0248
 4328SOL    HW124446   0.202   4.194   6.884 -1.4885  0.8681 -0.5068
 4328SOL    HW224447   0.330   4.253   6.864  0.6830  2.4424  0.3079
 4329SOL     OW24448   1.502   4.393   5.106  0.2429  0.3531 -0.0976
 4329SOL    HW124449   1.556   4.448   5.049  2.3776 -1.0650  0.5561
 4329SOL    HW224450   1.575   4.334   5.125  1.7028  2.6285  1.3931
 4330SOL     OW24451   0.473   4.717   3.691 -1.2049 -0.0801 -0.5518
 4330SOL    HW124452   0.531   4.641   3.691 -0.8576  0.1883 -1.4797
 4330SOL    HW224453   0.384   4.680   3.691 -0.5294 -1.6875 -0.9971
 4331SOL     OW24454   0.694   3.451  10.805 -0.5779 -0.0472 -0.2506
 4331SOL    HW124455   0.632   3.519  10.831  0.5188  0.7290  0.3461
 4331SOL    HW224456   0.654   3.370  10.835 -0.3720 -0.3160 -0.7042
 4332SOL     OW24457   0.844   3.907   7.000 -0.0831  0.4094 -0.2128
 4332SOL    HW124458   0.767   3.917   6.944 -0.2265  0.7801  0.0507
 4332SOL    HW224459   0.849   3.995   7.036  1.9498 -0.5361  1.8007
 4333SOL     OW24460   1.025   1.175  16.767  0.6422  0.0339  0.2018
 4333SOL    HW124461   1.059   1.225  16.841  0.8824  0.0245  0.0983
 4333SOL    HW224462   0.957   1.235  16.736 -0.0982 -0.0124  1.7226
 4334SOL     OW24463   2.706   2.571  13.280 -0.0576  0.4744  0.0958
 4334SOL    HW124464   2.718   2.663  13.257 -1.2052  0.5448 -0.2187
 4334SOL    HW224465   2.781   2.531  13.237 -0.7849 -1.3796  0.5311
 4335SOL     OW24466   3.089   3.395   3.887 -0.1391 -0.0171  0.6376
 4335SOL    HW124467   3.018   3.349   3.842  1.0056  0.4179 -1.5941
 4335SOL    HW224468   3.094   3.357   3.975  1.8134  0.8132  0.8848
 4336SOL     OW24469   2.259   1.802  15.340  0.1681  0.0635 -0.1787
 4336SOL    HW124470   2.186   1.741  15.339  1.4002 -1.4153 -0.4796
 4336SOL    HW224471   2.273   1.828  15.249 -1.0670  0.4681 -0.2543
 4337SOL     OW24472   2.067   4.023   2.022 -0.0331  0.1991 -0.4585
 4337SOL    HW124473   2.115   4.041   2.103 -0.9329 -2.0363  0.5673
 4337SOL    HW224474   2.131   4.000   1.954  0.3995 -1.7288  0.6032
 4338SOL     OW24475   4.263   0.205   5.086 -0.2793 -0.6723 -0.6592
 4338SOL    HW124476   4.275   0.110   5.086  2.4235 -0.3159  1.7839
 4338SOL    HW224477   4.168   0.201   5.074 -0.5680  2.2184  0.6341
 4339SOL     OW24478   2.787   2.866  10.551 -0.0461  0.0259  0.0951
 4339SOL    HW124479   2.829   2.802  10.608 -1.4523 -0.1184  0.9532
 4339SOL    HW224480   2.758   2.926  10.618 -0.9553 -1.4104  0.9847
 4340SOL     OW24481   4.422   3.011   4.637  0.4498 -0.2158  0.5745
 4340SOL    HW124482   4.498   2.953   4.641  1.0619  0.5363 -0.2520
 4340SOL    HW224483   4.351   2.946   4.640  1.3683 -1.2813 -0.5476
 4341SOL     OW24484   1.010   4.200  12.458  0.0718  0.0429 -0.0339
 4341SOL    HW124485   0.989   4.208  12.365  0.7539 -0.8897 -0.2632
 4341SOL    HW224486   0.983   4.111  12.481  1.2010 -0.2261  0.2591
 4342SOL     OW24487   2.081   1.368   8.077 -0.2493  0.5126  0.2828
 4342SOL    HW124488   2.070   1.360   8.172  0.1937 -0.4038  0.2478
 4342SOL    HW224489   2.002   1.417   8.054 -0.5817  0.5321  1.4367
 4343SOL     OW24490   3.062   4.446  11.618  0.2194 -0.1664  0.0406
 4343SOL    HW124491   3.040   4.354  11.634 -3.9733  1.0339  0.9459
 4343SOL    HW224492   2.994   4.498  11.659  0.8111 -0.8540  1.8692
 4344SOL     OW24493   1.606   0.714  12.749  0.5091  0.5649  0.2403
 4344SOL    HW124494   1.612   0.809  12.739 -1.3046  0.7204  0.7484
 4344SOL    HW224495   1.675   0.689  12.687 -0.1002 -0.6205  0.0500
 4345SOL     OW24496   4.712   0.241  16.344 -0.1586  0.3140 -0.1404
 4345SOL    HW124497   0.018   0.185  16.275 -2.0421  0.1032 -0.9070
 4345SOL    HW224498   0.062   0.293  16.361 -0.8364  1.8186 -1.6050
 4346SOL     OW24499   2.169   1.077   9.662 -0.2812  0.0784 -0.1072
 4346SOL    HW124500   2.147   1.059   9.570  0.3944  1.4917 -0.5545
 4346SOL    HW224501   2.110   1.151   9.680 -1.4361 -1.1939  1.3027
 4347SOL     OW24502   1.018   3.669  11.775 -0.1894 -1.2225 -0.6940
 4347SOL    HW124503   1.083   3.664  11.845 -0.2123 -1.5286 -0.6955
 4347SOL    HW224504   1.075   3.651  11.700 -0.5624 -1.3027 -0.9575
 4348SOL     OW24505   0.357   2.040  14.588  0.4303 -0.5700  0.2555
 4348SOL    HW124506   0.309   1.969  14.630 -1.5844  0.8898  0.4253
 4348SOL    HW224507   0.397   2.075  14.668 -0.9150  0.1507  0.6188
 4349SOL     OW24508   0.384   0.714   6.068  0.3431  0.2322  0.4703
 4349SOL    HW124509   0.443   0.789   6.069  1.3864 -0.5407 -1.8086
 4349SOL    HW224510   0.349   0.724   5.979  1.1371  0.4607  0.1846
 4350SOL     OW24511   1.812   2.210   0.801 -0.5925  0.4059 -0.3197
 4350SOL    HW124512   1.845   2.194   0.889 -0.8360  2.2761  0.1316
 4350SOL    HW224513   1.867   2.282   0.770 -2.5578  1.6775 -0.9227
 4351SOL     OW24514   1.185   3.604   7.010  0.0075 -0.6168 -0.2214
 4351SOL    HW124515   1.114   3.638   7.064  0.2260  4.1618 -2.9952
 4351SOL    HW224516   1.149   3.520   6.980 -0.5975 -0.7955  1.0175
 4352SOL     OW24517   3.719   4.537   7.902  0.3078 -0.0661 -0.3627
 4352SOL    HW124518   3.765   4.465   7.859  1.4602 -0.0832  0.8894
 4352SOL    HW224519   3.738   4.614   7.849  0.7183  0.8384  1.1123
 4353SOL     OW24520   2.080   1.114   2.434 -0.0984  0.1830  0.0667
 4353SOL    HW124521   2.111   1.029   2.402  1.6534  0.7925  0.1149
 4353SOL    HW224522   2.001   1.125   2.381  0.5978  0.1145 -0.9936
 4354SOL     OW24523   4.694   1.922  12.986  0.1107 -0.0589  0.2197
 4354SOL    HW124524   0.030   1.957  13.047 -0.3465  1.8355 -0.3836
 4354SOL    HW224525   4.646   1.865  13.046  2.4711 -1.8523  0.4420
 4355SOL     OW24526   0.494   0.118   8.295  0.5288 -0.2218 -0.0410
 4355SOL    HW124527   0.420   0.168   8.262  0.4799 -0.5420 -0.4146
 4355SOL    HW224528   0.552   0.115   8.218 -0.5170 -1.1403 -0.7974
 4356SOL     OW24529   0.854   1.022   5.728  0.3547  0.6044  0.4686
 4356SOL    HW124530   0.770   1.059   5.755  0.5495  0.4356  1.2935
 4356SOL    HW224531   0.902   1.100   5.699  0.6185  0.2162 -0.1496
 4357SOL     OW24532   0.319   2.506  10.432 -0.1722  0.0080  0.9397
 4357SOL    HW124533   0.255   2.510  10.361 -1.4704 -1.9100  2.0202
 4357SOL    HW224534   0.295   2.576  10.494  1.8386  0.9452  0.6412
 4358SOL     OW24535   3.038   1.902   3.148  0.3129 -0.0323  0.0894
 4358SOL    HW124536   3.002   1.937   3.067 -0.1070  0.2611  0.4059
 4358SOL    HW224537   3.132   1.890   3.132  0.5135  0.8696  0.5921
 4359SOL     OW24538   2.515   3.228   5.271  0.4135  0.1994 -0.2499
 4359SOL    HW124539   2.423   3.206   5.254  1.0408 -0.0593 -3.2596
 4359SOL    HW224540   2.556   3.141   5.273 -2.4552 -1.1477  0.3737
 4360SOL     OW24541   3.493   1.057  11.782  0.5327 -0.5862 -0.3871
 4360SOL    HW124542   3.565   1.115  11.806  0.9213 -1.5274  0.7309
 4360SOL    HW224543   3.527   0.972  11.810 -1.5777 -0.8030  1.5305
 4361SOL     OW24544   2.464   4.153   8.041  0.2259  0.7506  0.7913
 4361SOL    HW124545   2.500   4.168   7.954  0.9086  1.0046  1.1185
 4361SOL    HW224546   2.393   4.217   8.054 -0.3986  0.1924  0.1108
 4362SOL     OW24547   2.363   3.642  17.378 -0.7722  0.1392  0.5587
 4362SOL    HW124548   2.292   3.583  17.355  1.1500 -1.2405 -1.7546
 4362SOL    HW224549   2.409   3.596  17.449  0.0721  0.2285  0.0664
 4363SOL     OW24550   1.795   3.594  11.811 -0.3195  0.3565 -0.2773
 4363SOL    HW124551   1.709   3.594  11.768 -0.9391 -1.8484  0.9393
 4363SOL    HW224552   1.783   3.512  11.859 -1.1977  0.0710 -0.9654
 4364SOL     OW24553   2.698   3.365   3.033 -0.4321  0.0489  0.2548
 4364SOL    HW124554   2.638   3.349   2.960 -0.1312  0.8964 -0.1769
 4364SOL    HW224555   2.753   3.290   3.009 -0.3394  0.7099 -1.5693
 4365SOL     OW24556   1.317   3.399   3.651 -0.2446 -1.0800  0.9529
 4365SOL    HW124557   1.380   3.451   3.701 -0.0152  0.6625 -1.1249
 4365SOL    HW224558   1.349   3.410   3.562 -1.0147 -0.0895  0.8004
 4366SOL     OW24559   1.757   2.199   1.507  0.3378  0.0056  0.1266
 4366SOL    HW124560   1.664   2.220   1.512  0.3870  0.0487  0.8114
 4366SOL    HW224561   1.781   2.203   1.600 -0.3077  1.2165  0.2324
 4367SOL     OW24562   4.076   2.179  11.179  0.2132  0.0458 -0.6231
 4367SOL    HW124563   4.047   2.112  11.117 -1.5221  1.4814 -1.3756
 4367SOL    HW224564   4.107   2.246  11.119  0.9612  1.8483  1.8064
 4368SOL     OW24565   3.660   0.953   2.821  0.5981  0.0434  0.0683
 4368SOL    HW124566   3.590   0.985   2.764  0.7050 -0.0277 -0.1006
 4368SOL    HW224567   3.707   0.890   2.767 -1.4998  0.0839 -1.8009
 4369SOL     OW24568   1.438   1.866   8.110  0.1473 -0.4162 -0.7321
 4369SOL    HW124569   1.426   1.847   8.203  1.5394  1.3502 -0.1805
 4369SOL    HW224570   1.530   1.894   8.112 -0.0801  0.3268 -0.7832
 4370SOL     OW24571   1.967   1.214   0.220  0.1530  0.3804  0.0070
 4370SOL    HW124572   2.040   1.191   0.162 -0.1273  0.7710 -0.5137
 4370SOL    HW224573   1.929   1.292   0.178  2.5527  0.9591 -1.1350
 4371SOL     OW24574   1.398   3.880   2.004 -0.4101 -0.4631  0.6049
 4371SOL    HW124575   1.458   3.954   1.994  0.3768 -1.0069  1.3157
 4371SOL    HW224576   1.458   3.808   1.984 -0.3770 -0.4700  0.7329
 4372SOL     OW24577   0.701   2.524   4.759 -0.1067  0.6672 -0.1415
 4372SOL    HW124578   0.736   2.439   4.786 -2.4622 -0.2343  0.1380
 4372SOL    HW224579   0.620   2.523   4.810  1.7586 -2.1338  2.7332
 4373SOL     OW24580   4.408   3.107  16.666  0.4152  0.3760  0.1841
 4373SOL    HW124581   4.465   3.031  16.653  1.1288  0.9227  0.1499
 4373SOL    HW224582   4.345   3.087  16.735 -0.9960 -0.5878 -1.3842
 4374SOL     OW24583   4.531   4.244   4.357 -0.3022 -0.0746 -0.1981
 4374SOL    HW124584   4.608   4.201   4.319 -0.9469 -1.7384  0.3726
 4374SOL    HW224585   4.454   4.187   4.347 -0.3785 -0.1354  0.7898
 4375SOL     OW24586   3.809   0.809  14.623  0.3240  0.2406  0.3004
 4375SOL    HW124587   3.718   0.832  14.641  0.7787  2.1039  0.2213
 4375SOL    HW224588   3.819   0.835  14.532  1.3400  0.4687  0.4828
 4376SOL     OW24589   3.370   0.122  10.757 -0.8743 -0.1945  0.5433
 4376SOL    HW124590   3.307   0.186  10.725  1.2975  0.6969 -1.9171
 4376SOL    HW224591   3.400   0.158  10.840 -1.0850 -3.3212  1.9714
 4377SOL     OW24592   3.182   0.318   8.385  0.4967 -0.1819  0.0027
 4377SOL    HW124593   3.177   0.238   8.438 -0.3167 -0.2984 -0.2492
 4377SOL    HW224594   3.191   0.286   8.295  2.2076  0.7886 -0.1818
 4378SOL     OW24595   2.969   2.353   1.301 -0.6482  0.3478 -0.2127
 4378SOL    HW124596   3.008   2.440   1.312 -0.7571  0.4085 -0.3063
 4378SOL    HW224597   3.047   2.298   1.297 -0.4362  0.6630 -0.4852
 4379SOL     OW24598   3.607   1.923   1.272 -0.3369 -0.2780 -0.5958
 4379SOL    HW124599   3.561   1.864   1.211 -2.2425  1.1941 -0.5880
 4379SOL    HW224600   3.696   1.888   1.272 -1.6438 -3.6661 -0.1029
 4380SOL     OW24601   0.873   3.605   7.024 -0.4792 -0.0080  0.3630
 4380SOL    HW124602   0.810   3.572   6.961  1.4453 -0.0949 -1.5022
 4380SOL    HW224603   0.852   3.697   7.013  0.4009  0.0650 -0.6802
 4381SOL     OW24604   1.590   4.133   1.951  0.3381 -0.1547 -0.5324
 4381SOL    HW124605   1.586   4.228   1.941  2.8756 -0.1983 -1.9635
 4381SOL    HW224606   1.667   4.121   2.006  1.9816  0.9909 -2.5632
 4382SOL     OW24607   2.436   2.915   4.644 -0.5116 -0.1572 -0.1448
 4382SOL    HW124608   2.438   2.820   4.645 -0.1358 -0.1268  2.4295
 4382SOL    HW224609   2.488   2.943   4.569 -0.5393 -0.7415 -0.3794
 4383SOL     OW24610   0.271   3.747  14.742 -0.3192 -0.5638 -0.1671
 4383SOL    HW124611   0.232   3.671  14.698 -0.5470 -0.8493  0.5367
 4383SOL    HW224612   0.355   3.755  14.697 -1.3141  1.3684 -1.7311
 4384SOL     OW24613   1.901   2.831  12.487  0.3330  0.0125  0.1728
 4384SOL    HW124614   1.959   2.760  12.462 -2.2039 -2.1923  0.5437
 4384SOL    HW224615   1.842   2.786  12.547 -1.6975  1.1000 -0.9811
 4385SOL     OW24616   3.643   1.697   5.566 -0.0407  0.5012 -0.6202
 4385SOL    HW124617   3.734   1.666   5.562 -0.8364 -1.9522 -0.2331
 4385SOL    HW224618   3.648   1.758   5.493  1.5667  0.4265 -0.5705
 4386SOL     OW24619   4.221   0.479   2.766 -0.2854 -0.2591  0.0546
 4386SOL    HW124620   4.204   0.541   2.695 -0.9987  0.9926  1.3136
 4386SOL    HW224621   4.289   0.423   2.728 -0.6106 -0.6405  0.0361
 4387SOL     OW24622   1.883   4.408   4.848 -0.6780  0.3827 -0.2358
 4387SOL    HW124623   1.871   4.331   4.903 -0.9901  1.6806  1.5333
 4387SOL    HW224624   1.883   4.373   4.759 -1.6658  0.4198 -0.2597
 4388SOL     OW24625   3.076   0.559  14.049 -0.3215  0.6731 -0.4431
 4388SOL    HW124626   3.138   0.622  14.012 -1.2332  1.9039  0.0951
 4388SOL    HW224627   3.135   0.499  14.096 -0.3889 -0.0441 -1.2780
 4389SOL     OW24628   2.359   2.631   7.755  0.4436  0.1845 -0.3917
 4389SOL    HW124629   2.315   2.682   7.823  2.0656 -2.6420  2.7242
 4389SOL    HW224630   2.412   2.583   7.818  0.5609  0.9694  0.1092
 4390SOL     OW24631   1.871   0.357   1.734 -0.3256 -0.4149  0.0611
 4390SOL    HW124632   1.956   0.402   1.738 -0.5601  0.0372 -0.0008
 4390SOL    HW224633   1.888   0.284   1.794 -2.0316 -0.4322  0.5296
 4391SOL     OW24634   2.960   0.796   3.618 -0.3273 -0.0188 -0.4111
 4391SOL    HW124635   2.903   0.752   3.555 -0.5982  1.3183 -1.1072
 4391SOL    HW224636   3.038   0.807   3.563 -0.0018 -1.2474 -0.1934
 4392SOL     OW24637   2.799   3.652   3.376  0.0544  0.1570  0.1360
 4392SOL    HW124638   2.786   3.742   3.408  0.6720  0.2616  0.0840
 4392SOL    HW224639   2.718   3.630   3.330 -0.6926 -1.0943  2.0405
 4393SOL     OW24640   3.027   4.320   6.629 -0.4667 -0.2123 -0.7145
 4393SOL    HW124641   3.074   4.239   6.648 -1.9675 -0.7890  0.5487
 4393SOL    HW224642   2.996   4.298   6.541  0.7188 -0.1879 -1.1434
 4394SOL     OW24643   2.691   1.840  12.400 -0.1834  0.6666  0.3719
 4394SOL    HW124644   2.772   1.805  12.438 -0.0004 -0.4686 -1.0545
 4394SOL    HW224645   2.696   1.838  12.305  0.1846  2.7721  0.3465
 4395SOL     OW24646   2.972   4.314   9.255  0.5123  0.2102  0.2360
 4395SOL    HW124647   3.015   4.324   9.340 -1.0505  2.1303  0.7998
 4395SOL    HW224648   2.879   4.316   9.277  1.0515  2.0440  2.3441
 4396SOL     OW24649   4.335   3.974   6.517  0.2380 -0.0292  0.2508
 4396SOL    HW124650   4.292   3.961   6.433  1.6416 -0.6275 -0.3836
 4396SOL    HW224651   4.419   3.999   6.478 -0.8312 -0.5740 -2.3802
 4397SOL     OW24652   1.358   1.383   6.098  0.4752  0.0580 -0.5199
 4397SOL    HW124653   1.325   1.472   6.112  1.3375  0.2376  0.3263
 4397SOL    HW224654   1.402   1.373   6.182  2.8390  2.1485 -1.5101
 4398SOL     OW24655   2.192   2.674   6.990  0.0333 -0.1917 -0.3893
 4398SOL    HW124656   2.268   2.628   6.956 -1.4705 -3.0329  0.0922
 4398SOL    HW224657   2.159   2.608   7.050 -0.9986  2.1304  1.6236
 4399SOL     OW24658   3.542   2.858  13.555  0.4990 -0.1980 -0.3656
 4399SOL    HW124659   3.520   2.910  13.632 -1.5318  0.3041 -1.2843
 4399SOL    HW224660   3.564   2.927  13.493  0.0296 -0.0661 -0.3883
 4400SOL     OW24661   0.893   0.939  12.789  0.2802 -0.0403 -0.2919
 4400SOL    HW124662   0.843   0.901  12.717 -0.1074 -0.3861  0.1696
 4400SOL    HW224663   0.829   0.953  12.858 -0.6593 -0.7128 -1.0270
 4401SOL     OW24664   2.981   0.283   3.731 -0.0454 -0.6561 -0.2059
 4401SOL    HW124665   2.911   0.251   3.788 -0.4411  0.8770  0.1748
 4401SOL    HW224666   2.932   0.257   3.653 -1.5526  1.0610  0.1635
 4402SOL     OW24667   0.668   3.139  11.981  0.1698  0.1428 -0.2813
 4402SOL    HW124668   0.586   3.098  12.010  0.1298 -1.5871 -2.7939
 4402SOL    HW224669   0.708   3.158  12.066  0.5102 -0.6967 -0.2574
 4403SOL     OW24670   3.827   3.992   3.522 -0.1554  0.3739  0.4037
 4403SOL    HW124671   3.914   4.021   3.497  0.0246  1.7674  2.6327
 4403SOL    HW224672   3.765   4.022   3.455 -1.5421 -3.6731 -0.1184
 4404SOL     OW24673   2.107   3.477   4.731 -0.0188  0.1249 -0.6630
 4404SOL    HW124674   2.072   3.491   4.819  0.3302  0.2444 -0.5440
 4404SOL    HW224675   2.098   3.382   4.718 -0.8332  0.2339 -0.8502
 4405SOL     OW24676   2.347   2.996   1.932  0.3400 -0.4599 -0.8555
 4405SOL    HW124677   2.375   3.075   1.978 -2.8743 -0.1199  0.5609
 4405SOL    HW224678   2.298   3.049   1.868  0.1063 -1.2433 -1.3210
 4406SOL     OW24679   3.747   2.436   0.911  0.3796  0.1406  0.6221
 4406SOL    HW124680   3.791   2.489   0.978 -1.5477  1.2945  0.9513
 4406SOL    HW224681   3.819   2.441   0.848  1.0155 -1.8613  1.1505
 4407SOL     OW24682   4.366   1.122   4.002  0.0937  0.4933 -0.0810
 4407SOL    HW124683   4.290   1.132   4.060  1.6546  0.5090  1.9748
 4407SOL    HW224684   4.419   1.057   4.049 -1.7767 -0.9870 -0.0021
 4408SOL     OW24685   4.038   3.620   8.593 -0.3524  0.2374 -0.5306
 4408SOL    HW124686   4.041   3.627   8.498  1.6000 -0.0816 -0.4873
 4408SOL    HW224687   3.981   3.543   8.603 -0.4405  0.4175  0.3791
 4409SOL     OW24688   0.713   2.781  10.046  0.1564  0.3710 -0.2239
 4409SOL    HW124689   0.626   2.763  10.010  0.6821  1.3909 -2.0365
 4409SOL    HW224690   0.698   2.803  10.138  0.0274  1.3800 -0.4868
 4410SOL     OW24691   2.257   2.453  13.849 -0.1289 -0.2189  0.5865
 4410SOL    HW124692   2.253   2.378  13.790 -0.0239 -0.0961  0.4225
 4410SOL    HW224693   2.258   2.402  13.931  1.6575  0.4695  0.9989
 4411SOL     OW24694   0.430   0.457  10.937  0.2220 -0.1197 -0.1763
 4411SOL    HW124695   0.371   0.395  10.979 -1.2230  0.0222 -1.9637
 4411SOL    HW224696   0.518   0.436  10.966 -0.5233  0.1713  2.2826
 4412SOL     OW24697   2.667   0.885   1.616  0.2025 -0.6582  0.0148
 4412SOL    HW124698   2.615   0.911   1.540 -0.3229 -1.1264  0.2120
 4412SOL    HW224699   2.601   0.837   1.666  0.6070 -1.9789 -0.7066
 4413SOL     OW24700   1.440   0.410   5.229  0.3278  0.0981  0.3217
 4413SOL    HW124701   1.439   0.440   5.138 -1.8576 -0.2742  0.2203
 4413SOL    HW224702   1.453   0.316   5.213  0.6424  0.2984 -0.5940
 4414SOL     OW24703   1.363   1.593   4.438 -0.2032 -0.5385  0.4108
 4414SOL    HW124704   1.403   1.680   4.435  0.1057 -0.6578  1.3301
 4414SOL    HW224705   1.428   1.537   4.479 -1.8518 -1.0583  2.3103
 4415SOL     OW24706   4.234   3.028   9.088  0.0542 -0.2789  0.4016
 4415SOL    HW124707   4.144   3.046   9.061  0.5885  2.4204  0.3994
 4415SOL    HW224708   4.220   2.938   9.119  0.1044 -1.1234 -2.0828
 4416SOL     OW24709   3.521   4.425  10.486 -0.1782  0.1183 -0.8020
 4416SOL    HW124710   3.527   4.332  10.464  0.1533  0.4862 -2.2772
 4416SOL    HW224711   3.576   4.434  10.564 -0.8451  0.3832 -0.3686
 4417SOL     OW24712   1.291   1.905   5.134 -0.0175 -0.7626  0.0160
 4417SOL    HW124713   1.240   1.901   5.054 -1.4391 -0.0456  0.8921
 4417SOL    HW224714   1.328   1.817   5.130 -3.0649 -1.9577 -1.4869
 4418SOL     OW24715   2.115   3.367   6.133  0.2065 -0.0614 -0.0873
 4418SOL    HW124716   2.022   3.388   6.126  0.3799  0.5263 -0.5851
 4418SOL    HW224717   2.128   3.378   6.227  0.6667  0.1965 -0.1809
 4419SOL     OW24718   4.690   2.100   3.593 -0.0104  0.1532  0.2948
 4419SOL    HW124719   4.598   2.091   3.616 -0.2519 -2.1604 -1.6013
 4419SOL    HW224720   0.004   2.085   3.677 -0.3849 -0.4141  0.3798
 4420SOL     OW24721   4.397   2.117  16.445  0.5060 -0.2737  0.8976
 4420SOL    HW124722   4.433   2.195  16.486  1.4971 -0.3421  0.1672
 4420SOL    HW224723   4.358   2.079  16.523  1.2194 -2.9459 -0.0551
 4421SOL     OW24724   3.700   2.960   7.217 -0.3113  0.1570 -0.0709
 4421SOL    HW124725   3.743   2.918   7.143 -1.6238 -0.2156 -0.6246
 4421SOL    HW224726   3.773   3.012   7.251 -0.2602 -1.3643  2.1260
 4422SOL     OW24727   3.143   0.565   8.157  0.5083 -0.8701 -0.5955
 4422SOL    HW124728   3.233   0.592   8.140  0.5014 -0.4062  0.1104
 4422SOL    HW224729   3.091   0.616   8.094  0.9407 -0.5114 -0.6567
 4423SOL     OW24730   4.002   2.878   2.314  0.3384 -0.7954  0.0732
 4423SOL    HW124731   4.094   2.891   2.333 -0.2906  2.4927  0.7115
 4423SOL    HW224732   3.963   2.965   2.314  1.2254 -0.4010  0.1204
 4424SOL     OW24733   2.308   4.396   5.768  0.0967 -0.8085 -0.2833
 4424SOL    HW124734   2.216   4.391   5.792  0.1929 -0.0052  0.2596
 4424SOL    HW224735   2.306   4.399   5.672  1.0278  2.5165 -0.1924
 4425SOL     OW24736   1.746   1.708   1.265 -0.1804 -0.1889  0.4815
 4425SOL    HW124737   1.678   1.774   1.281  0.3508  0.1761  1.2268
 4425SOL    HW224738   1.706   1.623   1.284 -0.3350 -0.0814  0.6442
 4426SOL     OW24739   2.615   3.392   7.887  0.2731  0.0374  0.4961
 4426SOL    HW124740   2.680   3.323   7.869 -0.2453 -0.0422 -1.0253
 4426SOL    HW224741   2.547   3.337   7.927 -0.4988  1.4920  1.1897
 4427SOL     OW24742   0.165   3.332   0.125 -0.0557 -0.1577 -0.2236
 4427SOL    HW124743   0.075   3.356   0.103  0.2294  0.3501 -0.8641
 4427SOL    HW224744   0.202   3.326   0.037 -2.7225  0.2524 -1.3562
 4428SOL     OW24745   0.948   0.303   2.069  0.0463  0.0732  0.1088
 4428SOL    HW124746   0.930   0.210   2.060 -1.3539  0.5253 -1.8096
 4428SOL    HW224747   1.035   0.307   2.108  0.4694 -1.0153 -0.7414
 4429SOL     OW24748   1.266   0.635  10.145  0.2084 -0.1896 -0.9271
 4429SOL    HW124749   1.192   0.678  10.188 -1.0400 -2.3513 -0.9181
 4429SOL    HW224750   1.247   0.649  10.052 -0.7819 -0.2445 -0.7406
 4430SOL     OW24751   4.604   2.666   7.352 -0.0017 -0.1140 -0.4059
 4430SOL    HW124752   4.545   2.735   7.320 -1.2878 -0.4594  1.1981
 4430SOL    HW224753   4.613   2.680   7.446  0.7312  1.8733 -0.7635
 4431SOL     OW24754   2.832   3.524   2.359 -0.4379  0.3320  0.3984
 4431SOL    HW124755   2.738   3.505   2.360 -0.4708  0.5299  1.3048
 4431SOL    HW224756   2.836   3.618   2.372  0.6933  0.1587  1.3282
 4432SOL     OW24757   4.378   4.052   7.467  0.3846  0.4789 -0.0228
 4432SOL    HW124758   4.374   3.988   7.539  1.5645 -1.0974 -1.3445
 4432SOL    HW224759   4.380   4.133   7.516 -0.7496  0.1726  0.5208
 4433SOL     OW24760   2.782   2.752   6.885 -0.1406  0.0395 -0.4188
 4433SOL    HW124761   2.860   2.803   6.865 -0.5377 -0.4214 -3.2489
 4433SOL    HW224762   2.810   2.671   6.928  1.6412  0.6993 -0.3344
 4434SOL     OW24763   1.141   2.296  12.062 -0.2413  0.1284 -0.0027
 4434SOL    HW124764   1.231   2.327  12.077 -0.7997  3.6506 -3.8596
 4434SOL    HW224765   1.141   2.230  11.993  2.3766  1.4297 -1.2708
 4435SOL     OW24766   3.532   1.746   4.659 -0.1506  0.3671  0.1195
 4435SOL    HW124767   3.549   1.837   4.682 -1.5095  0.1938  1.7852
 4435SOL    HW224768   3.504   1.768   4.571  1.4385  1.9438  0.0119
 4436SOL     OW24769   0.086   3.306   9.479  0.2431  0.3863 -0.5868
 4436SOL    HW124770   0.067   3.271   9.566 -0.1792 -0.0273 -0.8448
 4436SOL    HW224771   0.035   3.256   9.415 -1.8184  0.7047  0.7877
 4437SOL     OW24772   4.357   2.348   4.751  0.1832  0.3332 -0.2968
 4437SOL    HW124773   4.452   2.340   4.744  0.1848  0.7319 -0.7674
 4437SOL    HW224774   4.327   2.258   4.742 -0.0023  0.1865  1.6895
 4438SOL     OW24775   0.444   0.902   3.884  0.1518 -0.4190 -0.1017
 4438SOL    HW124776   0.480   0.905   3.796  2.3835  0.0895  0.8378
 4438SOL    HW224777   0.524   0.871   3.925  0.3905 -0.6147 -0.7261
 4439SOL     OW24778   2.378   2.200   5.400 -0.4516 -0.4270  0.1562
 4439SOL    HW124779   2.320   2.130   5.371 -0.9942  0.0197  0.1746
 4439SOL    HW224780   2.311   2.268   5.397  0.9152  0.9772  0.9669
 4440SOL     OW24781   2.853   4.491   4.623  0.1615  0.3901  0.1841
 4440SOL    HW124782   2.861   4.527   4.712 -1.9899  2.0891 -0.3093
 4440SOL    HW224783   2.895   4.561   4.572  1.1862 -0.4869 -0.1668
 4441SOL     OW24784   2.738   2.004  12.821  0.0424  0.1174 -0.4109
 4441SOL    HW124785   2.767   1.997  12.912 -0.0153 -0.0806 -0.4096
 4441SOL    HW224786   2.645   1.984  12.817 -0.2023  0.8941  1.9053
 4442SOL     OW24787   1.771   2.318   6.856 -0.0335 -0.4330 -0.5003
 4442SOL    HW124788   1.713   2.391   6.835  1.4353  0.1143 -2.6525
 4442SOL    HW224789   1.724   2.244   6.818  0.2921 -1.8613  1.8867
 4443SOL     OW24790   2.235   1.689   3.923  0.5401 -0.2364  0.3381
 4443SOL    HW124791   2.328   1.680   3.901  0.3638  1.2892 -1.0991
 4443SOL    HW224792   2.197   1.657   3.841  2.5780 -3.2366  0.5918
 4444SOL     OW24793   0.996   1.684   7.352  0.1269  0.8891  0.1529
 4444SOL    HW124794   0.983   1.706   7.260  1.2146  0.4358 -0.1142
 4444SOL    HW224795   1.089   1.664   7.341 -0.5498 -2.9922  1.6996
 4445SOL     OW24796   2.032   3.729  11.122 -0.1205  0.0803 -0.1263
 4445SOL    HW124797   2.054   3.721  11.215 -0.8509 -1.0329 -0.0450
 4445SOL    HW224798   1.964   3.796  11.129  1.0764  1.1445  1.1216
 4446SOL     OW24799   2.739   1.772   1.877  0.5142 -0.0894  0.1066
 4446SOL    HW124800   2.809   1.720   1.916 -0.2579 -2.0513 -1.1030
 4446SOL    HW224801   2.783   1.822   1.809 -1.0270  0.9461 -0.1326
 4447SOL     OW24802   4.015   0.074   4.755  0.0048  0.3063  0.4802
 4447SOL    HW124803   3.949   0.083   4.687  2.3502 -2.7308 -2.2319
 4447SOL    HW224804   4.008   4.708   4.767  1.7088 -0.0280 -1.0910
 4448SOL     OW24805   2.657   1.322   7.762  0.6001 -0.4415 -0.3101
 4448SOL    HW124806   2.656   1.417   7.766 -0.4445 -0.4107 -1.3865
 4448SOL    HW224807   2.691   1.303   7.674  1.5291 -0.9702  0.1559
 4449SOL     OW24808   3.293   1.445   6.835  0.2674 -0.3783  0.7264
 4449SOL    HW124809   3.349   1.376   6.799  0.8709  0.2137  0.5195
 4449SOL    HW224810   3.328   1.523   6.791 -1.1400 -1.2339 -1.9301
 4450SOL     OW24811   1.337   0.530   2.054  0.6280  0.7674 -0.3316
 4450SOL    HW124812   1.432   0.517   2.052  0.4835 -0.2684 -0.6147
 4450SOL    HW224813   1.308   0.556   1.967 -0.8875 -1.1200 -0.3870
 4451SOL     OW24814   0.269   2.536   3.915  0.0081 -0.1972 -0.5566
 4451SOL    HW124815   0.243   2.451   3.949 -0.8955 -0.8743 -2.9411
 4451SOL    HW224816   0.314   2.560   3.996 -1.3602 -2.3506  0.8243
 4452SOL     OW24817   2.141   0.476   9.252 -0.3428  0.0352 -0.0691
 4452SOL    HW124818   2.091   0.467   9.171  1.8992  2.5194 -1.7643
 4452SOL    HW224819   2.136   0.388   9.288  0.2866  0.3149  0.6946
 4453SOL     OW24820   2.237   0.723   6.413  0.2296 -0.0227 -0.1017
 4453SOL    HW124821   2.171   0.657   6.395 -0.2705  0.9523 -1.9551
 4453SOL    HW224822   2.278   0.694   6.494 -2.0232 -0.0466  1.0222
 4454SOL     OW24823   3.632   2.595   7.041 -0.3597 -0.0329  0.1299
 4454SOL    HW124824   3.724   2.569   7.049 -0.3468 -0.2738 -0.8407
 4454SOL    HW224825   3.584   2.513   7.038 -1.4104  0.4966  2.2570
 4455SOL     OW24826   2.572   2.291   0.991  0.4084  0.5147  0.0135
 4455SOL    HW124827   2.612   2.214   0.952  1.2504  0.5901  0.7360
 4455SOL    HW224828   2.606   2.291   1.080  0.9156  1.7768 -0.1885
 4456SOL     OW24829   4.393   3.099   4.969 -0.4468  0.1698  0.4196
 4456SOL    HW124830   4.390   3.167   5.036  1.1010 -2.6414  3.3403
 4456SOL    HW224831   4.480   3.064   4.989  0.7952  3.0285  0.0653
 4457SOL     OW24832   0.918   2.896   9.259 -0.2065 -0.5169 -0.2127
 4457SOL    HW124833   0.849   2.902   9.326 -2.9124 -0.9003 -2.9441
 4457SOL    HW224834   0.917   2.973   9.203 -0.8562 -1.6871 -1.8295
 4458SOL     OW24835   1.781   2.069  11.539  0.2373  0.8548  0.0774
 4458SOL    HW124836   1.711   2.016  11.577 -0.1546  0.2635 -1.4529
 4458SOL    HW224837   1.721   2.114  11.480  0.9590  0.7083 -0.7735
 4459SOL     OW24838   1.174   0.802  17.564 -0.1993 -0.1244 -0.7836
 4459SOL    HW124839   1.253   0.783  17.614 -2.3993 -2.1939  1.8899
 4459SOL    HW224840   1.179   0.734  17.497 -0.3377 -0.4196 -0.4913
 4460SOL     OW24841   3.751   4.478   8.182 -0.1511 -0.5466  0.0475
 4460SOL    HW124842   3.736   4.515   8.095  1.1732 -1.0776 -0.4058
 4460SOL    HW224843   3.665   4.438   8.197 -1.1278  1.2432 -0.8375
 4461SOL     OW24844   4.434   4.167   4.774  0.0724 -0.1668  0.4470
 4461SOL    HW124845   4.427   4.209   4.860  0.8734  1.0837 -0.0892
 4461SOL    HW224846   4.434   4.073   4.793 -1.7054 -0.1874  0.3287
 4462SOL     OW24847   4.477   1.348  11.650  0.1756 -0.0598 -0.4643
 4462SOL    HW124848   4.473   1.322  11.558 -3.2601  1.3482 -0.7081
 4462SOL    HW224849   4.387   1.378  11.661 -0.7565 -2.7039 -0.9013
 4463SOL     OW24850   0.070   0.090   9.092 -0.7320 -0.4578 -0.0282
 4463SOL    HW124851   0.133   0.122   9.027  0.5810 -0.4965  1.2157
 4463SOL    HW224852   0.126   0.016   9.117  0.1686  0.3821  0.4236
 4464SOL     OW24853   0.680   4.591  13.506  0.0063 -0.0331 -0.0442
 4464SOL    HW124854   0.586   4.605  13.511  0.0990  0.5067  0.1943
 4464SOL    HW224855   0.698   4.573  13.598 -3.1802 -0.7261  0.4308
 4465SOL     OW24856   1.385   0.935   6.413  0.0327 -0.8392 -0.0233
 4465SOL    HW124857   1.314   0.901   6.359  0.7077 -0.8215 -0.9263
 4465SOL    HW224858   1.465   0.888   6.389 -0.3863 -2.1191  1.0858
 4466SOL     OW24859   1.184   1.213   4.326 -0.0292  0.3418  0.6006
 4466SOL    HW124860   1.263   1.216   4.379  1.8785 -1.1936 -2.1505
 4466SOL    HW224861   1.197   1.299   4.287 -0.1581 -0.2601 -0.7998
 4467SOL     OW24862   1.109   4.551   1.094 -0.2493  1.0796 -0.0289
 4467SOL    HW124863   1.142   4.558   1.184 -1.5317  0.2915  0.4939
 4467SOL    HW224864   1.082   4.459   1.089  2.1905  0.4709 -1.7996
 4468SOL     OW24865   1.965   0.031   4.599 -0.2326 -0.3522 -0.0458
 4468SOL    HW124866   2.050   4.715   4.604  0.6812  1.3373 -0.5272
 4468SOL    HW224867   1.925   4.722   4.521 -0.6281  0.2189 -0.1189
 4469SOL     OW24868   0.233   1.276   3.117 -0.7378 -0.1667  0.1543
 4469SOL    HW124869   0.260   1.244   3.203 -1.1149 -0.8681  0.0130
 4469SOL    HW224870   0.143   1.303   3.138 -1.2315 -1.4028 -0.3342
 4470SOL     OW24871   2.843   0.262   4.220 -0.3995  0.3789  1.0518
 4470SOL    HW124872   2.901   0.248   4.295 -0.3644 -1.0324  0.7639
 4470SOL    HW224873   2.892   0.328   4.171 -2.2861  0.2450 -0.9939
 4471SOL     OW24874   2.289   3.484   7.755 -0.0055  0.5627 -0.1342
 4471SOL    HW124875   2.210   3.534   7.733 -0.7603 -0.1961  0.8280
 4471SOL    HW224876   2.270   3.484   7.848 -1.4308 -2.0801 -0.3970
 4472SOL     OW24877   2.574   2.991   3.087 -0.3277 -0.1818 -0.4357
 4472SOL    HW124878   2.536   2.914   3.046  1.0296 -0.6730 -0.7777
 4472SOL    HW224879   2.598   2.957   3.173 -0.0309 -0.9011 -0.8018
 4473SOL     OW24880   1.662   1.914   3.580  0.1392 -0.0155 -0.0532
 4473SOL    HW124881   1.597   1.875   3.522  2.2153 -0.4342 -2.0860
 4473SOL    HW224882   1.618   1.916   3.665  0.7830  0.6043  0.2592
 4474SOL     OW24883   1.565   3.178  14.043  0.5772  0.0279  0.1349
 4474SOL    HW124884   1.608   3.147  14.123 -1.4107 -0.8721  0.8781
 4474SOL    HW224885   1.489   3.120  14.050  0.7322 -0.0762  1.0051
 4475SOL     OW24886   0.581   0.084   8.033  0.0859  0.1133  0.4735
 4475SOL    HW124887   0.521   0.147   7.995  0.2517 -1.2232 -1.9837
 4475SOL    HW224888   0.659   0.101   7.980 -0.9116 -1.8859 -1.6004
 4476SOL     OW24889   4.269   1.288   2.103  0.3897 -0.2441  0.8082
 4476SOL    HW124890   4.259   1.193   2.098 -0.4713 -0.0960 -0.1477
 4476SOL    HW224891   4.177   1.312   2.104  0.3717 -0.3112  0.7274
 4477SOL     OW24892   2.046   3.070  15.142  0.2983  0.0331 -0.1867
 4477SOL    HW124893   1.989   3.049  15.216  1.4419  1.2322  1.0175
 4477SOL    HW224894   2.056   2.990  15.090 -1.8659 -0.3731  0.0269
 4478SOL     OW24895   0.117   3.445   3.119 -0.1116 -0.3013 -0.2616
 4478SOL    HW124896   0.162   3.499   3.054 -1.0776  0.3671 -0.3901
 4478SOL    HW224897   0.073   3.381   3.063 -4.2311  1.8283  0.4834
 4479SOL     OW24898   0.672   4.562   9.989  0.2421  0.8579 -0.1500
 4479SOL    HW124899   0.729   4.537  10.062 -1.2257 -0.2219  0.6468
 4479SOL    HW224900   0.718   4.638   9.954 -1.2727  2.5213  1.4240
 4480SOL     OW24901   2.518   1.433   6.551 -0.5129 -0.0061 -0.3824
 4480SOL    HW124902   2.553   1.518   6.578 -0.8759  0.0794 -0.1730
 4480SOL    HW224903   2.595   1.377   6.552 -1.0924 -0.8501 -3.3870
 4481SOL     OW24904   2.931   4.240  12.160  0.0693 -0.1049 -0.3770
 4481SOL    HW124905   2.869   4.202  12.098 -0.2346  2.0772 -1.4347
 4481SOL    HW224906   2.871   4.288  12.217 -0.0514 -0.5636 -0.1252
 4482SOL     OW24907   4.359   0.464   6.863  0.1585 -0.0496 -0.3955
 4482SOL    HW124908   4.275   0.425   6.887  1.3059 -1.1548  1.8749
 4482SOL    HW224909   4.380   0.508   6.946 -0.5344 -1.0959  0.3282
 4483SOL     OW24910   1.469   2.358   6.976  1.1504 -0.3100  0.8550
 4483SOL    HW124911   1.442   2.303   6.903 -0.4199 -0.6685  1.7106
 4483SOL    HW224912   1.499   2.439   6.935  0.6979 -0.5503  0.0427
 4484SOL     OW24913   4.478   4.230   2.893 -0.7504  0.2371 -0.3870
 4484SOL    HW124914   4.462   4.148   2.847 -0.8404  0.1092 -0.1292
 4484SOL    HW224915   4.527   4.265   2.819 -1.0700  0.6386 -0.4077
 4485SOL     OW24916   0.856   3.368   4.651 -0.4188  0.1006  0.4679
 4485SOL    HW124917   0.802   3.442   4.679 -0.4131  0.8137 -1.4685
 4485SOL    HW224918   0.948   3.393   4.664 -0.3827 -1.0029  2.3064
 4486SOL     OW24919   0.048   1.648   3.322  0.0454  0.4745 -0.1738
 4486SOL    HW124920   4.705   1.705   3.349  0.6710  1.6525 -1.0175
 4486SOL    HW224921   0.025   1.614   3.235 -0.5621 -0.6036  0.4053
 4487SOL     OW24922   2.398   0.645  17.712 -0.0605  0.0846  0.3124
 4487SOL    HW124923   2.366   0.589   0.068 -0.9549  0.5773  0.2999
 4487SOL    HW224924   2.478   0.594  17.699  1.0974  1.5470  1.6840
 4488SOL     OW24925   0.825   0.012   2.080 -0.6849 -0.1440 -0.3988
 4488SOL    HW124926   0.762   0.026   2.010  0.3823 -0.9794 -1.5103
 4488SOL    HW224927   0.863   4.655   2.062 -1.4023 -0.9000  1.6329
 4489SOL     OW24928   3.370   1.189   0.674  0.3005 -0.7327  0.4662
 4489SOL    HW124929   3.309   1.117   0.657  0.0607 -0.0995 -1.3907
 4489SOL    HW224930   3.335   1.224   0.592  0.3514 -0.4667  0.5579
 4490SOL     OW24931   2.138   2.209   3.896 -0.4129 -0.1453  0.0732
 4490SOL    HW124932   2.138   2.258   3.979 -0.7020  3.2018 -1.8917
 4490SOL    HW224933   2.113   2.124   3.932  0.1590  0.2723  1.4671
 4491SOL     OW24934   1.065   4.194   7.796  0.2745 -0.2115  0.6366
 4491SOL    HW124935   1.109   4.276   7.816 -1.2903  0.5668  0.9169
 4491SOL    HW224936   1.130   4.125   7.784 -0.9788 -1.5325  1.3857
 4492SOL     OW24937   4.063   3.348   4.575  0.0241  0.3328  0.1779
 4492SOL    HW124938   3.970   3.327   4.577 -0.0945  0.7217 -1.6129
 4492SOL    HW224939   4.077   3.405   4.651  0.1090 -2.0069  1.9234
 4493SOL     OW24940   1.870   3.249   7.420  0.5339 -0.4675  0.0357
 4493SOL    HW124941   1.811   3.255   7.345 -0.4272 -1.8560  0.6800
 4493SOL    HW224942   1.811   3.269   7.493 -0.0630  0.3203 -0.6675
 4494SOL     OW24943   1.228   4.539  11.651 -0.0668  0.3016 -0.0828
 4494SOL    HW124944   1.307   4.490  11.674 -1.5375 -2.1093 -0.1292
 4494SOL    HW224945   1.161   4.481  11.614  2.2219 -0.7977 -2.5334
 4495SOL     OW24946   4.309   3.386   2.194  0.1609 -0.0951 -0.4345
 4495SOL    HW124947   4.377   3.453   2.203 -0.3815  0.6776 -2.1059
 4495SOL    HW224948   4.327   3.351   2.106 -0.3421  0.1905 -0.6490
 4496SOL     OW24949   3.754   0.653   1.998  0.1610 -0.9657 -0.3466
 4496SOL    HW124950   3.793   0.636   1.912 -1.6301 -1.7965 -0.9980
 4496SOL    HW224951   3.662   0.646   1.974 -0.1886  1.2643  0.4137
 4497SOL     OW24952   2.394   3.215  16.276  0.3874  0.2291  0.0561
 4497SOL    HW124953   2.303   3.185  16.279  0.7697 -1.0408 -1.3888
 4497SOL    HW224954   2.397   3.219  16.181  0.5564 -2.1113 -0.0316
 4498SOL     OW24955   4.120   3.762   1.620  0.4088  0.9585  0.7191
 4498SOL    HW124956   4.209   3.792   1.639  1.1152 -0.9131  0.4068
 4498SOL    HW224957   4.090   3.759   1.710  0.5095  1.3228  0.7644
 4499SOL     OW24958   2.475   4.365   2.760  0.3842 -0.5058 -0.2046
 4499SOL    HW124959   2.562   4.372   2.799  0.4430  0.4776 -0.5050
 4499SOL    HW224960   2.416   4.318   2.819  0.9842  0.1898  0.9546
 4500SOL     OW24961   3.649   0.736   7.922 -0.1232 -0.0295 -0.0155
 4500SOL    HW124962   3.615   0.747   7.833  2.0197  0.4463 -0.7798
 4500SOL    HW224963   3.581   0.785   7.968  1.1901  0.6620  1.2038
 4501SOL     OW24964   3.681   4.473  10.703 -0.0027 -0.3368 -0.1995
 4501SOL    HW124965   3.695   4.568  10.705 -0.4829 -0.2428 -0.9599
 4501SOL    HW224966   3.639   4.472  10.789  0.3763  0.6889  0.0010
 4502SOL     OW24967   1.394   2.260   0.135 -0.0445  0.0517  0.2702
 4502SOL    HW124968   1.475   2.254   0.084  0.0997  0.8621  0.4028
 4502SOL    HW224969   1.393   2.169   0.164  2.8277 -0.5652 -1.5486
 4503SOL     OW24970   3.496   3.005   7.791  0.1090  0.1281  0.4729
 4503SOL    HW124971   3.443   3.075   7.830 -1.2910 -0.6116 -0.0993
 4503SOL    HW224972   3.429   2.949   7.751 -1.6282  0.9143  2.2503
 4504SOL     OW24973   0.656   0.669   3.909  0.5730 -0.4597 -0.4283
 4504SOL    HW124974   0.614   0.643   3.991  1.1503  2.1261  0.6916
 4504SOL    HW224975   0.609   0.622   3.840  1.2869  0.7303 -1.7437
 4505SOL     OW24976   1.804   3.682   2.949 -0.4114 -0.2373  0.0933
 4505SOL    HW124977   1.803   3.610   2.886 -2.1724 -0.5415  0.4844
 4505SOL    HW224978   1.712   3.697   2.972 -0.4138  0.4756 -0.3852
 4506SOL     OW24979   1.530   2.208   0.823  0.3824  0.0133 -0.2634
 4506SOL    HW124980   1.500   2.280   0.878  0.8293 -0.4581  0.5861
 4506SOL    HW224981   1.623   2.230   0.827  0.3792 -0.5236  2.8034
 4507SOL     OW24982   3.384   1.945   5.638 -0.0620  0.3622 -0.4789
 4507SOL    HW124983   3.396   1.953   5.732 -1.3189  1.5748 -0.4316
 4507SOL    HW224984   3.367   1.851   5.642  0.6373  0.2979  0.8936
 4508SOL     OW24985   0.661   3.623  15.779 -0.3861 -0.0686  0.4506
 4508SOL    HW124986   0.579   3.650  15.821 -1.5045 -2.2194 -0.3009
 4508SOL    HW224987   0.661   3.527  15.778 -0.6346 -0.0702  0.5714
 4509SOL     OW24988   1.105   0.621   3.777 -0.2823  0.6424 -0.3119
 4509SOL    HW124989   1.025   0.669   3.795 -0.5966  0.5768 -1.5086
 4509SOL    HW224990   1.099   0.557   3.849 -0.8389 -1.0429 -1.8417
 4510SOL     OW24991   3.552   0.464   5.210  0.1238  0.4620  0.1011
 4510SOL    HW124992   3.536   0.506   5.125  1.5266  1.1371  0.1658
 4510SOL    HW224993   3.465   0.457   5.248  0.8316  0.9949  1.7956
 4511SOL     OW24994   1.003   0.984   8.322 -0.4643 -0.2965  0.0655
 4511SOL    HW124995   0.997   1.076   8.349  0.4609 -0.0028 -0.7502
 4511SOL    HW224996   1.057   0.955   8.395 -0.4049 -1.9211 -0.6382
 4512SOL     OW24997   2.432   2.531   0.941  0.1836  0.1165  0.0414
 4512SOL    HW124998   2.472   2.561   0.860  1.6996  1.3404  1.2323
 4512SOL    HW224999   2.483   2.451   0.957  1.7419  0.9988 -0.5452
 4513SOL     OW25000   2.039   3.733   6.479 -0.7701 -0.4604 -0.3368
 4513SOL    HW125001   2.042   3.808   6.420 -1.4728  1.7199  2.3868
 4513SOL    HW225002   2.130   3.704   6.477 -0.3940  0.5873  1.8346
 4514SOL     OW25003   4.135   0.883   5.842  0.0459 -0.0066  0.0643
 4514SOL    HW125004   4.138   0.854   5.933  0.3997 -0.0637  0.0347
 4514SOL    HW225005   4.051   0.930   5.844  0.9971  1.7441 -1.1642
 4515SOL     OW25006   0.575   0.564   4.187 -0.4471  0.3822  0.8305
 4515SOL    HW125007   0.628   0.512   4.248  0.9170  1.3486  0.4813
 4515SOL    HW225008   0.504   0.506   4.161  0.6280 -0.5770  0.0473
 4516SOL     OW25009   4.105   3.253  15.657 -0.8195  0.0250  0.0184
 4516SOL    HW125010   4.088   3.344  15.630  0.2723  0.1512 -0.2232
 4516SOL    HW225011   4.075   3.195  15.587  1.3851  0.2058 -1.0754
 4517SOL     OW25012   0.093   4.131   3.947 -0.2224 -0.1723  0.2670
 4517SOL    HW125013   0.138   4.056   3.986  0.7488  0.6919  0.8566
 4517SOL    HW225014   0.124   4.207   3.998 -1.7692  1.4622 -1.2172
 4518SOL     OW25015   1.342   1.623  17.043  1.0415 -0.5274  0.0587
 4518SOL    HW125016   1.344   1.643  17.136  2.0836  1.8965 -0.4705
 4518SOL    HW225017   1.305   1.707  17.016 -0.1509 -1.8821 -2.5259
 4519SOL     OW25018   1.347   0.782   6.866 -0.1636 -0.3187  0.1217
 4519SOL    HW125019   1.431   0.785   6.819 -1.7340 -3.8417 -2.8773
 4519SOL    HW225020   1.304   0.863   6.838 -2.3409 -1.8484 -0.8744
 4520SOL     OW25021   1.410   1.465   3.231 -0.0495 -0.4552 -0.5959
 4520SOL    HW125022   1.380   1.408   3.301  1.5410 -1.9322 -1.1170
 4520SOL    HW225023   1.344   1.534   3.234 -0.1315 -0.4196 -3.3729
 4521SOL     OW25024   1.764   4.531  17.418  0.1547  1.0563 -0.1057
 4521SOL    HW125025   1.677   4.566  17.399 -1.2851 -3.1509 -1.1565
 4521SOL    HW225026   1.736   4.452  17.463 -2.3834  1.4524 -0.9991
 4522SOL     OW25027   2.282   3.152   5.722 -0.1775  0.3214  0.6154
 4522SOL    HW125028   2.331   3.192   5.651  0.3166 -2.1337 -0.4449
 4522SOL    HW225029   2.228   3.219   5.763  0.4693  1.7792 -0.8962
 4523SOL     OW25030   1.310   4.087  13.112 -0.4044 -0.1135 -0.4948
 4523SOL    HW125031   1.252   4.050  13.179 -0.4697  0.0179 -0.4791
 4523SOL    HW225032   1.242   4.130  13.060 -0.6910  0.7550  0.6031
 4524SOL     OW25033   2.442   3.666   2.219 -0.1824  0.0003  0.1971
 4524SOL    HW125034   2.489   3.594   2.261 -1.5818 -1.2296 -0.3442
 4524SOL    HW225035   2.380   3.631   2.155  0.0098 -0.0615  0.0468
 4525SOL     OW25036   1.839   0.994   7.613 -0.0837  0.0962 -0.2124
 4525SOL    HW125037   1.801   0.988   7.701 -1.9686  2.8258 -0.8565
 4525SOL    HW225038   1.929   1.026   7.625 -0.3102  0.4218  0.5859
 4526SOL     OW25039   0.517   1.923   6.893  0.8453  0.4035 -0.1154
 4526SOL    HW125040   0.494   1.947   6.983 -0.5009 -2.3180  0.2659
 4526SOL    HW225041   0.605   1.960   6.891  0.4191  1.3300 -1.4456
 4527SOL     OW25042   1.193   0.554   6.792  0.1385 -0.0180  0.0407
 4527SOL    HW125043   1.252   0.620   6.828  0.9821 -1.1311  0.6935
 4527SOL    HW225044   1.248   0.476   6.802  0.4581  0.2958  0.7051
 4528SOL     OW25045   3.963   3.558   9.651 -0.1607 -0.4076  0.6101
 4528SOL    HW125046   3.999   3.492   9.711 -0.3814 -0.7758  0.3343
 4528SOL    HW225047   4.024   3.554   9.578 -0.8391  1.2408 -0.0399
 4529SOL     OW25048   4.053   2.995  15.487 -0.0185  0.2789  0.1277
 4529SOL    HW125049   4.089   2.924  15.434  0.7223  0.1053  0.8724
 4529SOL    HW225050   3.966   3.005  15.448  0.0302  0.8476  0.1611
 4530SOL     OW25051   0.702   4.095   8.082  0.4229 -0.2786 -0.5324
 4530SOL    HW125052   0.751   4.171   8.114  1.1459 -1.4172  1.0655
 4530SOL    HW225053   0.702   4.100   7.986  1.2046  1.4994 -0.4399
 4531SOL     OW25054   3.925   2.003   3.694  0.2081  0.5247 -0.4054
 4531SOL    HW125055   3.964   2.020   3.608  0.2616 -0.9858 -0.6808
 4531SOL    HW225056   3.837   2.035   3.676 -0.0170  1.3841  2.2300
 4532SOL     OW25057   4.465   4.519   6.488 -0.2799 -0.4131 -0.2343
 4532SOL    HW125058   4.403   4.453   6.454 -0.4666 -0.4090  0.0934
 4532SOL    HW225059   4.447   4.591   6.428  0.9144  0.8684  0.9622
 4533SOL     OW25060   1.130   0.775   4.052  0.5038  0.0917 -0.1926
 4533SOL    HW125061   1.181   0.822   3.985 -1.2334 -0.2668 -1.7596
 4533SOL    HW225062   1.067   0.845   4.068  0.4464  0.5013 -2.1782
 4534SOL     OW25063   4.607   3.859   4.358  0.1042  0.5376 -0.0442
 4534SOL    HW125064   4.584   3.906   4.278  0.1230  1.3059  0.3978
 4534SOL    HW225065   4.666   3.921   4.402 -1.0439  1.3342  0.3815
 4535SOL     OW25066   0.805   0.992   2.499  0.7016 -0.1855  0.3343
 4535SOL    HW125067   0.734   0.935   2.471 -0.5634  1.0573  1.0296
 4535SOL    HW225068   0.818   0.970   2.592 -0.2972  0.2265  0.5727
 4536SOL     OW25069   3.089   2.568   1.445  0.3320 -0.2034  0.1085
 4536SOL    HW125070   3.161   2.523   1.490  0.8257 -1.0210 -1.4894
 4536SOL    HW225071   3.115   2.659   1.461 -1.3200  0.6226 -1.9802
 4537SOL     OW25072   0.027   2.926   5.493  0.2874  0.2688  0.2357
 4537SOL    HW125073   4.722   2.913   5.582  0.7660 -0.9645  0.2383
 4537SOL    HW225074   4.676   2.940   5.441 -0.4107  1.1474  1.5198
 4538SOL     OW25075   2.530   3.533   3.533  0.3347  0.3600  0.0816
 4538SOL    HW125076   2.564   3.467   3.473 -1.5058  0.7042 -1.3495
 4538SOL    HW225077   2.458   3.569   3.481  0.4422  1.9087  0.9915
 4539SOL     OW25078   4.727   1.934  12.673  0.3773 -0.1656  0.3076
 4539SOL    HW125079   4.675   2.010  12.701  0.1167 -0.6234  1.0483
 4539SOL    HW225080   0.033   1.960  12.587  1.1847 -0.9702  0.3920
 4540SOL     OW25081   4.117   4.625  15.998 -0.2880  0.1898 -0.3693
 4540SOL    HW125082   4.109   4.719  16.008 -0.1603  0.1392  0.2009
 4540SOL    HW225083   4.144   4.610  15.907  0.5800 -0.7375  0.0373
 4541SOL     OW25084   2.382   1.950   4.686  0.7417  0.3562 -0.0437
 4541SOL    HW125085   2.467   1.909   4.700  0.2636 -0.3298  0.8636
 4541SOL    HW225086   2.336   1.948   4.770  0.3565 -0.9747 -0.2859
 4542SOL     OW25087   4.522   0.838   2.073 -0.0897 -0.4326 -0.2725
 4542SOL    HW125088   4.463   0.778   2.028  1.7433 -2.1768 -0.3610
 4542SOL    HW225089   4.504   0.801   2.159 -1.0718 -1.7891 -1.0581
 4543SOL     OW25090   1.908   3.210   3.073 -0.0647 -0.1301  0.3867
 4543SOL    HW125091   1.910   3.279   3.139  3.9166 -0.3803  0.5484
 4543SOL    HW225092   1.834   3.236   3.019 -1.6600  0.8296  3.0216
 4544SOL     OW25093   4.023   0.879   0.709  0.3592 -0.0912 -0.3228
 4544SOL    HW125094   3.955   0.935   0.672  0.6590 -0.6297 -1.7002
 4544SOL    HW225095   4.000   0.895   0.800 -2.8966 -1.2163 -0.9487
 4545SOL     OW25096   2.986   4.718   2.976  0.3367  0.1862 -0.6202
 4545SOL    HW125097   2.984   0.036   3.060 -0.0866  0.2880 -0.6824
 4545SOL    HW225098   2.968   4.627   2.999  0.3587 -0.2224 -2.2566
 4546SOL     OW25099   0.980   1.111   4.670 -0.0118  0.3092  0.0441
 4546SOL    HW125100   0.901   1.149   4.709 -0.6572 -0.7316 -0.2457
 4546SOL    HW225101   0.963   1.027   4.714 -1.1548  0.6277  0.2282
 4547SOL     OW25102   4.513   4.445   1.771 -0.2791 -0.1208  0.0394
 4547SOL    HW125103   4.574   4.496   1.824  2.0837 -0.1640 -2.6306
 4547SOL    HW225104   4.547   4.463   1.683 -1.0417  1.2675  0.0247
 4548SOL     OW25105   3.310   1.112   5.874  0.2607 -0.0398 -0.0423
 4548SOL    HW125106   3.313   1.030   5.824  2.2402  0.1442 -0.1956
 4548SOL    HW225107   3.373   1.157   5.819  0.0424 -0.6550 -0.7888
 4549SOL     OW25108   0.591   3.987  13.307  0.4957 -0.1292 -0.5921
 4549SOL    HW125109   0.654   3.917  13.324 -0.3949 -1.0889 -1.1949
 4549SOL    HW225110   0.605   3.993  13.212 -2.1582  3.2767 -0.7814
 4550SOL     OW25111   1.369   0.625  16.853  0.1168 -0.0812 -0.2566
 4550SOL    HW125112   1.298   0.561  16.857 -0.7149  1.0259  2.5178
 4550SOL    HW225113   1.348   0.661  16.767 -0.6152  0.1080  0.0029
 4551SOL     OW25114   0.714   3.279   3.956  0.0688  0.2393  0.0209
 4551SOL    HW125115   0.781   3.281   3.888 -0.1062 -0.4324 -0.1671
 4551SOL    HW225116   0.767   3.300   4.033  0.1221 -0.8592  0.2778
 4552SOL     OW25117   1.637   3.146   6.668  0.1562 -0.1935  0.3374
 4552SOL    HW125118   1.609   3.100   6.589 -1.1258 -0.7606  1.1214
 4552SOL    HW225119   1.556   3.181   6.704 -0.0287  1.0732 -1.3237
 4553SOL     OW25120   0.204   3.954   8.314  0.3915 -0.3959  0.1070
 4553SOL    HW125121   0.293   3.922   8.300  0.9465  1.5435 -0.8719
 4553SOL    HW225122   0.165   3.880   8.359 -2.2205  1.5122  0.9749
 4554SOL     OW25123   0.751   2.025   6.486  0.0543  0.5093 -0.2501
 4554SOL    HW125124   0.752   1.932   6.462 -1.3599 -0.1311  2.1736
 4554SOL    HW225125   0.807   2.059   6.416  0.3775  1.2126  0.3563
 4555SOL     OW25126   2.418   0.402   6.853 -0.4844  0.3128 -0.7858
 4555SOL    HW125127   2.478   0.440   6.917  0.4680 -2.4670 -0.0417
 4555SOL    HW225128   2.349   0.468   6.858 -0.4345  0.4302 -1.5072
 4556SOL     OW25129   4.703   0.739   8.901 -0.1513  0.1425 -0.3167
 4556SOL    HW125130   4.663   0.753   8.816 -0.8176  0.5515  0.0648
 4556SOL    HW225131   4.645   0.784   8.963  0.3301 -0.4936  0.6086
 4557SOL     OW25132   1.799   0.297   7.646 -0.0661 -0.0875  0.3668
 4557SOL    HW125133   1.813   0.259   7.559 -0.3163  0.4629  0.0888
 4557SOL    HW225134   1.845   0.380   7.634  1.0313 -0.7851 -0.2655
 4558SOL     OW25135   0.299   3.768  11.138 -0.5197 -0.3510  0.3344
 4558SOL    HW125136   0.209   3.740  11.153  0.4825 -3.6465  0.3842
 4558SOL    HW225137   0.334   3.754  11.226  0.5934 -1.2252 -0.2502
 4559SOL     OW25138   4.216   0.626   6.704 -0.3156 -0.0519  0.0072
 4559SOL    HW125139   4.235   0.573   6.626  0.3178 -0.6633  0.5718
 4559SOL    HW225140   4.286   0.591   6.758 -0.8292 -1.5567 -0.3055
 4560SOL     OW25141   2.241   4.268   8.712  0.1821 -0.0895  0.1627
 4560SOL    HW125142   2.293   4.336   8.670 -0.4116  0.4617  0.3226
 4560SOL    HW225143   2.153   4.301   8.697  0.6510  0.1788 -1.9758
 4561SOL     OW25144   3.097   2.603   5.421 -0.1831 -0.5418 -0.5318
 4561SOL    HW125145   3.036   2.631   5.489  2.4558 -1.4526  2.1914
 4561SOL    HW225146   3.039   2.547   5.370 -0.6806  0.0503 -0.6134
 4562SOL     OW25147   2.238   3.352   6.381 -0.1746 -0.0946  0.0924
 4562SOL    HW125148   2.293   3.429   6.393  2.3686 -1.7252 -1.2001
 4562SOL    HW225149   2.305   3.286   6.397  0.4602  0.5076 -0.0645
 4563SOL     OW25150   2.929   4.186  12.986  0.3718  0.2382 -0.2030
 4563SOL    HW125151   2.891   4.211  13.070  2.2376 -0.9595  1.0030
 4563SOL    HW225152   2.984   4.263  12.972 -0.8020  1.3756  1.3919
 4564SOL     OW25153   0.874   2.737   5.983  0.6225  0.2622  0.6518
 4564SOL    HW125154   0.896   2.644   5.997  0.6313  0.5168  2.3830
 4564SOL    HW225155   0.799   2.734   5.923  1.6531 -0.5753 -0.5962
 4565SOL     OW25156   2.902   2.128   3.701 -0.1728  0.3627 -0.3134
 4565SOL    HW125157   2.835   2.098   3.640 -1.3504  0.5056  0.8890
 4565SOL    HW225158   2.980   2.107   3.651  0.8034 -1.7592  2.0691
 4566SOL     OW25159   2.131   1.053   7.667  0.0938  0.5241  0.0898
 4566SOL    HW125160   2.149   1.053   7.761  1.5129  2.4558 -0.1861
 4566SOL    HW225161   2.150   1.147   7.659  0.4411  0.3445 -1.2031
 4567SOL     OW25162   0.979   1.682   1.495 -0.3353  0.2843  0.2252
 4567SOL    HW125163   0.919   1.681   1.421  0.8403 -2.3329 -0.7050
 4567SOL    HW225164   0.925   1.643   1.564  0.7506 -2.5409 -0.5213
 4568SOL     OW25165   0.879   0.896   5.468  0.2840  0.2186 -0.6560
 4568SOL    HW125166   0.829   0.970   5.432 -1.2802 -1.6409 -2.2998
 4568SOL    HW225167   0.876   0.920   5.561  1.3349 -1.2185 -0.2624
 4569SOL     OW25168   2.759   1.663   6.314 -0.0368 -0.2986 -0.1530
 4569SOL    HW125169   2.677   1.660   6.265  1.6706  1.1992 -3.0651
 4569SOL    HW225170   2.722   1.670   6.402  0.8788 -2.6663  0.4360
 4570SOL     OW25171   2.868   3.158  15.842 -0.1075  0.1191 -0.4462
 4570SOL    HW125172   2.805   3.229  15.849 -1.4036 -0.9403 -1.3181
 4570SOL    HW225173   2.817   3.077  15.843  0.9265 -0.5010  0.9281
 4571SOL     OW25174   0.540   0.547  10.109  1.1202  0.5009  0.1149
 4571SOL    HW125175   0.507   0.637  10.110 -1.4824 -0.4135 -2.8380
 4571SOL    HW225176   0.543   0.529  10.203  0.8750  0.0934  0.0465
 4572SOL     OW25177   1.874   3.910  11.275 -0.3375  0.3235  0.2099
 4572SOL    HW125178   1.784   3.943  11.276  0.0072  1.3246 -1.1106
 4572SOL    HW225179   1.924   3.988  11.251 -0.3305  0.6443  1.2829
 4573SOL     OW25180   4.343   0.024  12.370  0.2300  0.0323  0.1532
 4573SOL    HW125181   4.291   0.009  12.450 -0.2814 -2.8991 -0.7107
 4573SOL    HW225182   4.264   0.038  12.317  1.3272 -0.1847 -1.5064
 4574SOL     OW25183   2.650   1.759   4.833  0.2734  0.2054  0.1768
 4574SOL    HW125184   2.606   1.704   4.769  1.2306  2.4927 -2.4442
 4574SOL    HW225185   2.687   1.828   4.778  1.1657 -0.3478  0.0784
 4575SOL     OW25186   3.046   2.784   9.527  0.1865  0.3149  0.4433
 4575SOL    HW125187   3.028   2.774   9.620  2.5954  3.0009  1.1976
 4575SOL    HW225188   3.068   2.694   9.506 -2.1271  0.3806 -2.2755
 4576SOL     OW25189   2.240   3.627   6.082 -0.0811 -0.0515  0.8369
 4576SOL    HW125190   2.212   3.537   6.096 -0.0931 -0.1587  0.0705
 4576SOL    HW225191   2.319   3.609   6.031  0.2078 -0.1949  1.3329
 4577SOL     OW25192   3.204   3.321   1.492  0.4308 -0.3427 -0.2754
 4577SOL    HW125193   3.235   3.234   1.517  1.6367  0.6487  1.7258
 4577SOL    HW225194   3.119   3.323   1.535  0.2320  0.1568 -0.6896
 4578SOL     OW25195   1.975   4.653  10.196 -0.0458 -0.2645 -0.0890
 4578SOL    HW125196   1.942   4.610  10.275  0.3539 -1.1817 -0.4190
 4578SOL    HW225197   2.065   4.624  10.211  0.8442  1.5889 -1.9914
 4579SOL     OW25198   0.469   3.595   2.981  0.0635 -0.4194 -0.4435
 4579SOL    HW125199   0.530   3.665   2.959  1.4140 -1.0390  1.3401
 4579SOL    HW225200   0.476   3.603   3.076 -2.0816  1.7994 -0.4725
 4580SOL     OW25201   3.675   4.697   4.977  0.0292 -0.1122  0.2306
 4580SOL    HW125202   3.750   4.671   4.923  0.6065  0.3236  0.8271
 4580SOL    HW225203   3.714   0.023   5.045  0.2795  0.2455 -0.2012
 4581SOL     OW25204   0.933   2.315   6.524  0.4015  0.2646 -0.1863
 4581SOL    HW125205   0.936   2.255   6.449  2.6143  1.1189 -0.7794
 4581SOL    HW225206   0.878   2.385   6.488  0.8163 -0.4094 -2.0904
 4582SOL     OW25207   3.338   3.218  12.507  0.8707 -0.0840  0.2762
 4582SOL    HW125208   3.380   3.134  12.525  1.1417  0.4117  1.8972
 4582SOL    HW225209   3.251   3.181  12.513 -0.0743  2.2928  1.2503
 4583SOL     OW25210   0.022   4.728  11.961  0.3251  0.3502 -0.0170
 4583SOL    HW125211   0.046   0.032  11.874 -0.1908  1.8011  0.3754
 4583SOL    HW225212   4.672   4.677  11.947  0.4917 -0.8760  3.5879
 4584SOL     OW25213   4.070   3.714  11.713 -0.2181 -0.2650 -0.0719
 4584SOL    HW125214   3.991   3.661  11.719  0.2355 -0.8917  0.4246
 4584SOL    HW225215   4.048   3.776  11.644 -0.1712 -0.6754 -0.4609
 4585SOL     OW25216   0.273   3.218   3.578  0.1998  0.0998  0.1543
 4585SOL    HW125217   0.232   3.226   3.491  0.8098 -1.3022 -0.2527
 4585SOL    HW225218   0.202   3.227   3.641 -1.2256 -0.7953 -1.3049
 4586SOL     OW25219   4.046   2.448   5.777  0.0837 -0.1201  0.1097
 4586SOL    HW125220   4.091   2.517   5.728  0.7098  0.0218  0.8845
 4586SOL    HW225221   3.953   2.468   5.767 -0.1828 -0.9948  0.8453
 4587SOL     OW25222   3.150   3.464  14.045 -0.0571  0.3372 -0.1448
 4587SOL    HW125223   3.235   3.421  14.051  0.7683  2.1495  1.2832
 4587SOL    HW225224   3.087   3.393  14.058  1.9772 -1.3239  0.6305
 4588SOL     OW25225   2.718   4.185  12.013  0.0175  0.6746  0.4369
 4588SOL    HW125226   2.660   4.256  11.986  0.9441  1.9929  1.8383
 4588SOL    HW225227   2.672   4.108  11.981  0.5927 -0.1096  1.4584
 4589SOL     OW25228   0.547   2.270   5.183 -0.6986  0.0902 -0.3251
 4589SOL    HW125229   0.592   2.186   5.190 -1.5729 -0.4132 -0.8835
 4589SOL    HW225230   0.552   2.304   5.273 -0.2072  0.7314 -0.5897
 4590SOL     OW25231   4.621   2.434  16.896  0.1079 -0.0336 -0.5747
 4590SOL    HW125232   4.621   2.392  16.983  2.6189 -1.7346 -1.3853
 4590SOL    HW225233   4.659   2.364  16.843 -0.9734  0.1872 -1.6352
 4591SOL     OW25234   4.436   1.318   5.536 -0.4492 -0.1580  0.2815
 4591SOL    HW125235   4.519   1.294   5.494 -0.8800  0.5127 -0.9649
 4591SOL    HW225236   4.369   1.262   5.498 -0.3904  1.7752 -2.7112
 4592SOL     OW25237   4.585   3.069  17.118  0.0409 -0.3367  1.0036
 4592SOL    HW125238   4.523   3.133  17.154 -0.2526  0.6950 -1.3319
 4592SOL    HW225239   4.592   3.093  17.025 -2.1616 -1.6944  0.4834
 4593SOL     OW25240   2.856   1.900   0.561 -0.3504 -0.2680  0.0450
 4593SOL    HW125241   2.855   1.849   0.642 -1.1447  0.0487  0.2340
 4593SOL    HW225242   2.950   1.896   0.545 -0.3388  1.0036 -0.1545
 4594SOL     OW25243   2.581   0.681   6.224 -0.4939  0.2173 -0.0909
 4594SOL    HW125244   2.494   0.693   6.263 -1.2851 -2.5184 -1.0087
 4594SOL    HW225245   2.564   0.677   6.130 -0.3108 -2.3971  0.0013
 4595SOL     OW25246   0.360   4.624   6.066  0.6772 -0.1421 -0.1520
 4595SOL    HW125247   0.382   4.562   6.135  0.2834 -2.0932 -1.7793
 4595SOL    HW225248   0.444   4.656   6.034  0.3632 -0.4809 -1.2967
 4596SOL     OW25249   2.939   2.593   0.443  0.1203 -0.3821  0.0903
 4596SOL    HW125250   2.924   2.512   0.395  0.6938  0.6367 -1.8099
 4596SOL    HW225251   2.958   2.657   0.375 -0.0115  1.4388  1.7440
 4597SOL     OW25252   2.579   4.291   5.636  0.0963  0.0975 -0.0960
 4597SOL    HW125253   2.557   4.381   5.609  1.9717  0.8047  0.7036
 4597SOL    HW225254   2.495   4.257   5.665  0.2419 -0.6082 -0.5013
 4598SOL     OW25255   0.743   2.834  15.263  0.1488  0.7404  0.5663
 4598SOL    HW125256   0.675   2.784  15.308 -1.7846  0.1167 -3.0491
 4598SOL    HW225257   0.768   2.896  15.332  0.7099  3.0048 -1.6592
 4599SOL     OW25258   0.795   0.167   7.899 -0.2469  0.1897  0.0829
 4599SOL    HW125259   0.874   0.113   7.894 -0.0154  0.3860  1.6427
 4599SOL    HW225260   0.822   0.257   7.878 -1.1631  0.6954  1.0404
 4600SOL     OW25261   3.066   1.661   8.955 -0.2995 -0.1109  0.9531
 4600SOL    HW125262   3.090   1.569   8.964 -0.3254 -0.3833 -1.5615
 4600SOL    HW225263   2.971   1.651   8.946 -0.3424  1.3125 -0.2415
 4601SOL     OW25264   2.195   4.027   2.255 -0.3703  0.1235  0.3664
 4601SOL    HW125265   2.128   3.996   2.316  0.2528 -0.4823  0.7479
 4601SOL    HW225266   2.271   4.046   2.310  0.5573 -0.7983 -0.6151
 4602SOL     OW25267   1.213   0.281   3.197  0.4880 -0.3903  0.3420
 4602SOL    HW125268   1.185   0.322   3.115  0.5262 -2.6897 -0.8214
 4602SOL    HW225269   1.305   0.306   3.194  0.4089 -0.1976 -0.4940
 4603SOL     OW25270   2.784   3.472  16.686 -0.4309  0.2758  0.2961
 4603SOL    HW125271   2.781   3.422  16.768  0.1193 -2.2228 -1.2085
 4603SOL    HW225272   2.818   3.410  16.621 -0.1710  2.4580 -1.6496
 4604SOL     OW25273   3.524   4.337   2.232 -0.7386 -0.3543  0.3701
 4604SOL    HW125274   3.581   4.327   2.155  1.4038 -0.6745  2.0199
 4604SOL    HW225275   3.437   4.324   2.193  0.5514 -1.0247 -2.3562
 4605SOL     OW25276   3.030   3.526   5.684 -0.1342 -0.0878  0.1294
 4605SOL    HW125277   3.126   3.530   5.685 -0.0967 -0.9126 -0.4594
 4605SOL    HW225278   3.020   3.480   5.600 -1.6262  1.7945 -0.7130
 4606SOL     OW25279   3.065   1.452  16.349 -0.1804 -0.1918 -0.4265
 4606SOL    HW125280   3.054   1.541  16.383 -1.3659  0.2262 -1.9238
 4606SOL    HW225281   3.060   1.470  16.255 -2.3604 -2.0022 -0.6483
 4607SOL     OW25282   0.233   4.002   0.841 -0.2792 -0.1361  0.9466
 4607SOL    HW125283   0.291   3.941   0.797  1.5488  1.8581  0.6059
 4607SOL    HW225284   0.146   3.972   0.814  0.1037 -0.0598 -0.3383
 4608SOL     OW25285   1.224   2.548  15.063 -0.3624 -0.2021  0.2725
 4608SOL    HW125286   1.253   2.562  15.153 -0.4382 -1.8716  0.5688
 4608SOL    HW225287   1.171   2.627  15.060 -0.2635 -0.0600  2.4434
 4609SOL     OW25288   2.009   0.470   3.087 -0.1011  0.3063  0.3229
 4609SOL    HW125289   2.005   0.565   3.081  0.1787  0.3680  1.0460
 4609SOL    HW225290   2.047   0.455   3.174  2.0044  1.6921 -0.3538
 4610SOL     OW25291   3.451   4.154   1.993 -0.3945 -0.0732 -0.3949
 4610SOL    HW125292   3.419   4.083   2.049 -1.4335  0.9242  0.2627
 4610SOL    HW225293   3.389   4.223   2.015 -1.4694 -0.8035 -1.1067
 4611SOL     OW25294   0.868   0.763   3.168  0.2484  0.2596 -0.1159
 4611SOL    HW125295   0.944   0.705   3.163  0.1482  0.1432 -0.3066
 4611SOL    HW225296   0.893   0.823   3.238  0.4460 -2.2163  1.9454
 4612SOL     OW25297   0.089   2.437  16.488 -0.3774 -0.0758  0.0628
 4612SOL    HW125298   0.177   2.456  16.456  1.3595 -0.6260  4.3860
 4612SOL    HW225299   0.077   2.345  16.463  0.3808  0.0222 -0.6600
 4613SOL     OW25300   4.176   2.954  17.539 -0.7798  0.3076  0.4045
 4613SOL    HW125301   4.087   2.988  17.551 -0.9055  0.5903 -1.2976
 4613SOL    HW225302   4.210   2.948  17.628 -0.5617  0.4144  0.3293
 4614SOL     OW25303   2.153   2.142  13.429  0.4014 -0.1376  0.0050
 4614SOL    HW125304   2.232   2.177  13.386 -1.3938  1.4632 -2.0353
 4614SOL    HW225305   2.083   2.162  13.367 -0.5585 -2.1939  0.4425
 4615SOL     OW25306   2.676   3.817   2.926 -0.1374 -0.0729  0.2495
 4615SOL    HW125307   2.606   3.753   2.940  0.7678 -0.2432  3.8865
 4615SOL    HW225308   2.636   3.863   2.852 -1.1730 -0.7738  0.3827
 4616SOL     OW25309   2.515   3.265   0.945 -0.1978  0.0983  0.1120
 4616SOL    HW125310   2.465   3.300   1.018 -2.0181  0.0678 -1.1010
 4616SOL    HW225311   2.516   3.170   0.960 -2.8121 -0.5419 -3.6941
 4617SOL     OW25312   2.246   2.214   2.259  0.0706  0.2990  0.5252
 4617SOL    HW125313   2.174   2.232   2.199 -1.6094 -1.5398  1.9965
 4617SOL    HW225314   2.327   2.246   2.219 -1.3420  2.3713 -0.6231
 4618SOL     OW25315   4.353   3.632   8.261 -0.0143  0.4097  0.0405
 4618SOL    HW125316   4.334   3.724   8.244  3.2271  0.8768 -1.1246
 4618SOL    HW225317   4.281   3.595   8.209 -0.8223  0.2052  1.3048
 4619SOL     OW25318   1.845   0.624   5.316 -0.3941  0.2409  0.5209
 4619SOL    HW125319   1.810   0.697   5.266 -1.2789  0.6939  1.7931
 4619SOL    HW225320   1.790   0.622   5.395 -2.8399 -1.1096 -1.2128
 4620SOL     OW25321   1.404   1.970   3.979 -0.0618 -0.1958 -0.1753
 4620SOL    HW125322   1.460   1.998   4.052  1.5228 -2.4712 -0.5119
 4620SOL    HW225323   1.444   1.885   3.959 -0.2847 -0.1141 -0.9568
 4621SOL     OW25324   0.195   4.506   0.234 -0.0340 -0.4537 -0.3490
 4621SOL    HW125325   0.285   4.495   0.263 -0.2773  1.1219  0.9831
 4621SOL    HW225326   0.207   4.591   0.191  1.3340 -0.0184  0.9135
 4622SOL     OW25327   1.214   1.558   6.975 -0.0036  0.6361 -0.6290
 4622SOL    HW125328   1.222   1.591   7.065  0.6410  0.1674 -0.5131
 4622SOL    HW225329   1.278   1.487   6.972 -2.0354 -1.3517  2.9655
 4623SOL     OW25330   3.324   2.483   5.472  0.2405 -0.0279 -0.2877
 4623SOL    HW125331   3.251   2.534   5.437 -2.1892 -1.8546  2.1371
 4623SOL    HW225332   3.286   2.402   5.504  1.0165 -0.3145 -0.0859
 4624SOL     OW25333   3.151   3.609   2.072 -0.2101 -0.5841 -0.3820
 4624SOL    HW125334   3.164   3.668   1.998  1.2253  0.3507  0.6143
 4624SOL    HW225335   3.123   3.674   2.136 -0.2096 -0.1719 -0.8032
 4625SOL     OW25336   2.586   0.528   2.077 -0.5632 -0.1252  0.1604
 4625SOL    HW125337   2.556   0.462   2.139  0.4801 -0.8325 -0.0768
 4625SOL    HW225338   2.657   0.569   2.126  0.5313 -2.9788  0.9896
 4626SOL     OW25339   2.299   4.498   6.608  0.0320 -0.0710  0.4320
 4626SOL    HW125340   2.210   4.463   6.600  1.0920 -2.7903  0.5367
 4626SOL    HW225341   2.310   4.503   6.703  0.9647  0.8486  0.2679
 4627SOL     OW25342   3.738   4.099   6.205 -0.3303 -0.4859 -0.4598
 4627SOL    HW125343   3.833   4.104   6.195 -0.5544  0.3527 -2.3388
 4627SOL    HW225344   3.727   4.160   6.277 -2.5804 -0.1276 -1.1006
 4628SOL     OW25345   2.746   0.238  12.784  0.1556 -0.1483  0.2240
 4628SOL    HW125346   2.729   0.166  12.722 -0.9660  0.4204 -0.1284
 4628SOL    HW225347   2.718   0.320  12.745  1.5431 -0.1277 -0.7363
 4629SOL     OW25348   3.659   1.169   3.830 -0.4037  0.2803  0.0591
 4629SOL    HW125349   3.662   1.261   3.803  0.1690  0.0108 -0.7917
 4629SOL    HW225350   3.709   1.132   3.758  1.4002  0.3953  1.2603
 4630SOL     OW25351   0.566   1.287   8.458  0.7945  0.6078  0.0909
 4630SOL    HW125352   0.616   1.227   8.513  2.0094  1.1038 -0.4520
 4630SOL    HW225353   0.540   1.230   8.386 -2.0378  1.0222  0.7877
 4631SOL     OW25354   1.180   2.758  11.401 -0.1770  0.1306 -0.5482
 4631SOL    HW125355   1.224   2.808  11.470  0.7434  0.1074 -1.1289
 4631SOL    HW225356   1.223   2.672  11.400  1.7218  1.0327  2.6384
 4632SOL     OW25357   1.888   1.514   1.115  0.3084 -0.1632 -0.5879
 4632SOL    HW125358   1.956   1.483   1.174  1.4282  1.6156 -0.9613
 4632SOL    HW225359   1.856   1.585   1.170  0.3444  0.3569 -1.2302
 4633SOL     OW25360   3.254   1.241   4.889 -0.3768 -0.5187  0.1545
 4633SOL    HW125361   3.294   1.156   4.872  1.4844  0.6100 -1.1624
 4633SOL    HW225362   3.163   1.228   4.864 -0.3778  2.0634 -1.1805
 4634SOL     OW25363   1.786   1.168   1.728 -0.7617 -0.1437  0.0298
 4634SOL    HW125364   1.772   1.199   1.818 -0.4710  0.0927 -0.0049
 4634SOL    HW225365   1.706   1.122   1.704 -0.3629 -1.3246  0.9410
 4635SOL     OW25366   1.848   1.476   7.984  0.1692  0.3107  0.8874
 4635SOL    HW125367   1.794   1.412   8.030  0.3910  0.5851  1.5277
 4635SOL    HW225368   1.801   1.507   7.907 -1.1265 -0.9561  1.1788
 4636SOL     OW25369   2.617   0.024   3.209  0.4423 -0.6574  0.1040
 4636SOL    HW125370   2.706   0.008   3.241  0.0994 -1.8967  0.4445
 4636SOL    HW225371   2.621   0.117   3.229  1.9548 -0.3217 -1.7432
 4637SOL     OW25372   1.024   1.234   8.459  0.4403  0.4578  0.0304
 4637SOL    HW125373   1.053   1.200   8.543 -0.0233  1.2895  0.5294
 4637SOL    HW225374   0.992   1.321   8.485 -1.1808 -0.7160  1.9452
 4638SOL     OW25375   0.942   4.155  14.994 -0.1283 -0.2416  0.0734
 4638SOL    HW125376   0.992   4.213  14.936 -2.1527 -0.4233 -1.8751
 4638SOL    HW225377   0.998   4.133  15.068  2.1150 -0.1644 -1.5675
 4639SOL     OW25378   0.513   4.174   6.480 -0.5468 -0.1694 -0.8190
 4639SOL    HW125379   0.420   4.153   6.490 -0.4117 -1.4918 -2.2939
 4639SOL    HW225380   0.538   4.185   6.388 -0.1414  0.7096 -0.6064
 4640SOL     OW25381   2.204   3.654  10.735 -0.0912  0.3317 -0.5159
 4640SOL    HW125382   2.183   3.614  10.651 -1.4575 -1.3019  0.6025
 4640SOL    HW225383   2.146   3.730  10.739  0.7125  1.0320 -2.1878
 4641SOL     OW25384   1.217   0.644   8.895 -0.2641 -0.5175 -0.0265
 4641SOL    HW125385   1.166   0.652   8.976 -2.1222  2.3290 -1.4791
 4641SOL    HW225386   1.253   0.555   8.893  0.1802 -0.3276 -0.5120
 4642SOL     OW25387   0.289   0.176   5.262  0.1534 -0.1438 -0.0308
 4642SOL    HW125388   0.249   0.258   5.234  0.7705  0.3339  0.4737
 4642SOL    HW225389   0.287   0.139   5.174  1.8461 -2.3070  0.8294
 4643SOL     OW25390   0.707   2.508   5.665  0.5603  0.5885 -0.1697
 4643SOL    HW125391   0.709   2.442   5.595  2.3139  1.5390 -1.0115
 4643SOL    HW225392   0.795   2.544   5.655  1.9240 -2.3165  1.4854
 4644SOL     OW25393   3.239   1.215   7.268 -0.5422 -0.7723  0.0700
 4644SOL    HW125394   3.227   1.244   7.178  2.8764 -0.1682 -0.1918
 4644SOL    HW225395   3.148   1.194   7.287 -1.0042 -0.8428 -2.1788
 4645SOL     OW25396   1.234   3.618   3.240 -0.3757  0.1615  0.4600
 4645SOL    HW125397   1.189   3.656   3.315 -1.3842  2.1930 -1.1889
 4645SOL    HW225398   1.292   3.693   3.229 -2.3230  1.7091  0.7511
 4646SOL     OW25399   2.386   4.584   7.170 -0.0802 -0.3175 -0.9341
 4646SOL    HW125400   2.392   4.666   7.220  1.1350 -0.7732 -0.3322
 4646SOL    HW225401   2.296   4.594   7.141 -0.2560 -0.9874 -0.6221
 4647SOL     OW25402   3.089   0.670   5.581  0.0387 -0.3297 -0.9233
 4647SOL    HW125403   3.062   0.659   5.490  0.9844 -0.8458 -1.1385
 4647SOL    HW225404   3.149   0.595   5.583 -1.5749 -1.5634  0.7584
 4648SOL     OW25405   1.575   0.276   8.092 -0.3284  0.0813 -0.2904
 4648SOL    HW125406   1.641   0.281   8.023 -0.8996 -0.3822 -0.8615
 4648SOL    HW225407   1.629   0.266   8.171  1.4067 -1.1224 -1.6509
 4649SOL     OW25408   0.084   2.830  15.991  0.3208 -0.0889  0.9502
 4649SOL    HW125409   0.070   2.806  16.083  1.3931 -0.2527  1.0714
 4649SOL    HW225410   4.719   2.832  15.971  0.5584  0.9850 -0.0539
 4650SOL     OW25411   3.655   1.410  13.226  0.5172 -0.0914  0.5360
 4650SOL    HW125412   3.587   1.352  13.193 -0.6847  0.8375  1.3805
 4650SOL    HW225413   3.666   1.467  13.150 -3.0759 -0.9498 -0.6023
 4651SOL     OW25414   4.073   0.060   3.581 -0.0030 -0.3349  0.3464
 4651SOL    HW125415   4.167   0.041   3.579 -0.0722 -0.8132  1.7221
 4651SOL    HW225416   4.063   0.116   3.658  0.4001 -0.4246  0.4604
 4652SOL     OW25417   1.950   0.580  12.415  0.0541  0.0172 -0.2047
 4652SOL    HW125418   1.871   0.595  12.363 -0.1249 -0.7825 -0.1724
 4652SOL    HW225419   1.936   0.649  12.479 -0.5516 -0.0153 -0.2991
 4653SOL     OW25420   1.932   4.155   3.933 -0.1775 -0.4294 -0.1842
 4653SOL    HW125421   1.931   4.204   3.851 -0.3966  0.1098  0.1388
 4653SOL    HW225422   1.966   4.216   3.998 -2.0644 -0.2260  0.6333
 4654SOL     OW25423   1.055   0.789   2.559 -0.0333  0.0241 -0.1218
 4654SOL    HW125424   1.040   0.826   2.473  0.5725  1.1681  0.2674
 4654SOL    HW225425   1.090   0.702   2.539 -0.6904 -0.5112  1.0671
 4655SOL     OW25426   1.280   2.921   7.310 -0.1904 -0.4475  0.8164
 4655SOL    HW125427   1.367   2.946   7.280  0.1198 -2.6997 -0.0981
 4655SOL    HW225428   1.229   2.951   7.234  1.6564 -1.8101 -0.9348
 4656SOL     OW25429   0.723   4.126  14.176  0.4208 -0.5911 -0.1468
 4656SOL    HW125430   0.709   4.032  14.193  2.2445 -0.7717  0.2998
 4656SOL    HW225431   0.683   4.167  14.252  0.8569 -0.8128  0.2044
 4657SOL     OW25432   1.359   2.616   7.216  0.0112  0.6441 -0.1697
 4657SOL    HW125433   1.451   2.630   7.237 -0.2627  0.6144  1.0203
 4657SOL    HW225434   1.317   2.614   7.301 -1.7399  2.3793 -0.9842
 4658SOL     OW25435   1.832   1.905   1.555  0.3041  0.1669  0.1385
 4658SOL    HW125436   1.848   1.991   1.517  1.8216  0.1017  0.6417
 4658SOL    HW225437   1.761   1.934   1.612  0.3554  0.7129 -0.0734
 4659SOL     OW25438   1.947   3.627   5.705  0.4435  0.3665  0.2643
 4659SOL    HW125439   2.037   3.612   5.735  0.8681  1.6160 -0.3517
 4659SOL    HW225440   1.955   3.626   5.609  3.3772 -3.0824  0.5479
 4660SOL     OW25441   1.438   2.798  11.805 -0.2772  0.1143 -0.0298
 4660SOL    HW125442   1.489   2.856  11.862  1.5041 -0.7636 -0.7387
 4660SOL    HW225443   1.430   2.716  11.854 -3.1755  1.7255  2.2771
 4661SOL     OW25444   1.981   4.010  15.737 -0.0185 -0.0762  0.4854
 4661SOL    HW125445   2.004   4.066  15.663  0.5281 -1.7464 -0.5944
 4661SOL    HW225446   2.040   4.045  15.804  1.2303 -0.6902 -0.3060
 4662SOL     OW25447   1.821   1.757  13.692  0.0458  0.4244  0.1983
 4662SOL    HW125448   1.850   1.678  13.738 -0.9920 -1.0772 -1.7459
 4662SOL    HW225449   1.874   1.827  13.731 -0.2966  1.7441 -1.6976
 4663SOL     OW25450   3.361   2.806   4.088 -0.8550  0.3029 -0.0647
 4663SOL    HW125451   3.345   2.896   4.059 -0.5575  0.0513 -0.9963
 4663SOL    HW225452   3.344   2.801   4.182 -0.8321  0.6307 -0.0448
 4664SOL     OW25453   1.152   3.851   9.005  0.5227 -0.7112 -0.3088
 4664SOL    HW125454   1.226   3.908   9.025  0.0376 -0.3782  0.5488
 4664SOL    HW225455   1.186   3.802   8.931  0.6481 -1.5891  0.3313
 4665SOL     OW25456   3.526   3.524   8.991  0.8222  0.0453 -0.3977
 4665SOL    HW125457   3.478   3.606   8.996  0.0945 -0.5094  1.7209
 4665SOL    HW225458   3.527   3.512   8.896 -2.1230 -0.1709 -0.3813
 4666SOL     OW25459   1.869   1.945  14.719  0.0816 -0.5048  0.0372
 4666SOL    HW125460   1.892   1.873  14.661 -0.1764  0.3263 -1.1149
 4666SOL    HW225461   1.773   1.935  14.724 -0.2932  3.1855  0.4460
 4667SOL     OW25462   2.803   4.555   6.488 -0.3332 -0.1257  0.1067
 4667SOL    HW125463   2.898   4.558   6.493 -0.4611  2.5397  1.0660
 4667SOL    HW225464   2.776   4.501   6.563 -2.6886  0.1114 -0.5724
 4668SOL     OW25465   1.993   3.275   7.645  0.3537  0.2338  0.2803
 4668SOL    HW125466   2.079   3.299   7.611  0.2011  1.1497  0.5275
 4668SOL    HW225467   1.970   3.212   7.578 -2.6644  1.5890  0.0299
 4669SOL     OW25468   1.596   3.600   6.071  0.0593  0.0443 -0.2720
 4669SOL    HW125469   1.636   3.679   6.106 -1.2262  0.0991  1.0407
 4669SOL    HW225470   1.617   3.618   5.979  1.2471  0.4659  0.0760
 4670SOL     OW25471   2.772   4.088  13.605  0.2532  0.4527  0.2847
 4670SOL    HW125472   2.753   4.112  13.514  0.8554 -0.5628 -0.1101
 4670SOL    HW225473   2.699   4.037  13.638  0.8929 -0.9536 -0.4984
 4671SOL     OW25474   2.993   2.357   7.161  0.2127 -0.2396  0.3624
 4671SOL    HW125475   2.951   2.273   7.179 -1.7335  1.0634  1.8025
 4671SOL    HW225476   3.082   2.320   7.169  0.6523  0.8118  0.3108
 4672SOL     OW25477   1.619   0.386  14.610  0.1879  0.6459 -0.0501
 4672SOL    HW125478   1.549   0.349  14.664  0.4518  1.7070  0.9964
 4672SOL    HW225479   1.586   0.475  14.594  0.4973  0.5676 -1.1209
 4673SOL     OW25480   4.181   2.851   7.046 -0.2088  0.0355 -0.0715
 4673SOL    HW125481   4.240   2.801   7.102 -0.6660 -3.5207 -2.7054
 4673SOL    HW225482   4.221   2.836   6.960 -2.0446 -0.0997 -0.9167
 4674SOL     OW25483   0.775   1.481   9.464  0.0431 -0.7010 -0.3850
 4674SOL    HW125484   0.729   1.524   9.392 -0.6900  0.2651  0.6700
 4674SOL    HW225485   0.819   1.559   9.496 -0.4987 -0.7898  0.5761
 4675SOL     OW25486   1.164   0.622   0.584 -0.4335  0.1394  0.2566
 4675SOL    HW125487   1.252   0.617   0.621  0.6764  0.1484 -2.3382
 4675SOL    HW225488   1.151   0.716   0.590 -0.3281  0.0852  1.2204
 4676SOL     OW25489   3.010   4.445   7.146 -0.0385 -0.0869  0.5260
 4676SOL    HW125490   3.003   4.485   7.059 -1.5186 -1.8753 -0.1885
 4676SOL    HW225491   3.053   4.367   7.111 -1.4993  0.0296 -1.5458
 4677SOL     OW25492   1.927   3.913   8.489  0.1949 -0.3633  0.0269
 4677SOL    HW125493   1.945   3.979   8.557  0.9430  0.1529 -0.6716
 4677SOL    HW225494   1.918   3.831   8.537 -0.4101 -0.8362 -0.9169
 4678SOL     OW25495   4.367   0.570   2.263 -0.5583  0.7668 -0.5594
 4678SOL    HW125496   4.358   0.586   2.169 -0.5728 -4.3020 -1.4230
 4678SOL    HW225497   4.461   0.549   2.263 -0.7827 -0.2728 -2.3614
 4679SOL     OW25498   1.485   0.928   1.940  0.0587 -0.0434 -0.0757
 4679SOL    HW125499   1.399   0.905   1.905 -0.7467  1.6117  0.7965
 4679SOL    HW225500   1.533   0.944   1.859 -0.5679 -1.9032 -0.8212
 4680SOL     OW25501   1.737   3.592   1.367 -0.2191  0.4697 -0.4227
 4680SOL    HW125502   1.653   3.548   1.371  1.1987 -2.2094 -0.3799
 4680SOL    HW225503   1.716   3.685   1.354 -2.0871  0.3392  1.5999
 4681SOL     OW25504   1.210   3.709  11.587 -0.4962 -0.3474 -0.0118
 4681SOL    HW125505   1.252   3.751  11.663 -0.9586 -1.9834  1.1544
 4681SOL    HW225506   1.288   3.674  11.544 -0.0746  2.2015 -1.3303
 4682SOL     OW25507   0.833   1.058   2.227 -0.7622 -0.1752  0.4036
 4682SOL    HW125508   0.838   1.010   2.309  2.5581 -1.4040 -0.4918
 4682SOL    HW225509   0.924   1.069   2.197 -0.4661 -0.5364  1.1656
 4683SOL     OW25510   3.361   3.701  11.851  0.0543  0.4992  0.1049
 4683SOL    HW125511   3.318   3.686  11.935  1.3224  1.8100  0.9745
 4683SOL    HW225512   3.449   3.664  11.863  0.5423  1.0560 -1.7784
 4684SOL     OW25513   3.238   2.511   3.334  0.0809  0.3859  0.0028
 4684SOL    HW125514   3.317   2.466   3.364 -0.1569  0.8232  1.3087
 4684SOL    HW225515   3.192   2.448   3.279 -0.1575  1.8105 -1.4114
 4685SOL     OW25516   1.640   2.921   2.265 -0.2029 -0.1399  0.1300
 4685SOL    HW125517   1.646   2.835   2.224 -1.7291 -0.4741  0.6037
 4685SOL    HW225518   1.553   2.956   2.246  0.3123  0.5255 -1.0571
 4686SOL     OW25519   3.666   2.904   2.452  0.0978  0.1523 -0.3618
 4686SOL    HW125520   3.597   2.934   2.394 -0.8713  0.9242  1.1907
 4686SOL    HW225521   3.737   2.968   2.441  0.6224 -0.1348  1.2850
 4687SOL     OW25522   4.560   2.605  17.541 -0.1509 -1.2275  0.6892
 4687SOL    HW125523   4.607   2.525  17.567  1.5913  0.0623  1.4739
 4687SOL    HW225524   4.571   2.666  17.614 -0.4569 -1.7313  1.1676
 4688SOL     OW25525   1.334   1.653  17.305  0.1077  0.2067  0.1678
 4688SOL    HW125526   1.355   1.570  17.348  0.6681  0.5015  0.4650
 4688SOL    HW225527   1.372   1.711  17.371 -0.2662  0.1869  0.3988
 4689SOL     OW25528   0.771   0.535   8.699 -0.0233 -0.1059  0.2359
 4689SOL    HW125529   0.679   0.514   8.683  0.0734  0.2522 -0.7628
 4689SOL    HW225530   0.768   0.535   8.795  1.0245  0.1289  0.2675
 4690SOL     OW25531   1.565   4.336   5.711 -0.3452  0.2004 -0.3277
 4690SOL    HW125532   1.588   4.267   5.648  0.6272  0.5026 -0.3098
 4690SOL    HW225533   1.505   4.294   5.772 -0.2319 -2.5798 -2.1419
 4691SOL     OW25534   1.028   0.083   6.106 -0.4398 -0.2487 -0.6890
 4691SOL    HW125535   0.998   0.135   6.180 -2.5280  0.3702 -1.9471
 4691SOL    HW225536   1.004   4.721   6.126 -0.9630 -0.1443 -0.8390
 4692SOL     OW25537   3.856   4.350   2.692 -0.3573 -0.3900 -0.4840
 4692SOL    HW125538   3.834   4.418   2.755 -1.9821 -0.7320 -0.6774
 4692SOL    HW225539   3.946   4.376   2.672 -0.3766  1.4651  1.9056
 4693SOL     OW25540   2.625   1.249   9.148  0.3481  0.5394 -0.0348
 4693SOL    HW125541   2.682   1.290   9.212 -0.7549  3.3443 -0.8519
 4693SOL    HW225542   2.693   1.201   9.101  0.1475 -1.0705  1.3080
 4694SOL     OW25543   0.633   2.026   7.965 -0.0395 -0.2613 -0.2795
 4694SOL    HW125544   0.699   2.093   7.982 -1.1991  0.8311 -0.1050
 4694SOL    HW225545   0.663   1.953   8.019  1.4284 -0.3840 -1.2372
 4695SOL     OW25546   1.310   1.579   2.969  0.5352  0.0096 -0.0486
 4695SOL    HW125547   1.353   1.496   2.991 -0.8956 -0.2698  1.6584
 4695SOL    HW225548   1.260   1.554   2.891 -0.8162 -0.5181  0.9999
 4696SOL     OW25549   1.316   2.144   5.440 -0.1808 -0.1869  0.1730
 4696SOL    HW125550   1.330   2.182   5.353  1.3089  1.9972  1.3462
 4696SOL    HW225551   1.374   2.205   5.487 -0.2348  0.8678 -1.1037
 4697SOL     OW25552   4.346   2.418  13.661 -1.0061  0.3693 -0.4198
 4697SOL    HW125553   4.311   2.423  13.572 -0.9402 -0.5375 -0.5027
 4697SOL    HW225554   4.355   2.323  13.665 -0.1631  0.3435 -2.8599
 4698SOL     OW25555   0.126   1.074   2.610  0.6041  1.2033 -0.2720
 4698SOL    HW125556   0.050   1.132   2.621 -0.2309  0.0136  0.1720
 4698SOL    HW225557   0.110   1.045   2.521 -0.3073  0.9945 -0.0457
 4699SOL     OW25558   1.843   3.193   6.167  0.0056 -0.3480  0.6055
 4699SOL    HW125559   1.769   3.247   6.140 -1.7493 -3.1535 -0.3067
 4699SOL    HW225560   1.875   3.178   6.078 -2.5226 -0.2049 -0.3315
 4700SOL     OW25561   2.704   3.018  10.760  0.5246  0.4041 -0.3639
 4700SOL    HW125562   2.645   3.025  10.686  0.6255 -0.0969 -0.4875
 4700SOL    HW225563   2.697   2.926  10.786  0.5558  0.8430  1.2070
 4701SOL     OW25564   2.892   0.542  15.676 -0.1507 -0.5138  0.8892
 4701SOL    HW125565   2.876   0.571  15.586 -0.9770 -2.4677  0.4001
 4701SOL    HW225566   2.970   0.593  15.694  0.3929 -1.0589  0.0696
 4702SOL     OW25567   1.944   4.627   6.437 -0.3705  0.3082  0.1375
 4702SOL    HW125568   1.869   4.634   6.497  0.7970  2.0564  1.4009
 4702SOL    HW225569   1.994   4.561   6.484 -4.6564 -2.2004  1.2465
 4703SOL     OW25570   0.312   0.002   9.596 -0.3681 -0.0969  0.8228
 4703SOL    HW125571   0.365   4.720   9.517 -3.3900  0.0853 -1.2336
 4703SOL    HW225572   0.308   0.097   9.603 -1.3222 -0.2055  1.7544
 4704SOL     OW25573   1.945   4.629  15.476  0.1730  0.2752 -0.1860
 4704SOL    HW125574   2.028   4.662  15.511 -0.5833  2.0401 -0.0621
 4704SOL    HW225575   1.893   4.709  15.470  0.8699  0.7867  0.6126
 4705SOL     OW25576   4.075   0.948   7.480  0.0842  0.2676 -0.7785
 4705SOL    HW125577   4.100   1.023   7.534  1.9982 -2.4262  2.1120
 4705SOL    HW225578   3.992   0.926   7.522 -0.3753 -0.6191 -2.1479
 4706SOL     OW25579   1.189   0.093   8.285 -0.0680  0.2503  0.1639
 4706SOL    HW125580   1.119   0.054   8.339 -1.0322  0.3058 -1.0587
 4706SOL    HW225581   1.136   0.172   8.276 -0.7373  0.0126  1.8405
 4707SOL     OW25582   4.501   2.443   3.601 -0.4374  0.1797 -0.0235
 4707SOL    HW125583   4.436   2.374   3.587 -0.5558 -0.2869  2.7796
 4707SOL    HW225584   4.586   2.408   3.574 -0.6995 -0.1646 -0.3978
 4708SOL     OW25585   2.415   0.094  15.390  0.0471 -0.4095 -0.3820
 4708SOL    HW125586   2.447   0.033  15.323  1.8737  2.2489 -1.9640
 4708SOL    HW225587   2.496   0.102  15.440  0.5216  0.3501 -1.2725
 4709SOL     OW25588   1.663   4.129  17.185 -0.0961 -0.1800 -0.0790
 4709SOL    HW125589   1.748   4.114  17.145 -1.1619 -0.5395 -2.2056
 4709SOL    HW225590   1.624   4.183  17.117  1.5087  1.1557  0.0766
 4710SOL     OW25591   0.728   1.584   1.902  0.1466  0.0415  0.1598
 4710SOL    HW125592   0.647   1.634   1.894  0.4357  0.0679 -2.8450
 4710SOL    HW225593   0.693   1.530   1.972 -0.3959  0.1829 -0.0075
 4711SOL     OW25594   0.743   1.722   2.578 -0.1021  0.1450 -0.5450
 4711SOL    HW125595   0.792   1.714   2.660 -0.3217  0.2441 -0.4052
 4711SOL    HW225596   0.815   1.753   2.524 -1.4714  0.3663 -2.2572
 4712SOL     OW25597   3.112   2.403   2.555  0.4011 -0.0491  0.4728
 4712SOL    HW125598   3.115   2.369   2.645 -0.2198 -1.3527  0.0088
 4712SOL    HW225599   3.057   2.340   2.508 -0.1227  1.0308 -0.3651
 4713SOL     OW25600   3.651   3.358  12.089 -0.4472  0.1182 -0.4711
 4713SOL    HW125601   3.731   3.309  12.111  0.7145  2.4334  0.4939
 4713SOL    HW225602   3.582   3.315  12.138  1.5954 -2.2858  0.3309
 4714SOL     OW25603   0.937   1.551  16.775 -0.1479  0.1340  0.1800
 4714SOL    HW125604   1.030   1.541  16.794 -0.2613 -0.4364  0.4442
 4714SOL    HW225605   0.910   1.571  16.864  0.1745  0.5017  0.1963
 4715SOL     OW25606   1.761   1.577   2.594 -0.0578 -0.2404  0.6860
 4715SOL    HW125607   1.683   1.581   2.539  1.7831 -0.0030 -1.9153
 4715SOL    HW225608   1.787   1.669   2.602 -0.0289 -0.2605  0.8354
 4716SOL     OW25609   3.321   0.772   2.472  0.2288  0.3497 -0.4166
 4716SOL    HW125610   3.304   0.684   2.440  0.4495 -1.0138  3.1781
 4716SOL    HW225611   3.239   0.797   2.514  0.9234 -2.4932  2.5713
 4717SOL     OW25612   3.007   3.624  12.025  0.1772  0.1627  0.2370
 4717SOL    HW125613   3.072   3.622  12.095 -0.2651 -0.2957  0.6348
 4717SOL    HW225614   3.014   3.531  12.005  1.3005  0.3146 -0.0987
 4718SOL     OW25615   1.562   1.564  12.384 -0.0676 -0.1618  0.5035
 4718SOL    HW125616   1.612   1.488  12.355  2.2564  1.2564  0.7666
 4718SOL    HW225617   1.472   1.536  12.369  0.3937 -0.9902 -0.6861
 4719SOL     OW25618   1.228   0.384   5.406 -0.4974 -0.4866  0.1182
 4719SOL    HW125619   1.286   0.419   5.338 -1.1323 -2.3466 -1.3788
 4719SOL    HW225620   1.167   0.458   5.413 -0.9191 -0.6579 -1.7171
 4720SOL     OW25621   0.742   4.665  12.138  0.1551  0.7013  0.4851
 4720SOL    HW125622   0.819   4.609  12.134  1.2624  2.3380 -1.0621
 4720SOL    HW225623   0.783   0.023  12.141 -2.3544  1.8986  0.3146
 4721SOL     OW25624   0.472   1.974   7.157 -0.3509  0.4018 -0.1129
 4721SOL    HW125625   0.466   2.067   7.177  0.7834  1.0920 -3.0185
 4721SOL    HW225626   0.490   1.946   7.247  0.0134  1.2527  0.0746
 4722SOL     OW25627   1.084   4.091  13.271  0.3552  0.2302  0.5963
 4722SOL    HW125628   1.015   4.128  13.326  1.0219 -0.7492  2.0928
 4722SOL    HW225629   1.125   4.033  13.335 -2.8371 -1.5319  1.0500
 4723SOL     OW25630   0.286   1.668  15.614 -0.4402  0.1434  0.3476
 4723SOL    HW125631   0.240   1.639  15.535 -1.6181 -1.6258  1.7148
 4723SOL    HW225632   0.304   1.759  15.588 -4.7843  0.2663 -2.1744
 4724SOL     OW25633   0.697   4.643   4.323  0.1565  0.5443 -0.3786
 4724SOL    HW125634   0.690   4.682   4.236 -0.5689 -0.7261 -0.8968
 4724SOL    HW225635   0.719   4.553   4.298 -1.0198 -0.5355  2.4136
 4725SOL     OW25636   3.058   0.319   7.453 -0.6619 -0.0297  0.1712
 4725SOL    HW125637   3.096   0.262   7.520  2.0564 -1.7369 -2.8391
 4725SOL    HW225638   2.986   0.264   7.422  2.3402 -3.4066 -0.7437
 4726SOL     OW25639   3.964   4.033   1.090  0.0270  0.7327 -0.1903
 4726SOL    HW125640   4.025   4.056   1.020  0.4092 -0.8220 -0.3646
 4726SOL    HW225641   4.020   4.021   1.167 -1.1280 -2.6837  0.1430
 4727SOL     OW25642   1.656   0.583  15.798  0.2928 -0.1419 -0.1076
 4727SOL    HW125643   1.639   0.653  15.860 -2.0946  0.2514 -1.2196
 4727SOL    HW225644   1.700   0.636  15.731  1.0036  0.4625  0.8450
 4728SOL     OW25645   1.002   0.616   5.703  0.4405  0.2738 -0.1808
 4728SOL    HW125646   0.997   0.609   5.798 -0.6187  0.3011 -0.2368
 4728SOL    HW225647   0.923   0.568   5.679  1.0987 -2.4241  3.0764
 4729SOL     OW25648   4.291   2.642  16.335  0.4006  0.2440  0.1019
 4729SOL    HW125649   4.251   2.694  16.265 -1.5458 -0.2539  0.8308
 4729SOL    HW225650   4.358   2.704  16.364  0.5772  0.4728 -0.8002
 4730SOL     OW25651   1.306   1.006   4.256  0.3367  0.4897  0.0905
 4730SOL    HW125652   1.347   1.000   4.169 -1.0784  0.7595 -0.5921
 4730SOL    HW225653   1.249   1.083   4.253 -0.8329 -0.4702 -2.4542
 4731SOL     OW25654   3.069   3.944  13.025 -0.2619  0.1815  0.0931
 4731SOL    HW125655   3.015   4.021  13.041  1.6006  1.1162  1.9830
 4731SOL    HW225656   3.110   3.966  12.941  2.3656 -0.5687  1.1589
 4732SOL     OW25657   1.687   1.701   5.443  0.2454 -0.2702 -0.1191
 4732SOL    HW125658   1.596   1.704   5.412  1.5108 -1.6079 -3.8953
 4732SOL    HW225659   1.688   1.637   5.515 -1.1931 -0.9670 -0.7298
 4733SOL     OW25660   1.234   4.401   7.688  0.5046 -0.4078  0.1016
 4733SOL    HW125661   1.274   4.316   7.672 -0.6894 -0.9690  0.1354
 4733SOL    HW225662   1.278   4.452   7.620  1.1914  0.9897  1.5798
 4734SOL     OW25663   1.847   3.969  12.596 -0.1057  0.0137  0.1633
 4734SOL    HW125664   1.759   3.998  12.621  0.6680  1.9903  0.6518
 4734SOL    HW225665   1.894   3.985  12.678  1.5047  0.4972 -0.8616
 4735SOL     OW25666   3.251   2.496   1.800 -0.1734  0.0787 -0.2983
 4735SOL    HW125667   3.255   2.418   1.856 -3.6508  0.5750  0.6211
 4735SOL    HW225668   3.238   2.465   1.710  2.6675 -2.4924  0.1775
 4736SOL     OW25669   0.606   1.280   2.799  0.4331 -0.0385 -0.0377
 4736SOL    HW125670   0.565   1.364   2.777  1.3700  0.5219  0.3223
 4736SOL    HW225671   0.582   1.267   2.891  0.2259 -1.5782 -0.3151
 4737SOL     OW25672   0.407   4.004   6.011  0.1445 -0.4756 -0.7375
 4737SOL    HW125673   0.487   4.053   5.989  0.5341 -0.2408  1.1636
 4737SOL    HW225674   0.349   4.032   5.940 -0.0708  1.4693  0.1889
 4738SOL     OW25675   3.134   3.009   8.454 -0.3403 -0.7292 -0.3179
 4738SOL    HW125676   3.131   3.104   8.463  2.1171 -0.7602  0.6045
 4738SOL    HW225677   3.073   2.991   8.525  0.8371  1.8408  1.3197
 4739SOL     OW25678   2.713   0.487   5.718  0.0007  0.3923  0.0191
 4739SOL    HW125679   2.669   0.407   5.687  0.9971 -0.4478  0.7840
 4739SOL    HW225680   2.762   0.453   5.794 -0.6768  0.9924  0.7298
 4740SOL     OW25681   0.822   2.890   7.497 -0.3301 -0.1104 -0.0543
 4740SOL    HW125682   0.783   2.821   7.551 -0.7468  0.0405 -0.1638
 4740SOL    HW225683   0.750   2.952   7.487  0.3028  0.7862  0.9306
 4741SOL     OW25684   4.468   2.552  13.313  0.0770  0.0386  0.3199
 4741SOL    HW125685   4.402   2.500  13.359 -0.6583  1.9407  1.4564
 4741SOL    HW225686   4.425   2.573  13.230  1.4582  2.7876  0.2760
 4742SOL     OW25687   4.119   3.104   1.006  0.3781  0.2570  0.1909
 4742SOL    HW125688   4.197   3.085   1.058  1.2217  2.7168 -0.1832
 4742SOL    HW225689   4.100   3.196   1.027 -0.0871  0.7205 -2.3327
 4743SOL     OW25690   3.514   0.444  15.054  0.0725 -0.5819  0.1334
 4743SOL    HW125691   3.458   0.395  15.114 -0.0749 -1.0377 -0.3730
 4743SOL    HW225692   3.595   0.418  15.097 -0.1905  1.3989  1.7892
 4744SOL     OW25693   1.933   2.369   7.920 -0.9118 -0.0412 -0.3366
 4744SOL    HW125694   2.019   2.411   7.914  0.8722 -3.4074  1.7542
 4744SOL    HW225695   1.891   2.439   7.971  2.6664  0.7847  1.4308
 4745SOL     OW25696   1.959   0.248   6.714  0.0074  0.2574 -0.0312
 4745SOL    HW125697   1.975   0.252   6.808  0.5650  0.6662 -0.1458
 4745SOL    HW225698   2.035   0.286   6.671 -0.2686  0.0667 -0.6993
 4746SOL     OW25699   2.067   2.670   7.740 -0.1935  0.0813 -0.3801
 4746SOL    HW125700   2.007   2.637   7.806  0.3889 -0.1105  0.0531
 4746SOL    HW225701   2.131   2.599   7.730 -2.2479 -1.5482 -1.8557
 4747SOL     OW25702   1.202   3.313   0.229  0.0026 -0.6288 -0.1940
 4747SOL    HW125703   1.180   3.283   0.317  0.8271  1.2352  0.6412
 4747SOL    HW225704   1.293   3.285   0.232 -0.4628 -2.2455 -0.9427
 4748SOL     OW25705   0.563   0.578  16.724  1.1571 -0.7520  0.3427
 4748SOL    HW125706   0.503   0.650  16.743 -0.2972 -1.5553 -1.2341
 4748SOL    HW225707   0.546   0.538  16.809  0.9616  0.0155  0.6647
 4749SOL     OW25708   0.973   0.294   8.701 -0.1239  0.3519  0.6264
 4749SOL    HW125709   1.054   0.320   8.656  0.2242  3.1562  2.8701
 4749SOL    HW225710   0.914   0.365   8.678 -0.2508  0.0197 -0.0531
 4750SOL     OW25711   3.482   2.000   8.514 -0.3552 -0.1768  0.3457
 4750SOL    HW125712   3.480   1.988   8.609 -2.4271 -2.0098  0.0965
 4750SOL    HW225713   3.388   2.014   8.503  0.2568  3.4351 -0.2996
 4751SOL     OW25714   2.450   4.089   6.074  0.0250  0.0060 -0.2428
 4751SOL    HW125715   2.399   4.158   6.118  0.0121  0.5173 -1.0581
 4751SOL    HW225716   2.495   4.038   6.141  0.8841  1.5480  0.3715
 4752SOL     OW25717   3.089   4.453   2.350  0.6795 -0.2179  0.0219
 4752SOL    HW125718   3.065   4.538   2.386  0.3679 -0.1012 -0.4511
 4752SOL    HW225719   3.016   4.434   2.291 -0.5714  2.4852  0.6816
 4753SOL     OW25720   3.621   1.533  14.867 -0.6931  0.0039 -0.8238
 4753SOL    HW125721   3.671   1.512  14.946 -1.6990 -1.4677 -0.5742
 4753SOL    HW225722   3.692   1.565  14.812  0.4002  0.1947  0.6741
 4754SOL     OW25723   4.121   0.210   8.538  0.2437 -0.5849 -0.4086
 4754SOL    HW125724   4.139   0.303   8.549  0.2558 -0.6451  0.0705
 4754SOL    HW225725   4.078   0.191   8.622 -1.3165  4.1689 -0.1386
 4755SOL     OW25726   3.254   3.988   4.847 -0.3145  0.5616  0.5939
 4755SOL    HW125727   3.192   4.042   4.895  0.8264  0.6137  1.9969
 4755SOL    HW225728   3.334   4.022   4.886  0.0728  1.1486 -0.7004
 4756SOL     OW25729   3.907   0.261  11.571  0.4968  0.3942 -0.1993
 4756SOL    HW125730   3.820   0.228  11.547  0.6107 -0.5655  0.7042
 4756SOL    HW225731   3.970   0.219  11.513 -0.8084 -2.1803  0.2706
 4757SOL     OW25732   1.763   3.136   5.045 -0.1811 -0.0778 -0.1648
 4757SOL    HW125733   1.688   3.187   5.012 -0.8362 -0.4800  0.6931
 4757SOL    HW225734   1.715   3.054   5.036  1.5724 -1.0957 -0.1092
 4758SOL     OW25735   1.374   4.508   0.888 -0.6664 -0.2168  0.5006
 4758SOL    HW125736   1.461   4.508   0.848  0.3057 -0.8141  2.5942
 4758SOL    HW225737   1.392   4.463   0.971  1.4883 -0.6161 -0.1803
 4759SOL     OW25738   0.430   2.874   6.604 -0.0134 -0.6235 -0.1369
 4759SOL    HW125739   0.485   2.802   6.574  0.4004 -0.4483  0.2057
 4759SOL    HW225740   0.388   2.848   6.686  0.5040 -1.6811 -0.2120
 4760SOL     OW25741   0.286   3.245   5.268  0.1560 -0.5802  0.0692
 4760SOL    HW125742   0.245   3.243   5.181  1.0901  2.1870 -0.4496
 4760SOL    HW225743   0.351   3.175   5.270  0.4648 -0.3516 -1.5582
 4761SOL     OW25744   2.706   4.695   8.139 -0.5279  0.5886  0.3460
 4761SOL    HW125745   2.715   0.013   8.222 -3.0721  0.4172  0.6964
 4761SOL    HW225746   2.673   0.036   8.081  0.5152  0.1564 -0.7806
 4762SOL     OW25747   2.292   1.517  10.423  0.0025 -0.3547  0.2016
 4762SOL    HW125748   2.276   1.452  10.492 -0.3735 -3.2542 -2.6410
 4762SOL    HW225749   2.345   1.467  10.361  2.5166  0.6223  1.5813
 4763SOL     OW25750   0.752   2.995  16.581 -0.2752  0.5180 -0.2728
 4763SOL    HW125751   0.754   3.036  16.494 -1.0782 -1.6569 -1.2972
 4763SOL    HW225752   0.665   3.022  16.610 -0.0709 -0.2848  1.0629
 4764SOL     OW25753   4.145   2.424   2.164  0.2628 -0.0156  0.1567
 4764SOL    HW125754   4.172   2.392   2.250 -1.0936 -1.1503  0.1552
 4764SOL    HW225755   4.072   2.483   2.184 -1.3783 -0.9448 -3.0105
 4765SOL     OW25756   0.912   0.470   2.863  0.7967  0.1132  0.0358
 4765SOL    HW125757   0.845   0.523   2.905 -0.2488 -0.7794 -0.5058
 4765SOL    HW225758   0.944   0.545   2.813  0.8758  1.5556  2.2584
 4766SOL     OW25759   4.294   4.231   7.085 -0.9151  0.4104  0.1755
 4766SOL    HW125760   4.365   4.174   7.116  0.2508 -0.7166 -4.5189
 4766SOL    HW225761   4.240   4.238   7.163  0.0666 -1.8129  1.0630
 4767SOL     OW25762   0.751   0.466   2.030 -0.1968 -0.0268 -0.3704
 4767SOL    HW125763   0.835   0.423   2.019 -0.7676 -1.2265 -0.0027
 4767SOL    HW225764   0.702   0.387   2.006  2.2868 -1.8906  0.7416
 4768SOL     OW25765   1.902   1.569   7.618 -0.1461  0.6263  0.7877
 4768SOL    HW125766   1.955   1.634   7.664 -0.8103  2.5629 -1.2340
 4768SOL    HW225767   1.950   1.570   7.535  0.5218 -2.1073  1.1185
 4769SOL     OW25768   4.656   2.980   5.016 -0.4114  0.4273 -0.1978
 4769SOL    HW125769   0.017   2.949   5.029 -0.1415  1.9521  1.5514
 4769SOL    HW225770   4.648   2.973   4.921  0.2846 -0.2750 -0.2042
 4770SOL     OW25771   4.249   1.997  12.110 -0.4277  0.0321 -0.8611
 4770SOL    HW125772   4.161   1.962  12.102  1.0208 -3.3037 -2.1549
 4770SOL    HW225773   4.231   2.057  12.182  0.9458 -1.2976  0.5803
 4771SOL     OW25774   1.687   1.679  17.521  0.6947 -0.4033 -0.0269
 4771SOL    HW125775   1.722   1.761  17.555  1.7284 -0.3566 -1.2169
 4771SOL    HW225776   1.651   1.695  17.434 -0.1462  0.8406  0.5596
 4772SOL     OW25777   0.409   1.427  13.208  0.4411 -0.0929  0.4007
 4772SOL    HW125778   0.394   1.403  13.116 -1.4528 -1.4475  1.0534
 4772SOL    HW225779   0.396   1.521  13.207 -1.9992 -0.4008  2.9436
 4773SOL     OW25780   2.923   2.562   1.766 -0.6634 -0.1993  0.2387
 4773SOL    HW125781   2.870   2.577   1.844 -1.6134  1.3072 -0.6955
 4773SOL    HW225782   3.002   2.595   1.810  0.2187 -0.4157 -1.1916
 4774SOL     OW25783   1.252   2.758  16.984 -0.2271  0.1686 -0.4290
 4774SOL    HW125784   1.164   2.780  17.016 -0.5978 -2.3922  0.3432
 4774SOL    HW225785   1.240   2.751  16.889 -0.9929 -0.9735 -0.2572
 4775SOL     OW25786   4.469   1.224   7.138  0.0607  0.0079 -0.0734
 4775SOL    HW125787   4.522   1.211   7.059 -1.0215 -0.1006 -0.7855
 4775SOL    HW225788   4.503   1.160   7.201 -1.1477 -1.7182 -1.1676
 4776SOL     OW25789   2.102   3.383  16.403 -0.0681  0.4720 -0.1487
 4776SOL    HW125790   2.023   3.417  16.445  1.0326  0.4528  1.9342
 4776SOL    HW225791   2.100   3.289  16.424  1.6995  0.8738  1.7444
 4777SOL     OW25792   2.428   3.570   4.765  0.6682 -0.3154  0.3568
 4777SOL    HW125793   2.473   3.611   4.690  0.9449  0.2607  0.8401
 4777SOL    HW225794   2.340   3.585   4.732  1.9299  0.4234 -2.6897
 4778SOL     OW25795   1.220   4.328   8.036 -0.0353  0.3105 -0.3538
 4778SOL    HW125796   1.156   4.373   7.981  0.3853 -0.8839 -1.8135
 4778SOL    HW225797   1.257   4.396   8.093  0.5830  1.0067 -1.5898
 4779SOL     OW25798   3.920   2.755   1.634  0.7442 -0.4224  0.0205
 4779SOL    HW125799   3.941   2.666   1.608  3.1373  0.1872 -0.1579
 4779SOL    HW225800   3.955   2.765   1.723 -1.5693 -1.0600  1.0116
 4780SOL     OW25801   1.110   3.608   8.500  0.1338 -0.2685 -0.4528
 4780SOL    HW125802   1.065   3.597   8.584  0.0313  0.3294 -0.4287
 4780SOL    HW225803   1.070   3.546   8.439  0.0057  1.2799 -1.9319
 4781SOL     OW25804   2.515   2.244   7.251  0.2682  0.1998 -0.0890
 4781SOL    HW125805   2.462   2.323   7.256  0.8384  0.5278  1.0201
 4781SOL    HW225806   2.593   2.259   7.305 -0.4179  0.7449  0.7561
 4782SOL     OW25807   0.214   2.566   6.620  0.7105 -0.6116 -0.1302
 4782SOL    HW125808   0.120   2.578   6.628  1.2141  3.0335  0.7575
 4782SOL    HW225809   0.229   2.540   6.529  1.0658  2.5749 -1.0017
 4783SOL     OW25810   0.176   0.013   0.121  0.6647  0.1790 -0.0395
 4783SOL    HW125811   0.246   0.070   0.152  2.8727 -2.5942  0.0883
 4783SOL    HW225812   0.119   0.081   0.084 -1.9054 -1.4449  0.9394
 4784SOL     OW25813   1.691   3.783   7.046 -0.6270  0.1558 -0.5065
 4784SOL    HW125814   1.602   3.808   7.022 -0.4827  0.3400 -0.8449
 4784SOL    HW225815   1.738   3.824   6.973  0.1681 -0.7880 -0.5399
 4785SOL     OW25816   3.794   0.501   7.119  0.2851 -0.4953 -0.2402
 4785SOL    HW125817   3.839   0.464   7.043  0.7280 -1.3901  0.4506
 4785SOL    HW225818   3.850   0.575   7.142 -0.2903 -0.2517  0.3859
 4786SOL     OW25819   3.938   0.350   6.619  0.9836  0.2109 -0.4564
 4786SOL    HW125820   3.910   0.396   6.698 -1.5071 -0.6518 -0.8288
 4786SOL    HW225821   3.932   0.412   6.546 -1.8791  1.3464  0.7637
 4787SOL     OW25822   2.673   0.925   4.970 -0.3454  0.1211 -0.5100
 4787SOL    HW125823   2.618   0.852   5.000 -0.1757  0.4667  0.6397
 4787SOL    HW225824   2.675   0.922   4.874  1.0095 -0.3482 -0.4707
 4788SOL     OW25825   2.613   0.390   8.698  0.0895  0.5909  0.5410
 4788SOL    HW125826   2.625   0.366   8.789  0.1254 -1.8558 -0.1183
 4788SOL    HW225827   2.532   0.340   8.687  1.1976 -0.8615 -1.0662
 4789SOL     OW25828   4.064   1.730   8.224  0.8775  0.1432 -0.6478
 4789SOL    HW125829   4.021   1.735   8.309 -1.3034 -0.2801 -1.7365
 4789SOL    HW225830   4.096   1.639   8.220  0.1068 -0.1321 -0.4365
 4790SOL     OW25831   3.539   2.396   5.061 -0.0015  0.6167 -0.9782
 4790SOL    HW125832   3.529   2.352   5.145 -1.5955 -1.6989 -2.3648
 4790SOL    HW225833   3.609   2.459   5.077 -0.3348  0.5409  0.8081
 4791SOL     OW25834   0.262   3.998   4.197 -0.2721 -0.1325  0.2336
 4791SOL    HW125835   0.221   3.918   4.163  1.2317 -0.3102 -1.1685
 4791SOL    HW225836   0.357   3.982   4.198 -0.0049  1.3997 -0.6632
 4792SOL     OW25837   0.010   1.455   7.340 -0.1773  0.2915  0.2002
 4792SOL    HW125838   0.078   1.388   7.333 -1.0175 -0.8181  2.5313
 4792SOL    HW225839   0.030   1.503   7.259 -0.1836  0.3223  0.2167
 4793SOL     OW25840   1.825   3.045   2.010  0.3153 -0.5853  0.3073
 4793SOL    HW125841   1.883   3.027   2.083  1.9254  0.4645 -0.7243
 4793SOL    HW225842   1.795   2.957   1.987 -1.1753 -0.1361  0.5167
 4794SOL     OW25843   2.765   1.833  17.681  0.0582  0.2962  0.1483
 4794SOL    HW125844   2.728   1.760  17.631 -1.4443  1.0149  0.2382
 4794SOL    HW225845   2.766   1.903  17.616  1.9501  1.2889  1.2631
 4795SOL     OW25846   0.076   0.623   9.276 -0.2153 -0.0297 -0.7862
 4795SOL    HW125847   4.717   0.633   9.239  0.2228  2.9667 -1.0414
 4795SOL    HW225848   0.135   0.661   9.211  1.5124 -1.6250 -0.1269
 4796SOL     OW25849   1.628   2.120  10.711  0.6699  0.2741 -0.0586
 4796SOL    HW125850   1.674   2.195  10.748  0.3515 -0.2884  1.4690
 4796SOL    HW225851   1.600   2.071  10.789  3.9503 -0.9195  0.3576
 4797SOL     OW25852   3.701   2.404   8.222  0.7034 -0.0685 -0.0356
 4797SOL    HW125853   3.719   2.429   8.131 -0.6501 -1.4675 -0.6996
 4797SOL    HW225854   3.786   2.435   8.253 -0.4889  3.0680  0.0513
 4798SOL     OW25855   4.601   1.392  12.648  0.3897  0.1109 -0.5089
 4798SOL    HW125856   4.578   1.483  12.662  0.6621  0.5007 -2.5200
 4798SOL    HW225857   4.667   1.396  12.578  1.3463  0.2972  0.4071
 4799SOL     OW25858   4.573   1.830  11.732 -0.0555  0.0448  0.3501
 4799SOL    HW125859   4.615   1.814  11.816  1.5203  1.8553 -0.0989
 4799SOL    HW225860   4.562   1.739  11.703 -0.4621 -0.0683  0.8670
 4800SOL     OW25861   3.671   4.204   0.318  0.2650  0.1787 -0.2532
 4800SOL    HW125862   3.716   4.126   0.286  0.3815 -0.1058  0.6214
 4800SOL    HW225863   3.743   4.257   0.353 -0.4453  0.1444  1.2407
 4801SOL     OW25864   2.315   0.996  15.675 -0.6851 -0.4960  0.2446
 4801SOL    HW125865   2.342   0.969  15.588  0.5070  0.7159  0.2315
 4801SOL    HW225866   2.395   0.965  15.718  0.5972  2.1496 -0.2010
 4802SOL     OW25867   0.099   1.717   2.628  0.2989  0.1781  0.4572
 4802SOL    HW125868   0.040   1.660   2.677 -1.0910 -1.6618 -3.3378
 4802SOL    HW225869   0.099   1.677   2.541  0.2597  1.7101 -0.2338
 4803SOL     OW25870   3.089   1.893   4.377  0.5868 -0.2274  0.2485
 4803SOL    HW125871   3.143   1.908   4.299  1.3011 -1.9401  0.3983
 4803SOL    HW225872   3.000   1.884   4.344  0.6844 -2.0338  0.4723
 4804SOL     OW25873   1.568   3.982   4.010 -0.5110 -0.6194 -0.2205
 4804SOL    HW125874   1.656   3.989   3.974  0.8297  0.9262  3.2962
 4804SOL    HW225875   1.577   3.925   4.087 -2.7415  0.0800  0.5583
 4805SOL     OW25876   1.306   4.589   2.818  0.1543  0.2766  0.3320
 4805SOL    HW125877   1.297   4.496   2.797  1.8599  0.1150  0.2732
 4805SOL    HW225878   1.306   4.570   2.912 -1.0964 -2.5472 -0.2317
 4806SOL     OW25879   2.787   0.570   7.910 -0.1640  0.3557 -0.8908
 4806SOL    HW125880   2.832   0.489   7.933  0.6824  0.3920 -2.4028
 4806SOL    HW225881   2.782   0.603   7.999  1.2423 -0.6169 -0.4425
 4807SOL     OW25882   2.685   3.136   3.949  0.1703  1.0087 -0.2128
 4807SOL    HW125883   2.714   3.222   3.979 -1.2240  1.3040  0.3276
 4807SOL    HW225884   2.589   3.142   3.956  0.1611 -0.8130  1.1973
 4808SOL     OW25885   0.925   4.573   2.814 -0.3934 -0.0747 -0.0681
 4808SOL    HW125886   0.908   4.665   2.794 -0.6371  0.3953  2.3094
 4808SOL    HW225887   1.020   4.564   2.809 -0.5881 -2.5001  0.7260
 4809SOL     OW25888   3.952   2.983   3.197  0.2460  0.4011  0.0207
 4809SOL    HW125889   4.034   2.986   3.247 -0.4007 -1.3262  1.1753
 4809SOL    HW225890   3.914   2.901   3.229  0.7569 -0.4372 -1.4845
 4810SOL     OW25891   2.125   2.543  13.003  0.8608  0.5690  0.5380
 4810SOL    HW125892   2.132   2.563  13.096  0.3033  2.4663  0.1720
 4810SOL    HW225893   2.212   2.510  12.983 -0.7498 -3.3729  0.0987
 4811SOL     OW25894   4.374   2.774   1.404 -0.0794  0.5305 -0.0216
 4811SOL    HW125895   4.329   2.848   1.445 -1.0304  0.8448 -1.6271
 4811SOL    HW225896   4.345   2.700   1.457 -0.0664  0.5639  0.0325
 4812SOL     OW25897   2.159   1.992   6.603 -0.6023  0.3456 -0.0054
 4812SOL    HW125898   2.103   1.923   6.639 -0.8115  0.4484 -0.1322
 4812SOL    HW225899   2.118   2.070   6.640 -1.1981  0.2405 -0.4420
 4813SOL     OW25900   2.472   4.609   8.808  0.3063  0.8873  0.4735
 4813SOL    HW125901   2.505   4.604   8.898 -1.9220  0.9854  1.3136
 4813SOL    HW225902   2.455   4.702   8.794 -0.8483  0.5019 -0.6727
 4814SOL     OW25903   0.094   1.290   6.625 -0.1450 -0.1202 -0.0394
 4814SOL    HW125904   0.009   1.247   6.635 -0.1487  0.4531  2.4792
 4814SOL    HW225905   0.122   1.258   6.540  1.8759  2.2492 -0.2429
 4815SOL     OW25906   2.274   3.627   6.560 -0.1149  0.0640  1.2071
 4815SOL    HW125907   2.331   3.686   6.610 -1.4861  1.9858  0.5094
 4815SOL    HW225908   2.222   3.591   6.632  1.1823  0.7136  2.4809
 4816SOL     OW25909   2.633   3.818   4.618 -0.3288 -0.2161 -0.0084
 4816SOL    HW125910   2.667   3.772   4.542  1.5746 -1.8115  1.8129
 4816SOL    HW225911   2.698   3.806   4.687  0.4735 -0.8418 -0.8781
 4817SOL     OW25912   0.707   0.289  15.254  0.5957  0.5102  0.0889
 4817SOL    HW125913   0.623   0.266  15.294  1.3539  1.7359  2.4107
 4817SOL    HW225914   0.726   0.206  15.210 -2.2543 -1.3259  2.3189
 4818SOL     OW25915   3.687   1.954  17.287 -0.3583 -0.1075 -0.1406
 4818SOL    HW125916   3.594   1.931  17.276 -0.1644 -1.7356  1.6227
 4818SOL    HW225917   3.722   1.986  17.204 -1.0661  0.1417 -0.3490
 4819SOL     OW25918   2.358   3.156   9.037  0.0850 -0.3488 -0.3156
 4819SOL    HW125919   2.434   3.205   9.068 -0.6588  0.3140  0.4589
 4819SOL    HW225920   2.342   3.100   9.114  2.2906 -1.6739 -0.8130
 4820SOL     OW25921   3.841   3.920   8.280  0.3225 -0.4881  0.3127
 4820SOL    HW125922   3.746   3.917   8.289  0.5282 -2.9636  1.5817
 4820SOL    HW225923   3.846   3.971   8.199  0.6996  1.2124  1.4211
 4821SOL     OW25924   2.405   4.685  11.012 -0.0948  0.0967 -0.5490
 4821SOL    HW125925   2.351   0.022  10.968 -2.0242 -2.4741 -1.9621
 4821SOL    HW225926   2.338   4.646  11.068 -0.1385  0.4358 -0.3624
 4822SOL     OW25927   2.883   4.600   9.554 -0.1405  0.1523 -0.0138
 4822SOL    HW125928   2.962   4.569   9.599  0.0850  2.7232  1.4003
 4822SOL    HW225929   2.912   4.691   9.555 -1.0475  0.4393  0.3013
 4823SOL     OW25930   0.088   1.384   9.437 -0.0027  0.4946  0.4885
 4823SOL    HW125931   0.134   1.369   9.519 -1.2966 -0.5196  1.0284
 4823SOL    HW225932   0.082   1.297   9.397  1.0522  0.7080 -0.1379
 4824SOL     OW25933   1.586   4.213   3.477  0.4297 -0.3197 -0.3931
 4824SOL    HW125934   1.615   4.294   3.519 -1.4536 -0.3460  0.9460
 4824SOL    HW225935   1.653   4.197   3.410  2.0898  1.9753  0.7322
 4825SOL     OW25936   2.664   1.522  13.673 -0.0244  0.5359 -0.3248
 4825SOL    HW125937   2.704   1.552  13.592  0.4455  1.9413  0.4289
 4825SOL    HW225938   2.662   1.599  13.729  0.5541  0.3513 -0.0549
 4826SOL     OW25939   0.427   1.256   7.317 -0.2672 -0.2033 -0.1719
 4826SOL    HW125940   0.453   1.310   7.243 -0.1370  1.7394  1.2881
 4826SOL    HW225941   0.430   1.329   7.379 -2.1225  0.3731 -0.7814
 4827SOL     OW25942   1.966   1.579   4.189  0.2371  0.1274 -0.3170
 4827SOL    HW125943   1.994   1.616   4.272 -2.9558 -0.3910  0.9823
 4827SOL    HW225944   2.049   1.551   4.149 -0.4121  0.2288 -1.7561
 4828SOL     OW25945   1.670   4.206  15.663 -0.7424 -0.0998 -0.2680
 4828SOL    HW125946   1.755   4.248  15.674 -0.2571 -2.0310  3.3781
 4828SOL    HW225947   1.618   4.283  15.685  2.4881  1.8126  0.5285
 4829SOL     OW25948   4.079   1.093   2.468 -0.1796  0.9849  0.3428
 4829SOL    HW125949   4.024   1.170   2.484 -0.2907  0.9530  0.1110
 4829SOL    HW225950   4.084   1.065   2.560  1.6569 -0.3503 -0.1736
 4830SOL     OW25951   4.166   3.846   8.226  0.2155 -0.0762 -0.5274
 4830SOL    HW125952   4.158   3.934   8.264 -1.2116 -0.5497  0.2667
 4830SOL    HW225953   4.176   3.866   8.133 -2.1629  0.5454 -0.6625
 4831SOL     OW25954   1.807   4.001  10.112  0.1556 -0.3562 -0.2145
 4831SOL    HW125955   1.791   3.999  10.207  2.5951  2.1087  0.2489
 4831SOL    HW225956   1.888   3.949  10.112  0.5082  0.1926 -0.0607
 4832SOL     OW25957   3.539   4.596   5.546 -0.3177 -0.2598  0.1320
 4832SOL    HW125958   3.454   4.551   5.552 -0.7804  1.0202  3.1468
 4832SOL    HW225959   3.562   4.630   5.460  2.2905  1.4073  1.4997
 4833SOL     OW25960   1.398   3.835   4.683  0.0691  0.0062 -0.3302
 4833SOL    HW125961   1.361   3.764   4.735  1.6733  1.2593  2.5023
 4833SOL    HW225962   1.317   3.874   4.650  0.1307 -0.1108 -0.6228
 4834SOL     OW25963   1.458   3.175   5.691  0.2506 -0.4959 -0.0238
 4834SOL    HW125964   1.398   3.250   5.699  0.5044 -0.4461  1.3014
 4834SOL    HW225965   1.518   3.204   5.622  0.3968  1.7527  1.0522
 4835SOL     OW25966   4.558   1.037   1.565  0.3988 -0.3455 -0.5303
 4835SOL    HW125967   4.488   1.033   1.500  0.8756 -1.4337 -0.9667
 4835SOL    HW225968   4.637   1.016   1.515  0.2428  1.4416 -1.5065
 4836SOL     OW25969   0.098   0.631   0.500 -0.0407 -0.2917 -0.2649
 4836SOL    HW125970   0.020   0.598   0.544 -2.0544  0.7983 -3.0461
 4836SOL    HW225971   0.143   0.683   0.566 -0.7148 -0.2898  0.1907
 4837SOL     OW25972   3.693   4.360  13.288  0.4119  0.7877 -0.3932
 4837SOL    HW125973   3.763   4.406  13.240  1.6032 -0.2850  0.3403
 4837SOL    HW225974   3.645   4.434  13.327 -0.4657  0.4734 -0.8720
 4838SOL     OW25975   3.672   1.631  13.643  0.1322  0.1112 -0.4191
 4838SOL    HW125976   3.625   1.591  13.716  1.5186  2.1021  1.5580
 4838SOL    HW225977   3.674   1.716  13.686 -1.4775  0.2790 -0.6756
 4839SOL     OW25978   1.180   0.515  15.972 -0.3443 -0.3017 -0.3072
 4839SOL    HW125979   1.267   0.480  15.950 -0.1234  0.1568 -0.1520
 4839SOL    HW225980   1.142   0.455  16.036  0.2277 -0.6801 -0.3171
 4840SOL     OW25981   1.512   1.770  14.399 -0.2088  0.3873 -0.2865
 4840SOL    HW125982   1.432   1.811  14.366 -1.7178 -2.9383 -0.7550
 4840SOL    HW225983   1.577   1.839  14.385  1.8809 -1.4128  0.6409
 4841SOL     OW25984   3.383   4.051  12.888  0.2853 -0.0577 -0.1375
 4841SOL    HW125985   3.438   4.015  12.819  1.2453 -0.6467  0.9410
 4841SOL    HW225986   3.300   4.072  12.844  0.8633 -0.6953 -1.5551
 4842SOL     OW25987   0.928   0.952   4.084  0.3274 -0.0353 -0.3221
 4842SOL    HW125988   0.914   1.046   4.069 -0.0587 -0.0298  0.0879
 4842SOL    HW225989   0.908   0.909   4.001  3.5228 -0.4991 -0.8619
 4843SOL     OW25990   4.365   4.625   7.400  0.2402 -0.3746 -0.0979
 4843SOL    HW125991   4.459   4.634   7.389  0.2415  1.3118  1.3643
 4843SOL    HW225992   4.356   4.552   7.339 -0.3556 -0.0281 -0.4243
 4844SOL     OW25993   3.294   1.141   4.180 -0.0569 -0.1278 -0.7073
 4844SOL    HW125994   3.303   1.158   4.086 -2.7354  2.2065 -0.5477
 4844SOL    HW225995   3.243   1.060   4.166 -0.2017 -0.5402  2.2893
 4845SOL     OW25996   4.172   1.664   6.475  0.4582 -0.2290  0.1148
 4845SOL    HW125997   4.233   1.595   6.498  0.0404 -0.6509 -0.0438
 4845SOL    HW225998   4.215   1.700   6.397 -1.6025  4.0253  0.8955
 4846SOL     OW25999   4.131   3.975   2.296 -0.4049  0.1869 -0.4466
 4846SOL    HW126000   4.183   3.955   2.218  0.9810 -0.4075  0.6219
 4846SOL    HW226001   4.073   3.899   2.295  0.8531 -0.7927  1.0886
 4847SOL     OW26002   4.237   4.440   1.744  0.0966 -0.1265 -0.7772
 4847SOL    HW126003   4.332   4.438   1.753  0.1840  0.5904 -1.5537
 4847SOL    HW226004   4.230   4.517   1.688  1.7318  1.7274  1.5725
 4848SOL     OW26005   3.386   4.709   2.617  0.5681 -0.3057  0.0054
 4848SOL    HW126006   3.336   0.027   2.684  0.0607  0.5015 -0.9269
 4848SOL    HW226007   3.395   0.053   2.555  0.2204  0.0928  0.4227
 4849SOL     OW26008   2.768   2.362   6.129 -0.3268 -0.0970  0.0961
 4849SOL    HW126009   2.771   2.327   6.219 -0.7304  1.1838  0.6085
 4849SOL    HW226010   2.742   2.453   6.142  1.0909  0.5279 -1.4776
 4850SOL     OW26011   0.519   4.523  15.643 -0.4802  0.0243 -0.7899
 4850SOL    HW126012   0.516   4.456  15.575 -0.0815 -0.9968  0.2068
 4850SOL    HW226013   0.552   4.592  15.584  0.0289 -0.8688 -1.5529
 4851SOL     OW26014   3.431   2.847   0.532  0.1591 -0.2474 -0.3104
 4851SOL    HW126015   3.391   2.926   0.568 -0.2155  1.0936 -3.6787
 4851SOL    HW226016   3.501   2.884   0.477 -1.7545  1.8384 -1.3548
 4852SOL     OW26017   2.881   4.674   5.559  0.2627 -0.3773  0.1213
 4852SOL    HW126018   2.855   4.594   5.513  3.1655 -2.2513  1.7280
 4852SOL    HW226019   2.818   4.665   5.630 -0.1590 -0.4152 -0.2611
 4853SOL     OW26020   4.221   2.215   3.661 -0.0401  0.0580  0.6971
 4853SOL    HW126021   4.125   2.219   3.661  0.0535  2.2547  2.5735
 4853SOL    HW226022   4.249   2.241   3.573 -2.6097  1.4667  0.2819
 4854SOL     OW26023   1.984   1.798   3.035  0.3767  0.3605 -0.3088
 4854SOL    HW126024   1.897   1.777   3.000 -0.5244  2.3704  0.7909
 4854SOL    HW226025   1.992   1.734   3.105 -0.7821  0.4605 -0.0874
 4855SOL     OW26026   1.205   2.035   7.628 -0.7113  0.2409  0.1722
 4855SOL    HW126027   1.141   1.988   7.574  0.1985 -2.1722  1.2102
 4855SOL    HW226028   1.169   2.022   7.716  0.3032  0.4504  0.6133
 4856SOL     OW26029   2.813   3.538   4.278  0.3242 -0.2315  0.3268
 4856SOL    HW126030   2.802   3.484   4.356  1.0239  0.2236  0.7368
 4856SOL    HW226031   2.737   3.596   4.281  0.7587  0.2267  2.4502
 4857SOL     OW26032   1.149   3.133  11.450 -0.2021 -0.2753 -0.0415
 4857SOL    HW126033   1.071   3.190  11.447 -0.0433  0.1541  3.7024
 4857SOL    HW226034   1.171   3.130  11.357  1.7610  1.3596  0.3770
 4858SOL     OW26035   0.745   3.251   4.423 -0.2724  0.0143  0.5098
 4858SOL    HW126036   0.761   3.319   4.358  1.3506 -0.5635  0.3076
 4858SOL    HW226037   0.798   3.277   4.499  1.2934 -0.2953 -0.4853
 4859SOL     OW26038   0.679   3.026   9.374  0.1392  0.2875 -0.2319
 4859SOL    HW126039   0.688   3.004   9.467 -0.5791  0.4292 -0.1290
 4859SOL    HW226040   0.656   2.943   9.334 -1.1028  0.3679  0.3159
 4860SOL     OW26041   0.163   2.228   9.594  0.1741 -0.2162  0.1676
 4860SOL    HW126042   0.192   2.181   9.516 -1.5061  1.2150 -1.3163
 4860SOL    HW226043   0.099   2.291   9.562  2.0491  1.8955  0.5611
 4861SOL     OW26044   0.554   1.343   0.762 -0.0551  0.3486 -0.3600
 4861SOL    HW126045   0.648   1.327   0.754  0.2157 -0.4848  4.5493
 4861SOL    HW226046   0.562   1.439   0.766  0.4634  0.3598 -1.4354
 4862SOL     OW26047   1.958   2.246  13.260  0.9446 -0.1035  0.2393
 4862SOL    HW126048   1.887   2.300  13.294  0.2849 -2.0412  1.9162
 4862SOL    HW226049   1.917   2.212  13.180  2.2551 -2.2808  0.5124
 4863SOL     OW26050   3.179   2.812   1.446  0.0191  0.3741  0.5176
 4863SOL    HW126051   3.236   2.854   1.382  0.6453 -1.1350  0.0663
 4863SOL    HW226052   3.205   2.849   1.531  0.3880 -1.7175  1.3207
 4864SOL     OW26053   0.221   3.650   9.748 -0.3093 -0.1056  0.8776
 4864SOL    HW126054   0.269   3.691   9.819  2.2981 -0.6454 -0.5642
 4864SOL    HW226055   0.216   3.560   9.782 -2.7500 -0.6184 -0.8378
 4865SOL     OW26056   0.449   0.930  14.195 -0.1977 -0.2288  0.0840
 4865SOL    HW126057   0.432   1.020  14.221 -0.7049 -0.7082  1.4245
 4865SOL    HW226058   0.470   0.893  14.281  1.4508 -2.5549 -1.2917
 4866SOL     OW26059   1.003   1.887   2.580 -0.1066  0.2958 -0.0044
 4866SOL    HW126060   1.051   1.820   2.532 -0.9489  0.0173 -0.4686
 4866SOL    HW226061   1.078   1.945   2.589  0.3264 -0.2198 -0.3101
 4867SOL     OW26062   2.268   3.120  15.799 -0.1957  0.2237  0.1048
 4867SOL    HW126063   2.328   3.070  15.744 -1.5863  0.4609 -1.6431
 4867SOL    HW226064   2.189   3.067  15.811  0.4035 -1.0691 -1.5092
 4868SOL     OW26065   4.141   1.925  16.129  0.1375  0.0467 -0.0979
 4868SOL    HW126066   4.078   1.964  16.067  0.1379  0.8124  0.3822
 4868SOL    HW226067   4.145   1.995  16.194  0.0832  0.3382 -0.4074
 4869SOL     OW26068   2.651   4.250  17.713  0.5875 -0.3329 -0.0589
 4869SOL    HW126069   2.557   4.252   0.018  0.2982  0.5858 -1.5226
 4869SOL    HW226070   2.647   4.305  17.635 -0.6921 -1.1526 -0.5683
 4870SOL     OW26071   0.092   1.917   5.615  0.5639  0.3774  0.3500
 4870SOL    HW126072   0.016   1.889   5.564  0.6163 -1.0670  1.0747
 4870SOL    HW226073   0.148   1.841   5.626 -2.1725 -1.7857 -0.7396
 4871SOL     OW26074   0.876   4.483   3.772  0.4393  0.1624  0.1587
 4871SOL    HW126075   0.964   4.485   3.809  0.3004 -0.0947  0.5043
 4871SOL    HW226076   0.897   4.419   3.704 -1.6775 -0.8472  0.4620
 4872SOL     OW26077   0.882   3.889   8.996  0.5096 -0.2143  0.5165
 4872SOL    HW126078   0.975   3.866   8.997  0.9488  1.5253 -0.2484
 4872SOL    HW226079   0.868   3.928   8.909 -0.5991  1.2554  1.3723
 4873SOL     OW26080   2.999   1.846   5.506  0.1362  0.1111  0.0095
 4873SOL    HW126081   3.026   1.937   5.493 -2.4191  0.3943 -3.1932
 4873SOL    HW226082   2.964   1.839   5.595  0.8102 -2.4440  0.0826
 4874SOL     OW26083   0.549   2.527   3.309 -0.6835  0.3027  0.0618
 4874SOL    HW126084   0.624   2.535   3.368 -0.4455 -0.6021 -0.1113
 4874SOL    HW226085   0.580   2.536   3.219 -0.2618  3.1653  0.4984
 4875SOL     OW26086   4.564   1.730  11.394 -0.2746 -0.0518  0.0333
 4875SOL    HW126087   4.653   1.763  11.406 -0.2504  0.4837 -1.6155
 4875SOL    HW226088   4.566   1.672  11.470 -1.6060  0.3095  0.3359
 4876SOL     OW26089   0.931   4.460   7.094  0.7268  0.5706  0.5374
 4876SOL    HW126090   0.853   4.510   7.115  0.6444 -0.4275  2.5904
 4876SOL    HW226091   0.982   4.485   7.171 -0.5513 -0.9508  1.8620
 4877SOL     OW26092   1.461   4.025   4.279  0.3493 -0.5680 -0.4209
 4877SOL    HW126093   1.502   3.979   4.352 -0.2215  1.2607  1.0586
 4877SOL    HW226094   1.371   3.992   4.277  0.8732 -2.1940  2.6846
 4878SOL     OW26095   4.426   3.915   3.288 -0.0722 -0.5757  0.3469
 4878SOL    HW126096   4.349   3.895   3.341  1.0752 -1.1539  1.7933
 4878SOL    HW226097   4.464   3.994   3.327  1.9810 -0.9951 -0.8148
 4879SOL     OW26098   3.271   4.616  10.721 -0.4668  0.4402 -0.5933
 4879SOL    HW126099   3.251   4.603  10.813  1.2244 -0.4535 -0.3593
 4879SOL    HW226100   3.312   4.703  10.729  2.6115 -1.0556 -0.1916
 4880SOL     OW26101   3.886   1.362   0.323 -0.1546 -0.0215 -0.1966
 4880SOL    HW126102   3.799   1.327   0.301  0.5106 -1.4321 -0.6370
 4880SOL    HW226103   3.868   1.420   0.397  0.6964 -2.6133  2.0551
 4881SOL     OW26104   1.295   0.513   7.484 -0.1337 -0.2176  0.4005
 4881SOL    HW126105   1.213   0.489   7.439 -0.7905 -1.2719  2.2020
 4881SOL    HW226106   1.265   0.553   7.565  0.4434 -0.0773  0.5395
 4882SOL     OW26107   4.344   4.536  13.041  0.2767 -0.3225  0.2924
 4882SOL    HW126108   4.368   4.590  12.966  1.3207 -0.2551  0.6683
 4882SOL    HW226109   4.429   4.526  13.085  0.6878 -2.1075 -0.9320
 4883SOL     OW26110   1.947   4.091   2.672 -0.5337 -0.8514  0.2112
 4883SOL    HW126111   1.990   4.082   2.756  0.8089  1.0918 -0.2599
 4883SOL    HW226112   1.886   4.160   2.698  0.8340  0.3140  0.3052
 4884SOL     OW26113   2.094   2.000   0.845  0.4611 -0.0597  0.5670
 4884SOL    HW126114   2.077   2.007   0.752  0.5145  2.9205  0.7815
 4884SOL    HW226115   2.007   1.981   0.881  0.0398  0.4620 -0.1938
 4885SOL     OW26116   1.936   4.307   7.569  0.5863  0.0028 -0.2491
 4885SOL    HW126117   1.935   4.213   7.591  0.6384  0.6792  2.6657
 4885SOL    HW226118   2.030   4.321   7.573  0.3611  0.4373  3.3946
 4886SOL     OW26119   1.141   3.839   2.887  0.2535 -0.0591  0.4130
 4886SOL    HW126120   1.103   3.764   2.841  0.0061 -0.4154  1.1854
 4886SOL    HW226121   1.056   3.874   2.912  0.4524 -0.1553  1.2453
 4887SOL     OW26122   4.168   1.836  16.559 -0.4196  0.3929 -0.4674
 4887SOL    HW126123   4.161   1.806  16.469 -4.2674  1.2502 -0.4184
 4887SOL    HW226124   4.250   1.790  16.581 -1.7923 -1.4532  0.7670
 4888SOL     OW26125   3.868   4.153  15.039 -0.3471 -0.3609  0.5055
 4888SOL    HW126126   3.810   4.228  15.052 -1.8849 -1.2421 -1.2419
 4888SOL    HW226127   3.934   4.173  15.105  2.3590 -2.6804 -1.5045
 4889SOL     OW26128   4.292   2.787  10.899  0.0368 -0.0010 -0.5009
 4889SOL    HW126129   4.264   2.878  10.908  0.7677  0.1489  0.1906
 4889SOL    HW226130   4.330   2.778  10.811  0.0440 -2.6865 -0.1999
 4890SOL     OW26131   3.559   2.279   4.302  0.1924  0.3851 -0.1348
 4890SOL    HW126132   3.463   2.271   4.305 -0.0261  2.1128 -2.3642
 4890SOL    HW226133   3.579   2.297   4.394  1.5941  0.1452 -0.4080
 4891SOL     OW26134   1.892   1.720  14.547 -0.4186  0.2289 -0.0473
 4891SOL    HW126135   1.940   1.669  14.482 -2.2221 -1.3252 -0.1566
 4891SOL    HW226136   1.845   1.645  14.585  1.6949 -0.4033  1.3174
 4892SOL     OW26137   0.976   2.017   1.766  0.2850  1.0062  0.2307
 4892SOL    HW126138   0.885   1.988   1.773  0.7123  0.0160  1.6883
 4892SOL    HW226139   0.977   2.050   1.676  1.5433  1.5916  0.4615
 4893SOL     OW26140   2.253   4.396   1.395  0.0365  0.3528 -0.1328
 4893SOL    HW126141   2.167   4.361   1.371  1.1612 -2.0364 -0.6744
 4893SOL    HW226142   2.302   4.315   1.405  1.1537  1.1746  1.0679
 4894SOL     OW26143   3.039   0.648  10.916 -0.3457 -0.8422 -0.2624
 4894SOL    HW126144   3.132   0.625  10.921 -0.2891 -0.6203 -0.3174
 4894SOL    HW226145   2.994   0.591  10.979  0.3018 -0.2028  0.7817
 4895SOL     OW26146   2.244   4.656   4.574 -0.6920 -0.4103  0.4959
 4895SOL    HW126147   2.290   0.003   4.611  1.8160 -1.6482 -0.0859
 4895SOL    HW226148   2.301   4.590   4.612  1.4307  1.6654  0.9865
 4896SOL     OW26149   0.756   2.527  12.636 -0.2639  0.0625  0.1416
 4896SOL    HW126150   0.682   2.573  12.675 -1.9519 -1.5966 -1.0996
 4896SOL    HW226151   0.780   2.467  12.707 -0.4331  0.0698  0.2044
 4897SOL     OW26152   1.742   2.636   5.120 -0.2148 -0.5120 -0.4589
 4897SOL    HW126153   1.777   2.554   5.154 -0.2772 -0.2950  0.1233
 4897SOL    HW226154   1.784   2.650   5.035 -0.5718  3.1764 -0.0352
 4898SOL     OW26155   1.154   2.302   7.477  0.1645  0.2907  0.3612
 4898SOL    HW126156   1.134   2.264   7.391  1.6976 -2.5273  1.2483
 4898SOL    HW226157   1.165   2.218   7.523 -1.5246 -0.6036 -0.8368
 4899SOL     OW26158   0.905   2.316   5.073 -0.0959 -0.3472  0.2779
 4899SOL    HW126159   0.971   2.372   5.113  0.6180 -0.4070 -0.8258
 4899SOL    HW226160   0.892   2.258   5.149 -2.2324  0.0363  0.2178
 4900SOL     OW26161   2.222   3.733  17.638 -0.4837  0.1976 -0.4787
 4900SOL    HW126162   2.198   3.745  17.546 -2.3976  1.2041  0.1434
 4900SOL    HW226163   2.298   3.676  17.628 -1.6245 -1.2709 -0.8551
 4901SOL     OW26164   0.254   3.686   2.295 -0.9747  0.0129 -0.5237
 4901SOL    HW126165   0.223   3.596   2.284 -0.9010 -0.1747  0.7633
 4901SOL    HW226166   0.178   3.730   2.333  1.0873  0.8268  2.6141
 4902SOL     OW26167   2.916   2.811   2.715 -0.4497 -0.3778  0.1307
 4902SOL    HW126168   3.007   2.821   2.687  0.2263  2.5550  3.3196
 4902SOL    HW226169   2.876   2.768   2.640 -1.8058  1.3395 -0.1357
 4903SOL     OW26170   2.252   3.766   9.914 -0.5135  0.0650 -0.1740
 4903SOL    HW126171   2.166   3.790   9.950 -0.8541  0.5646 -1.3183
 4903SOL    HW226172   2.295   3.739   9.995 -0.7096 -1.5657 -0.6138
 4904SOL     OW26173   1.608   3.482   2.123  0.4211  0.0311  0.4225
 4904SOL    HW126174   1.640   3.471   2.034 -1.2500 -0.4071 -0.1264
 4904SOL    HW226175   1.556   3.562   2.111  0.2452 -0.2958 -1.0367
 4905SOL     OW26176   4.689   0.125   4.293 -0.1459  0.4047  0.2523
 4905SOL    HW126177   4.618   0.178   4.328  0.6855  1.3380  0.4972
 4905SOL    HW226178   0.015   0.191   4.251  0.0744  1.1600  1.7504
 4906SOL     OW26179   3.231   0.189   3.831 -0.1112 -0.1572  0.0512
 4906SOL    HW126180   3.149   0.238   3.822 -1.1433 -1.3628  2.8649
 4906SOL    HW226181   3.291   0.260   3.810  0.3182 -0.3031  0.7700
 4907SOL     OW26182   3.408   0.715   4.044  0.4191 -0.0500  0.4931
 4907SOL    HW126183   3.482   0.775   4.031  0.4894 -0.3003 -0.2496
 4907SOL    HW226184   3.341   0.782   4.037 -1.9080 -2.2951  1.3074
 4908SOL     OW26185   0.076   3.978   9.965  0.0499 -0.6944 -0.4819
 4908SOL    HW126186   0.104   4.046  10.027 -0.5762 -0.7037 -0.1939
 4908SOL    HW226187   0.129   3.903   9.992  0.0428 -0.6745 -0.4119
 4909SOL     OW26188   0.360   3.537   8.228  0.3965  0.8133  0.2735
 4909SOL    HW126189   0.336   3.588   8.306  0.2086 -0.4529  1.0480
 4909SOL    HW226190   0.417   3.471   8.269  0.5701  0.9226  0.2094
 4910SOL     OW26191   2.060   0.145   3.670  0.1553  0.0739 -0.1250
 4910SOL    HW126192   2.087   0.214   3.610 -1.6443  1.5990  0.8217
 4910SOL    HW226193   2.106   0.069   3.635 -1.5680 -0.0581 -2.1180
 4911SOL     OW26194   2.562   2.661   2.801  0.3751 -0.1540  0.5186
 4911SOL    HW126195   2.534   2.719   2.730  0.2645 -1.7777 -0.7514
 4911SOL    HW226196   2.526   2.576   2.775 -2.3497  1.7561 -1.9105
 4912SOL     OW26197   1.191   0.857  13.849  0.5367 -0.3160  0.0046
 4912SOL    HW126198   1.112   0.820  13.810  0.8586 -0.1297 -0.8424
 4912SOL    HW226199   1.246   0.779  13.844  1.6881  0.5153 -0.2321
 4913SOL     OW26200   1.743   0.156   3.652 -0.0246  0.5718  0.2365
 4913SOL    HW126201   1.837   0.153   3.664  0.1949  1.2671 -1.3573
 4913SOL    HW226202   1.746   0.220   3.581 -2.6022  1.0070  0.5241
 4914SOL     OW26203   1.181   2.648   3.904  0.4649  0.6767  0.3467
 4914SOL    HW126204   1.265   2.674   3.867 -0.4539  3.2324  0.0805
 4914SOL    HW226205   1.153   2.728   3.949 -2.6919 -0.7301  0.8832
 4915SOL     OW26206   2.296   2.045  11.286  0.6086 -0.0405  0.1970
 4915SOL    HW126207   2.267   1.974  11.229  3.7694 -3.1360  2.4270
 4915SOL    HW226208   2.295   2.127  11.236  0.5070  0.7619  1.5173
 4916SOL     OW26209   2.060   0.795  14.060  0.0836  0.0807 -0.8343
 4916SOL    HW126210   2.120   0.840  14.000 -1.4699  0.7341 -1.9017
 4916SOL    HW226211   2.048   0.708  14.021  1.9151 -0.6444  0.2201
 4917SOL     OW26212   3.162   1.622  11.275  0.0787  0.1500  0.0247
 4917SOL    HW126213   3.216   1.584  11.345  1.1888 -1.8520 -1.9078
 4917SOL    HW226214   3.211   1.701  11.254  0.6829 -0.0239  0.7541
 4918SOL     OW26215   2.058   2.630  17.116 -0.4007 -0.9199 -0.4442
 4918SOL    HW126216   2.001   2.565  17.158 -0.8652 -0.7851 -0.8636
 4918SOL    HW226217   2.085   2.575  17.042 -0.4319 -1.2947 -0.1769
 4919SOL     OW26218   2.744   2.226  12.581  0.4889  0.0333  0.7822
 4919SOL    HW126219   2.747   2.156  12.646  1.5779 -1.7275 -1.1309
 4919SOL    HW226220   2.707   2.183  12.504 -1.0643  0.6038  1.2263
 4920SOL     OW26221   1.882   1.443   0.122 -0.6373  0.5605  0.3460
 4920SOL    HW126222   1.846   1.475   0.039  0.6186 -1.8501 -1.1250
 4920SOL    HW226223   1.849   1.511   0.181 -0.9706 -1.2104  2.2143
 4921SOL     OW26224   4.618   1.839   3.454 -0.3984 -0.1920 -0.3631
 4921SOL    HW126225   4.522   1.829   3.458 -0.4557  1.3766  1.7347
 4921SOL    HW226226   4.634   1.908   3.518 -2.4146  0.2464 -0.3109
 4922SOL     OW26227   1.015   2.176   9.017  0.0498  0.0291 -0.5388
 4922SOL    HW126228   0.950   2.207   9.079  1.8390  2.7967 -0.0614
 4922SOL    HW226229   1.004   2.081   9.016 -3.1279  0.3745  1.7649
 4923SOL     OW26230   1.765   2.926   6.185  0.2710  0.2820 -0.0034
 4923SOL    HW126231   1.703   2.926   6.112  2.4823  0.2646 -1.8720
 4923SOL    HW226232   1.781   3.019   6.198  1.4274  0.0306  0.2824
 4924SOL     OW26233   0.714   2.652   9.635  0.1484  0.3131 -0.6776
 4924SOL    HW126234   0.706   2.743   9.664  0.4609 -0.2853  1.2858
 4924SOL    HW226235   0.678   2.647   9.546 -1.8441 -0.4358  0.1546
 4925SOL     OW26236   1.608   0.413   1.993  0.4944 -0.0706 -0.2366
 4925SOL    HW126237   1.597   0.318   2.005  2.5000 -0.3545 -0.7026
 4925SOL    HW226238   1.555   0.438   1.918  0.4224  0.0560 -0.1428
 4926SOL     OW26239   1.555   2.772   9.443 -0.1809  0.1425 -0.3497
 4926SOL    HW126240   1.530   2.819   9.522 -0.7984  1.1569 -1.1389
 4926SOL    HW226241   1.573   2.691   9.490 -1.6184  0.8223  1.3784
 4927SOL     OW26242   0.328   4.462   7.181  0.0223  0.1005 -0.5739
 4927SOL    HW126243   0.355   4.446   7.272 -0.2673 -1.5294 -0.7595
 4927SOL    HW226244   0.297   4.372   7.169  1.8127 -0.7924  1.4526
 4928SOL     OW26245   0.456   0.829  14.495  0.2064  0.5141 -0.4622
 4928SOL    HW126246   0.497   0.766  14.554 -0.6126  0.8652  0.4832
 4928SOL    HW226247   0.425   0.896  14.555  2.1228  1.0707 -0.0751
 4929SOL     OW26248   2.702   4.084   9.145  0.1460 -0.3234  0.4122
 4929SOL    HW126249   2.684   4.034   9.225 -0.1017 -1.3907 -0.3159
 4929SOL    HW226250   2.727   4.011   9.089  2.1515  0.5072  0.2474
 4930SOL     OW26251   1.046   3.565  15.112 -0.0851 -0.2420  0.6669
 4930SOL    HW126252   1.107   3.598  15.046 -2.3087  0.0492 -1.2485
 4930SOL    HW226253   1.003   3.647  15.135 -0.8748 -0.8657  1.4381
 4931SOL     OW26254   0.056   4.563   4.401  0.5598  0.1120 -0.1510
 4931SOL    HW126255   0.080   4.568   4.308 -0.8448 -1.4035 -0.6057
 4931SOL    HW226256   4.690   4.575   4.407  0.6416 -0.0496  1.4122
 4932SOL     OW26257   1.090   2.337   6.928 -0.5890  1.0516  0.0695
 4932SOL    HW126258   1.136   2.397   6.869  0.7168 -0.5968 -0.6017
 4932SOL    HW226259   1.037   2.287   6.866 -1.2560 -1.0768  2.3512
 4933SOL     OW26260   3.165   3.883  13.974  0.1981  0.5325  0.4280
 4933SOL    HW126261   3.184   3.955  14.034 -2.4193  1.2707  0.3733
 4933SOL    HW226262   3.107   3.927  13.911  0.9540  0.5521 -0.2482
 4934SOL     OW26263   1.512   1.021   4.416 -0.4561 -0.5838  0.4217
 4934SOL    HW126264   1.578   1.041   4.349 -0.5953 -0.2609  0.3811
 4934SOL    HW226265   1.438   1.017   4.356  1.2962 -2.6796 -1.5965
 4935SOL     OW26266   3.158   0.655   6.971  0.7429  0.1255  0.0855
 4935SOL    HW126267   3.065   0.670   6.954  0.8439 -0.0435 -0.6273
 4935SOL    HW226268   3.159   0.584   7.035 -0.7774 -1.0337 -1.1886
 4936SOL     OW26269   1.475   0.399  15.882  0.2700 -0.1943  0.0244
 4936SOL    HW126270   1.493   0.360  15.968 -0.9460 -0.4600  0.1697
 4936SOL    HW226271   1.551   0.453  15.864 -0.2009  0.4977  0.1083
 4937SOL     OW26272   3.151   3.468   8.302 -0.2801  0.4886  0.1285
 4937SOL    HW126273   3.113   3.556   8.300 -1.0669  0.1541  0.5457
 4937SOL    HW226274   3.147   3.452   8.207 -0.6499 -2.2864  0.6069
 4938SOL     OW26275   3.170   0.754   3.137  0.0295  0.6326  0.2129
 4938SOL    HW126276   3.168   0.820   3.068  0.7195  0.9050  0.4478
 4938SOL    HW226277   3.128   0.807   3.205 -1.5986 -0.0053 -0.2943
 4939SOL     OW26278   1.274   0.823   3.795  0.1150 -0.8723  0.5351
 4939SOL    HW126279   1.206   0.757   3.786 -1.0048  0.3828 -0.1937
 4939SOL    HW226280   1.293   0.832   3.702  1.1916 -1.9081  0.6586
 4940SOL     OW26281   2.806   0.690   9.439 -0.5285  0.0881 -0.1294
 4940SOL    HW126282   2.876   0.749   9.467 -1.8782  1.1985  0.9150
 4940SOL    HW226283   2.747   0.693   9.514  1.7908 -1.3785  1.7632
 4941SOL     OW26284   3.566   2.362   6.014  0.2238 -0.1272 -0.4347
 4941SOL    HW126285   3.610   2.440   6.048 -1.0477  0.5789 -0.4293
 4941SOL    HW226286   3.533   2.403   5.934  0.1680 -0.2844 -0.4941
 4942SOL     OW26287   3.379   0.668   4.676 -0.3027  0.3565  0.2600
 4942SOL    HW126288   3.363   0.758   4.650 -2.4153 -0.1219 -0.1148
 4942SOL    HW226289   3.296   0.641   4.714 -1.1597  3.9797  0.8533
 4943SOL     OW26290   4.281   2.859   2.848 -0.1586  0.5317  0.1703
 4943SOL    HW126291   4.321   2.946   2.854  1.7851 -0.5181  2.2724
 4943SOL    HW226292   4.196   2.876   2.808  0.1131 -1.5289 -1.2520
 4944SOL     OW26293   4.506   2.533   5.614 -0.1483 -0.2053  0.0368
 4944SOL    HW126294   4.475   2.490   5.534  0.0369 -1.1971  0.5010
 4944SOL    HW226295   4.419   2.554   5.649  0.5237 -0.9866  2.1788
 4945SOL     OW26296   3.554   1.949   0.736 -0.2741 -0.7999  0.5889
 4945SOL    HW126297   3.507   2.032   0.745  2.3075  0.9861 -2.5625
 4945SOL    HW226298   3.552   1.945   0.640 -0.9802  0.1429  0.5692
 4946SOL     OW26299   2.372   1.184   8.606 -0.4269  0.3702  0.4628
 4946SOL    HW126300   2.398   1.213   8.519 -0.3610 -1.9585 -0.2804
 4946SOL    HW226301   2.294   1.239   8.613 -0.1348  0.6522  1.5063
 4947SOL     OW26302   0.550   4.507  11.462 -0.1782 -0.2563  0.4290
 4947SOL    HW126303   0.496   4.433  11.432 -0.8265  0.6270 -0.6191
 4947SOL    HW226304   0.492   4.582  11.449  2.5558  1.8845  0.6612
 4948SOL     OW26305   1.740   2.483   4.351  0.2973  0.0042 -0.6508
 4948SOL    HW126306   1.698   2.458   4.434  0.7608 -1.0941 -0.7426
 4948SOL    HW226307   1.701   2.570   4.343 -1.2480 -0.6042  0.3688
 4949SOL     OW26308   3.523   4.670   7.062 -0.1691 -0.4450  0.1045
 4949SOL    HW126309   3.604   4.674   7.113 -0.2110  1.7080 -0.0049
 4949SOL    HW226310   3.511   0.031   7.032 -1.7164 -0.5682  0.3171
 4950SOL     OW26311   3.545   3.630   4.575 -0.7970 -0.9506 -0.3357
 4950SOL    HW126312   3.562   3.686   4.499  4.3262 -0.2000  1.3615
 4950SOL    HW226313   3.610   3.561   4.568  1.3357  1.0341 -0.1665
 4951SOL     OW26314   3.129   2.104   8.495  0.4984 -0.7486 -0.3964
 4951SOL    HW126315   3.138   2.130   8.587  3.2967 -0.4708 -0.7615
 4951SOL    HW226316   3.037   2.078   8.493  0.0862  0.5517  1.3326
 4952SOL     OW26317   1.492   1.580   0.809  0.1191 -0.0290  0.1429
 4952SOL    HW126318   1.440   1.510   0.769 -1.1708  1.1798 -0.2688
 4952SOL    HW226319   1.547   1.531   0.871  2.9407  0.8016 -1.7390
 4953SOL     OW26320   0.647   4.605  16.595  0.2502 -0.8652 -0.1592
 4953SOL    HW126321   0.591   4.644  16.662  2.6575  0.6745  0.9669
 4953SOL    HW226322   0.591   4.605  16.517 -0.1406 -0.3523  0.1255
 4954SOL     OW26323   3.222   2.441   8.017 -1.0323  0.2317  0.5740
 4954SOL    HW126324   3.299   2.451   7.960  0.7703 -0.4350  2.8806
 4954SOL    HW226325   3.223   2.345   8.022  0.2136  0.1753 -0.5900
 4955SOL     OW26326   3.067   2.966   8.856  0.2870 -0.1644 -0.1679
 4955SOL    HW126327   3.154   3.003   8.874 -0.2250 -0.8057  3.6240
 4955SOL    HW226328   3.081   2.874   8.879 -0.1511 -0.6731 -1.9758
 4956SOL     OW26329   3.763   4.650   9.586  0.6037 -0.2642 -0.3571
 4956SOL    HW126330   3.695   4.583   9.572 -0.4156  0.3425  1.7973
 4956SOL    HW226331   3.747   4.707   9.511  2.4310  2.2154  1.1745
 4957SOL     OW26332   1.295   4.080   1.838  0.1922  0.9541 -0.5936
 4957SOL    HW126333   1.369   4.099   1.895  0.0786 -0.2181 -0.0733
 4957SOL    HW226334   1.237   4.152   1.863 -0.5385  0.1559 -0.0191
 4958SOL     OW26335   0.832   4.391   6.167  0.0510  0.6053 -0.0475
 4958SOL    HW126336   0.867   4.466   6.215 -3.3208  0.2808  2.9704
 4958SOL    HW226337   0.868   4.316   6.214 -1.0152 -0.3954 -0.8388
 4959SOL     OW26338   0.905   1.961  11.070  0.1918 -0.7100  0.4473
 4959SOL    HW126339   0.901   2.044  11.117 -0.6633 -0.3864 -0.1954
 4959SOL    HW226340   0.979   1.923  11.117  0.0086  0.2750  1.5322
 4960SOL     OW26341   0.511   3.744  14.640 -0.2620  0.1404 -0.6080
 4960SOL    HW126342   0.590   3.697  14.666  0.5668  1.2713 -1.1054
 4960SOL    HW226343   0.506   3.704  14.553 -0.7203  0.4876 -0.7411
 4961SOL     OW26344   1.538   1.417   4.549 -0.7147 -0.0456  0.2517
 4961SOL    HW126345   1.621   1.458   4.526 -0.9198 -0.7801 -1.7872
 4961SOL    HW226346   1.531   1.465   4.632  1.9309 -0.8679  0.9651
 4962SOL     OW26347   4.460   0.876  13.957  0.4412 -0.1581 -0.6170
 4962SOL    HW126348   4.471   0.961  13.999 -0.3047 -0.4617  0.2010
 4962SOL    HW226349   4.548   0.847  13.977 -0.4040 -0.6228  2.3887
 4963SOL     OW26350   2.975   0.305   6.770 -0.2760  0.2299 -0.5834
 4963SOL    HW126351   2.899   0.342   6.724 -2.2122  0.2744  2.6798
 4963SOL    HW226352   2.985   0.369   6.840 -1.4861  0.4406 -0.5934
 4964SOL     OW26353   2.729   0.571   4.987  0.2474 -0.4750  0.2680
 4964SOL    HW126354   2.696   0.656   5.017  1.4690  0.8006 -2.0394
 4964SOL    HW226355   2.672   0.539   4.917  0.8956 -0.8368 -0.0867
 4965SOL     OW26356   0.296   2.968   6.370 -0.1741 -0.0666  0.4127
 4965SOL    HW126357   0.321   2.941   6.459 -0.7360  0.9955  0.8958
 4965SOL    HW226358   0.238   2.894   6.351  0.5131 -0.6292  0.4833
 4966SOL     OW26359   4.280   2.846   5.763 -0.3068  0.3302  0.0365
 4966SOL    HW126360   4.298   2.934   5.796 -0.9840 -0.2764  2.0584
 4966SOL    HW226361   4.189   2.845   5.793 -0.5736  3.5391 -0.5983
 4967SOL     OW26362   2.012   3.517   1.874 -0.4331 -0.0220 -0.0348
 4967SOL    HW126363   1.980   3.429   1.854  0.3956 -0.4687  0.6138
 4967SOL    HW226364   1.968   3.568   1.806 -0.3909  0.3867  0.2515
 4968SOL     OW26365   4.486   3.134   6.896 -0.1010 -0.0548  0.2855
 4968SOL    HW126366   4.519   3.054   6.937 -0.9139 -1.1232 -1.1549
 4968SOL    HW226367   4.429   3.092   6.831 -0.0359 -0.5480  0.5413
 4969SOL     OW26368   3.555   0.867  12.118  0.7717 -0.1160  0.3858
 4969SOL    HW126369   3.507   0.840  12.197 -0.0880 -0.5043 -0.2633
 4969SOL    HW226370   3.504   0.834  12.043  0.6526  0.9497 -0.0044
 4970SOL     OW26371   4.446   3.497   6.497  0.1951  0.0269 -0.5501
 4970SOL    HW126372   4.505   3.560   6.455 -0.2686  0.4035 -0.6447
 4970SOL    HW226373   4.454   3.520   6.590  3.6206 -2.5921 -0.1866
 4971SOL     OW26374   2.342   3.001   7.671  0.2311  0.7040 -0.5430
 4971SOL    HW126375   2.275   2.990   7.603 -0.3357 -0.7936  0.2530
 4971SOL    HW226376   2.416   2.996   7.610  1.7626  2.5499  1.1642
 4972SOL     OW26377   4.093   4.083   1.475 -0.6037  0.2609  0.2172
 4972SOL    HW126378   4.133   4.059   1.392 -0.9436 -0.5004  0.2712
 4972SOL    HW226379   4.169   4.094   1.531 -0.0664 -1.4335 -0.1837
 4973SOL     OW26380   3.150   2.217   0.065 -0.0976  0.3991 -0.0291
 4973SOL    HW126381   3.159   2.303   0.104  3.1618 -1.4901  3.3811
 4973SOL    HW226382   3.075   2.234   0.008  0.6021 -0.4740 -1.1959
 4974SOL     OW26383   0.964   1.917   7.508 -0.0551  0.1193 -0.1014
 4974SOL    HW126384   0.955   1.822   7.497 -0.0691  0.4187 -2.7637
 4974SOL    HW226385   0.954   1.941   7.416 -0.9688 -1.9065 -0.5416
 4975SOL     OW26386   2.162   0.964   8.509  0.1681  0.1770  0.0679
 4975SOL    HW126387   2.081   1.002   8.544  0.1042 -0.1546  0.2864
 4975SOL    HW226388   2.220   1.028   8.551 -1.4743  0.7333  1.5112
 4976SOL     OW26389   4.536   2.040   5.628  0.2391 -0.0966  0.1828
 4976SOL    HW126390   4.526   2.084   5.712 -0.1369 -0.9641  0.5842
 4976SOL    HW226391   4.442   2.032   5.610 -0.1030  0.9472  1.5127
 4977SOL     OW26392   1.553   1.578   0.175  0.9094 -0.4920  0.6559
 4977SOL    HW126393   1.513   1.537   0.251  0.1517  2.1283  1.6773
 4977SOL    HW226394   1.637   1.590   0.219  0.3409 -0.1081  1.6370
 4978SOL     OW26395   4.610   4.700   2.465  0.0476 -0.1473  0.8707
 4978SOL    HW126396   4.665   4.671   2.537  0.0985 -1.6017  0.2329
 4978SOL    HW226397   4.531   4.648   2.480 -0.7776  0.9052  0.1831
 4979SOL     OW26398   2.451   2.457   6.953 -0.1145  0.2170  0.5059
 4979SOL    HW126399   2.498   2.529   6.912  0.5693 -0.6705 -0.2719
 4979SOL    HW226400   2.497   2.373   6.947  2.0447  1.3252  1.8773
 4980SOL     OW26401   1.180   0.748   4.333  0.3258  0.5704 -0.6045
 4980SOL    HW126402   1.231   0.830   4.330  1.9726 -0.3323  4.1760
 4980SOL    HW226403   1.144   0.742   4.244 -0.5007 -0.9660 -0.1621
 4981SOL     OW26404   2.952   4.648   2.546  0.5554 -0.5336 -0.0898
 4981SOL    HW126405   2.935   4.562   2.585  3.4077  0.1457  2.6921
 4981SOL    HW226406   2.891   4.704   2.594 -1.5029 -0.8281 -2.3681
 4982SOL     OW26407   0.082   1.822   3.861 -0.0616 -0.5902  0.2727
 4982SOL    HW126408   0.176   1.842   3.855 -0.2878  0.3957  0.1040
 4982SOL    HW226409   0.078   1.761   3.787  0.8117 -0.1036 -0.1804
 4983SOL     OW26410   4.095   0.648   9.318 -0.5814 -0.1508  0.0925
 4983SOL    HW126411   4.056   0.717   9.371  0.7128  0.4109  0.3136
 4983SOL    HW226412   4.020   0.589   9.315 -0.6502 -0.0710  0.2555
 4984SOL     OW26413   3.194   2.500   8.288 -0.6695  0.3859 -0.3176
 4984SOL    HW126414   3.188   2.505   8.192  1.5867 -1.7667 -0.5755
 4984SOL    HW226415   3.278   2.457   8.307  0.2707  2.1204 -0.5444
 4985SOL     OW26416   3.758   0.573  11.937 -0.2176 -0.0806 -0.0916
 4985SOL    HW126417   3.735   0.511  12.006 -0.7130  1.2175  0.9157
 4985SOL    HW226418   3.801   0.515  11.875  1.3446 -1.5260  2.3244
 4986SOL     OW26419   2.399   4.159   5.815 -0.2000  0.5679 -0.0816
 4986SOL    HW126420   2.406   4.159   5.910 -0.4807 -2.4645 -0.0496
 4986SOL    HW226421   2.358   4.244   5.801 -0.4414 -0.1506 -3.7603
 4987SOL     OW26422   3.758   2.980   1.306 -0.5003  0.2022  0.0262
 4987SOL    HW126423   3.723   3.059   1.266  1.6185  1.0257 -0.2174
 4987SOL    HW226424   3.832   3.020   1.352 -0.5919  0.6152 -0.1952
 4988SOL     OW26425   1.662   1.238   4.862  0.3472  0.2164  0.0927
 4988SOL    HW126426   1.578   1.193   4.876  1.5740 -2.3260 -0.6651
 4988SOL    HW226427   1.668   1.209   4.771  1.0500 -0.5806  0.3924
 4989SOL     OW26428   3.172   2.499  12.564 -0.4898  0.8282 -0.1125
 4989SOL    HW126429   3.228   2.556  12.617  0.4379  0.6942 -0.9470
 4989SOL    HW226430   3.156   2.429  12.628  0.1415  1.1199  0.3650
 4990SOL     OW26431   0.390   0.692   4.609 -0.1389 -0.1507 -0.8598
 4990SOL    HW126432   0.344   0.775   4.622  2.0395  0.7159  1.3353
 4990SOL    HW226433   0.471   0.712   4.563  0.1864  0.0252 -0.2199
 4991SOL     OW26434   0.542   3.471   6.268  0.3384  0.4633 -0.4851
 4991SOL    HW126435   0.461   3.497   6.224 -0.5015  0.1034  0.8387
 4991SOL    HW226436   0.531   3.376   6.273 -1.2233  0.6725 -0.0287
 4992SOL     OW26437   2.727   4.101   1.566  0.0869 -0.1389  0.5010
 4992SOL    HW126438   2.800   4.151   1.530  0.0616 -0.0911  0.5160
 4992SOL    HW226439   2.757   4.093   1.657 -1.4128 -0.7999  0.9404
 4993SOL     OW26440   2.831   3.914  15.164  0.6871  0.5533 -0.0070
 4993SOL    HW126441   2.863   3.823  15.166  0.3502  0.4607  1.1626
 4993SOL    HW226442   2.870   3.945  15.083  1.4509 -1.8947 -0.5978
 4994SOL     OW26443   3.261   3.529   2.492  0.2416  0.2417 -0.2574
 4994SOL    HW126444   3.208   3.450   2.492 -1.1673  1.1868 -0.7225
 4994SOL    HW226445   3.246   3.566   2.579  3.1132 -2.3095  1.3137
 4995SOL     OW26446   2.791   4.229   7.915 -0.0470 -1.2426 -0.6016
 4995SOL    HW126447   2.717   4.192   7.868  0.0185 -0.6738 -1.1449
 4995SOL    HW226448   2.792   4.314   7.871 -0.3645 -0.0968  1.6091
 4996SOL     OW26449   3.079   3.111  12.278  0.3197 -0.0633  0.3008
 4996SOL    HW126450   3.037   3.093  12.362 -1.2671 -1.6250 -0.8218
 4996SOL    HW226451   3.094   3.205  12.280  0.5999 -0.1125  0.4880
 4997SOL     OW26452   4.158   2.657  16.936  0.8314  0.0516  0.1697
 4997SOL    HW126453   4.226   2.669  17.003  0.4861 -0.1209  0.5556
 4997SOL    HW226454   4.080   2.677  16.988 -0.0548 -0.6234 -0.9089
 4998SOL     OW26455   1.048   2.246   1.337  0.1960 -0.4540  0.3695
 4998SOL    HW126456   0.977   2.185   1.355 -2.3926  1.4743 -3.3550
 4998SOL    HW226457   1.035   2.244   1.243  1.4301 -3.1564  0.2781
 4999SOL     OW26458   3.837   3.019   7.705  0.1639 -0.1127  0.2373
 4999SOL    HW126459   3.879   2.999   7.621  1.0160 -0.6073  0.7974
 4999SOL    HW226460   3.904   3.067   7.753 -0.3448  1.1466 -0.2977
 5000SOL     OW26461   4.302   2.786   4.076 -0.4603 -0.0504  0.4498
 5000SOL    HW126462   4.371   2.830   4.126 -0.9215  2.3690 -1.0461
 5000SOL    HW226463   4.221   2.834   4.095 -0.7593  0.6436 -2.6440
 5001SOL     OW26464   0.921   4.419   2.404  0.2328 -0.1565 -0.1360
 5001SOL    HW126465   0.830   4.419   2.375  0.2694 -1.4434 -0.2208
 5001SOL    HW226466   0.935   4.334   2.444 -0.5281 -0.7787 -1.2050
 5002SOL     OW26467   4.169   3.364   7.028  0.4384 -0.2741  0.6113
 5002SOL    HW126468   4.264   3.369   7.017  0.5282 -1.1986  0.8928
 5002SOL    HW226469   4.169   3.290   7.090  0.6788 -1.7172 -1.1281
 5003SOL     OW26470   4.003   3.249   3.617  0.5367  0.2712 -0.0230
 5003SOL    HW126471   4.058   3.276   3.543  0.3629 -0.2298 -0.3328
 5003SOL    HW226472   3.988   3.334   3.659  2.4447  1.4100 -1.6323
 5004SOL     OW26473   2.799   2.529   5.876 -1.0758 -0.1687  0.2391
 5004SOL    HW126474   2.785   2.436   5.890  1.4221 -0.7960 -1.3831
 5004SOL    HW226475   2.771   2.552   5.787 -1.2690 -0.7505  0.1487
 5005SOL     OW26476   1.969   4.703  14.979 -0.1417  0.3542 -0.8930
 5005SOL    HW126477   1.914   4.698  14.901 -0.7458 -0.1930 -0.4411
 5005SOL    HW226478   1.925   0.050  15.020  1.8688  0.2950  1.3774
 5006SOL     OW26479   4.679   2.382  17.636 -0.4452 -0.0540 -0.1451
 5006SOL    HW126480   4.701   2.391   0.014  0.7975  0.5246 -0.4956
 5006SOL    HW226481   0.034   2.369  17.592 -0.1309  1.0208  0.1409
 5007SOL     OW26482   3.015   4.639  12.906 -0.5650 -0.0096  0.3187
 5007SOL    HW126483   2.960   4.667  12.979  0.2286  0.9456  0.5429
 5007SOL    HW226484   3.081   4.708  12.897  1.0736 -1.6106  0.0206
 5008SOL     OW26485   3.823   0.930   7.587 -0.2717 -0.1711  0.6621
 5008SOL    HW126486   3.751   0.960   7.642  0.6619  2.2191  0.5445
 5008SOL    HW226487   3.782   0.852   7.550  1.6998 -0.8126 -0.1407
 5009SOL     OW26488   2.796   3.983   6.478 -0.2652 -0.0310  0.0754
 5009SOL    HW126489   2.874   4.003   6.428  1.6800 -2.8684  1.9479
 5009SOL    HW226490   2.817   3.990   6.571 -0.4089 -0.3220  0.1311
 5010SOL     OW26491   1.490   1.416   6.338  0.2675  0.4328  0.2107
 5010SOL    HW126492   1.451   1.475   6.402  0.0059  0.4477  0.0390
 5010SOL    HW226493   1.538   1.356   6.394 -0.6443 -0.2233  0.2857
 5011SOL     OW26494   3.483   3.337   1.328 -0.3107 -0.1397 -0.3347
 5011SOL    HW126495   3.428   3.411   1.301 -1.5266 -0.4041  1.5078
 5011SOL    HW226496   3.549   3.392   1.371  1.1417 -2.6139  0.5675
 5012SOL     OW26497   4.077   3.580   4.341  0.2386 -0.0410  0.4812
 5012SOL    HW126498   4.126   3.549   4.418  0.6200 -0.3580  0.1067
 5012SOL    HW226499   3.995   3.533   4.356  1.6459 -1.9721  2.1637
 5013SOL     OW26500   3.434   2.369  11.035 -0.2276  0.8332  0.4714
 5013SOL    HW126501   3.377   2.384  11.110 -0.0123  0.5337  0.6928
 5013SOL    HW226502   3.412   2.443  10.978  0.1875  0.7881  0.2507
 5014SOL     OW26503   2.540   1.281   3.850 -0.4458  0.2832  0.1661
 5014SOL    HW126504   2.531   1.225   3.773  0.7404  1.3691 -0.7490
 5014SOL    HW226505   2.507   1.362   3.812  0.6550 -0.7126 -2.9469
 5015SOL     OW26506   2.291   3.298   7.526  0.1435 -0.2622  0.0374
 5015SOL    HW126507   2.379   3.271   7.500  1.0846 -0.3554  3.2937
 5015SOL    HW226508   2.308   3.351   7.604 -0.1316 -0.4455  0.2237
 5016SOL     OW26509   2.684   0.519   3.137 -0.7195 -0.3206  0.1395
 5016SOL    HW126510   2.752   0.586   3.126 -0.9078 -0.0467  0.6597
 5016SOL    HW226511   2.617   0.584   3.160  1.6472  2.6256 -1.2396
 5017SOL     OW26512   1.442   1.403   5.523 -0.0676  0.8545  0.2265
 5017SOL    HW126513   1.439   1.493   5.488  0.0456  0.4704 -0.7798
 5017SOL    HW226514   1.348   1.384   5.520 -0.1927  1.4336  0.5084
 5018SOL     OW26515   0.993   1.247  12.554 -0.0200 -0.1958 -0.2201
 5018SOL    HW126516   1.044   1.272  12.477  0.3212 -1.6805 -0.4719
 5018SOL    HW226517   1.039   1.303  12.617  0.7716  1.3103 -2.1312
 5019SOL     OW26518   4.531   3.580   9.367  0.0204  0.7703  0.2711
 5019SOL    HW126519   4.559   3.506   9.421  1.1263  0.6500 -0.4714
 5019SOL    HW226520   4.563   3.545   9.283  3.5194  3.5027  0.4664
 5020SOL     OW26521   0.716   4.296   4.647  0.3736 -0.1956  0.0675
 5020SOL    HW126522   0.692   4.379   4.606 -2.4817 -0.1573  1.9152
 5020SOL    HW226523   0.713   4.318   4.739  0.1655  1.3203 -0.3074
 5021SOL     OW26524   0.578   2.228   7.703  0.0061 -0.2469  0.2922
 5021SOL    HW126525   0.658   2.260   7.744  0.4534 -0.2089 -0.6009
 5021SOL    HW226526   0.587   2.133   7.693 -0.1308 -0.4766  2.4287
 5022SOL     OW26527   2.911   3.174   3.332  0.2249 -0.5209 -0.4321
 5022SOL    HW126528   2.953   3.121   3.264  0.5710  0.3295 -0.8803
 5022SOL    HW226529   2.888   3.102   3.390  0.5398 -0.1894  0.0961
 5023SOL     OW26530   2.777   1.834   1.191  0.3928  0.5070  0.1226
 5023SOL    HW126531   2.734   1.749   1.193 -0.1672  0.7485 -1.5337
 5023SOL    HW226532   2.704   1.880   1.232 -0.8686  0.1197 -1.6853
 5024SOL     OW26533   4.423   1.181   8.185  0.2898 -0.2120 -0.0317
 5024SOL    HW126534   4.329   1.167   8.182  0.1942  0.9042 -1.8933
 5024SOL    HW226535   4.437   1.229   8.267  1.7987  1.7775 -1.4564
 5025SOL     OW26536   0.919   0.035  15.788 -0.6442  0.1473 -0.8175
 5025SOL    HW126537   0.868   4.685  15.812  0.9251  0.1998  2.6533
 5025SOL    HW226538   0.874   0.099  15.843 -0.7871 -1.6635  1.1916
 5026SOL     OW26539   3.994   1.289   8.708 -0.4850  0.1508 -0.3887
 5026SOL    HW126540   3.927   1.238   8.754  0.2775  0.5145  1.1099
 5026SOL    HW226541   4.000   1.369   8.760 -0.1775  0.1350 -0.4025
 5027SOL     OW26542   1.792   1.454  14.597 -0.7221  0.1382  0.4575
 5027SOL    HW126543   1.822   1.370  14.562  0.0918 -0.0969  1.6982
 5027SOL    HW226544   1.809   1.440  14.690  3.0249  0.2592 -0.1843
 5028SOL     OW26545   2.573   0.681   7.214  0.6014  0.1934  0.0100
 5028SOL    HW126546   2.573   0.657   7.306 -1.2524 -0.6792 -0.2223
 5028SOL    HW226547   2.480   0.703   7.205  0.8422  0.8627 -0.8699
 5029SOL     OW26548   0.796   1.500   4.091 -0.5518  0.1349 -0.1702
 5029SOL    HW126549   0.794   1.552   4.010  0.8335 -1.0682 -0.9893
 5029SOL    HW226550   0.748   1.558   4.150 -0.4760  0.3690 -0.3350
 5030SOL     OW26551   0.581   4.683   7.437 -0.2669  0.1852 -0.1238
 5030SOL    HW126552   0.547   0.028   7.386  0.9643 -0.3972 -1.8235
 5030SOL    HW226553   0.664   4.714   7.473 -0.8887 -0.3766  1.7535
 5031SOL     OW26554   0.650   3.266   3.349 -0.0096  0.0661 -0.1552
 5031SOL    HW126555   0.637   3.177   3.318 -2.5126  0.9049 -1.5325
 5031SOL    HW226556   0.726   3.289   3.296 -1.0428  0.7761 -1.3363
 5032SOL     OW26557   1.169   1.725   4.094 -0.4828 -0.1645 -0.1667
 5032SOL    HW126558   1.085   1.761   4.066 -1.3313 -2.0223  0.0042
 5032SOL    HW226559   1.209   1.703   4.010  1.0864 -1.0742  0.8233
 5033SOL     OW26560   4.006   0.935   3.110  0.6139  0.0428  0.8671
 5033SOL    HW126561   3.970   0.867   3.054  1.7164 -0.4726  0.7975
 5033SOL    HW226562   4.100   0.926   3.097  0.1594  1.3035 -3.2551
 5034SOL     OW26563   3.502   2.232   8.032 -0.4244 -0.8383 -0.3504
 5034SOL    HW126564   3.499   2.327   8.043 -2.5214 -1.3351  3.3174
 5034SOL    HW226565   3.530   2.225   7.941 -0.9816  0.9927 -0.6626
 5035SOL     OW26566   2.039   2.180  11.299 -0.7723 -0.1727 -0.3426
 5035SOL    HW126567   2.105   2.231  11.253 -0.4822  0.7326  1.0795
 5035SOL    HW226568   1.961   2.183  11.244  0.3734 -1.9289 -2.0359
 5036SOL     OW26569   0.046   2.186   5.498 -0.5959  0.1953  0.5769
 5036SOL    HW126570   0.121   2.194   5.557 -0.3402 -0.7337  0.3765
 5036SOL    HW226571   0.009   2.103   5.525 -1.8213  0.5851  0.1205
 5037SOL     OW26572   0.574   3.013   4.352 -0.2351 -0.7510 -0.4524
 5037SOL    HW126573   0.640   3.075   4.382 -1.3612  0.3166 -0.2126
 5037SOL    HW226574   0.575   3.024   4.257 -2.5663 -1.0664 -0.5053
 5038SOL     OW26575   2.531   2.314   2.143 -0.3787 -0.5180  0.5630
 5038SOL    HW126576   2.517   2.363   2.062 -1.1014 -0.5304  0.6808
 5038SOL    HW226577   2.549   2.225   2.112  1.1664  0.0514 -0.2060
 5039SOL     OW26578   4.216   0.665   5.701  0.4015 -0.3526 -0.2318
 5039SOL    HW126579   4.284   0.624   5.754  0.6017 -0.8157 -0.8534
 5039SOL    HW226580   4.189   0.751   5.733 -0.4999 -0.5800 -0.3799
 5040SOL     OW26581   0.103   4.064   7.041 -0.2091 -0.0695  0.5328
 5040SOL    HW126582   0.024   4.044   6.992 -0.4924  0.2694  0.8526
 5040SOL    HW226583   0.135   3.975   7.052  0.6770  0.2366  0.4519
 5041SOL     OW26584   2.961   3.130   4.295 -0.1731 -0.1518  0.6963
 5041SOL    HW126585   2.951   3.223   4.272 -1.1805 -0.4336 -0.0325
 5041SOL    HW226586   2.991   3.091   4.213 -0.2207  0.8888  0.1763
 5042SOL     OW26587   3.081   4.593   6.472  0.5838 -0.8399 -0.2922
 5042SOL    HW126588   3.062   4.624   6.561 -0.7559 -0.4438 -0.7296
 5042SOL    HW226589   3.126   4.509   6.483  1.9891  0.1940  1.9609
 5043SOL     OW26590   0.319   4.185   3.359  0.3548 -0.2195  0.6846
 5043SOL    HW126591   0.390   4.130   3.325  0.3786  1.6552 -2.2745
 5043SOL    HW226592   0.296   4.139   3.440 -0.8611  1.4506  1.2902
 5044SOL     OW26593   0.381   2.595   4.148  0.2684  0.8493 -0.2288
 5044SOL    HW126594   0.414   2.563   4.232  0.2734 -0.8668 -0.8739
 5044SOL    HW226595   0.456   2.640   4.111 -0.5340  0.9774 -1.6973
 5045SOL     OW26596   1.467   3.059   7.143 -0.5341 -0.5562  0.1287
 5045SOL    HW126597   1.542   3.096   7.188  0.3603  2.2153 -3.6425
 5045SOL    HW226598   1.414   3.139   7.146  0.7723  0.3972 -1.8965
 5046SOL     OW26599   1.736   4.663   5.642 -0.1005 -0.1268 -0.6168
 5046SOL    HW126600   1.827   4.643   5.663 -0.6259  0.3809  2.2609
 5046SOL    HW226601   1.740   4.717   5.564 -1.2453  3.1056  1.5557
 5047SOL     OW26602   2.850   0.648   4.668  0.4930  0.6134 -0.5630
 5047SOL    HW126603   2.814   0.713   4.608  0.8148  1.4546  0.1741
 5047SOL    HW226604   2.766   0.612   4.699 -0.9963  1.7932 -3.2134
 5048SOL     OW26605   0.351   4.116   5.521  0.4804  0.1121 -0.2630
 5048SOL    HW126606   0.354   4.069   5.437  1.0464 -0.1383 -0.1038
 5048SOL    HW226607   0.359   4.204   5.485 -1.6221  0.4000 -0.0078
 5049SOL     OW26608   2.849   1.441   2.416 -0.3176  0.2200  0.2066
 5049SOL    HW126609   2.779   1.378   2.398  0.7201 -1.4167  1.9104
 5049SOL    HW226610   2.839   1.503   2.344 -1.1084  0.3279  0.3999
 5050SOL     OW26611   1.125   2.200   8.346  0.5412  0.4630  0.8855
 5050SOL    HW126612   1.184   2.249   8.402 -1.0202 -0.3687  3.2749
 5050SOL    HW226613   1.126   2.262   8.273 -2.4398 -1.0470 -0.4600
 5051SOL     OW26614   3.111   1.818   9.201  0.4881  0.5820 -0.5086
 5051SOL    HW126615   3.201   1.831   9.232  0.0681  1.4088  0.3686
 5051SOL    HW226616   3.127   1.775   9.117 -1.1160 -0.2653 -0.3659
 5052SOL     OW26617   2.850   3.459  12.796  0.0255 -0.0190 -1.1665
 5052SOL    HW126618   2.920   3.398  12.773  0.5411 -0.9296  2.8564
 5052SOL    HW226619   2.802   3.402  12.856 -0.1379  0.8028 -0.5043
 5053SOL     OW26620   1.234   1.058  10.446 -0.1166 -0.1302  0.0941
 5053SOL    HW126621   1.241   0.987  10.510  0.3121  0.8893  1.1856
 5053SOL    HW226622   1.305   1.110  10.484  1.1808 -1.6168 -0.3090
 5054SOL     OW26623   0.249   2.443   9.181  0.4018  0.5413  0.0307
 5054SOL    HW126624   0.203   2.409   9.103  2.3659 -0.9757 -0.4568
 5054SOL    HW226625   0.306   2.372   9.208 -0.8451  0.2966  2.0332
 5055SOL     OW26626   3.608   2.100  16.661 -0.0621 -0.1835 -0.7661
 5055SOL    HW126627   3.666   2.176  16.667  1.1351 -1.4071  2.6174
 5055SOL    HW226628   3.650   2.054  16.589  1.3257 -1.1095  0.6455
 5056SOL     OW26629   2.407   4.105  14.918 -0.5161  0.2160  0.4765
 5056SOL    HW126630   2.495   4.088  14.952  0.4329  1.5426 -1.2676
 5056SOL    HW226631   2.388   4.182  14.972 -2.1436 -1.1663  1.8534
 5057SOL     OW26632   0.261   3.262  15.114  0.0662 -0.3892 -0.4894
 5057SOL    HW126633   0.261   3.255  15.210  0.2959  2.0256 -0.3224
 5057SOL    HW226634   0.344   3.220  15.093  0.5330  0.1254  0.3300
 5058SOL     OW26635   0.600   2.199   8.643 -0.1342 -0.6149  0.3073
 5058SOL    HW126636   0.633   2.200   8.733  0.9432 -0.9990 -0.0779
 5058SOL    HW226637   0.680   2.159   8.607 -0.8920 -2.9798  1.2052
 5059SOL     OW26638   1.614   0.528   2.857  0.8195 -0.0681  0.0449
 5059SOL    HW126639   1.697   0.486   2.833  0.2433 -1.0912 -0.1457
 5059SOL    HW226640   1.587   0.482   2.936  1.7460 -1.3148 -0.3556
 5060SOL     OW26641   1.018   0.143   3.343 -0.2589  0.0230  0.0296
 5060SOL    HW126642   1.098   0.161   3.393 -0.3637 -3.0209  1.2955
 5060SOL    HW226643   1.045   0.162   3.253 -2.5498  1.4845 -0.3504
 5061SOL     OW26644   1.766   0.262   0.858  0.1809 -0.7763  0.2536
 5061SOL    HW126645   1.678   0.295   0.836 -0.0027 -0.7737  0.9839
 5061SOL    HW226646   1.800   0.209   0.785 -0.2839  1.1357 -1.3673
 5062SOL     OW26647   4.286   1.848   5.666 -0.4242 -0.2831  0.0327
 5062SOL    HW126648   4.278   1.810   5.753 -1.0882  2.8495  1.3098
 5062SOL    HW226649   4.228   1.923   5.673  0.9969  0.7824  0.3941
 5063SOL     OW26650   3.290   0.504   7.740  0.4408  0.5692  0.1155
 5063SOL    HW126651   3.312   0.434   7.801 -1.3215 -0.1780 -0.1060
 5063SOL    HW226652   3.194   0.501   7.742  0.5493 -1.9732  1.8459
 5064SOL     OW26653   3.085   4.229   6.120 -0.0929 -0.7631  0.0920
 5064SOL    HW126654   3.179   4.244   6.120 -0.1125 -0.6243  2.0552
 5064SOL    HW226655   3.080   4.139   6.087 -0.6312  0.0920 -2.1752
 5065SOL     OW26656   0.827   4.149   9.160 -0.3309  0.4127 -0.0144
 5065SOL    HW126657   0.737   4.117   9.162 -0.3662  0.4766 -0.7416
 5065SOL    HW226658   0.861   4.070   9.117 -1.0785  0.8347 -1.3808
 5066SOL     OW26659   3.159   4.682   8.640  0.4541  0.2511 -0.6036
 5066SOL    HW126660   3.129   4.688   8.730  2.0879  0.1628 -0.0484
 5066SOL    HW226661   3.087   4.631   8.603  0.0649 -0.0650  0.6046
 5067SOL     OW26662   3.701   3.450   8.113  0.9553 -0.1368 -0.1419
 5067SOL    HW126663   3.680   3.455   8.020  0.2846 -1.0164 -0.0365
 5067SOL    HW226664   3.720   3.356   8.114  1.9397  0.0398 -1.4463
 5068SOL     OW26665   2.042   0.299   9.012 -0.4320 -0.2924 -0.0042
 5068SOL    HW126666   1.973   0.363   9.032  1.1568  0.8467  1.7898
 5068SOL    HW226667   1.999   0.213   9.018 -0.3997 -0.2019  1.6590
 5069SOL     OW26668   1.966   0.893   2.033 -0.8819 -0.0907  0.1178
 5069SOL    HW126669   1.985   0.898   2.127  0.2791  2.8839 -0.2842
 5069SOL    HW226670   1.996   0.982   2.018  2.0683 -0.7807  1.9426
 5070SOL     OW26671   4.085   4.152   3.109  0.2018 -0.2935  0.4385
 5070SOL    HW126672   4.120   4.232   3.150 -0.5610 -0.7622  2.0016
 5070SOL    HW226673   4.029   4.187   3.039 -1.9177 -1.8352  1.3995
 5071SOL     OW26674   1.055   4.689  14.769 -0.0541  0.5598 -0.0833
 5071SOL    HW126675   1.003   0.032  14.733  0.5523  1.6392  1.1803
 5071SOL    HW226676   0.999   4.641  14.830  0.1776 -0.4811 -0.6924
 5072SOL     OW26677   3.760   0.679   5.579  0.0549  0.1848 -0.3206
 5072SOL    HW126678   3.849   0.653   5.605  0.7756  1.0134 -2.0103
 5072SOL    HW226679   3.727   0.660   5.667 -0.2789 -2.5538 -1.0412
 5073SOL     OW26680   4.221   1.322   0.452  0.2808  0.5312  0.1184
 5073SOL    HW126681   4.226   1.398   0.395 -1.0527  1.8334  1.7265
 5073SOL    HW226682   4.162   1.263   0.405 -0.8415  1.2914  0.5656
 5074SOL     OW26683   3.641   4.570   7.482 -1.0177 -0.1839 -0.4389
 5074SOL    HW126684   3.668   4.631   7.413  0.2663 -0.0651  0.1633
 5074SOL    HW226685   3.721   4.533   7.520 -0.9958  0.3922  0.0691
 5075SOL     OW26686   0.702   3.449  10.369 -0.4351  0.2206 -0.7798
 5075SOL    HW126687   0.705   3.399  10.450 -1.4281  2.2631  0.5290
 5075SOL    HW226688   0.728   3.538  10.393  0.0702 -0.6104  1.7104
 5076SOL     OW26689   3.753   3.473   6.061 -0.4742 -0.2436 -0.4165
 5076SOL    HW126690   3.817   3.447   5.994 -1.7901 -0.4778 -1.5834
 5076SOL    HW226691   3.814   3.471   6.135  1.4499  2.1285 -1.9204
 5077SOL     OW26692   4.340   3.552  10.421 -0.0504 -0.4210  0.0369
 5077SOL    HW126693   4.254   3.577  10.455 -0.0579 -1.4168  0.7581
 5077SOL    HW226694   4.309   3.475  10.373 -1.6873 -1.3708  2.5838
 5078SOL     OW26695   3.689   0.076   8.888  0.1154 -0.3080 -0.1305
 5078SOL    HW126696   3.634   4.727   8.891 -2.3639  1.4028 -1.9678
 5078SOL    HW226697   3.778   0.041   8.900 -0.2571 -1.1878  0.0733
 5079SOL     OW26698   3.389   1.744   2.175 -0.2233  0.2728 -0.1800
 5079SOL    HW126699   3.380   1.762   2.082  0.2453 -0.3865 -0.3568
 5079SOL    HW226700   3.325   1.803   2.215 -2.8579 -2.4329 -0.3805
 5080SOL     OW26701   0.951   0.398   1.233  0.1556  0.6965 -0.6236
 5080SOL    HW126702   0.868   0.415   1.189 -1.1022 -1.9705  0.7295
 5080SOL    HW226703   0.937   0.304   1.241  1.0659  0.6789  0.9189
 5081SOL     OW26704   2.992   1.033   2.603  0.4412  0.3491  0.4633
 5081SOL    HW126705   2.903   1.015   2.574  0.3700 -0.0627  0.9371
 5081SOL    HW226706   3.046   0.990   2.536  2.1852 -0.5264  2.4075
 5082SOL     OW26707   2.681   1.337   8.032 -0.1771  0.1625  0.3441
 5082SOL    HW126708   2.589   1.341   8.057 -0.4043 -1.6145 -0.2106
 5082SOL    HW226709   2.682   1.352   7.937 -1.2282 -1.0770  0.1399
 5083SOL     OW26710   0.298   1.534   4.528 -0.2724  0.0592 -0.0653
 5083SOL    HW126711   0.312   1.472   4.599 -1.2320 -1.1449 -0.9347
 5083SOL    HW226712   0.357   1.499   4.461 -1.3897 -0.4761 -0.7717
 5084SOL     OW26713   0.688   1.805  10.330  0.3241 -0.4946 -0.2006
 5084SOL    HW126714   0.672   1.739  10.262 -1.4710 -1.5494  1.2376
 5084SOL    HW226715   0.602   1.798  10.371  0.3076  0.3051 -0.1095
 5085SOL     OW26716   3.959   2.285   3.550  0.1348  0.5280  0.2068
 5085SOL    HW126717   3.900   2.338   3.496 -0.2686  0.2486  0.3714
 5085SOL    HW226718   3.972   2.220   3.480  0.2822  1.0751 -0.2750
 5086SOL     OW26719   1.514   2.202   5.804 -0.0962 -0.0469  0.3442
 5086SOL    HW126720   1.531   2.120   5.759  2.0217  0.3749  0.3397
 5086SOL    HW226721   1.480   2.264   5.740  0.4465  0.7682  0.8384
 5087SOL     OW26722   1.973   3.131   8.100  0.0684 -0.0810  0.1838
 5087SOL    HW126723   1.924   3.051   8.078 -0.4834  0.2162  0.3424
 5087SOL    HW226724   1.962   3.188   8.024  0.4488 -1.8896 -1.2428
 5088SOL     OW26725   0.759   3.629   6.413  0.5652 -0.1175  0.3634
 5088SOL    HW126726   0.785   3.713   6.452  0.3389 -0.1545  0.5911
 5088SOL    HW226727   0.680   3.654   6.365  0.4663 -0.4042  0.3795
 5089SOL     OW26728   0.080   1.560   6.617  0.6473 -0.6893 -0.1188
 5089SOL    HW126729   0.093   1.465   6.617  1.8735 -0.5274 -0.8015
 5089SOL    HW226730   0.113   1.587   6.531 -0.4250  1.0718  0.0175
 5090SOL     OW26731   2.246   4.196  17.020  0.0545  0.1820 -0.5819
 5090SOL    HW126732   2.260   4.277  16.971  2.3354 -1.4719 -2.6982
 5090SOL    HW226733   2.256   4.118  16.965 -0.3119 -0.9309  0.9402
 5091SOL     OW26734   2.072   0.817   6.643  0.0946  0.4049  0.3656
 5091SOL    HW126735   2.020   0.887   6.603 -0.7166 -0.0313  0.6526
 5091SOL    HW226736   2.147   0.869   6.672  0.3099  0.9393 -1.1465
 5092SOL     OW26737   2.618   4.584  16.703  0.0325 -0.3416  0.1090
 5092SOL    HW126738   2.632   4.512  16.642 -2.1320 -1.5702  1.0783
 5092SOL    HW226739   2.672   4.654  16.665 -0.3912  0.0699  0.2684
 5093SOL     OW26740   0.255   3.667   8.462  0.7549 -0.9083  0.4410
 5093SOL    HW126741   0.200   3.652   8.539  1.9758  2.1125  1.9303
 5093SOL    HW226742   0.312   3.737   8.494  0.0181  0.7338 -1.8649
 5094SOL     OW26743   2.985   2.751   3.645 -0.4911  0.1036 -0.5019
 5094SOL    HW126744   3.018   2.738   3.734  0.2486  0.6496 -0.6962
 5094SOL    HW226745   3.011   2.669   3.603 -1.9715  1.2617 -3.7564
 5095SOL     OW26746   1.158   0.419   6.404  0.0989  0.2940 -0.4337
 5095SOL    HW126747   1.144   0.350   6.469 -3.1740  0.9171 -0.5058
 5095SOL    HW226748   1.067   0.424   6.375 -0.2354  0.4636  0.6516
 5096SOL     OW26749   3.052   4.342   4.224  1.2070 -0.0493 -0.0478
 5096SOL    HW126750   3.061   4.261   4.274  1.5761  0.3988  0.6110
 5096SOL    HW226751   3.076   4.409   4.288 -0.7897 -0.2819  0.9593
 5097SOL     OW26752   3.498   0.856  16.030  0.0605 -0.4181  0.0185
 5097SOL    HW126753   3.550   0.813  15.962 -0.6445  1.0064 -1.4154
 5097SOL    HW226754   3.428   0.889  15.975  1.9083  2.6439 -0.4660
 5098SOL     OW26755   1.741   2.085   4.689  0.6782 -0.2888 -0.3178
 5098SOL    HW126756   1.799   2.093   4.614  0.4555 -1.1573 -0.5851
 5098SOL    HW226757   1.782   2.142   4.755  0.3339 -0.3501 -0.0474
 5099SOL     OW26758   3.736   3.768   2.751  0.1752 -0.4770 -0.3106
 5099SOL    HW126759   3.793   3.697   2.719  0.9747 -0.3900  0.9130
 5099SOL    HW226760   3.795   3.803   2.818 -0.9100  0.3988  0.1749
 5100SOL     OW26761   1.275   3.031   3.977 -0.6048  0.2929 -0.2109
 5100SOL    HW126762   1.246   3.081   3.901 -1.1559 -0.5785 -0.5731
 5100SOL    HW226763   1.366   3.013   3.953 -1.2400 -0.4538 -2.0107
 5101SOL     OW26764   2.871   4.022   6.743  0.4695  0.1267  0.8357
 5101SOL    HW126765   2.847   4.024   6.835 -0.3303 -1.9159  0.6850
 5101SOL    HW226766   2.964   4.042   6.753  1.0489 -1.8849 -0.6062
 5102SOL     OW26767   0.711   4.602   5.176 -0.7525  0.4115  0.0604
 5102SOL    HW126768   0.805   4.608   5.161 -0.8523 -0.0115 -0.7734
 5102SOL    HW226769   0.667   4.599   5.091 -1.3097  0.1047  0.3550
 5103SOL     OW26770   2.947   0.700   0.999  0.4000  0.1999  0.1934
 5103SOL    HW126771   2.886   0.773   1.012 -0.3521 -0.2366 -0.8875
 5103SOL    HW226772   2.995   0.698   1.082  2.6098  1.1726 -1.0656
 5104SOL     OW26773   0.423   1.004   7.220  0.1061  0.2348 -0.0092
 5104SOL    HW126774   0.406   1.094   7.248  0.0200  0.0746  0.4481
 5104SOL    HW226775   0.510   0.993   7.259  0.6597  3.2539 -0.4043
 5105SOL     OW26776   2.229   2.838  17.714  0.1103 -0.0917 -0.2881
 5105SOL    HW126777   2.305   2.872   0.045  0.8497 -0.7572 -1.0066
 5105SOL    HW226778   2.157   2.869   0.053  0.7276 -0.1803  0.5890
 5106SOL     OW26779   1.955   1.264   7.264  0.3548 -0.0604  0.2075
 5106SOL    HW126780   2.007   1.200   7.215  0.1620 -0.7657  0.9305
 5106SOL    HW226781   1.884   1.218   7.308 -0.5988 -1.3725 -2.6867
 5107SOL     OW26782   3.134   3.122   3.575 -0.6861  0.5948 -0.2499
 5107SOL    HW126783   3.179   3.063   3.515  0.9729  1.6143  0.0089
 5107SOL    HW226784   3.203   3.170   3.620 -0.7417  0.4923 -0.0564
 5108SOL     OW26785   0.184   4.704   6.588 -0.8884  0.4858  0.4004
 5108SOL    HW126786   0.126   4.723   6.661 -0.4973 -0.8742  1.0646
 5108SOL    HW226787   0.207   0.064   6.560  2.0126 -0.7261 -1.0713
 5109SOL     OW26788   3.438   1.137   0.326  0.0842  0.0419 -0.2451
 5109SOL    HW126789   3.505   1.095   0.272  1.1613  0.4170  0.7989
 5109SOL    HW226790   3.368   1.073   0.332  1.1326 -1.1729 -1.0565
 5110SOL     OW26791   4.288   1.436   1.009 -0.1809  0.1277  0.1625
 5110SOL    HW126792   4.247   1.462   1.092 -0.5919 -0.2582  0.0843
 5110SOL    HW226793   4.246   1.350   1.006  0.0486 -0.0286  1.1937
 5111SOL     OW26794   3.642   2.165   4.925  0.2017 -0.2382 -0.7953
 5111SOL    HW126795   3.586   2.239   4.949  1.9523  0.7436  0.2269
 5111SOL    HW226796   3.709   2.209   4.873  0.1767 -0.0560 -0.6739
 5112SOL     OW26797   0.898   0.863  10.921 -0.2731  0.3409 -0.3969
 5112SOL    HW126798   0.862   0.774  10.916 -0.9845  0.6401 -0.5045
 5112SOL    HW226799   0.820   0.917  10.914 -0.5168 -0.2577 -2.2706
 5113SOL     OW26800   2.053   1.388   5.671 -0.4623  0.6534  0.2737
 5113SOL    HW126801   2.134   1.409   5.624 -0.2030 -3.1160 -1.0067
 5113SOL    HW226802   2.050   1.293   5.656  0.9569  0.4674  1.1474
 5114SOL     OW26803   0.433   0.010   1.279 -0.1593  0.3697 -0.1154
 5114SOL    HW126804   0.499   0.076   1.302  1.3755 -0.6525 -1.5332
 5114SOL    HW226805   0.469   4.705   1.197  1.3181 -0.3993  0.8154
 5115SOL     OW26806   0.351   0.320   8.184  0.1633 -0.3537 -0.3092
 5115SOL    HW126807   0.339   0.281   8.097  2.2261 -3.3192  0.7421
 5115SOL    HW226808   0.264   0.358   8.198  0.1268 -0.4064 -0.3878
 5116SOL     OW26809   2.519   0.667  12.134 -0.0651 -0.5882  0.0628
 5116SOL    HW126810   2.512   0.612  12.212  0.7078  0.5994  0.9569
 5116SOL    HW226811   2.612   0.654  12.115  0.5938  1.3039  2.0688
 5117SOL     OW26812   1.099   2.182  10.573 -0.4006 -0.4742  0.2923
 5117SOL    HW126813   1.011   2.195  10.609  0.3587 -1.4850  2.5153
 5117SOL    HW226814   1.151   2.171  10.653  2.3689  0.2286 -1.4188
 5118SOL     OW26815   0.449   0.084  16.339 -0.1401  0.5063 -0.5072
 5118SOL    HW126816   0.451   4.718  16.352 -0.0504  0.6874  0.7201
 5118SOL    HW226817   0.482   0.090  16.249  0.9718  0.3029 -0.1085
 5119SOL     OW26818   0.462   1.693  16.057  0.3012  0.0653 -0.7001
 5119SOL    HW126819   0.492   1.647  16.135 -2.7210 -2.3869 -1.0054
 5119SOL    HW226820   0.494   1.783  16.067 -0.2094  0.2870 -1.0783
 5120SOL     OW26821   1.822   2.629   7.980  0.5483  0.1301  0.3619
 5120SOL    HW126822   1.824   2.700   8.045 -1.1685 -1.5297  2.2348
 5120SOL    HW226823   1.734   2.654   7.952  1.3165  2.0075 -0.3994
 5121SOL     OW26824   4.293   2.587  11.111 -0.3378 -0.1113 -0.5951
 5121SOL    HW126825   4.307   2.663  11.055  0.8561  0.9848  1.1872
 5121SOL    HW226826   4.263   2.520  11.049 -2.3092  0.2667 -0.0482
 5122SOL     OW26827   4.001   3.833   9.637 -0.0831  0.8205 -0.2404
 5122SOL    HW126828   4.089   3.801   9.657 -0.9898 -1.5771 -0.2027
 5122SOL    HW226829   3.962   3.747   9.627  2.2323 -0.1704 -0.6380
 5123SOL     OW26830   3.008   1.941  17.185  0.1712  0.2377  0.0394
 5123SOL    HW126831   3.053   1.872  17.136 -1.1760  0.1546 -1.0720
 5123SOL    HW226832   2.938   1.890  17.225 -0.5504  0.7149 -0.6076
 5124SOL     OW26833   2.872   2.385   0.301  0.7394 -0.3798 -0.3476
 5124SOL    HW126834   2.791   2.379   0.251 -0.2598 -1.9234  1.5034
 5124SOL    HW226835   2.872   2.300   0.345 -1.5749 -1.3386 -2.1852
 5125SOL     OW26836   2.573   1.927   3.900  0.5540 -0.3712  0.4588
 5125SOL    HW126837   2.506   1.883   3.848  2.0164 -1.7626 -0.2607
 5125SOL    HW226838   2.637   1.949   3.832  1.7490  1.9025  2.3155
 5126SOL     OW26839   2.012   1.581   1.978 -0.3805 -0.0546  0.3577
 5126SOL    HW126840   1.988   1.511   1.917 -0.0892 -1.3014  1.6626
 5126SOL    HW226841   1.950   1.648   1.952  0.4622 -0.6858 -3.2304
 5127SOL     OW26842   2.604   2.539   4.132  0.2079 -0.1716  0.6945
 5127SOL    HW126843   2.535   2.567   4.192 -0.3671  1.9363 -0.9705
 5127SOL    HW226844   2.554   2.481   4.075  0.3075  0.4896 -0.0719
 5128SOL     OW26845   0.700   4.582  15.818  0.0829  0.2573 -0.4625
 5128SOL    HW126846   0.626   4.560  15.761  0.5186 -1.2917 -0.4267
 5128SOL    HW226847   0.700   4.499  15.866  2.2736  0.2329 -0.5291
 5129SOL     OW26848   1.355   2.555   5.268  0.2568  0.4143  0.0666
 5129SOL    HW126849   1.428   2.495   5.287  0.4127  1.2099  1.9884
 5129SOL    HW226850   1.358   2.590   5.357  0.7875  0.9171 -0.1486
 5130SOL     OW26851   2.383   3.114   4.195  0.4882  0.0165 -0.6060
 5130SOL    HW126852   2.387   3.147   4.105 -0.9731  0.1541 -0.6208
 5130SOL    HW226853   2.297   3.072   4.187 -1.0417  2.9092  0.8746
 5131SOL     OW26854   0.829   1.244   1.876  0.8293 -0.5224 -0.0294
 5131SOL    HW126855   0.771   1.284   1.811  2.0092  1.8109  0.3412
 5131SOL    HW226856   0.764   1.206   1.935  0.2257  0.3752 -0.1160
 5132SOL     OW26857   0.351   0.696   7.643  0.5751 -0.6102  0.1558
 5132SOL    HW126858   0.264   0.665   7.616  0.9312  0.7820 -2.6380
 5132SOL    HW226859   0.364   0.760   7.573 -1.3542 -0.9468 -0.5131
 5133SOL     OW26860   2.404   2.631   1.710 -0.4017 -0.4907 -0.4851
 5133SOL    HW126861   2.450   2.614   1.627 -0.9628 -0.8677 -0.7236
 5133SOL    HW226862   2.480   2.642   1.767  0.4012  0.2000 -1.6813
 5134SOL     OW26863   2.643   0.964   8.114  0.3823 -0.0568  0.3668
 5134SOL    HW126864   2.604   0.877   8.128  0.7044 -0.2971 -0.2180
 5134SOL    HW226865   2.625   0.963   8.020 -0.7778 -1.3882  0.5999
 5135SOL     OW26866   0.093   0.644   7.592 -0.8614 -0.0382 -0.3474
 5135SOL    HW126867   0.002   0.670   7.604 -0.9395 -0.5696  0.2362
 5135SOL    HW226868   0.081   0.551   7.572  2.8893 -0.2518 -1.5913
 5136SOL     OW26869   3.131   0.220   6.253 -0.8724  0.7346 -0.1603
 5136SOL    HW126870   3.068   0.283   6.218  2.6226  3.1120 -2.1874
 5136SOL    HW226871   3.154   0.252   6.340 -0.9322  1.0431 -0.2578
 5137SOL     OW26872   0.441   2.269   9.132 -0.2295 -0.4282 -0.0112
 5137SOL    HW126873   0.463   2.184   9.095  1.8402 -1.0982  2.6804
 5137SOL    HW226874   0.491   2.329   9.077  1.0613 -0.4431  1.1494
 5138SOL     OW26875   0.227   2.073   3.739 -0.9108  0.6472 -0.4047
 5138SOL    HW126876   0.295   2.129   3.702  2.1102 -0.8658  2.8969
 5138SOL    HW226877   0.210   2.015   3.666 -0.7034  0.8041 -0.5780
 5139SOL     OW26878   3.033   4.463   7.707 -0.1092 -0.2880 -0.0634
 5139SOL    HW126879   3.010   4.483   7.616  0.4305 -1.9400 -0.5674
 5139SOL    HW226880   2.947   4.468   7.749  0.3743  2.7150  0.5221
 5140SOL     OW26881   3.495   3.107   1.928 -0.0177 -0.0127 -0.3490
 5140SOL    HW126882   3.445   3.025   1.933 -0.8099  0.5043  0.1608
 5140SOL    HW226883   3.445   3.166   1.985  1.4092 -0.9147  1.8432
 5141SOL     OW26884   0.474   1.154   5.501  0.5718  0.9536 -0.3702
 5141SOL    HW126885   0.480   1.243   5.537  0.1424  0.9144 -0.2105
 5141SOL    HW226886   0.395   1.152   5.448 -0.9027  0.6497  1.8337
 5142SOL     OW26887   4.489   4.014   0.538  0.5499  0.2673  0.5651
 5142SOL    HW126888   4.442   4.097   0.535 -0.1923 -0.1001  1.5027
 5142SOL    HW226889   4.482   3.982   0.628 -1.2407  0.2907  0.4370
 5143SOL     OW26890   0.408   0.385   5.842  0.1783 -0.1031  0.1031
 5143SOL    HW126891   0.501   0.405   5.841  0.0992  0.2950  1.2263
 5143SOL    HW226892   0.408   0.322   5.770  0.5522 -0.2543  0.2392
 5144SOL     OW26893   4.206   0.838  11.898 -0.2201  0.0459  0.0230
 5144SOL    HW126894   4.189   0.925  11.862  1.0977  0.2221 -0.1839
 5144SOL    HW226895   4.302   0.839  11.896 -0.2229 -2.0237 -1.1264
 5145SOL     OW26896   3.504   0.709  13.368 -0.4256  0.0272  0.0896
 5145SOL    HW126897   3.519   0.748  13.282  2.1563 -0.9802  0.0674
 5145SOL    HW226898   3.425   0.658  13.352  1.4152 -2.6599 -0.4890
 5146SOL     OW26899   4.001   0.988   8.845 -0.0531  0.0769 -0.4942
 5146SOL    HW126900   4.095   0.998   8.832 -0.1663  1.2650 -0.3329
 5146SOL    HW226901   3.989   1.036   8.927 -0.0290  0.0941 -0.5007
 5147SOL     OW26902   1.349   2.015   2.910 -0.0905 -0.6507  0.3790
 5147SOL    HW126903   1.339   2.070   2.988  0.8386  0.6725 -0.4510
 5147SOL    HW226904   1.398   1.943   2.950 -1.4951 -1.8622 -0.0445
 5148SOL     OW26905   0.408   2.226   4.698 -0.2016  0.0395  0.0720
 5148SOL    HW126906   0.411   2.131   4.689  0.0810 -0.0682  1.2065
 5148SOL    HW226907   0.369   2.243   4.784 -0.9574  1.0632 -0.4697
 5149SOL     OW26908   3.916   4.068   7.518 -0.0071 -0.3221  0.5410
 5149SOL    HW126909   3.876   4.146   7.480 -0.1687 -0.2739  0.8084
 5149SOL    HW226910   3.976   4.105   7.582  1.5483  1.0970 -1.7367
 5150SOL     OW26911   1.038   2.586   2.189  0.5388 -0.2353 -0.2419
 5150SOL    HW126912   1.061   2.525   2.119  2.4934  1.3418 -0.9791
 5150SOL    HW226913   0.945   2.602   2.170  1.0423  2.1196 -0.7762
 5151SOL     OW26914   2.262   3.099   7.935 -0.3866  0.1784 -0.2180
 5151SOL    HW126915   2.300   3.049   7.863  2.5238 -1.3495  2.3756
 5151SOL    HW226916   2.180   3.054   7.956 -0.8798 -0.1074 -2.8118
 5152SOL     OW26917   0.941   4.623  15.330 -0.1113  0.1995 -0.2632
 5152SOL    HW126918   0.949   4.572  15.411 -1.1425 -1.2133 -1.0596
 5152SOL    HW226919   1.033   4.645  15.314 -0.4158  0.9554 -0.9403
 5153SOL     OW26920   0.050   2.912   1.127 -0.1282  0.3712  0.3259
 5153SOL    HW126921   0.066   2.947   1.040  1.3766  1.1881  0.9173
 5153SOL    HW226922   4.691   2.877   1.116  0.7348 -1.1153 -1.7363
 5154SOL     OW26923   1.442   2.588  15.282  0.5956 -0.1963 -0.3847
 5154SOL    HW126924   1.390   2.629  15.351  0.5779 -1.7864  0.5697
 5154SOL    HW226925   1.496   2.664  15.263 -0.0596 -0.0128 -1.4959
 5155SOL     OW26926   3.411   3.268   2.461  0.3510  0.3677  0.0328
 5155SOL    HW126927   3.494   3.315   2.466  1.8083 -2.2710  0.6715
 5155SOL    HW226928   3.399   3.254   2.555  0.3164 -0.6679 -0.1194
 5156SOL     OW26929   4.322   3.770  17.479  0.0261 -0.1572  0.4228
 5156SOL    HW126930   4.400   3.733  17.520  0.0323 -1.7012 -0.9946
 5156SOL    HW226931   4.250   3.726  17.525  0.9809 -0.6127  1.4751
 5157SOL     OW26932   2.716   0.900   3.976  0.0324  0.1060 -0.0972
 5157SOL    HW126933   2.779   0.925   3.908  0.1394 -0.4796 -0.2135
 5157SOL    HW226934   2.727   0.805   3.981 -0.8186  0.1194  2.0649
 5158SOL     OW26935   2.795   1.907   4.645 -0.2054 -0.1961  0.0014
 5158SOL    HW126936   2.781   1.932   4.554  0.5135 -1.6754 -0.5184
 5158SOL    HW226937   2.876   1.956   4.659 -0.2385 -0.6699  1.8241
 5159SOL     OW26938   4.657   4.214   4.963  0.2368 -0.5057 -0.2550
 5159SOL    HW126939   4.620   4.191   5.048  0.2944 -0.4877 -0.2253
 5159SOL    HW226940   4.668   4.309   4.966 -3.6304 -0.0084 -1.2722
 5160SOL     OW26941   2.944   0.450   8.316 -0.1436  0.0527 -0.1303
 5160SOL    HW126942   3.023   0.487   8.277  0.3655 -2.3152 -1.3266
 5160SOL    HW226943   2.983   0.434   8.402 -0.3189 -2.4813 -0.5347
 5161SOL     OW26944   2.506   0.061  14.522  0.6794 -0.0603  0.2331
 5161SOL    HW126945   2.518   0.061  14.427  0.1899  1.7320  0.1684
 5161SOL    HW226946   2.596   0.060  14.555  0.3112 -0.4928  1.2261
 5162SOL     OW26947   3.885   2.110   7.336  0.5749  0.3499 -0.2907
 5162SOL    HW126948   3.960   2.106   7.278  0.6046  2.9417 -0.4134
 5162SOL    HW226949   3.894   2.026   7.381 -1.3830  1.1215  1.5358
 5163SOL     OW26950   0.193   0.974   2.371 -0.6810  0.4417 -0.3393
 5163SOL    HW126951   0.156   0.892   2.340 -0.3759  0.4566 -0.7359
 5163SOL    HW226952   0.230   1.021   2.297  2.2633 -2.6302 -0.7661
 5164SOL     OW26953   3.393   1.823   3.285 -0.2403  0.2715  0.0545
 5164SOL    HW126954   3.478   1.797   3.248 -0.3251 -1.6811  1.2319
 5164SOL    HW226955   3.345   1.860   3.211  0.9170  1.3125 -0.1688
 5165SOL     OW26956   3.719   2.062   4.255 -0.0738  0.3729 -0.6025
 5165SOL    HW126957   3.658   2.134   4.271 -0.3955 -0.6197  2.5421
 5165SOL    HW226958   3.794   2.113   4.222  2.8423 -2.2661  1.9914
 5166SOL     OW26959   2.571   4.573   8.425 -0.4893  0.0040 -0.2352
 5166SOL    HW126960   2.590   4.528   8.342  0.1237 -0.6390  0.2547
 5166SOL    HW226961   2.612   4.657   8.406 -2.0591  0.2283 -2.5523
 5167SOL     OW26962   4.287   2.973  11.876 -0.0857  0.4894 -0.3940
 5167SOL    HW126963   4.373   2.935  11.859 -1.2840 -1.4110 -2.2722
 5167SOL    HW226964   4.286   3.057  11.829  1.1198 -0.5677 -2.3217
 5168SOL     OW26965   2.806   4.376  12.373 -0.6231  0.1448  0.0522
 5168SOL    HW126966   2.853   4.458  12.382  1.4081 -0.7875 -2.2250
 5168SOL    HW226967   2.772   4.365  12.462 -1.8041 -0.9798 -0.5341
 5169SOL     OW26968   3.188   0.839  15.383  0.0072  0.4132 -0.1646
 5169SOL    HW126969   3.133   0.768  15.349 -0.4227  0.3147  0.7394
 5169SOL    HW226970   3.262   0.831  15.323 -0.4179 -3.2405 -0.2133
 5170SOL     OW26971   0.911   4.448   4.873 -0.2315  0.5709 -0.3127
 5170SOL    HW126972   0.923   4.519   4.936  0.7035  0.9783 -0.9548
 5170SOL    HW226973   1.001   4.430   4.845 -0.5881 -1.3779 -0.2181
 5171SOL     OW26974   2.525   3.914   5.607 -0.2221 -0.4708  0.1347
 5171SOL    HW126975   2.460   3.984   5.617 -0.5560 -0.6641 -0.7177
 5171SOL    HW226976   2.564   3.907   5.694 -0.8967  0.6682  0.5325
 5172SOL     OW26977   4.459   1.687  16.056  0.0549 -0.1074 -0.3277
 5172SOL    HW126978   4.553   1.705  16.055 -0.0825  0.6302  0.5045
 5172SOL    HW226979   4.437   1.731  16.138  0.7107 -0.1995 -0.1023
 5173SOL     OW26980   3.292   3.993   7.078  0.2044 -0.6177  0.3077
 5173SOL    HW126981   3.363   3.953   7.026  0.3870 -1.0111  0.8561
 5173SOL    HW226982   3.282   3.929   7.149 -1.7369 -1.3417 -0.6349
 5174SOL     OW26983   3.429   3.081   6.173 -0.2240  0.2408  0.1173
 5174SOL    HW126984   3.370   3.059   6.101 -0.6789  1.3484  0.1548
 5174SOL    HW226985   3.373   3.067   6.249 -0.5367 -0.5471 -0.2522
 5175SOL     OW26986   0.992   1.519   4.902  0.4431 -0.0589  0.1280
 5175SOL    HW126987   0.979   1.480   4.989 -0.1619 -0.6818 -0.2411
 5175SOL    HW226988   0.976   1.611   4.924 -1.0906 -0.1409 -0.6622
 5176SOL     OW26989   4.641   4.369   8.211  0.3023 -0.5812  0.2883
 5176SOL    HW126990   4.575   4.343   8.147 -0.9767 -1.4008  1.9297
 5176SOL    HW226991   4.644   4.290   8.265  1.4426 -0.1510  0.8604
 5177SOL     OW26992   4.300   4.086   8.117 -0.1156  0.4162  0.2341
 5177SOL    HW126993   4.383   4.050   8.085 -0.3753  0.6812 -0.7138
 5177SOL    HW226994   4.327   4.155   8.178 -0.8851  1.0669 -0.1649
 5178SOL     OW26995   2.280   4.700   1.852 -0.9646  0.1548  0.0564
 5178SOL    HW126996   2.213   0.034   1.827 -0.5835  0.5294 -0.0362
 5178SOL    HW226997   2.280   4.652   1.769 -0.3887  0.1311  0.0681
 5179SOL     OW26998   3.844   0.977   0.249 -0.0598 -0.0958 -0.6268
 5179SOL    HW126999   3.758   1.016   0.231  0.6548  1.7830  0.0748
 5179SOL    HW227000   3.853   0.925   0.170 -1.8614  1.1316 -1.6489
 5180SOL     OW27001   3.006   3.693  13.085  0.1818  0.8412 -0.0682
 5180SOL    HW127002   3.051   3.778  13.091  0.8072  0.5285 -0.3312
 5180SOL    HW227003   3.065   3.631  13.128  1.5292  1.5897 -0.8141
 5181SOL     OW27004   4.660   2.544   6.848 -0.1700  0.3641  0.0422
 5181SOL    HW127005   4.674   2.565   6.940  0.6797 -0.6803  0.1570
 5181SOL    HW227006   4.661   2.449   6.857  1.7546  0.3251 -0.6528
 5182SOL     OW27007   4.602   2.711   4.238  0.7046 -0.2351  0.0988
 5182SOL    HW127008   4.695   2.725   4.259  0.7132 -1.0524  0.6133
 5182SOL    HW227009   4.601   2.718   4.143  0.2262 -0.4721  0.0889
 5183SOL     OW27010   1.828   3.966  15.341 -0.5821  0.4941  0.4215
 5183SOL    HW127011   1.840   3.975  15.247 -0.4527 -1.1268  0.2744
 5183SOL    HW227012   1.757   4.027  15.359 -0.1882  2.1027 -3.5809
 5184SOL     OW27013   0.509   3.269   9.075 -0.0916 -0.0855 -0.4307
 5184SOL    HW127014   0.588   3.245   9.124 -0.0868 -0.7434 -0.7586
 5184SOL    HW227015   0.551   3.319   9.005 -0.5466  1.5970  0.4884
 5185SOL     OW27016   2.210   2.755  14.095  0.2639  0.0426 -0.7063
 5185SOL    HW127017   2.228   2.833  14.148 -0.4997  0.6229 -1.3138
 5185SOL    HW227018   2.259   2.686  14.140  0.2215 -0.2849 -1.1667
 5186SOL     OW27019   2.560   1.442  14.172  0.0224 -0.1002  0.6206
 5186SOL    HW127020   2.537   1.534  14.182  0.9815 -0.0328  2.2058
 5186SOL    HW227021   2.525   1.442  14.083  0.8697 -1.5213  0.2852
 5187SOL     OW27022   1.862   1.231  17.451 -0.1790  0.0681  0.1502
 5187SOL    HW127023   1.839   1.204  17.539 -1.6239  0.1109 -0.2144
 5187SOL    HW227024   1.876   1.325  17.465 -0.6060  0.4917 -2.2518
 5188SOL     OW27025   1.650   0.506   7.295 -0.2416 -0.3191 -0.2372
 5188SOL    HW127026   1.614   0.570   7.355  1.0365  2.1565 -2.1117
 5188SOL    HW227027   1.711   0.472   7.361  0.3434  0.2512 -0.4818
 5189SOL     OW27028   4.542   3.649   3.252 -0.1268 -0.1851 -0.0285
 5189SOL    HW127029   4.500   3.733   3.272 -2.2089 -1.3638  0.5284
 5189SOL    HW227030   4.522   3.635   3.159 -1.1402  0.0844  0.1468
 5190SOL     OW27031   4.595   3.100   3.579 -0.3362  0.6007  0.9835
 5190SOL    HW127032   4.559   3.098   3.667 -2.4380 -1.0205  0.0886
 5190SOL    HW227033   4.525   3.134   3.522 -0.4849 -1.2294  0.0753
 5191SOL     OW27034   3.703   2.803   9.241  0.1019 -0.3631 -0.0379
 5191SOL    HW127035   3.670   2.821   9.153  1.0450 -0.4651 -0.4141
 5191SOL    HW227036   3.749   2.885   9.254  1.4296 -1.2301  0.6946
 5192SOL     OW27037   0.031   2.509   5.666  0.0568  0.6674  0.3038
 5192SOL    HW127038   4.671   2.515   5.631  0.3833 -2.3619 -1.0122
 5192SOL    HW227039   0.085   2.472   5.596 -2.0164  1.0601 -1.5010
 5193SOL     OW27040   1.307   2.056   9.890  0.2262 -0.0773  0.1850
 5193SOL    HW127041   1.256   2.119   9.838 -1.7276 -0.0116  2.1775
 5193SOL    HW227042   1.390   2.057   9.842 -0.6167  0.0190 -1.2680
 5194SOL     OW27043   2.620   1.982   7.603  0.1269 -0.3137 -0.0620
 5194SOL    HW127044   2.693   1.932   7.567  0.4885 -1.9737  2.9585
 5194SOL    HW227045   2.663   2.046   7.660  1.1854  0.5292 -1.8008
 5195SOL     OW27046   0.921   4.656   3.479 -0.0359  0.1062 -0.5551
 5195SOL    HW127047   0.848   4.665   3.541  0.8993 -2.3639  0.9288
 5195SOL    HW227048   0.927   0.012   3.435 -0.1636 -0.5117 -1.7645
 5196SOL     OW27049   1.891   2.399  15.356  0.1285 -0.5925  0.4290
 5196SOL    HW127050   1.933   2.334  15.299 -1.4666 -0.7326 -0.5938
 5196SOL    HW227051   1.927   2.382  15.443 -0.0955 -0.8935  0.4631
 5197SOL     OW27052   1.376   0.188   8.458 -0.6387 -0.2378  0.2730
 5197SOL    HW127053   1.314   0.249   8.498  0.4334  0.9026  0.1658
 5197SOL    HW227054   1.326   0.161   8.382 -0.4087 -1.6373  0.6160
 5198SOL     OW27055   3.814   2.674   8.360  0.0627 -0.1074 -0.6844
 5198SOL    HW127056   3.802   2.731   8.284  0.5329 -0.7604 -1.2500
 5198SOL    HW227057   3.863   2.600   8.323 -0.4577  0.0994 -1.7971
 5199SOL     OW27058   0.306   3.856   6.970  0.1946 -0.3514 -0.0227
 5199SOL    HW127059   0.363   3.796   7.017  1.6607 -0.1241 -1.5193
 5199SOL    HW227060   0.287   3.803   6.893 -0.1923 -2.0342  1.2165
 5200SOL     OW27061   0.897   4.127   7.580  0.1068  0.2393  0.0473
 5200SOL    HW127062   0.873   4.042   7.618 -0.4232 -0.2999 -1.4830
 5200SOL    HW227063   0.962   4.159   7.643  0.7674  0.3209 -0.6857
 5201SOL     OW27064   1.295   1.628   9.083 -0.7091  0.3511  0.2604
 5201SOL    HW127065   1.363   1.666   9.028 -0.9097  2.0082  1.1586
 5201SOL    HW227066   1.327   1.645   9.172  1.3950 -2.0511 -0.0168
 5202SOL     OW27067   1.530   1.020   1.702 -0.5117  0.3275  0.0375
 5202SOL    HW127068   1.501   1.111   1.711  0.5208  0.6719 -0.1144
 5202SOL    HW227069   1.464   0.994   1.638 -0.0379 -1.3441  0.2340
 5203SOL     OW27070   1.696   2.737   1.956  0.2815 -0.5648  0.4587
 5203SOL    HW127071   1.791   2.749   1.960  0.1417  0.7564 -0.2136
 5203SOL    HW227072   1.687   2.694   2.041  0.5414  0.2044  0.8713
 5204SOL     OW27073   2.600   1.875   6.796 -0.4166  0.0835 -0.3507
 5204SOL    HW127074   2.534   1.936   6.829 -0.8089 -0.1758 -0.6497
 5204SOL    HW227075   2.679   1.924   6.819  1.7432 -1.9362 -3.4027
 5205SOL     OW27076   1.076   3.080   1.764  0.2823  0.1259  0.0516
 5205SOL    HW127077   0.987   3.082   1.798  0.5575  2.1803  0.6747
 5205SOL    HW227078   1.098   2.994   1.801  0.2732 -0.0117 -0.2647
 5206SOL     OW27079   2.751   1.837   6.039  0.2059  0.3318  0.3007
 5206SOL    HW127080   2.786   1.873   6.120 -0.6207  0.6903  0.4986
 5206SOL    HW227081   2.797   1.896   5.979  0.5408 -0.9649 -0.7242
 5207SOL     OW27082   0.619   2.676   5.274  0.2795 -0.2074 -0.2663
 5207SOL    HW127083   0.560   2.680   5.349  1.1323 -0.1656  0.3984
 5207SOL    HW227084   0.687   2.738   5.299  0.9205 -2.3678  3.3291
 5208SOL     OW27085   4.023   1.326   7.594  0.1818  0.3622  0.7146
 5208SOL    HW127086   4.074   1.282   7.662 -2.0118 -0.5526  1.7766
 5208SOL    HW227087   4.078   1.392   7.552 -0.5530 -0.1054 -0.9838
 5209SOL     OW27088   2.201   0.010   5.059 -0.1057 -0.3856  0.0784
 5209SOL    HW127089   2.175   4.677   4.991  0.4635 -0.0350 -0.4648
 5209SOL    HW227090   2.285   0.037   5.021 -0.2566  0.0949  0.0818
 5210SOL     OW27091   1.231   4.314   2.070 -0.7294 -0.2589 -0.0518
 5210SOL    HW127092   1.214   4.368   2.147  1.3365 -0.5410  0.6087
 5210SOL    HW227093   1.166   4.244   2.082 -0.9584 -0.6972 -4.0191
 5211SOL     OW27094   0.960   0.338   9.450  0.7184 -0.2217 -0.2574
 5211SOL    HW127095   0.890   0.290   9.407 -0.6246  1.5948 -0.0954
 5211SOL    HW227096   1.031   0.282   9.417  1.6278  0.6894  0.1568
 5212SOL     OW27097   0.518   2.609   8.282 -0.0156 -0.5377 -0.3779
 5212SOL    HW127098   0.466   2.662   8.343  1.9791  1.7243 -0.6647
 5212SOL    HW227099   0.594   2.590   8.336  0.1110  3.5318  0.8851
 5213SOL     OW27100   1.038   0.757  10.696 -0.4226  0.1363 -0.0859
 5213SOL    HW127101   1.001   0.836  10.737  1.9271  0.4249  1.4716
 5213SOL    HW227102   1.116   0.791  10.652  1.2881 -4.4892 -0.5774
 5214SOL     OW27103   3.114   3.561  16.970  0.2381  0.1565  1.3890
 5214SOL    HW127104   3.069   3.521  17.044  0.1387 -3.3397 -0.5495
 5214SOL    HW227105   3.193   3.508  16.964  0.7040  0.6905  2.7713
 5215SOL     OW27106   0.165   4.325   8.062  0.1274  0.1955 -0.2418
 5215SOL    HW127107   0.073   4.336   8.086  0.0528  0.3202 -0.5787
 5215SOL    HW227108   0.216   4.387   8.112  0.6332  0.6493 -1.3223
 5216SOL     OW27109   4.045   4.605   9.604 -0.4820  0.1906  0.5143
 5216SOL    HW127110   4.058   4.700   9.605  0.6465  0.0096  2.3078
 5216SOL    HW227111   3.950   4.611   9.606 -0.6793 -1.8624 -1.8715
 5217SOL     OW27112   0.697   1.664   4.273  0.1918  0.5759  0.0387
 5217SOL    HW127113   0.609   1.656   4.310  0.1695  0.4090 -0.0507
 5217SOL    HW227114   0.758   1.630   4.338  0.9078  1.4502 -0.1775
 5218SOL     OW27115   2.210   2.014  16.620  0.2350 -0.2672 -0.5021
 5218SOL    HW127116   2.228   1.980  16.533  1.4322 -3.6382  1.0508
 5218SOL    HW227117   2.183   1.937  16.670 -0.0781 -0.0573 -0.3453
 5219SOL     OW27118   4.405   2.896   0.869 -0.1615 -0.3718  0.0313
 5219SOL    HW127119   4.445   2.809   0.867 -0.7902 -0.6636  0.2314
 5219SOL    HW227120   4.312   2.872   0.864  0.2933 -2.4198  1.6145
 5220SOL     OW27121   2.319   0.729   8.618  0.3919  0.1458 -0.5803
 5220SOL    HW127122   2.298   0.801   8.558 -1.6599 -0.1568 -0.2291
 5220SOL    HW227123   2.408   0.703   8.593  0.0131 -3.0075  1.3312
 5221SOL     OW27124   1.340   3.589   2.290 -0.3688 -0.0180  0.0451
 5221SOL    HW127125   1.279   3.557   2.223  1.1194 -2.5579 -0.1123
 5221SOL    HW227126   1.330   3.684   2.291  0.0111 -0.0048  1.6981
 5222SOL     OW27127   0.054   0.943   3.832 -0.5681  0.2365 -0.5188
 5222SOL    HW127128   0.012   0.946   3.918  2.6148 -0.1907  1.0580
 5222SOL    HW227129   4.726   0.884   3.784  1.1715 -1.9848  0.1664
 5223SOL     OW27130   3.729   2.495   8.783  1.0084  0.5566 -0.0337
 5223SOL    HW127131   3.717   2.590   8.784  1.7396  0.6939 -2.9408
 5223SOL    HW227132   3.700   2.483   8.873  0.7784  2.2900  0.1320
 5224SOL     OW27133   1.549   4.667  15.851  0.5691 -0.1148 -0.3526
 5224SOL    HW127134   1.554   4.640  15.759  0.3126  0.1269 -0.4382
 5224SOL    HW227135   1.509   4.591  15.893  1.2621 -0.9580 -1.2152
 5225SOL     OW27136   1.016   1.139  17.263 -0.0270  0.0343 -0.5439
 5225SOL    HW127137   1.104   1.101  17.268  0.2711  1.1082  2.2262
 5225SOL    HW227138   0.964   1.083  17.321  2.6457 -0.4001  1.4231
 5226SOL     OW27139   1.814   3.276   5.719 -0.5776 -0.0306 -0.2546
 5226SOL    HW127140   1.804   3.339   5.791 -2.3553 -1.8093  1.0786
 5226SOL    HW227141   1.840   3.197   5.768 -1.3682 -0.0363  0.1667
 5227SOL     OW27142   0.911   3.501   3.866 -0.1157 -0.3668  0.0588
 5227SOL    HW127143   0.831   3.517   3.815  0.2287  0.6434 -0.1656
 5227SOL    HW227144   0.980   3.478   3.803 -0.8374 -0.2002 -0.7990
 5228SOL     OW27145   4.407   3.579   8.934  0.1848 -0.0561 -0.3907
 5228SOL    HW127146   4.489   3.579   8.983  1.3156  3.0376 -2.2235
 5228SOL    HW227147   4.420   3.488   8.908 -2.3919 -1.6960  4.0502
 5229SOL     OW27148   2.306   1.622   3.142  0.1504  0.1181 -0.9170
 5229SOL    HW127149   2.265   1.611   3.057  0.7500 -0.7671 -1.0956
 5229SOL    HW227150   2.392   1.581   3.132 -0.0347 -0.7905  1.1469
 5230SOL     OW27151   2.258   2.210   7.966 -0.2723  0.3536 -0.6506
 5230SOL    HW127152   2.350   2.214   7.939 -0.0937 -0.7165 -0.2049
 5230SOL    HW227153   2.228   2.299   7.951 -0.6340  0.3063 -0.1941
 5231SOL     OW27154   4.077   3.815   5.440  0.1421 -0.1321 -0.2298
 5231SOL    HW127155   4.107   3.862   5.362 -1.2071  0.5390 -0.3456
 5231SOL    HW227156   4.156   3.782   5.482  0.0105  0.7570  0.7238
 5232SOL     OW27157   1.747   2.426   6.133  0.3574  0.4221 -0.0335
 5232SOL    HW127158   1.743   2.482   6.055 -0.7347  0.2132 -0.1223
 5232SOL    HW227159   1.829   2.457   6.171  0.5845  1.0503 -1.0110
 5233SOL     OW27160   0.124   4.639  14.023 -0.2100 -0.2227 -0.2567
 5233SOL    HW127161   0.130   4.640  13.927 -2.1980  1.7962 -0.3534
 5233SOL    HW227162   0.047   4.584  14.039  0.3469 -0.0675  2.7841
 5234SOL     OW27163   3.861   1.017   0.555 -0.5013  0.4511 -0.4127
 5234SOL    HW127164   3.765   1.014   0.549 -0.2947 -2.3412 -2.3936
 5234SOL    HW227165   3.891   0.992   0.468  0.2860  0.6476 -0.1902
 5235SOL     OW27166   0.921   3.959  12.630  0.6955  0.1141  0.3328
 5235SOL    HW127167   0.849   3.910  12.591  1.3918 -0.7429  0.0932
 5235SOL    HW227168   0.878   3.986  12.710 -0.3637 -1.0506  0.1629
 5236SOL     OW27169   0.508   1.683   9.832 -0.3520  0.0806  0.1055
 5236SOL    HW127170   0.540   1.619   9.769 -1.1027  0.6435 -0.8593
 5236SOL    HW227171   0.581   1.745   9.834 -0.0245 -0.3472  1.2779
 5237SOL     OW27172   1.461   1.422  12.058  0.6743 -0.5148  0.1227
 5237SOL    HW127173   1.415   1.498  12.023 -1.0529 -2.4211 -1.6929
 5237SOL    HW227174   1.551   1.429  12.026  1.4361 -0.6461  2.1990
 5238SOL     OW27175   4.636   4.660   0.197 -0.2798  0.3932  0.0149
 5238SOL    HW127176   4.604   4.571   0.180  0.4124 -0.0989  1.2929
 5238SOL    HW227177   0.000   4.650   0.176 -0.5499 -2.2505  0.0754
 5239SOL     OW27178   0.490   0.347  10.683 -0.2394  0.3965 -0.1973
 5239SOL    HW127179   0.437   0.268  10.673  1.4695 -0.3320 -3.2786
 5239SOL    HW227180   0.444   0.390  10.755 -0.7015  1.8017 -1.3344
 5240SOL     OW27181   4.707   4.467  11.431 -0.2855 -0.1232 -0.0848
 5240SOL    HW127182   4.639   4.495  11.491  0.5713 -1.0122  1.3027
 5240SOL    HW227183   4.655   4.406  11.379  0.6492 -1.1085  0.1383
 5241SOL     OW27184   2.446   3.053  17.552 -0.0601 -0.2128 -0.0454
 5241SOL    HW127185   2.453   3.148  17.538  1.5060 -0.3052  0.0739
 5241SOL    HW227186   2.415   3.051  17.643  2.2172  1.9040  0.7846
 5242SOL     OW27187   3.803   0.887   5.398  0.1977 -0.0715  0.7795
 5242SOL    HW127188   3.859   0.822   5.440  0.1092 -1.0128 -0.5641
 5242SOL    HW227189   3.769   0.924   5.479 -2.3148  0.5623 -0.5712
 5243SOL     OW27190   1.670   4.241   2.750  0.0299  0.2482 -0.1832
 5243SOL    HW127191   1.633   4.328   2.730 -0.0236 -0.1559 -1.8745
 5243SOL    HW227192   1.655   4.204   2.663  0.5589  1.8640 -0.9615
 5244SOL     OW27193   1.708   3.820  14.645 -0.5721  0.4358  0.2988
 5244SOL    HW127194   1.719   3.728  14.620  2.2635  0.3678  1.7912
 5244SOL    HW227195   1.740   3.820  14.735  0.7378  1.6222 -0.1729
 5245SOL     OW27196   2.313   3.532   1.270  0.0238 -0.3334 -0.2475
 5245SOL    HW127197   2.254   3.547   1.196 -2.5165  3.2741  2.4878
 5245SOL    HW227198   2.302   3.438   1.284  0.4689 -0.5091 -1.0711
 5246SOL     OW27199   4.299   2.942   0.055 -0.2014  0.0749 -0.5277
 5246SOL    HW127200   4.285   2.922   0.147  0.7010 -0.5217 -0.5207
 5246SOL    HW227201   4.357   3.018   0.055 -1.8226  1.2807  2.3373
 5247SOL     OW27202   4.678   2.890   1.450  0.1058  0.1868  0.0380
 5247SOL    HW127203   4.638   2.880   1.364 -0.4893  0.6571  0.2595
 5247SOL    HW227204   4.605   2.934   1.493  1.1511 -1.0149  3.1152
 5248SOL     OW27205   0.229   0.762   9.030  0.4540 -0.3177  0.0462
 5248SOL    HW127206   0.143   0.761   8.987  0.8236 -1.4539 -0.6753
 5248SOL    HW227207   0.277   0.833   8.989 -0.2802  0.2185  0.1088
 5249SOL     OW27208   1.913   0.937  14.485  0.2881  0.1730 -0.1988
 5249SOL    HW127209   1.968   0.864  14.455 -0.1240 -0.1550 -0.1622
 5249SOL    HW227210   1.825   0.908  14.459 -0.2007 -0.7441  2.4269
 5250SOL     OW27211   2.153   1.114  16.293  0.3800  0.2126 -0.8166
 5250SOL    HW127212   2.133   1.137  16.202  1.5939 -1.4512 -1.5084
 5250SOL    HW227213   2.246   1.130  16.307  0.5027 -0.3864 -0.9660
 5251SOL     OW27214   2.102   3.948   4.061 -0.3965 -0.1301  0.6688
 5251SOL    HW127215   2.186   3.993   4.049  0.6204 -2.2114 -0.1194
 5251SOL    HW227216   2.059   4.002   3.995  1.5794 -0.4498 -0.9095
 5252SOL     OW27217   1.513   0.153   8.856 -0.0680  0.0512 -0.4122
 5252SOL    HW127218   1.521   0.185   8.946  1.8124 -2.2676  0.2518
 5252SOL    HW227219   1.592   0.100   8.857 -1.6881 -2.3746  1.6595
 5253SOL     OW27220   0.068   0.020  11.697 -0.8807 -0.1480  0.1765
 5253SOL    HW127221   0.029   0.082  11.635 -3.2724 -4.0662 -2.2333
 5253SOL    HW227222   0.059   4.664  11.652  3.7353  0.0018 -0.9705
 5254SOL     OW27223   3.609   2.563   5.604 -0.1567  0.3368 -0.2547
 5254SOL    HW127224   3.688   2.609   5.576 -0.8841  1.0640 -1.1170
 5254SOL    HW227225   3.562   2.561   5.520 -0.1646 -0.4857 -0.2323
 5255SOL     OW27226   2.221   0.412   7.570 -0.0151 -0.0628  0.2507
 5255SOL    HW127227   2.136   0.455   7.581 -0.4897 -0.8251 -0.4897
 5255SOL    HW227228   2.194   0.336   7.622  0.5585  0.4724  1.3276
 5256SOL     OW27229   0.985   2.719   7.291  0.2509 -0.6533 -0.0091
 5256SOL    HW127230   0.909   2.699   7.346 -0.8232 -1.1688 -1.6888
 5256SOL    HW227231   0.963   2.808   7.264 -2.4217 -1.2100  0.2738
 5257SOL     OW27232   2.625   2.139  10.459  0.0163 -0.4818  0.1918
 5257SOL    HW127233   2.615   2.044  10.451  0.6291 -0.7636  2.5754
 5257SOL    HW227234   2.537   2.174  10.472  0.6220  0.6440  1.2437
 5258SOL     OW27235   1.933   4.018   8.775  0.2644 -0.4148  0.0769
 5258SOL    HW127236   1.997   3.952   8.803 -1.0974 -2.1505 -0.8988
 5258SOL    HW227237   1.956   4.080   8.844  2.0417 -0.5941 -0.3602
 5259SOL     OW27238   4.484   3.141   9.053 -0.7240  0.3063 -0.2053
 5259SOL    HW127239   4.393   3.110   9.048  0.5922 -3.4159 -1.0265
 5259SOL    HW227240   4.486   3.207   8.984  1.9017  0.0472 -0.3423
 5260SOL     OW27241   0.626   1.265  16.812 -0.1290 -0.3378 -0.2413
 5260SOL    HW127242   0.673   1.312  16.880 -1.9992  1.0255  0.0931
 5260SOL    HW227243   0.686   1.267  16.737  0.4800 -2.4716  0.2026
 5261SOL     OW27244   1.391   2.739   4.886  0.0127 -0.1310 -0.1152
 5261SOL    HW127245   1.298   2.720   4.898  0.2494 -1.0222  0.3441
 5261SOL    HW227246   1.424   2.744   4.976 -1.1078 -0.1903  0.3018
 5262SOL     OW27247   3.155   1.954   0.004  0.2638  0.2053  0.0837
 5262SOL    HW127248   3.148   2.040   0.046 -1.5534  1.5916 -3.0649
 5262SOL    HW227249   3.102   1.898   0.060 -0.3788  0.1456 -0.5851
 5263SOL     OW27250   3.319   0.456   3.518 -0.1112 -0.5091  0.1111
 5263SOL    HW127251   3.402   0.484   3.479 -0.8143  1.4938  0.0383
 5263SOL    HW227252   3.330   0.361   3.517  1.0651 -0.3824  0.3752
 5264SOL     OW27253   0.099   0.044   5.445  0.3564 -0.2171 -0.1244
 5264SOL    HW127254   0.175   0.090   5.410 -0.1714 -0.2928 -1.3506
 5264SOL    HW227255   0.039   0.054   5.371  1.2190 -1.1200 -0.9466
 5265SOL     OW27256   1.430   2.600   4.643 -0.9087 -0.2412 -0.3216
 5265SOL    HW127257   1.422   2.640   4.729 -1.6485  2.1118 -1.4706
 5265SOL    HW227258   1.370   2.661   4.599 -0.1155 -0.3990 -1.6484
 5266SOL     OW27259   3.772   3.670   3.237  0.0375  0.1380  0.1390
 5266SOL    HW127260   3.773   3.584   3.279 -0.4685 -0.3100 -0.7542
 5266SOL    HW227261   3.803   3.721   3.311  1.1260  1.2602 -1.0902
 5267SOL     OW27262   4.674   1.199  10.632  0.2085  0.8106 -0.0619
 5267SOL    HW127263   4.582   1.191  10.610  0.4490 -2.9271  0.3848
 5267SOL    HW227264   4.671   1.255  10.710 -0.1241  0.0735  0.4511
 5268SOL     OW27265   0.138   1.366   3.931 -0.0992  0.1668  0.7964
 5268SOL    HW127266   0.131   1.381   3.837  0.5423  0.3885  0.7864
 5268SOL    HW227267   0.170   1.276   3.938 -0.7410  0.0424  2.1889
 5269SOL     OW27268   1.511   4.241  11.022  0.2582 -0.1394  0.2156
 5269SOL    HW127269   1.442   4.179  11.043  0.1780 -1.2681 -3.4665
 5269SOL    HW227270   1.512   4.298  11.099  0.9077  2.0073 -1.3806
 5270SOL     OW27271   1.597   3.415   8.235 -0.3346 -0.3327 -0.2398
 5270SOL    HW127272   1.544   3.395   8.313  0.0320  0.7732  0.2880
 5270SOL    HW227273   1.682   3.381   8.263 -0.2829  0.3612  0.4433
 5271SOL     OW27274   0.303   3.312  10.550  0.1401 -0.2703  0.3455
 5271SOL    HW127275   0.270   3.282  10.635 -1.9071 -1.3461 -0.8401
 5271SOL    HW227276   0.232   3.285  10.492  0.7511  0.0507 -0.5526
 5272SOL     OW27277   2.695   3.707   5.141  0.0946 -0.9980  0.0004
 5272SOL    HW127278   2.608   3.721   5.101  0.1545  0.2019  0.2804
 5272SOL    HW227279   2.673   3.707   5.234  1.3942 -0.2169  0.3118
 5273SOL     OW27280   2.831   2.056   0.141 -0.0007  0.3062 -0.6892
 5273SOL    HW127281   2.890   2.080   0.070  2.4180 -2.5907  0.3239
 5273SOL    HW227282   2.801   1.968   0.119 -0.0030  0.1921 -0.2428
 5274SOL     OW27283   2.776   0.400   9.183  0.0419  0.1546  0.2240
 5274SOL    HW127284   2.829   0.439   9.253  0.3655 -4.0392  2.3424
 5274SOL    HW227285   2.786   0.464   9.112 -1.8378 -0.3059 -0.4487
 5275SOL     OW27286   3.332   2.752  10.045 -0.2934  0.2034  0.1899
 5275SOL    HW127287   3.411   2.697  10.050 -0.6260 -0.3413 -0.5519
 5275SOL    HW227288   3.378   2.829  10.078 -1.4659  0.9940 -0.0304
 5276SOL     OW27289   0.140   0.084   7.453  0.2510 -0.0912  0.6149
 5276SOL    HW127290   0.181   0.102   7.369 -0.3026  0.9414  0.5660
 5276SOL    HW227291   0.220   0.061   7.501  1.1560  1.0631 -0.3241
 5277SOL     OW27292   1.792   0.401   5.106 -0.5339 -0.1184  0.7338
 5277SOL    HW127293   1.701   0.423   5.086 -1.7503 -3.1874  2.8345
 5277SOL    HW227294   1.776   0.313   5.141  1.1204 -0.7442 -0.1260
 5278SOL     OW27295   2.529   2.351   5.768 -0.0289  0.0389  0.4693
 5278SOL    HW127296   2.467   2.395   5.826 -0.3764 -2.3130  1.8795
 5278SOL    HW227297   2.508   2.404   5.691 -0.8299 -1.5420 -0.4210
 5279SOL     OW27298   0.011   0.068   8.042  0.2094  0.3077 -0.2027
 5279SOL    HW127299   4.652   0.078   8.005  0.2146 -0.4857 -0.4335
 5279SOL    HW227300   4.723   0.027   8.127 -0.2690  0.0097 -0.4363
 5280SOL     OW27301   1.009   3.946   8.502  0.7332  0.3938 -0.3858
 5280SOL    HW127302   1.067   4.014   8.468 -0.9046  1.4376 -1.0648
 5280SOL    HW227303   0.945   3.929   8.433  0.5921  2.2386 -0.6850
 5281SOL     OW27304   4.462   3.340   8.065  0.5798 -0.2902  0.1897
 5281SOL    HW127305   4.440   3.430   8.046  0.9536 -0.0933  0.6743
 5281SOL    HW227306   4.371   3.313   8.074  0.1391  0.4230 -2.3314
 5282SOL     OW27307   2.274   0.347   7.254  0.1361  0.2422  0.3129
 5282SOL    HW127308   2.182   0.348   7.231 -0.5502 -1.2461  2.9670
 5282SOL    HW227309   2.267   0.365   7.348  1.9441 -2.9293  1.0778
 5283SOL     OW27310   4.677   3.310   5.090 -0.1372  0.3897 -0.2904
 5283SOL    HW127311   4.691   3.274   5.178  3.8351 -0.6088 -1.2905
 5283SOL    HW227312   4.594   3.356   5.096 -1.2210 -1.4935 -0.8385
 5284SOL     OW27313   4.380   3.439   0.935  0.7627  0.4108  0.1998
 5284SOL    HW127314   4.465   3.471   0.965  0.6617  2.2829 -1.4851
 5284SOL    HW227315   4.334   3.517   0.904 -4.0250 -2.1711  0.7234
 5285SOL     OW27316   3.719   2.276   7.471  0.4580 -0.1155  0.2014
 5285SOL    HW127317   3.767   2.257   7.552  0.7465 -2.7534 -0.5870
 5285SOL    HW227318   3.773   2.213   7.424  1.6875 -0.0312  1.4983
 5286SOL     OW27319   2.304   3.724   9.661 -0.0943  0.1851 -0.2380
 5286SOL    HW127320   2.314   3.740   9.754  4.1506 -0.4478 -0.5846
 5286SOL    HW227321   2.233   3.660   9.664  0.2041 -0.1063  0.3756
 5287SOL     OW27322   4.726   0.583   5.424  0.4194 -0.0292  0.1724
 5287SOL    HW127323   0.071   0.545   5.473  0.7900 -0.0026 -0.3562
 5287SOL    HW227324   4.656   0.530   5.462  1.7936 -2.0775 -0.1412
 5288SOL     OW27325   2.872   3.343   7.131 -0.1313  0.4220  0.5174
 5288SOL    HW127326   2.904   3.360   7.219  1.0483  1.0776 -0.0361
 5288SOL    HW227327   2.779   3.339   7.155 -0.6673 -0.4276 -1.6772
 5289SOL     OW27328   3.939   4.308   8.259 -0.1258  0.5795 -0.1072
 5289SOL    HW127329   3.863   4.360   8.235  1.2890  2.7475  0.0702
 5289SOL    HW227330   4.008   4.375   8.261  1.2265 -0.8383  0.6781
 5290SOL     OW27331   3.954   0.646   5.993  0.4344 -0.1315  0.3193
 5290SOL    HW127332   3.962   0.653   5.898 -1.4725 -0.9209  0.1037
 5290SOL    HW227333   4.047   0.662   6.012  0.7445 -2.0670  0.4279
 5291SOL     OW27334   4.481   0.449   3.299  0.1033 -0.4963  0.5917
 5291SOL    HW127335   4.391   0.421   3.316 -0.5196  2.5014  2.0587
 5291SOL    HW227336   4.465   0.543   3.294  1.2729 -0.3322 -0.2101
 5292SOL     OW27337   2.745   2.786   2.197  0.1918 -0.0874  0.0501
 5292SOL    HW127338   2.652   2.801   2.187 -0.1438 -0.4449  2.5657
 5292SOL    HW227339   2.767   2.867   2.242 -1.0512 -1.3085  2.8601
 5293SOL     OW27340   1.838   0.045   4.849  0.1245 -0.6560  0.1458
 5293SOL    HW127341   1.881   0.025   4.766 -0.4048  1.5337 -0.6652
 5293SOL    HW227342   1.892   0.122   4.866  0.4156 -1.1301  1.3559
 5294SOL     OW27343   4.080   2.512   0.883 -0.2529 -0.3756  0.5144
 5294SOL    HW127344   4.106   2.436   0.934 -1.5329 -0.2625  1.3282
 5294SOL    HW227345   4.017   2.477   0.820 -1.0087 -2.2972  2.3526
 5295SOL     OW27346   2.681   0.932  10.932  0.2643  0.3236 -0.0870
 5295SOL    HW127347   2.661   0.927  10.839  1.5939  0.1498 -0.3606
 5295SOL    HW227348   2.610   0.876  10.965 -0.8310  2.4026  1.1030
 5296SOL     OW27349   3.247   0.847   9.026  0.2623 -0.1922 -0.2685
 5296SOL    HW127350   3.254   0.810   9.113 -1.8198 -0.1127 -0.0713
 5296SOL    HW227351   3.340   0.858   9.008 -0.0117  1.0884 -0.9351
 5297SOL     OW27352   1.474   0.514   4.942  0.2998 -0.4539 -0.0347
 5297SOL    HW127353   1.390   0.478   4.913  0.2834 -0.2148 -0.2816
 5297SOL    HW227354   1.515   0.526   4.856  0.7717 -0.7378  0.1503
 5298SOL     OW27355   0.172   0.271  11.468  0.1065 -0.2043 -0.3982
 5298SOL    HW127356   0.120   0.296  11.544  0.3690  0.2920 -0.3878
 5298SOL    HW227357   0.110   0.298  11.400  0.4901 -0.1945 -0.7424
 5299SOL     OW27358   0.787   1.202   7.767 -0.1042  0.6430  0.5717
 5299SOL    HW127359   0.726   1.210   7.694  1.2751  1.4339 -0.5062
 5299SOL    HW227360   0.870   1.221   7.722  0.6111 -0.4071  1.4333
 5300SOL     OW27361   3.073   1.964   2.570 -0.3575 -0.5606  0.7660
 5300SOL    HW127362   3.124   1.988   2.493 -2.2813 -1.3438 -0.7559
 5300SOL    HW227363   3.114   1.881   2.595 -0.8063 -0.5317  1.5959
 5301SOL     OW27364   2.490   0.985   3.821 -0.3227 -0.5019  0.0755
 5301SOL    HW127365   2.423   0.966   3.887  1.1786 -0.1799  1.6965
 5301SOL    HW227366   2.562   0.973   3.883  0.8618  3.2200 -0.5854
 5302SOL     OW27367   2.697   1.064  13.559  0.0827 -0.1518  0.1284
 5302SOL    HW127368   2.717   1.091  13.469 -2.4760  0.4096 -0.2736
 5302SOL    HW227369   2.602   1.079  13.558 -0.1846 -1.7373  0.8681
 5303SOL     OW27370   0.363   4.571   8.918  0.5353  0.3427 -0.2758
 5303SOL    HW127371   0.436   4.511   8.934  0.7080  0.0838 -2.0945
 5303SOL    HW227372   0.325   4.589   9.004  0.3306  1.9045 -0.6883
 5304SOL     OW27373   0.191   0.114   2.552 -0.6103  0.5441 -0.0645
 5304SOL    HW127374   0.234   0.045   2.502 -1.8149 -0.1954 -0.0803
 5304SOL    HW227375   0.129   0.069   2.608  0.2583 -1.8417 -1.0433
 5305SOL     OW27376   2.668   3.906   6.185  0.0897  0.3044 -0.6574
 5305SOL    HW127377   2.606   3.840   6.218 -0.2119  0.9470  0.0618
 5305SOL    HW227378   2.756   3.876   6.207  0.4213  1.1148 -0.8889
 5306SOL     OW27379   4.349   4.321  16.608 -0.2115 -0.2492 -0.9154
 5306SOL    HW127380   4.309   4.235  16.599  1.5199 -1.0576 -0.8567
 5306SOL    HW227381   4.296   4.373  16.547 -0.2199  3.5954  2.3255
 5307SOL     OW27382   0.306   2.653   7.064  0.0954 -0.1396  0.3446
 5307SOL    HW127383   0.261   2.615   7.139 -2.3902 -0.6293 -1.3957
 5307SOL    HW227384   0.366   2.722   7.093  0.2250 -0.1552  0.1139
 5308SOL     OW27385   2.308   3.535   8.012  0.8488 -0.0104  0.0998
 5308SOL    HW127386   2.351   3.580   8.085  0.7520  0.3674 -0.0719
 5308SOL    HW227387   2.359   3.455   8.007 -2.0756 -1.7963 -0.9949
 5309SOL     OW27388   0.406   1.469  14.338  0.2479 -0.5754 -0.0578
 5309SOL    HW127389   0.408   1.377  14.310  0.7074 -0.8123  0.7450
 5309SOL    HW227390   0.433   1.460  14.429 -0.0835  1.0099  0.1870
 5310SOL     OW27391   1.503   2.944   6.482  0.6483 -0.2960 -0.1023
 5310SOL    HW127392   1.448   2.868   6.502 -0.2020  0.4232  0.2848
 5310SOL    HW227393   1.441   2.999   6.435 -0.5336  1.0260  2.9946
 5311SOL     OW27394   3.879   2.794   3.861  0.2235 -0.1489 -0.5395
 5311SOL    HW127395   3.911   2.872   3.907 -0.0087  0.6427 -1.7132
 5311SOL    HW227396   3.786   2.787   3.881  0.6101 -2.0031  0.5516
 5312SOL     OW27397   0.270   1.141  15.257  0.1428  0.0873  0.0214
 5312SOL    HW127398   0.182   1.145  15.295  1.3273 -0.8746  2.8379
 5312SOL    HW227399   0.241   1.148  15.166  1.6815  2.3625 -0.2761
 5313SOL     OW27400   3.966   3.608   1.820 -0.5641 -0.4296  0.0903
 5313SOL    HW127401   3.901   3.542   1.844 -2.8226  1.2122 -1.4458
 5313SOL    HW227402   3.927   3.692   1.846  0.0596  0.0137 -0.3809
 5314SOL     OW27403   3.425   1.331   5.387  0.2045 -0.7102  0.1708
 5314SOL    HW127404   3.425   1.423   5.360 -3.1794 -1.0186 -0.8514
 5314SOL    HW227405   3.433   1.287   5.303 -0.3195 -0.2611 -0.1074
 5315SOL     OW27406   0.900   4.565  14.554 -0.1669  0.0788 -0.0095
 5315SOL    HW127407   0.814   4.606  14.565  0.1423  1.1310 -1.5346
 5315SOL    HW227408   0.929   4.539  14.641  1.5208  0.4192 -0.4742
 5316SOL     OW27409   4.485   0.126   3.866 -0.8984  0.5994 -0.0700
 5316SOL    HW127410   4.565   0.178   3.858 -0.0080 -0.7349  0.1724
 5316SOL    HW227411   4.486   0.101   3.958  0.9759  1.4275  0.1330
 5317SOL     OW27412   0.183   3.203   5.021  0.2302 -0.0138  0.5778
 5317SOL    HW127413   0.097   3.227   5.057 -0.1116  1.4451 -1.2162
 5317SOL    HW227414   0.183   3.108   5.012  1.1293 -0.0773  1.3087
 5318SOL     OW27415   1.431   0.247  16.124 -0.0704 -0.4235  0.4257
 5318SOL    HW127416   1.465   0.269  16.211 -1.7870  0.1719  0.9409
 5318SOL    HW227417   1.339   0.231  16.143  0.0781 -1.0367  0.6379
 5319SOL     OW27418   0.558   2.938   7.926 -0.1560  0.0920  0.4916
 5319SOL    HW127419   0.590   2.879   7.857 -0.3785 -0.9993  1.3267
 5319SOL    HW227420   0.481   2.890   7.956 -0.0012  1.3726  2.9633
 5320SOL     OW27421   3.004   1.107   2.864 -0.4008 -0.7856  0.2071
 5320SOL    HW127422   3.002   1.078   2.773  0.2547  1.8241 -0.6492
 5320SOL    HW227423   2.961   1.192   2.860  1.9089  0.4149  0.6175
 5321SOL     OW27424   3.922   1.894  11.878 -0.3140  0.4838 -0.3115
 5321SOL    HW127425   3.970   1.976  11.865 -1.0001  0.6825 -1.6218
 5321SOL    HW227426   3.874   1.911  11.959  0.8380 -1.7752  0.8505
 5322SOL     OW27427   1.226   1.853  16.997  0.2608 -1.0865 -0.2320
 5322SOL    HW127428   1.233   1.924  16.934 -0.1479  2.2440  3.4232
 5322SOL    HW227429   1.151   1.886  17.047  1.7316 -1.3311  2.1699
 5323SOL     OW27430   2.419   4.038   3.902 -0.2464 -0.0622 -0.1111
 5323SOL    HW127431   2.357   4.096   3.857 -0.3013 -0.0036  0.0414
 5323SOL    HW227432   2.465   4.004   3.825  0.1558 -0.0754  0.1342
 5324SOL     OW27433   2.045   0.968   4.802  0.4595 -0.4211 -0.4176
 5324SOL    HW127434   2.038   1.007   4.715 -0.0830  0.3030 -0.0531
 5324SOL    HW227435   1.953   0.967   4.828  0.4264 -1.1815 -0.5733
 5325SOL     OW27436   3.748   3.602   7.321  0.0162  0.3154 -0.0411
 5325SOL    HW127437   3.679   3.557   7.370  1.9449 -0.1985  2.2662
 5325SOL    HW227438   3.728   3.691   7.348  0.4027 -0.4687  2.8496
 5326SOL     OW27439   4.582   2.753  11.004 -1.0247 -0.0542  0.2823
 5326SOL    HW127440   4.488   2.763  10.988 -1.1300 -0.0946  0.8720
 5326SOL    HW227441   4.614   2.826  10.952 -0.7503 -0.3483  0.0405
 5327SOL     OW27442   3.585   0.110  11.689 -0.1848 -0.5446  0.4556
 5327SOL    HW127443   3.583   0.037  11.627  0.1277 -0.3528  0.2248
 5327SOL    HW227444   3.600   0.053  11.765  1.8171 -1.0271 -0.2937
 5328SOL     OW27445   0.073   3.000   8.162  0.2187  0.1970  0.3030
 5328SOL    HW127446   0.030   3.086   8.165 -2.0873 -1.0480  3.2927
 5328SOL    HW227447   0.160   3.030   8.186  0.1233 -0.9386  2.0334
 5329SOL     OW27448   0.334   2.351   3.417  0.1746 -0.0654 -0.4591
 5329SOL    HW127449   0.288   2.327   3.337 -2.3006 -1.3009  1.3297
 5329SOL    HW227450   0.402   2.406   3.377  0.0709  1.0339  0.8939
 5330SOL     OW27451   0.525   1.055  15.229  0.0481 -0.0250 -0.6499
 5330SOL    HW127452   0.471   1.019  15.159 -1.9813  0.6070  0.5803
 5330SOL    HW227453   0.466   1.080  15.301  0.3139 -2.4372  0.4059
 5331SOL     OW27454   2.819   2.186   2.491 -0.4118 -0.3468  0.3919
 5331SOL    HW127455   2.798   2.093   2.488  0.2276 -0.5367  1.6558
 5331SOL    HW227456   2.825   2.199   2.586  3.1342  2.4686 -0.2353
 5332SOL     OW27457   4.550   2.688   4.872  0.3037 -0.0153 -0.1517
 5332SOL    HW127458   4.605   2.729   4.805  0.7076 -0.5404 -0.1376
 5332SOL    HW227459   4.482   2.656   4.812  0.7643 -3.7097  1.3125
 5333SOL     OW27460   3.852   0.208   7.015 -0.4157 -0.1065 -0.1355
 5333SOL    HW127461   3.860   0.116   6.989  0.9415 -0.7796  2.7758
 5333SOL    HW227462   3.936   0.228   7.055 -0.7553  1.3732 -0.1579
 5334SOL     OW27463   3.678   1.552   0.359 -0.1776  0.0052  0.5229
 5334SOL    HW127464   3.614   1.507   0.305 -2.1258  2.4825  0.7838
 5334SOL    HW227465   3.653   1.645   0.356  2.9657  0.8244 -0.6546
 5335SOL     OW27466   1.657   0.800   0.220 -0.5645  0.1837  0.4563
 5335SOL    HW127467   1.656   0.886   0.180 -0.6884  0.7419  1.6492
 5335SOL    HW227468   1.564   0.786   0.240 -1.2548 -0.2038 -3.0718
 5336SOL     OW27469   3.558   4.643   3.022 -0.3202  0.1782  0.4059
 5336SOL    HW127470   3.555   4.679   3.111 -0.6695 -3.5452  1.8737
 5336SOL    HW227471   3.585   4.722   2.976 -1.7510  0.9775  0.9375
 5337SOL     OW27472   1.914   3.792   1.976 -0.0046 -0.0755  0.1691
 5337SOL    HW127473   1.982   3.859   1.977 -0.5932  0.5384 -0.7486
 5337SOL    HW227474   1.908   3.757   1.888 -1.3265  0.4794  0.0388
 5338SOL     OW27475   1.447   2.905   9.670  0.4979  0.4444  0.4652
 5338SOL    HW127476   1.473   2.867   9.754 -1.2317  2.9643  2.1301
 5338SOL    HW227477   1.508   2.979   9.673  0.8691  0.0919  1.6413
 5339SOL     OW27478   1.885   2.672   0.143 -0.0752  0.0085  0.7374
 5339SOL    HW127479   1.956   2.647   0.084 -0.5434  3.9987 -1.5127
 5339SOL    HW227480   1.932   2.734   0.199 -0.0229 -0.3596  1.0970
 5340SOL     OW27481   1.879   4.165   4.967 -0.3350  0.5831 -0.0402
 5340SOL    HW127482   1.887   4.115   4.885 -2.0382  1.0254 -0.4760
 5340SOL    HW227483   1.896   4.092   5.026  1.3357  0.1102 -1.1202
 5341SOL     OW27484   1.360   4.016   7.861  0.1827 -0.2521 -0.4389
 5341SOL    HW127485   1.402   4.083   7.809 -0.3885 -0.4693 -1.1797
 5341SOL    HW227486   1.425   3.948   7.846  1.5085  1.0007 -0.3412
 5342SOL     OW27487   2.323   0.948   4.041  0.3371 -1.2395 -0.2344
 5342SOL    HW127488   2.237   0.937   3.999  0.2096 -1.6829  0.1447
 5342SOL    HW227489   2.305   0.910   4.127 -2.7335  0.9703  0.1039
 5343SOL     OW27490   3.323   1.598   1.282 -0.0622 -0.0782 -0.2165
 5343SOL    HW127491   3.351   1.613   1.191  0.0950  2.1409  0.2124
 5343SOL    HW227492   3.408   1.599   1.327 -0.6339  1.1322  0.7923
 5344SOL     OW27493   2.038   0.611   4.537 -0.0827  0.1304 -0.3550
 5344SOL    HW127494   2.099   0.609   4.463  0.5702  3.0859  0.1058
 5344SOL    HW227495   2.092   0.599   4.615 -1.1804  1.7212  0.6661
 5345SOL     OW27496   3.202   4.048   4.137  0.2991  0.4899 -0.6050
 5345SOL    HW127497   3.157   4.078   4.216  0.7934 -0.6617  0.1066
 5345SOL    HW227498   3.131   3.993   4.106  0.0907  0.6984 -0.5006
 5346SOL     OW27499   3.397   2.504   3.962 -0.3037  0.0113  0.2845
 5346SOL    HW127500   3.369   2.421   3.923  0.6181  0.3040 -1.0148
 5346SOL    HW227501   3.481   2.478   3.999  0.2648  0.3933 -0.7221
 5347SOL     OW27502   1.825   0.729  14.137  0.4336 -0.4436 -0.3907
 5347SOL    HW127503   1.800   0.766  14.053  0.3584  1.5418  0.5125
 5347SOL    HW227504   1.913   0.767  14.140 -0.2292  1.0385  0.4145
 5348SOL     OW27505   2.670   0.624   4.029 -0.3244  0.1217 -0.4991
 5348SOL    HW127506   2.754   0.578   4.041 -1.1372 -0.9553  1.1931
 5348SOL    HW227507   2.662   0.659   4.118 -1.6273 -0.9481 -0.1842
 5349SOL     OW27508   0.024   1.155  12.492  0.4363 -0.1541  0.5919
 5349SOL    HW127509   0.015   1.137  12.585 -1.0051 -0.5944  0.3758
 5349SOL    HW227510   0.051   1.247  12.482 -0.6479  0.0334 -0.6138
 5350SOL     OW27511   0.537   4.420   1.808 -0.0755  0.0866  0.4080
 5350SOL    HW127512   0.506   4.459   1.726 -4.2050  0.2455  2.0598
 5350SOL    HW227513   0.510   4.484   1.874 -0.9357  0.3581 -0.2058
 5351SOL     OW27514   1.104   1.354   2.232  0.9825 -0.0191 -0.0353
 5351SOL    HW127515   1.150   1.397   2.160 -1.0296 -0.9904 -1.9034
 5351SOL    HW227516   1.103   1.265   2.197  1.6491  0.4985 -1.3616
 5352SOL     OW27517   3.273   0.007   5.336 -0.6265 -0.3795 -0.5476
 5352SOL    HW127518   3.364   0.030   5.317 -0.5561  0.0128  0.2937
 5352SOL    HW227519   3.287   4.658   5.389 -1.8502 -2.2058 -2.8896
 5353SOL     OW27520   1.025   2.104  14.443  0.2403  0.6389  0.1766
 5353SOL    HW127521   1.053   2.155  14.519 -0.6746  1.1585  0.1550
 5353SOL    HW227522   0.932   2.126  14.438 -0.0890 -0.6512  0.6140
 5354SOL     OW27523   2.523   3.028   6.094  0.0974 -0.3282 -0.5568
 5354SOL    HW127524   2.458   2.957   6.095  0.1839 -0.3895  0.7778
 5354SOL    HW227525   2.470   3.106   6.077  0.3964 -0.0797 -0.3310
 5355SOL     OW27526   2.440   2.463   2.358 -0.4635 -0.1485 -0.1536
 5355SOL    HW127527   2.354   2.491   2.327  0.8768 -1.0447 -4.5556
 5355SOL    HW227528   2.473   2.401   2.294 -0.4708  1.4341 -1.7090
 5356SOL     OW27529   0.321   0.308  11.215 -0.6282  1.0456 -0.4451
 5356SOL    HW127530   0.274   0.316  11.298  0.7998 -0.6790  0.5597
 5356SOL    HW227531   0.391   0.373  11.227  0.8638 -0.8414  1.1692
 5357SOL     OW27532   4.416   3.940   9.602 -0.1948 -0.0452  0.2516
 5357SOL    HW127533   4.374   3.856   9.581 -0.5734  0.1727  0.1545
 5357SOL    HW227534   4.493   3.904   9.646 -0.2412  2.3181  2.2553
 5358SOL     OW27535   3.701   3.899   7.369 -0.2308 -0.0429  0.7319
 5358SOL    HW127536   3.757   3.953   7.425  0.0896  1.6036 -1.1542
 5358SOL    HW227537   3.638   3.956   7.325  1.9687  0.5444 -1.6579
 5359SOL     OW27538   0.324   3.045   3.225 -0.4346  0.8450  0.7257
 5359SOL    HW127539   0.416   3.056   3.198  0.3821 -2.0456  2.3305
 5359SOL    HW227540   0.320   3.002   3.310 -1.2538  0.2575  0.3823
 5360SOL     OW27541   4.656   2.488  14.221  0.2469  0.1353 -0.1983
 5360SOL    HW127542   4.723   2.537  14.173  0.3147  2.1942  2.0001
 5360SOL    HW227543   4.668   2.523  14.309 -2.4569 -2.4445  1.2011
 5361SOL     OW27544   2.744   2.573   5.582 -0.1917 -0.1298 -0.5279
 5361SOL    HW127545   2.732   2.508   5.514 -0.1738  0.7415 -1.3708
 5361SOL    HW227546   2.691   2.637   5.534 -1.6678 -0.1991  0.9972
 5362SOL     OW27547   4.159   3.020  10.945  0.0929  0.2240 -0.2317
 5362SOL    HW127548   4.233   3.050  10.999  0.8870 -0.2613 -1.0545
 5362SOL    HW227549   4.093   3.002  11.012  0.3475 -0.8678 -0.2821
 5363SOL     OW27550   1.628   3.927   2.337 -1.1985 -0.0991  0.1214
 5363SOL    HW127551   1.675   3.853   2.376 -3.3746 -1.6280 -0.1614
 5363SOL    HW227552   1.696   3.948   2.273 -0.1675 -1.2468  0.8303
 5364SOL     OW27553   3.459   2.881   7.127 -0.0506 -0.3039 -0.2001
 5364SOL    HW127554   3.396   2.892   7.198  0.2131 -2.7958  0.4149
 5364SOL    HW227555   3.543   2.898   7.169 -0.2183  3.4332 -1.3475
 5365SOL     OW27556   4.063   3.490   4.864 -0.6986  0.5829 -0.1368
 5365SOL    HW127557   3.980   3.455   4.898  0.2175 -0.5029  1.0121
 5365SOL    HW227558   4.037   3.577   4.835 -0.8571  0.1614 -1.2677
 5366SOL     OW27559   1.113   1.564   0.069 -0.9312 -0.3976 -0.5658
 5366SOL    HW127560   1.090   1.645   0.024  1.2073 -0.2135 -1.3068
 5366SOL    HW227561   1.131   1.597   0.157  3.3953 -1.4276 -1.0571
 5367SOL     OW27562   2.423   1.871  17.129  0.3339  0.2044 -0.0471
 5367SOL    HW127563   2.468   1.937  17.182 -0.7203  1.2230 -0.4364
 5367SOL    HW227564   2.419   1.908  17.041 -0.0607  0.7986  0.2230
 5368SOL     OW27565   4.246   0.369   3.950  0.3092 -0.4923  0.3010
 5368SOL    HW127566   4.334   0.361   3.984 -0.1697  0.0025  1.6363
 5368SOL    HW227567   4.194   0.379   4.030  1.6334  2.6964  0.7433
 5369SOL     OW27568   2.802   3.859   7.513 -0.3524  0.5231 -0.2199
 5369SOL    HW127569   2.855   3.780   7.500  0.5656  1.1537 -0.2873
 5369SOL    HW227570   2.801   3.868   7.608 -0.7291  4.6437 -0.6086
 5370SOL     OW27571   2.411   2.388  16.994  0.0970 -0.1795 -0.0659
 5370SOL    HW127572   2.438   2.478  16.973 -0.2537 -0.2360 -0.7585
 5370SOL    HW227573   2.490   2.341  16.970  1.4617  2.8073 -1.4912
 5371SOL     OW27574   3.891   4.196   2.079 -0.0146 -0.3933 -0.0962
 5371SOL    HW127575   3.915   4.285   2.053 -0.9527  0.6239  2.5688
 5371SOL    HW227576   3.978   4.160   2.095 -0.4855 -1.6769 -0.4091
 5372SOL     OW27577   0.219   3.210   7.162 -0.2134  0.1736  0.1363
 5372SOL    HW127578   0.291   3.271   7.146  0.6626 -1.3618 -1.7648
 5372SOL    HW227579   0.194   3.223   7.253  0.2866 -0.2408  0.3354
 5373SOL     OW27580   4.674   3.607   3.480 -0.7023 -0.0950  1.0018
 5373SOL    HW127581   4.627   3.619   3.398  1.6224 -1.9661 -0.6145
 5373SOL    HW227582   4.645   3.680   3.535  1.4737  2.0063 -0.6387
 5374SOL     OW27583   1.349   0.576   3.363 -0.8200  0.5741 -0.0529
 5374SOL    HW127584   1.430   0.528   3.347 -1.3681 -0.5922  0.6598
 5374SOL    HW227585   1.329   0.556   3.455 -1.0729 -1.6018 -0.5862
 5375SOL     OW27586   2.484   3.232   3.237 -0.3204  0.1245  0.2368
 5375SOL    HW127587   2.550   3.233   3.167 -0.8756 -0.5150 -0.2857
 5375SOL    HW227588   2.543   3.247   3.311  1.0504  0.9837 -1.0132
 5376SOL     OW27589   2.785   1.584   7.742  0.0653  1.0002  0.1539
 5376SOL    HW127590   2.703   1.624   7.712 -0.6888 -0.7286 -0.1290
 5376SOL    HW227591   2.836   1.572   7.662  1.0799 -0.3365  0.9966
 5377SOL     OW27592   4.388   3.369   5.139  0.5658 -0.0251 -0.1235
 5377SOL    HW127593   4.358   3.422   5.212  0.1604 -1.1324  0.5200
 5377SOL    HW227594   4.373   3.427   5.065  1.1375  0.4466  0.1314
 5378SOL     OW27595   3.211   4.629   9.756  0.3320  0.0050 -0.3211
 5378SOL    HW127596   3.262   4.710   9.749 -0.4917  0.5940  0.4488
 5378SOL    HW227597   3.214   4.608   9.663 -0.4803  1.2132 -0.6274
 5379SOL     OW27598   2.793   3.971  16.372  0.3291  0.6265 -0.1245
 5379SOL    HW127599   2.852   3.982  16.297 -1.1102  1.1642 -1.1924
 5379SOL    HW227600   2.708   3.995  16.335  0.2855 -1.5612 -1.4303
 5380SOL     OW27601   0.063   3.335   3.813 -0.4100  0.2901  0.2193
 5380SOL    HW127602   0.005   3.348   3.738  2.0202  3.2630 -1.2075
 5380SOL    HW227603   0.108   3.420   3.818  1.0102 -0.4131 -0.6188
 5381SOL     OW27604   3.948   3.184   0.236 -0.1377 -0.3905 -0.6243
 5381SOL    HW127605   4.024   3.239   0.254 -0.0901 -1.9193  3.8381
 5381SOL    HW227606   3.927   3.213   0.147 -2.3030 -3.3198 -1.0511
 5382SOL     OW27607   0.756   2.246   7.097  0.5579  0.2949  0.5779
 5382SOL    HW127608   0.826   2.310   7.083  0.0670  1.1500  1.9303
 5382SOL    HW227609   0.677   2.289   7.065 -0.9974 -4.0580 -1.3870
 5383SOL     OW27610   3.119   1.895   7.790  0.0823 -0.1969  0.4078
 5383SOL    HW127611   3.214   1.881   7.789 -0.3044 -2.5953 -1.1231
 5383SOL    HW227612   3.089   1.825   7.848  0.7671  2.0346  3.4752
 5384SOL     OW27613   4.383   0.251   9.577  0.4643  0.2762  0.4794
 5384SOL    HW127614   4.449   0.283   9.516 -0.1247 -0.0647 -0.3495
 5384SOL    HW227615   4.436   0.246   9.656  0.8232 -0.4788  0.1876
 5385SOL     OW27616   4.700   0.180   0.036 -0.1575 -0.1807 -0.1390
 5385SOL    HW127617   4.668   0.270   0.037  0.3548  0.0233 -1.5378
 5385SOL    HW227618   4.621   0.136   0.067 -0.3341  0.0503 -0.2598
 5386SOL     OW27619   3.649   1.042   5.606  0.6692 -0.4602 -0.0377
 5386SOL    HW127620   3.584   0.977   5.633  0.9174 -0.2610  1.0277
 5386SOL    HW227621   3.590   1.117   5.612 -0.7136 -1.4569 -1.2585
 5387SOL     OW27622   0.321   1.148   6.725  0.5450 -0.1014 -0.2036
 5387SOL    HW127623   0.352   1.191   6.805 -1.6332 -0.3363  0.7495
 5387SOL    HW227624   0.275   1.218   6.679 -1.5108 -0.4961  1.2677
 5388SOL     OW27625   3.217   0.513   4.046  0.1721  0.2477  0.7078
 5388SOL    HW127626   3.181   0.519   3.958 -1.7147 -1.5555  1.3734
 5388SOL    HW227627   3.285   0.581   4.045  2.5975 -2.2273 -2.7372
 5389SOL     OW27628   2.134   0.870   2.337  0.3371  0.0027  0.1572
 5389SOL    HW127629   2.117   0.783   2.299  1.7224 -1.0650  1.9757
 5389SOL    HW227630   2.108   0.832   2.421 -1.0358 -0.2809 -0.3963
 5390SOL     OW27631   1.415   1.313   6.976  0.1973  0.4739 -0.0225
 5390SOL    HW127632   1.373   1.228   6.989 -2.9870  2.0276 -0.0729
 5390SOL    HW227633   1.416   1.310   6.880  1.2845 -1.8165  0.0522
 5391SOL     OW27634   2.552   1.560  14.875  0.5864 -0.2880  0.4622
 5391SOL    HW127635   2.545   1.574  14.781 -0.7302  0.3308  0.6529
 5391SOL    HW227636   2.462   1.570  14.906  0.9677 -1.2800  1.9040
 5392SOL     OW27637   2.227   1.092   7.037  0.3191  0.2355  0.3190
 5392SOL    HW127638   2.221   1.177   7.081  1.0659  0.8270 -0.7107
 5392SOL    HW227639   2.298   1.050   7.086 -0.0536 -3.3754 -2.2584
 5393SOL     OW27640   0.817   3.850   2.953 -0.4020  0.0842 -0.0987
 5393SOL    HW127641   0.723   3.856   2.934  0.0531  2.3961 -1.6491
 5393SOL    HW227642   0.827   3.756   2.946  1.2330  0.3751 -1.5366
 5394SOL     OW27643   3.594   3.603   6.777  0.4033 -0.2838  0.1904
 5394SOL    HW127644   3.524   3.628   6.837 -1.1188  0.2980 -1.8282
 5394SOL    HW227645   3.666   3.647   6.823  0.2027 -0.7518  0.9471
 5395SOL     OW27646   2.362   4.431   1.102 -0.3382  0.2297  0.3058
 5395SOL    HW127647   2.372   4.418   1.196 -1.2084 -1.0561  0.2200
 5395SOL    HW227648   2.323   4.518   1.096  0.8403  0.8789  2.2691
 5396SOL     OW27649   3.421   2.916   6.666  0.0971  0.1098 -0.0464
 5396SOL    HW127650   3.453   2.879   6.584  0.6059  0.6676 -0.0991
 5396SOL    HW227651   3.327   2.898   6.659  0.2792 -1.5624  1.8610
 5397SOL     OW27652   1.425   2.547   8.289 -0.0107  0.3500 -0.4572
 5397SOL    HW127653   1.387   2.620   8.336 -2.8706 -1.0170 -0.6619
 5397SOL    HW227654   1.517   2.572   8.278  0.1151 -0.2380 -0.7612
 5398SOL     OW27655   2.284   1.533   6.367 -0.3978 -0.2696  0.1855
 5398SOL    HW127656   2.201   1.489   6.350 -0.4767  1.0956 -2.9624
 5398SOL    HW227657   2.255   1.604   6.424 -1.5819  0.8295 -1.7915
 5399SOL     OW27658   1.218   3.061   3.229  0.2518 -0.2657 -0.2700
 5399SOL    HW127659   1.143   3.060   3.289 -0.4728 -0.1828 -1.1731
 5399SOL    HW227660   1.181   3.000   3.165  2.4876 -0.2421 -1.5926
 5400SOL     OW27661   2.555   1.888   1.563  0.2912 -0.3434  0.1920
 5400SOL    HW127662   2.473   1.842   1.548 -0.8768  1.5299  0.7304
 5400SOL    HW227663   2.522   1.966   1.608  0.7085  0.6087 -1.1406
 5401SOL     OW27664   3.199   0.911   3.999 -0.0085 -0.2295 -0.8506
 5401SOL    HW127665   3.104   0.907   3.984  0.0871  0.2451 -1.6019
 5401SOL    HW227666   3.225   0.946   3.914 -0.9391  3.3686  0.3298
 5402SOL     OW27667   0.215   1.410   5.838  0.4371 -0.1247 -0.2027
 5402SOL    HW127668   0.202   1.482   5.777  0.5870 -0.4474 -0.6142
 5402SOL    HW227669   0.124   1.400   5.866 -0.3091  1.3727 -2.1386
 5403SOL     OW27670   1.047   1.041  13.983  0.2459  0.4602  0.2703
 5403SOL    HW127671   1.114   1.062  13.918  0.5170 -1.1589  0.0190
 5403SOL    HW227672   1.091   0.965  14.021 -3.0833 -1.6757 -0.1420
 5404SOL     OW27673   0.087   4.126   7.387 -0.1402 -0.6606 -0.4855
 5404SOL    HW127674   0.116   4.151   7.475 -1.8553 -0.8815  0.1289
 5404SOL    HW227675   0.173   4.147   7.350  0.3973  0.8556  1.6223
 5405SOL     OW27676   3.855   0.712  13.154  0.5280  0.3240 -0.1529
 5405SOL    HW127677   3.934   0.749  13.115  0.4455  2.8888  2.0808
 5405SOL    HW227678   3.890   0.660  13.226 -0.3871  2.0054  1.5129
 5406SOL     OW27679   0.319   4.019   9.093 -0.1087 -0.5558 -0.0400
 5406SOL    HW127680   0.340   4.011   8.999 -0.4243  0.8090 -0.2248
 5406SOL    HW227681   0.281   3.935   9.119  0.2708 -1.1266 -1.3010
 5407SOL     OW27682   2.030   1.365   9.387  0.1657  0.2080  0.1668
 5407SOL    HW127683   2.121   1.340   9.369 -0.5490 -1.4497 -1.2074
 5407SOL    HW227684   1.985   1.286   9.417 -1.3892  1.1790  0.3642
 5408SOL     OW27685   2.353   4.296   2.988 -0.3355  0.2470  0.3722
 5408SOL    HW127686   2.391   4.350   3.058  2.5398 -1.0854 -0.1605
 5408SOL    HW227687   2.356   4.207   3.022  0.3727  0.5272  1.0693
 5409SOL     OW27688   2.409   3.273   1.239  0.2732 -0.4291 -0.1459
 5409SOL    HW127689   2.503   3.288   1.243  0.4809 -1.3034 -1.7517
 5409SOL    HW227690   2.400   3.191   1.288  0.5021  1.3115  2.8328
 5410SOL     OW27691   3.048   4.067   2.960  0.2912  0.4050  0.0582
 5410SOL    HW127692   3.116   4.092   2.897  2.0887  2.1037  2.6820
 5410SOL    HW227693   3.021   3.981   2.930 -0.7617  1.2579 -1.4800
 5411SOL     OW27694   0.855   0.831   1.228 -0.5234 -0.0065  0.1825
 5411SOL    HW127695   0.866   0.748   1.275  2.3757  1.2030  1.5930
 5411SOL    HW227696   0.867   0.886   1.305  2.2405  1.0154 -1.0044
 5412SOL     OW27697   3.684   3.234   7.675 -0.5327 -0.1790  0.3373
 5412SOL    HW127698   3.595   3.203   7.660 -1.1972  1.2447  1.3391
 5412SOL    HW227699   3.736   3.154   7.682 -1.2061 -0.8584 -2.6346
 5413SOL     OW27700   3.236   3.325   5.130  0.0075  0.3911  0.5493
 5413SOL    HW127701   3.226   3.416   5.159 -0.2593  0.1878  1.0971
 5413SOL    HW227702   3.201   3.318   5.042 -1.6082 -3.4151  1.5074
 5414SOL     OW27703   2.886   0.401   8.590  0.5297  0.0650  0.2875
 5414SOL    HW127704   2.792   0.420   8.590  0.5533  0.1800  1.7157
 5414SOL    HW227705   2.900   0.423   8.682 -0.4429 -1.0089  0.6947
 5415SOL     OW27706   1.078   0.438   7.988  0.5897  0.7344  0.4582
 5415SOL    HW127707   1.155   0.384   8.006  1.4711  1.3023 -1.6465
 5415SOL    HW227708   1.113   0.524   7.964 -0.8589  0.7574 -1.5316
 5416SOL     OW27709   0.540   4.485   9.495 -0.1462  0.5323  0.7101
 5416SOL    HW127710   0.469   4.459   9.437 -0.4098 -1.7703  2.0508
 5416SOL    HW227711   0.595   4.409   9.477 -1.4954 -0.5673  1.2101
 5417SOL     OW27712   1.933   1.340   6.821 -0.0229  0.4789  0.6126
 5417SOL    HW127713   2.014   1.389   6.804 -1.0979  1.9187 -0.4219
 5417SOL    HW227714   1.888   1.400   6.880  0.1941  2.1204 -0.8609
 5418SOL     OW27715   0.653   2.635   9.367  0.1947 -0.1429 -0.2876
 5418SOL    HW127716   0.621   2.603   9.283 -0.0312  0.7997 -0.5657
 5418SOL    HW227717   0.596   2.711   9.384  0.4836 -0.2986  1.3620
 5419SOL     OW27718   3.004   1.091   5.572 -0.2063  0.7503  0.2594
 5419SOL    HW127719   2.979   1.140   5.493  0.1895  0.1803 -0.2249
 5419SOL    HW227720   2.915   1.062   5.589  0.5400 -0.8006  1.5351
 5420SOL     OW27721   2.251   1.914   2.932 -0.4356  0.2117  0.3695
 5420SOL    HW127722   2.230   1.908   2.839 -1.5965 -0.0988  0.6489
 5420SOL    HW227723   2.164   1.887   2.963 -0.7303 -0.5294 -1.1198
 5421SOL     OW27724   0.195   1.461   5.284 -0.0086 -0.0454  0.4312
 5421SOL    HW127725   0.129   1.495   5.344 -1.4209  1.2056 -1.8436
 5421SOL    HW227726   0.138   1.431   5.213 -0.1748  0.3533  0.3974
 5422SOL     OW27727   0.708   2.189  15.438  0.7272  0.4097 -0.1261
 5422SOL    HW127728   0.691   2.098  15.462 -1.8055  0.5597 -1.3417
 5422SOL    HW227729   0.704   2.230  15.524 -2.0812  1.4710 -0.7611
 5423SOL     OW27730   2.558   3.244   7.488 -0.7016 -0.4580 -0.1979
 5423SOL    HW127731   2.571   3.315   7.552 -0.0468 -0.6072 -0.1667
 5423SOL    HW227732   2.603   3.166   7.521  0.0899 -0.2910 -0.9002
 5424SOL     OW27733   3.584   2.102   3.888  0.3513  0.5092 -0.3239
 5424SOL    HW127734   3.643   2.028   3.874 -0.6432 -0.2284 -0.5847
 5424SOL    HW227735   3.641   2.166   3.930  0.9747 -1.4572  1.8112
 5425SOL     OW27736   1.910   2.902   7.464  0.6432  0.0863 -0.7978
 5425SOL    HW127737   1.871   2.989   7.464 -3.3277 -1.6928 -0.3169
 5425SOL    HW227738   1.999   2.921   7.434  0.2717 -0.0468 -2.0075
 5426SOL     OW27739   1.540   1.725   3.959  0.1006  0.1382  0.2739
 5426SOL    HW127740   1.565   1.686   4.042 -3.6366 -2.2415  0.2892
 5426SOL    HW227741   1.613   1.692   3.906 -0.6444  2.8956 -2.5255
 5427SOL     OW27742   2.351   2.603   3.915 -0.4338 -0.7149 -0.5497
 5427SOL    HW127743   2.375   2.685   3.872  0.5744  0.5933  2.4571
 5427SOL    HW227744   2.371   2.532   3.855 -0.3802 -0.3781 -0.9271
 5428SOL     OW27745   0.339   1.115   0.069  0.2014 -0.0373 -0.4889
 5428SOL    HW127746   0.383   1.191   0.032 -0.3673  0.8197  0.6149
 5428SOL    HW227747   0.415   1.056   0.067  0.4547  0.2747 -0.2349
 5429SOL     OW27748   2.542   3.159   2.019 -0.1909  0.1718 -0.1102
 5429SOL    HW127749   2.549   3.252   1.999  0.2664  0.0480 -0.5566
 5429SOL    HW227750   2.624   3.121   1.986 -0.9740  0.0650 -1.9502
 5430SOL     OW27751   2.366   0.728  14.869  0.1292 -0.6394  0.3439
 5430SOL    HW127752   2.354   0.693  14.781 -0.7224 -1.5272  0.8199
 5430SOL    HW227753   2.278   0.762  14.885 -0.1697 -0.3142 -1.9971
 5431SOL     OW27754   1.033   2.030  10.844 -0.0869  0.1417 -1.1231
 5431SOL    HW127755   1.072   2.110  10.879 -0.5023  1.4187 -3.5988
 5431SOL    HW227756   0.972   2.013  10.916 -0.7562 -2.0603 -2.2350
 5432SOL     OW27757   1.816   1.648   5.085  0.2856 -0.1004 -0.1784
 5432SOL    HW127758   1.770   1.576   5.042 -0.2711  1.0003 -1.4160
 5432SOL    HW227759   1.768   1.720   5.045 -0.9728 -0.1057  1.3320
 5433SOL     OW27760   4.636   4.409   5.231 -0.4466 -0.3452  0.1568
 5433SOL    HW127761   4.646   4.444   5.142  2.8684 -0.6004  0.4344
 5433SOL    HW227762   4.574   4.474   5.264  0.1488 -0.1003  0.8034
 5434SOL     OW27763   4.221   4.388  11.186 -0.2881  0.7555  0.4023
 5434SOL    HW127764   4.233   4.334  11.108 -3.6011  0.7212 -0.0892
 5434SOL    HW227765   4.147   4.441  11.156  1.0395  0.7086 -2.8876
 5435SOL     OW27766   0.020   2.279  13.863 -0.4819  0.1768 -0.3737
 5435SOL    HW127767   4.692   2.351  13.836  1.2479  1.7794  0.2848
 5435SOL    HW227768   0.089   2.289  13.797 -0.1984 -0.2273 -0.1389
 5436SOL     OW27769   4.195   4.497   8.930  0.3833  0.2887 -0.1389
 5436SOL    HW127770   4.281   4.460   8.908  0.4933  1.6358 -2.0081
 5436SOL    HW227771   4.183   4.470   9.021 -1.2292 -2.8626 -1.3063
 5437SOL     OW27772   0.902   2.409  13.807  0.1990  0.3016 -0.1104
 5437SOL    HW127773   0.926   2.371  13.891 -0.5618  0.6549  0.2688
 5437SOL    HW227774   0.971   2.364  13.757 -0.5719  0.4406 -1.3069
 5438SOL     OW27775   1.697   0.132   3.919  0.5275  0.8070  0.4639
 5438SOL    HW127776   1.605   0.157   3.921  0.1249 -0.4933 -1.5790
 5438SOL    HW227777   1.707   0.122   3.824  0.5863 -2.6799  0.8114
 5439SOL     OW27778   1.036   2.436   2.691  0.5308  0.3069  0.8309
 5439SOL    HW127779   1.042   2.520   2.647 -0.5581  0.6698  1.3835
 5439SOL    HW227780   1.041   2.375   2.617 -1.3752  1.1868 -0.0036
 5440SOL     OW27781   2.793   3.033  15.425 -0.1266 -0.0448 -0.4221
 5440SOL    HW127782   2.759   2.949  15.454 -1.3291  0.1692 -1.2403
 5440SOL    HW227783   2.734   3.052  15.352 -1.4317 -0.7303  0.4605
 5441SOL     OW27784   4.501   4.074  12.630 -0.0003 -0.6098  0.0036
 5441SOL    HW127785   4.555   4.001  12.600  0.4730 -0.6116  0.8690
 5441SOL    HW227786   4.496   4.052  12.723 -0.2712 -0.3924  0.0397
 5442SOL     OW27787   4.403   4.376  12.644  0.3657 -0.5338  0.7549
 5442SOL    HW127788   4.487   4.423  12.636  0.1753 -0.3506 -0.1870
 5442SOL    HW227789   4.347   4.438  12.597  1.6245 -0.5195 -0.7187
 5443SOL     OW27790   2.038   2.292   6.940 -0.0036 -0.5338 -0.5461
 5443SOL    HW127791   2.028   2.252   6.854  2.6791  2.2649 -2.1471
 5443SOL    HW227792   1.947   2.313   6.960 -0.3919 -0.8872 -1.9607
 5444SOL     OW27793   3.954   3.694   4.662 -0.0012 -0.0380  0.0575
 5444SOL    HW127794   4.046   3.682   4.641 -0.5115  0.2128 -2.3107
 5444SOL    HW227795   3.932   3.756   4.592  0.7283 -0.3686 -0.4632
 5445SOL     OW27796   2.731   3.423   0.562  0.0800  0.3709 -0.3011
 5445SOL    HW127797   2.786   3.353   0.594  1.1478 -0.1617 -3.3250
 5445SOL    HW227798   2.665   3.433   0.631  0.0647 -0.0014 -0.2628
 5446SOL     OW27799   4.361   0.935   6.278 -0.1310 -0.1618  1.0926
 5446SOL    HW127800   4.451   0.969   6.275 -0.0800 -0.3568  0.5254
 5446SOL    HW227801   4.315   1.013   6.308 -0.2824 -0.7586  2.4296
 5447SOL     OW27802   0.257   4.012  10.996 -0.0719 -0.0206 -0.1438
 5447SOL    HW127803   0.264   3.934  11.051  0.8065  0.1423 -0.0264
 5447SOL    HW227804   0.315   3.979  10.928  0.0900 -2.4753  1.1683
 5448SOL     OW27805   4.162   4.331  14.969 -0.0427 -0.2229 -0.3900
 5448SOL    HW127806   4.235   4.284  15.010  1.4804  0.4744 -2.2936
 5448SOL    HW227807   4.140   4.396  15.036 -3.3728 -1.3658 -0.3986
 5449SOL     OW27808   0.155   3.872   8.015  0.3322  0.1336 -0.1274
 5449SOL    HW127809   0.247   3.886   7.994  0.1485  0.4278 -0.7414
 5449SOL    HW227810   0.165   3.867   8.110 -0.3266  0.2003 -0.0531
 5450SOL     OW27811   0.052   0.699   2.265 -0.2163  0.0353 -0.1164
 5450SOL    HW127812   0.010   0.701   2.351 -2.5954  0.1927 -1.2816
 5450SOL    HW227813   4.717   0.643   2.221  0.0767 -0.9486  0.7378
 5451SOL     OW27814   2.420   3.253   2.265  0.1884  0.3073 -0.6459
 5451SOL    HW127815   2.429   3.231   2.172 -2.0604  1.0156 -1.0382
 5451SOL    HW227816   2.330   3.284   2.258 -0.7415 -2.5291 -1.5277
 5452SOL     OW27817   4.216   2.301   1.889 -0.4893 -0.3493  0.1873
 5452SOL    HW127818   4.197   2.322   1.981  2.3816 -2.9873  1.3812
 5452SOL    HW227819   4.311   2.309   1.885 -0.4836  0.1472  1.3662
 5453SOL     OW27820   2.461   0.478   3.453 -0.1281 -0.4047  0.0348
 5453SOL    HW127821   2.543   0.525   3.467 -0.7221  0.5192  0.4177
 5453SOL    HW227822   2.409   0.504   3.528 -0.5081  1.1551 -0.7687
 5454SOL     OW27823   1.480   2.320   2.376  0.2144  0.0730  0.2800
 5454SOL    HW127824   1.442   2.408   2.379  0.7116  0.3573 -1.6218
 5454SOL    HW227825   1.572   2.346   2.376  1.2747 -3.7587  0.7004
 5455SOL     OW27826   3.936   4.636  14.133 -0.0122 -0.8600 -0.0149
 5455SOL    HW127827   3.889   4.716  14.154 -2.6364 -1.5035 -3.4036
 5455SOL    HW227828   3.997   4.671  14.069  0.3471 -0.5280  0.5052
 5456SOL     OW27829   3.645   3.689  17.614  0.3154 -0.2321  0.0529
 5456SOL    HW127830   3.695   3.631  17.671  1.7549  2.8960  1.9841
 5456SOL    HW227831   3.582   3.734  17.671  1.7442  2.1891 -0.2752
 5457SOL     OW27832   3.388   2.750  17.615  0.9795 -0.3348 -0.6611
 5457SOL    HW127833   3.369   2.659  17.640  1.5532 -0.2733 -0.0029
 5457SOL    HW227834   3.310   2.791  17.652  1.5808 -0.9118  1.2645
 5458SOL     OW27835   0.754   2.605   5.053  0.9060 -0.0502  0.0402
 5458SOL    HW127836   0.724   2.517   5.033  1.5570 -0.1044 -0.6830
 5458SOL    HW227837   0.685   2.629   5.115 -1.5536 -1.6522 -2.0958
 5459SOL     OW27838   1.204   3.051   2.928  1.1229  0.8231 -0.3344
 5459SOL    HW127839   1.281   3.107   2.915  1.7051  0.4716  1.6008
 5459SOL    HW227840   1.147   3.101   2.870  0.9761  0.4774 -0.4847
 5460SOL     OW27841   2.567   3.050  17.282 -0.2350  0.1726  0.1824
 5460SOL    HW127842   2.542   3.073  17.371 -4.5401 -2.4598 -0.3828
 5460SOL    HW227843   2.483   3.010  17.263 -0.8326  1.7243 -0.4139
 5461SOL     OW27844   4.328   3.705   9.530 -0.0492 -0.4194  0.3935
 5461SOL    HW127845   4.396   3.686   9.465 -0.2237 -0.3493  0.1926
 5461SOL    HW227846   4.258   3.685   9.468  1.7590 -1.3397 -1.3344
 5462SOL     OW27847   0.641   2.817   2.944 -0.0864 -0.6524  0.5004
 5462SOL    HW127848   0.601   2.826   2.858  0.1345  0.5160  0.5176
 5462SOL    HW227849   0.649   2.909   2.968  0.6984 -0.4995 -0.3299
 5463SOL     OW27850   1.685   3.631   5.512 -0.4683  0.2580 -0.0765
 5463SOL    HW127851   1.720   3.620   5.423  0.0519 -2.6074  0.4553
 5463SOL    HW227852   1.715   3.718   5.536  0.4218  0.3777 -1.6020
 5464SOL     OW27853   3.096   2.663   1.147 -0.1979 -0.4381 -0.2254
 5464SOL    HW127854   3.133   2.680   1.234 -1.1886  0.6129 -0.0147
 5464SOL    HW227855   3.163   2.606   1.108 -0.3016 -0.2826 -0.6309
 5465SOL     OW27856   1.243   3.518   7.587 -0.0795  0.1987  0.2581
 5465SOL    HW127857   1.190   3.582   7.539  0.3354 -0.2055 -0.7377
 5465SOL    HW227858   1.238   3.440   7.533 -1.4834 -0.3807  1.2385
 5466SOL     OW27859   0.636   3.459   7.253 -0.0333  0.0584 -0.2111
 5466SOL    HW127860   0.570   3.405   7.210  0.4577  0.0739 -0.9907
 5466SOL    HW227861   0.702   3.485   7.189  0.3477 -2.2463 -0.7848
 5467SOL     OW27862   3.496   2.433  10.560  0.3317  0.3493 -0.2107
 5467SOL    HW127863   3.480   2.493  10.488  2.0172 -0.9465 -1.6713
 5467SOL    HW227864   3.411   2.412  10.599  1.1813 -0.0831  1.4365
 5468SOL     OW27865   3.429   2.038   0.076  0.2825  0.6054  0.3100
 5468SOL    HW127866   3.466   1.953   0.056 -0.1742  0.5852 -0.4468
 5468SOL    HW227867   3.347   2.018   0.031 -1.2452  1.8850  2.5220
 5469SOL     OW27868   1.238   0.664   7.963  0.3053  0.0632 -0.3290
 5469SOL    HW127869   1.301   0.619   8.020 -1.4966 -0.9010  0.9460
 5469SOL    HW227870   1.232   0.750   8.005  0.4022 -1.8329  3.6624
 5470SOL     OW27871   3.370   3.664   6.935 -0.1859  0.2913  0.2577
 5470SOL    HW127872   3.418   3.746   6.936 -1.2240  0.9101 -0.0840
 5470SOL    HW227873   3.329   3.678   7.020  1.3777 -0.4671  1.1291
 5471SOL     OW27874   1.352   0.153  15.806  0.1372 -0.3590  0.2566
 5471SOL    HW127875   1.425   0.093  15.815 -0.5669 -1.4945 -1.4828
 5471SOL    HW227876   1.390   0.234  15.839 -2.3731  0.4423  1.1743
 5472SOL     OW27877   2.043   3.800   7.470 -0.6716  0.1649  0.0533
 5472SOL    HW127878   2.122   3.835   7.429  0.3067 -1.8018  0.2716
 5472SOL    HW227879   2.012   3.751   7.393  2.3198 -2.3265  0.4366
 5473SOL     OW27880   4.685   0.085  10.648  0.3715 -0.4402  0.3679
 5473SOL    HW127881   0.016   0.034  10.595  0.6671  0.5352 -0.2403
 5473SOL    HW227882   4.628   0.126  10.583  0.0537  0.2729  1.0797
 5474SOL     OW27883   2.968   1.916   1.360  0.3916 -0.3681  0.3083
 5474SOL    HW127884   2.891   1.870   1.327  0.5462  0.0145 -0.5885
 5474SOL    HW227885   2.978   1.976   1.285  0.1199 -0.8726 -0.1308
 5475SOL     OW27886   0.327   2.948   4.454  0.1658  0.0297 -0.0495
 5475SOL    HW127887   0.318   2.914   4.365  2.0251 -0.7734  0.0782
 5475SOL    HW227888   0.417   2.980   4.448 -0.1544  0.9974  0.2123
 5476SOL     OW27889   3.241   0.526   2.910  0.3506 -0.8187  0.1425
 5476SOL    HW127890   3.201   0.559   2.830  0.3859 -0.8788  0.0996
 5476SOL    HW227891   3.175   0.537   2.979 -0.0532 -0.5138 -0.2975
 5477SOL     OW27892   1.235   2.555   6.793 -0.0155 -0.4455 -0.1062
 5477SOL    HW127893   1.229   2.629   6.732 -0.6077 -0.0958  0.3776
 5477SOL    HW227894   1.267   2.598   6.872  0.3764  1.3382 -1.2502
 5478SOL     OW27895   2.967   2.499   9.596 -0.3156 -0.5186 -0.1476
 5478SOL    HW127896   3.061   2.512   9.588 -0.4222  0.9355  0.8935
 5478SOL    HW227897   2.978   2.422   9.652 -1.7193 -0.3863  0.3127
 5479SOL     OW27898   4.689   4.257  12.418  0.1656 -0.0037 -0.4812
 5479SOL    HW127899   4.636   4.217  12.487 -0.0080  0.2632 -0.4587
 5479SOL    HW227900   4.676   4.205  12.339  0.8845 -0.4061 -0.3405
 5480SOL     OW27901   3.339   2.586   6.193  0.4314 -0.4289  0.3468
 5480SOL    HW127902   3.346   2.656   6.129 -1.3508 -0.3860  0.1857
 5480SOL    HW227903   3.423   2.540   6.191 -0.1320 -1.3681 -1.5255
 5481SOL     OW27904   3.001   4.053   3.654 -0.1051  0.0117 -0.4350
 5481SOL    HW127905   3.070   4.065   3.720 -0.4506  0.2777 -0.1282
 5481SOL    HW227906   3.028   4.124   3.596 -0.6059 -0.7567 -1.6157
 5482SOL     OW27907   1.191   1.013   7.680  0.3425  0.2648 -0.4541
 5482SOL    HW127908   1.280   1.044   7.698 -0.0776  0.3467  1.4525
 5482SOL    HW227909   1.141   1.027   7.760  0.5212  1.1247 -0.4985
 5483SOL     OW27910   3.443   1.648   6.717 -0.1793 -0.7642 -0.1048
 5483SOL    HW127911   3.488   1.686   6.641  1.7318 -3.5741 -0.3614
 5483SOL    HW227912   3.492   1.688   6.789 -1.5952  0.2935  0.2680
 5484SOL     OW27913   3.324   3.729   7.468 -0.3594  0.9205 -0.1546
 5484SOL    HW127914   3.418   3.730   7.487 -0.5737  0.3855  0.9618
 5484SOL    HW227915   3.290   3.815   7.490 -0.7637  0.5957  0.4935
 5485SOL     OW27916   2.744   2.702   0.041 -0.4695  0.1242 -0.2559
 5485SOL    HW127917   2.675   2.762   0.013 -0.0124  1.3857  1.3316
 5485SOL    HW227918   2.736   2.623  17.703  1.6624 -0.4671  0.2965
 5486SOL     OW27919   1.370   3.249   5.377  0.1472  0.3608  0.1151
 5486SOL    HW127920   1.431   3.320   5.397 -0.7668  0.9233  0.8470
 5486SOL    HW227921   1.400   3.173   5.427 -2.5538 -1.6940 -1.4157
 5487SOL     OW27922   1.674   1.512   4.204 -0.2015 -1.3179 -0.2652
 5487SOL    HW127923   1.668   1.545   4.294 -0.8696 -0.9485 -0.4445
 5487SOL    HW227924   1.763   1.537   4.181 -0.7569  1.0064  0.0920
 5488SOL     OW27925   3.122   3.203  10.501  0.1263 -0.0143 -0.6717
 5488SOL    HW127926   3.088   3.288  10.527 -0.3562 -0.1049 -1.0242
 5488SOL    HW227927   3.062   3.167  10.436  1.8761 -1.8600 -1.2685
 5489SOL     OW27928   2.647   2.814  15.621 -0.3870  0.7829  0.6240
 5489SOL    HW127929   2.633   2.793  15.528  1.6834  0.8555  0.2917
 5489SOL    HW227930   2.675   2.727  15.651 -0.2608  0.0633 -1.5270
 5490SOL     OW27931   1.392   3.851   3.344  0.8257  0.0102 -0.3546
 5490SOL    HW127932   1.413   3.890   3.260 -3.4462  3.1419  0.0333
 5490SOL    HW227933   1.348   3.926   3.384  1.5669 -0.0234  0.5266
 5491SOL     OW27934   0.726   2.105   5.868 -0.9363 -0.2062 -0.2368
 5491SOL    HW127935   0.755   2.092   5.778 -1.2905 -0.4528 -0.3130
 5491SOL    HW227936   0.750   2.023   5.912 -1.1587  1.5284  3.1576
 5492SOL     OW27937   0.151   2.622  12.758  0.3285  1.2127 -0.5636
 5492SOL    HW127938   0.113   2.700  12.798  3.3997  2.3103  0.2286
 5492SOL    HW227939   0.116   2.551  12.812  0.2954  0.0464 -2.1023
 5493SOL     OW27940   0.193   4.641  16.683  0.0642 -0.2065  0.6524
 5493SOL    HW127941   0.199   4.662  16.590  1.8437 -1.0767  0.5792
 5493SOL    HW227942   0.104   4.604  16.681 -0.0057  0.0746 -1.1583
 5494SOL     OW27943   1.208   3.953   4.296  0.2310  0.4848 -0.1066
 5494SOL    HW127944   1.202   3.883   4.231 -1.4585 -0.4126  1.0216
 5494SOL    HW227945   1.137   4.010   4.265 -0.1048 -0.2380 -0.6617
 5495SOL     OW27946   1.141   1.429   4.683  0.0767  0.4673 -0.2631
 5495SOL    HW127947   1.082   1.475   4.743 -1.0352 -1.4488  0.1001
 5495SOL    HW227948   1.197   1.506   4.675 -0.0468  0.7812  2.0037
 5496SOL     OW27949   0.444   3.317   4.136 -0.2987  0.0112  0.0351
 5496SOL    HW127950   0.445   3.234   4.090  1.2432  0.7923 -1.3271
 5496SOL    HW227951   0.381   3.304   4.207 -0.5520  0.8955 -0.0188
 5497SOL     OW27952   1.455   1.193   3.066  0.6353  0.0720 -0.5766
 5497SOL    HW127953   1.520   1.244   3.113 -1.1181  0.3160  1.5586
 5497SOL    HW227954   1.455   1.105   3.105  0.2520  0.4958  0.3710
 5498SOL     OW27955   1.145   0.731  16.105  0.0323 -0.4718 -0.0797
 5498SOL    HW127956   1.155   0.643  16.070  1.9355  0.2001 -1.1990
 5498SOL    HW227957   1.052   0.750  16.092 -0.1196 -0.0098  1.7010
 5499SOL     OW27958   1.337   2.463  13.998 -0.0488  0.3279 -0.6962
 5499SOL    HW127959   1.264   2.498  14.050 -0.2130 -2.1371  0.7561
 5499SOL    HW227960   1.290   2.403  13.940  0.5294 -2.9886  2.2338
 5500SOL     OW27961   1.764   3.589   0.931  0.2579  0.2092  0.2967
 5500SOL    HW127962   1.696   3.647   0.898  0.4114 -0.9137 -1.9681
 5500SOL    HW227963   1.834   3.654   0.938  1.7141 -1.2111 -1.2396
 5501SOL     OW27964   0.468   2.708   9.997  0.1240 -0.1983  0.0467
 5501SOL    HW127965   0.413   2.671   9.928 -1.4511  1.1268  0.6044
 5501SOL    HW227966   0.399   2.731  10.059 -0.2659  0.2593 -0.5666
 5502SOL     OW27967   0.128   1.885   5.275  0.6379 -0.9594  0.0176
 5502SOL    HW127968   0.172   1.970   5.270  1.2901 -1.2918  0.0939
 5502SOL    HW227969   0.077   1.895   5.195  1.6376 -0.7745 -0.5993
 5503SOL     OW27970   0.222   1.709  15.085  0.2119  0.1620 -0.5479
 5503SOL    HW127971   0.261   1.623  15.098  1.2825  1.1447  2.6011
 5503SOL    HW227972   0.252   1.736  14.998  0.0614  0.5875 -0.4703
 5504SOL     OW27973   0.402   2.336   4.292 -0.0406  0.0057  0.0253
 5504SOL    HW127974   0.459   2.293   4.229  0.1635 -0.5822  0.6118
 5504SOL    HW227975   0.334   2.270   4.307 -0.3398 -0.1243 -1.9589
 5505SOL     OW27976   3.171   0.686   3.458 -0.3466  0.0252 -0.2355
 5505SOL    HW127977   3.182   0.592   3.448 -0.2529  0.0942 -0.7691
 5505SOL    HW227978   3.237   0.703   3.525 -1.3871 -0.2331  0.8463
 5506SOL     OW27979   2.094   0.711   1.899 -1.0149 -0.0860  0.1847
 5506SOL    HW127980   2.058   0.726   1.811  0.1650 -1.8900 -0.6127
 5506SOL    HW227981   2.043   0.773   1.951 -1.1183  0.1022 -0.1387
 5507SOL     OW27982   2.131   0.837  14.942  0.1949  0.8847 -0.3312
 5507SOL    HW127983   2.046   0.880  14.949  0.5653  1.7067 -0.8764
 5507SOL    HW227984   2.158   0.814  15.031 -1.3861 -2.2442 -0.6387
 5508SOL     OW27985   0.436   2.230   3.627 -0.2095  0.2148  0.0383
 5508SOL    HW127986   0.484   2.310   3.649 -0.3367  0.3420 -0.1383
 5508SOL    HW227987   0.403   2.264   3.544  1.1819 -0.6393 -0.8445
 5509SOL     OW27988   4.599   0.994   2.419  0.6749  0.2803 -0.4197
 5509SOL    HW127989   4.509   0.964   2.428  0.8062 -0.3237 -1.1618
 5509SOL    HW227990   4.647   0.913   2.436 -0.3395 -0.6407 -2.0013
 5510SOL     OW27991   1.191   3.162   5.930 -0.1966  0.6811  0.3324
 5510SOL    HW127992   1.285   3.179   5.933  0.0490 -0.5203 -0.3892
 5510SOL    HW227993   1.163   3.170   6.021 -1.3357  0.0739  0.0388
 5511SOL     OW27994   3.353   1.761  13.708  0.6531  0.2721  0.4531
 5511SOL    HW127995   3.279   1.714  13.747 -0.0018 -0.2372 -1.3997
 5511SOL    HW227996   3.310   1.827  13.654  0.0869 -0.6776 -0.2546
 5512SOL     OW27997   1.638   3.894  16.079 -0.0278  0.4118  0.0945
 5512SOL    HW127998   1.633   3.970  16.021  1.3212  0.6127  0.2496
 5512SOL    HW227999   1.680   3.935  16.154  1.8890 -0.1140 -0.7076
 5513SOL     OW28000   1.881   2.610   7.506  0.0733  0.7444  0.6057
 5513SOL    HW128001   1.937   2.603   7.583  0.5786  0.5719  0.2222
 5513SOL    HW228002   1.891   2.701   7.479 -1.6017  1.8128  3.6216
 5514SOL     OW28003   1.573   4.703   7.563 -0.1087 -0.3530 -0.3006
 5514SOL    HW128004   1.593   4.654   7.643  1.2996  0.6931 -0.0058
 5514SOL    HW228005   1.565   0.064   7.594 -0.4263  0.0817 -1.6500
 5515SOL     OW28006   3.186   3.677  15.591 -1.0574  0.1391  0.4630
 5515SOL    HW128007   3.102   3.637  15.566 -1.8318  3.3181 -1.9308
 5515SOL    HW228008   3.215   3.702  15.503 -1.1408  0.4683  0.5286
 5516SOL     OW28009   1.872   4.125  14.112  0.7006  0.2176  0.2328
 5516SOL    HW128010   1.817   4.061  14.157  2.9115 -3.2248 -1.9685
 5516SOL    HW228011   1.909   4.179  14.182  1.3661  0.1396 -0.0594
 5517SOL     OW28012   1.547   1.829   3.314 -0.2926  0.3557 -0.1368
 5517SOL    HW128013   1.606   1.904   3.301  0.6773 -0.1741  1.1263
 5517SOL    HW228014   1.612   1.759   3.311 -0.6807  0.0801 -1.7639
 5518SOL     OW28015   3.318   3.281   5.500  0.6779  0.0892 -0.8801
 5518SOL    HW128016   3.317   3.377   5.497  1.5573  0.1336 -0.0045
 5518SOL    HW228017   3.399   3.267   5.548 -0.5912  1.1967  1.6322
 5519SOL     OW28018   1.378   3.812   5.140  0.3549  0.3773 -0.8040
 5519SOL    HW128019   1.376   3.781   5.231 -1.9968 -0.4170 -1.1485
 5519SOL    HW228020   1.327   3.893   5.147  0.2872  0.2561  0.1859
 5520SOL     OW28021   3.372   0.965   4.623 -0.1076 -0.3178  0.4771
 5520SOL    HW128022   3.347   1.024   4.552  1.0922 -1.7652 -1.1412
 5520SOL    HW228023   3.467   0.980   4.627 -0.1215  0.7565 -3.2670
 5521SOL     OW28024   4.398   2.285  14.732  0.1148 -0.2098 -0.3636
 5521SOL    HW128025   4.308   2.279  14.762  0.5114  0.9223  1.0345
 5521SOL    HW228026   4.387   2.302  14.638  0.6379 -1.7688 -0.7054
 5522SOL     OW28027   3.216   3.213  13.479  0.4128  0.0735  0.1262
 5522SOL    HW128028   3.141   3.260  13.443  0.4331  0.4428  0.5754
 5522SOL    HW228029   3.164   3.142  13.519  0.2725  0.3545  0.4464
 5523SOL     OW28030   2.722   0.385   1.707  0.3637 -0.1511 -0.8212
 5523SOL    HW128031   2.809   0.396   1.747  0.0405  0.9082 -0.3987
 5523SOL    HW228032   2.724   0.306   1.654 -0.9396 -0.0054 -1.0878
 5524SOL     OW28033   0.882   4.395   4.269 -0.4071  0.1565  0.1683
 5524SOL    HW128034   0.977   4.395   4.260 -0.5618 -0.0336 -1.5504
 5524SOL    HW228035   0.863   4.363   4.181 -1.4669 -0.7711  0.7457
 5525SOL     OW28036   1.952   1.797  13.958  0.2405 -0.0520 -0.5327
 5525SOL    HW128037   1.910   1.718  13.924  1.6190 -0.9202 -0.2310
 5525SOL    HW228038   1.882   1.834  14.011 -0.1253  1.0697 -1.8039
 5526SOL     OW28039   1.658   3.938   4.799 -0.6641 -0.0120 -0.1926
 5526SOL    HW128040   1.596   3.890   4.745  0.2515  1.0871 -2.1874
 5526SOL    HW228041   1.640   4.029   4.780  0.5786 -0.1264 -1.8590
 5527SOL     OW28042   2.162   1.975  13.813 -0.1696 -0.0657  0.3609
 5527SOL    HW128043   2.119   1.973  13.727  0.5434  0.3702 -0.0056
 5527SOL    HW228044   2.162   2.070  13.804 -2.6043 -0.1210 -0.2804
 5528SOL     OW28045   0.605   3.231  13.267 -0.1462  1.2887  0.2293
 5528SOL    HW128046   0.565   3.159  13.315  0.8887 -1.3197 -2.8371
 5528SOL    HW228047   0.546   3.303  13.288 -3.9255 -1.4845 -0.9918
 5529SOL     OW28048   0.877   3.983   8.735 -0.3790 -0.6732  0.2968
 5529SOL    HW128049   0.910   3.950   8.651  0.9771 -1.6931  1.2350
 5529SOL    HW228050   0.919   4.068   8.741 -0.8396 -0.4453  0.2766
 5530SOL     OW28051   1.450   1.164   5.141 -0.4546  0.2715  0.0016
 5530SOL    HW128052   1.471   1.111   5.064 -1.0545 -0.6108  0.4534
 5530SOL    HW228053   1.357   1.147   5.155 -0.2969  0.1109  0.8231
 5531SOL     OW28054   1.164   1.392   3.985  0.2247  0.8875  0.2762
 5531SOL    HW128055   1.224   1.442   3.930  0.0626 -0.9191 -1.5475
 5531SOL    HW228056   1.171   1.433   4.071 -0.6821  1.3259  0.1408
 5532SOL     OW28057   2.411   0.224   8.487 -0.3752 -0.0328 -0.3083
 5532SOL    HW128058   2.320   0.243   8.466 -0.6154 -1.1607 -0.2963
 5532SOL    HW228059   2.403   0.177   8.569 -0.2768 -0.9471 -0.8186
 5533SOL     OW28060   0.801   2.103  12.531  0.2656  0.4018 -0.3095
 5533SOL    HW128061   0.810   2.038  12.600  0.0071 -0.3655 -0.9926
 5533SOL    HW228062   0.812   2.176  12.592 -1.5017  0.0446  0.4129
 5534SOL     OW28063   1.733   4.342  10.813  0.4861  0.2967 -0.0726
 5534SOL    HW128064   1.744   4.418  10.870 -0.6884  1.2804 -1.1550
 5534SOL    HW228065   1.696   4.273  10.869 -2.2987  0.6837 -1.4077
 5535SOL     OW28066   0.400   0.308   2.785 -0.4100  0.2737  0.3023
 5535SOL    HW128067   0.419   0.264   2.702  1.8955  1.1319  0.3725
 5535SOL    HW228068   0.441   0.244   2.843  0.6466  0.5594 -0.1285
 5536SOL     OW28069   0.754   0.799   5.919  1.3833  0.2064 -0.7386
 5536SOL    HW128070   0.754   0.869   5.854 -0.2075 -0.9463 -1.9455
 5536SOL    HW228071   0.682   0.822   5.978 -0.4822 -1.2372 -2.4683
 5537SOL     OW28072   3.070   3.677  11.700  0.0463  0.1300  0.3117
 5537SOL    HW128073   3.105   3.723  11.624 -1.1917 -1.5884 -1.3009
 5537SOL    HW228074   3.144   3.634  11.741  0.1823 -0.3091 -0.3903
 5538SOL     OW28075   1.437   4.593   0.395 -0.0607  0.0372 -0.3675
 5538SOL    HW128076   1.392   4.671   0.428  1.1392 -0.3260  2.0782
 5538SOL    HW228077   1.394   4.531   0.453 -2.0215  1.6560 -0.0676
 5539SOL     OW28078   1.828   1.696   6.961  0.1473  0.3195  0.2358
 5539SOL    HW128079   1.827   1.608   6.999 -1.7437 -0.3530 -1.3512
 5539SOL    HW228080   1.787   1.746   7.031  0.1238  2.2991 -1.2014
 5540SOL     OW28081   3.018   1.872   1.032 -0.1215  0.0839  0.2315
 5540SOL    HW128082   3.070   1.804   0.988 -0.0443 -0.7431  1.5868
 5540SOL    HW228083   2.944   1.823   1.067 -0.0041  0.1057  0.5054
 5541SOL     OW28084   0.359   3.347   4.858 -0.3706 -0.7182  0.1118
 5541SOL    HW128085   0.280   3.296   4.878 -0.8373 -0.2795 -0.6135
 5541SOL    HW228086   0.374   3.377   4.948  0.3802  1.7730 -0.8684
 5542SOL     OW28087   0.517   0.760  14.790  0.4351  0.2268  0.1514
 5542SOL    HW128088   0.454   0.826  14.761 -1.2557 -0.2545  2.7412
 5542SOL    HW228089   0.516   0.684  14.731 -0.1991  2.0841 -2.2218
 5543SOL     OW28090   2.286   1.300   2.477 -0.1459 -0.1005 -0.6431
 5543SOL    HW128091   2.213   1.238   2.474 -0.1751 -0.0891 -0.0892
 5543SOL    HW228092   2.272   1.352   2.398 -2.5012 -1.9232 -1.4536
 5544SOL     OW28093   1.155   2.102  11.848 -0.0062  0.5181 -0.1793
 5544SOL    HW128094   1.242   2.093  11.810  1.0689  0.8449  2.1943
 5544SOL    HW228095   1.126   2.174  11.793  1.6142  0.2258 -1.4157
 5545SOL     OW28096   3.893   4.244   9.331  0.8758 -0.2270 -0.3560
 5545SOL    HW128097   3.941   4.312   9.284 -0.2791  0.8254  0.0017
 5545SOL    HW228098   3.819   4.297   9.361  0.1069 -0.7537 -1.3377
 5546SOL     OW28099   3.043   1.752   8.532 -0.4114 -0.1419 -0.4601
 5546SOL    HW128100   3.083   1.678   8.485  0.0287  0.2305 -0.6738
 5546SOL    HW228101   2.950   1.733   8.525 -0.1783 -0.9298 -1.3623
 5547SOL     OW28102   3.688   4.041   9.322 -0.1070 -0.5307  0.3750
 5547SOL    HW128103   3.749   3.970   9.342 -0.3902 -0.5406  1.2210
 5547SOL    HW228104   3.747   4.116   9.324 -2.6656  1.5114 -1.3189
 5548SOL     OW28105   0.745   1.280  17.282  0.3190  0.0255  0.0062
 5548SOL    HW128106   0.695   1.202  17.306  1.9738 -0.8946  0.4301
 5548SOL    HW228107   0.827   1.260  17.328  1.2941 -0.1443 -1.7964
 5549SOL     OW28108   2.168   0.438  12.271 -0.0343 -0.4722 -0.1091
 5549SOL    HW128109   2.157   0.457  12.178  0.7270  1.8874  0.2778
 5549SOL    HW228110   2.106   0.493  12.319  0.1026  0.7624 -1.3335
 5550SOL     OW28111   2.807   1.901   2.427 -0.4585  0.4457  0.1132
 5550SOL    HW128112   2.866   1.898   2.351 -0.9425  0.2827 -0.2558
 5550SOL    HW228113   2.874   1.905   2.496  1.1557  0.1560 -1.4255
 5551SOL     OW28114   0.716   3.544  14.657  0.0250  0.6538 -0.7517
 5551SOL    HW128115   0.779   3.493  14.606 -2.6578 -2.5586 -0.8582
 5551SOL    HW228116   0.706   3.477  14.725 -0.6538  0.4665 -1.0370
 5552SOL     OW28117   2.037   0.238   2.402 -0.9321 -0.1183  0.5799
 5552SOL    HW128118   2.008   0.164   2.349  2.2336 -0.7441 -0.2523
 5552SOL    HW228119   2.114   0.196   2.440 -0.0322  0.3363 -0.7534
 5553SOL     OW28120   0.411   3.479   5.629  0.0536  0.7125  0.3151
 5553SOL    HW128121   0.418   3.488   5.534 -1.4326  0.0926  0.1420
 5553SOL    HW228122   0.455   3.394   5.629  0.8409  1.1329 -1.3429
 5554SOL     OW28123   1.609   4.693   3.472  0.1694 -0.1092 -0.2909
 5554SOL    HW128124   1.653   0.021   3.536 -0.7675  1.3592 -0.9546
 5554SOL    HW228125   1.677   4.709   3.406 -0.6650  1.3294 -0.7774
 5555SOL     OW28126   3.868   2.624  17.036 -0.3518 -0.1606 -0.6317
 5555SOL    HW128127   3.818   2.564  16.981 -0.4621 -0.2242 -0.4607
 5555SOL    HW228128   3.847   2.590  17.123  1.0976  0.9994  0.1797
 5556SOL     OW28129   4.580   0.301  12.860  0.1004 -0.0300  0.4185
 5556SOL    HW128130   4.636   0.236  12.902 -0.5967  0.1794  1.6773
 5556SOL    HW228131   4.614   0.381  12.900  0.3601  0.3738 -0.6077
 5557SOL     OW28132   1.502   2.309   1.498 -0.2764  0.2998 -0.7993
 5557SOL    HW128133   1.481   2.390   1.544 -0.5282 -0.7990  1.0171
 5557SOL    HW228134   1.421   2.258   1.505 -0.1818  0.1804 -0.5431
 5558SOL     OW28135   1.620   4.019  11.322  0.3006 -0.0556 -0.2017
 5558SOL    HW128136   1.525   4.024  11.315  0.3480 -1.6796 -1.8401
 5558SOL    HW228137   1.628   4.055  11.411  1.5382 -2.7168  0.7615
 5559SOL     OW28138   0.350   3.042   8.227 -0.0149  0.0243  0.2199
 5559SOL    HW128139   0.406   3.111   8.193 -1.0210  0.0390 -1.4217
 5559SOL    HW228140   0.387   2.964   8.185  0.2505  0.7513 -0.8908
 5560SOL     OW28141   3.167   3.242   2.359  0.2115  0.1246 -0.1570
 5560SOL    HW128142   3.246   3.243   2.413 -0.0001 -1.9986  0.1887
 5560SOL    HW228143   3.213   3.257   2.276  1.9237  0.9172  0.9256
 5561SOL     OW28144   1.279   4.350   1.657 -0.3064  0.0333  0.6734
 5561SOL    HW128145   1.296   4.436   1.620 -2.8293 -1.0736 -3.1575
 5561SOL    HW228146   1.347   4.294   1.619 -0.8954 -0.4246  0.2828
 5562SOL     OW28147   0.260   2.104  14.912  0.2080  0.1603  0.8207
 5562SOL    HW128148   0.213   2.139  14.836 -1.2321  0.6278  1.9380
 5562SOL    HW228149   0.348   2.078  14.885  0.7980 -0.0209  2.9215
 5563SOL     OW28150   3.344   3.423   6.775 -0.2256 -0.4018  0.0043
 5563SOL    HW128151   3.339   3.479   6.853 -0.2237 -3.2434  2.0128
 5563SOL    HW228152   3.257   3.439   6.738  0.2552 -0.1335 -1.0172
 5564SOL     OW28153   1.549   0.124   6.810  0.3482  0.4844  0.3129
 5564SOL    HW128154   1.488   0.071   6.759 -0.5357  0.5946  1.2491
 5564SOL    HW228155   1.607   0.154   6.740 -2.1759  3.7573 -0.4362
 5565SOL     OW28156   3.281   0.013  11.240  0.0188  0.4056 -0.4941
 5565SOL    HW128157   3.190   0.042  11.239  0.3857  1.7097  2.3735
 5565SOL    HW228158   3.266   4.666  11.297  0.2465  1.3515  0.8056
 5566SOL     OW28159   4.711   0.150  13.082  0.4394  0.5501  0.1162
 5566SOL    HW128160   0.065   0.144  13.034 -0.0426  1.5153 -0.8306
 5566SOL    HW228161   4.679   0.063  13.057 -0.0847  0.6085  0.5776
 5567SOL     OW28162   4.217   2.991   9.914  0.0633  0.2061 -0.3193
 5567SOL    HW128163   4.164   3.042   9.853  1.2788 -0.1929 -1.7009
 5567SOL    HW228164   4.165   2.912   9.930 -0.4245  0.8595  1.2908
 5568SOL     OW28165   3.286   0.913  15.858 -0.2387  0.1338  0.0208
 5568SOL    HW128166   3.206   0.954  15.891 -0.9824 -1.5641  0.2722
 5568SOL    HW228167   3.310   0.971  15.786 -0.8906 -1.0903 -1.1819
 5569SOL     OW28168   2.153   1.988   5.110 -1.0308 -0.3015 -0.1263
 5569SOL    HW128169   2.196   1.970   5.193  0.5845  1.2003 -0.6419
 5569SOL    HW228170   2.063   1.971   5.139 -0.5286 -0.3247  1.4052
 5570SOL     OW28171   0.515   2.342  10.036  0.7674  0.5097 -0.1906
 5570SOL    HW128172   0.431   2.382  10.056 -0.1506 -0.5650 -1.9374
 5570SOL    HW228173   0.541   2.386   9.955 -0.3361  1.9279  0.2217
 5571SOL     OW28174   0.226   4.295   0.785 -0.0701  0.0525  0.5542
 5571SOL    HW128175   0.138   4.258   0.778  0.5926 -1.3219 -0.6715
 5571SOL    HW228176   0.270   4.226   0.835  2.2350  0.3802 -1.0396
 5572SOL     OW28177   2.361   0.465   0.191 -0.1879  0.2802  0.0001
 5572SOL    HW128178   2.349   0.465   0.286  0.2604 -2.9164  0.0696
 5572SOL    HW228179   2.457   0.458   0.192 -0.0799  1.6364 -2.8238
 5573SOL     OW28180   2.153   0.631   4.284  0.1554  0.2543 -0.2907
 5573SOL    HW128181   2.214   0.702   4.263 -0.8065  1.2227  0.2202
 5573SOL    HW228182   2.212   0.557   4.269 -2.0695 -1.6890  0.5956
 5574SOL     OW28183   2.539   2.981   9.235 -0.3285  0.2877  0.7547
 5574SOL    HW128184   2.616   2.929   9.259  2.1947  2.4384 -2.6645
 5574SOL    HW228185   2.492   2.918   9.181  0.2291  0.7737 -0.3042
 5575SOL     OW28186   1.176   4.085   3.394  0.1486 -0.1030 -0.1757
 5575SOL    HW128187   1.104   4.117   3.340  0.7507  0.7166 -0.5058
 5575SOL    HW228188   1.208   4.162   3.440  0.0319  0.1872 -0.5809
 5576SOL     OW28189   0.714   3.814  12.528 -0.1868 -0.0902 -0.1438
 5576SOL    HW128190   0.650   3.750  12.558 -1.0619  0.7281 -0.2857
 5576SOL    HW228191   0.660   3.886  12.495 -1.1136 -0.2801  0.9803
 5577SOL     OW28192   1.129   4.714   4.218  0.1173  0.3571  0.0547
 5577SOL    HW128193   1.132   4.705   4.313  1.6766  1.4507  0.1063
 5577SOL    HW228194   1.140   4.622   4.194 -1.7712  0.3987 -0.9890
 5578SOL     OW28195   3.302   2.853   1.694  0.0753  0.1475  0.8678
 5578SOL    HW128196   3.343   2.767   1.704  0.6137  0.2777 -0.2291
 5578SOL    HW228197   3.303   2.879   1.787 -1.4352  5.3632 -0.5795
 5579SOL     OW28198   3.577   2.097   6.063  0.2838  0.6055  0.2527
 5579SOL    HW128199   3.604   2.184   6.034 -0.3207  1.7211  2.9983
 5579SOL    HW228200   3.639   2.045   6.012  0.8598 -0.7624  2.3342
 5580SOL     OW28201   3.843   1.407   5.785 -0.0300  0.2746 -0.2984
 5580SOL    HW128202   3.828   1.313   5.797  2.2072 -0.3556 -2.3528
 5580SOL    HW228203   3.788   1.414   5.706  0.6862  0.6127 -0.7628
 5581SOL     OW28204   2.168   3.791   7.846 -0.2490 -0.8856  0.7457
 5581SOL    HW128205   2.205   3.729   7.908  1.3251  0.2181  0.8946
 5581SOL    HW228206   2.108   3.740   7.791 -0.5779  0.6999 -0.3753
 5582SOL     OW28207   3.604   2.259   0.076  0.3917  0.2763  0.4493
 5582SOL    HW128208   3.566   2.175   0.048 -1.1684  1.3009 -0.5338
 5582SOL    HW228209   3.695   2.232   0.072  0.4483  0.2488  1.7891
 5583SOL     OW28210   1.786   3.905  14.319  0.0887  0.4258  0.4338
 5583SOL    HW128211   1.692   3.894  14.305  0.4535 -2.0069 -0.0441
 5583SOL    HW228212   1.816   3.817  14.294 -1.2926  0.0833  0.0206
 5584SOL     OW28213   0.044   0.240   4.564  0.5046 -0.3843  0.0036
 5584SOL    HW128214   0.095   0.175   4.515  1.1258  0.9425 -1.1169
 5584SOL    HW228215   4.708   0.253   4.495  1.1240  2.4432 -0.0752
 5585SOL     OW28216   0.221   2.937   7.149 -0.0210  0.5832 -0.2400
 5585SOL    HW128217   0.235   3.031   7.157 -0.3222  0.6279 -0.2541
 5585SOL    HW228218   0.246   2.904   7.236  0.7644  1.8165 -0.0015
 5586SOL     OW28219   3.039   0.876   7.707 -0.5450  1.0504 -0.4106
 5586SOL    HW128220   3.105   0.877   7.638 -1.4621  0.2780 -1.3031
 5586SOL    HW228221   2.969   0.909   7.650  0.6823  0.0681 -2.4822
 5587SOL     OW28222   3.891   2.611   3.534  0.3622  0.2900  0.4450
 5587SOL    HW128223   3.919   2.568   3.453 -3.1789  1.4265 -1.4008
 5587SOL    HW228224   3.971   2.607   3.586 -0.8663 -0.4799  2.2862
 5588SOL     OW28225   0.760   1.821  13.026 -0.9247  0.3469 -0.2180
 5588SOL    HW128226   0.672   1.807  12.993 -0.6003 -1.9637 -0.1133
 5588SOL    HW228227   0.746   1.806  13.119 -1.7829  2.8652  0.0446
 5589SOL     OW28228   2.923   4.493  17.418  0.6824  0.1631 -0.5207
 5589SOL    HW128229   2.942   4.576  17.374 -3.7030  1.0985 -0.7007
 5589SOL    HW228230   3.014   4.462  17.413  0.3175 -0.7529 -1.4922
 5590SOL     OW28231   0.993   3.253   7.322 -0.4224  0.2276 -0.6826
 5590SOL    HW128232   1.064   3.237   7.384  0.3788  1.7594 -1.1991
 5590SOL    HW228233   0.977   3.345   7.342  0.4865  0.0730  0.7876
 5591SOL     OW28234   4.463   1.620   7.117  0.1398 -0.0718 -0.1812
 5591SOL    HW128235   4.489   1.628   7.209 -2.9659 -0.4473  0.7526
 5591SOL    HW228236   4.367   1.622   7.110  0.1169 -3.5595 -0.7859
 5592SOL     OW28237   0.063   2.616   4.519  0.3526  0.1427  0.2646
 5592SOL    HW128238   0.017   2.555   4.462  1.3610  0.6884 -1.1497
 5592SOL    HW228239   0.122   2.653   4.453  0.6703 -1.3301 -0.2810
 5593SOL     OW28240   1.546   0.166   4.944 -0.0011 -0.2476  0.2799
 5593SOL    HW128241   1.634   0.182   4.978  1.2441  0.5804 -3.3140
 5593SOL    HW228242   1.548   0.232   4.874 -1.0735 -1.6620 -1.0943
 5594SOL     OW28243   1.307   2.899  11.598 -0.1657  0.6364 -0.2096
 5594SOL    HW128244   1.363   2.851  11.659 -0.5961  0.9892  0.4636
 5594SOL    HW228245   1.383   2.950  11.572 -0.1530  0.9998  0.5438
 5595SOL     OW28246   0.309   3.101   9.152  0.1621 -0.0679 -0.2567
 5595SOL    HW128247   0.324   3.111   9.246 -0.0647  0.6433 -0.2952
 5595SOL    HW228248   0.363   3.175   9.125  0.5911 -0.6004 -0.8522
 5596SOL     OW28249   1.485   4.600   8.161 -0.0190  0.2898  0.6442
 5596SOL    HW128250   1.464   4.514   8.197 -0.6903  0.2569  0.1821
 5596SOL    HW228251   1.431   4.605   8.081  0.3318 -2.4352  0.2340
 5597SOL     OW28252   4.018   3.165   1.562  0.4545 -0.5902  0.3984
 5597SOL    HW128253   3.971   3.201   1.487  1.9003  1.6241  0.5698
 5597SOL    HW228254   3.954   3.106   1.603 -1.9169  0.2288 -2.1676
 5598SOL     OW28255   2.722   2.225  14.289 -0.1483 -0.2247  0.4951
 5598SOL    HW128256   2.632   2.193  14.300  0.3084 -1.8883 -0.7191
 5598SOL    HW228257   2.764   2.152  14.245 -2.0629 -0.8021 -0.3925
 5599SOL     OW28258   2.889   1.924   6.312  0.4256  0.4310  0.1842
 5599SOL    HW128259   2.806   1.972   6.308 -0.5238 -1.3491 -1.2292
 5599SOL    HW228260   2.861   1.858   6.375  0.9630 -1.6663 -1.7588
 5600SOL     OW28261   3.621   1.672   2.312 -0.0947 -0.0682  0.5034
 5600SOL    HW128262   3.540   1.710   2.277 -0.0546 -1.4669 -1.0970
 5600SOL    HW228263   3.613   1.578   2.296 -0.0020  0.0133 -0.0240
 5601SOL     OW28264   2.119   2.090   1.508 -0.0017 -0.4075 -0.4954
 5601SOL    HW128265   2.136   2.184   1.509 -1.4338 -0.1907  1.8398
 5601SOL    HW228266   2.153   2.067   1.594 -1.5691 -0.1178  0.1970
 5602SOL     OW28267   0.742   1.725   3.871 -0.1254  0.3889  0.4775
 5602SOL    HW128268   0.771   1.816   3.877 -0.0409  0.4089 -0.2732
 5602SOL    HW228269   0.669   1.733   3.933 -0.0237 -1.5466  0.8384
 5603SOL     OW28270   2.592   4.593   9.033  0.5613  0.3562  0.6177
 5603SOL    HW128271   2.561   4.631   9.115  1.1457 -1.6727  1.7582
 5603SOL    HW228272   2.629   4.510   9.063 -0.5736 -0.0780  0.8051
 5604SOL     OW28273   3.611   3.862   6.481  0.4523 -0.8343 -0.4104
 5604SOL    HW128274   3.675   3.891   6.546  0.9528  0.5254 -1.5075
 5604SOL    HW228275   3.643   3.779   6.447  2.3318  0.0272 -0.7343
 5605SOL     OW28276   0.878   1.424  16.236 -1.0148 -0.4683 -0.3141
 5605SOL    HW128277   0.868   1.462  16.323 -2.2734 -1.5346  0.0062
 5605SOL    HW228278   0.897   1.333  16.260 -0.5103 -0.1829  0.3740
 5606SOL     OW28279   0.025   2.264   0.674 -0.1623 -0.2266  0.0559
 5606SOL    HW128280   0.081   2.202   0.626 -1.1115 -1.1771  0.1569
 5606SOL    HW228281   4.683   2.204   0.697 -0.1895  0.2324  1.1448
 5607SOL     OW28282   2.425   3.194   8.297 -0.1047  0.5756 -0.5840
 5607SOL    HW128283   2.467   3.109   8.311  0.6442  0.7904 -1.5145
 5607SOL    HW228284   2.333   3.178   8.320 -0.4262  0.1765 -2.1394
 5608SOL     OW28285   4.422   3.184   9.837  0.0469  0.4522  0.3081
 5608SOL    HW128286   4.391   3.263   9.881 -0.3736  1.1566 -1.2611
 5608SOL    HW228287   4.516   3.199   9.824  0.0775 -2.1822 -2.2985
 5609SOL     OW28288   1.691   1.105  17.662 -0.1246 -0.4846  0.2238
 5609SOL    HW128289   1.663   1.193  17.690 -2.2610 -1.4556  1.1614
 5609SOL    HW228290   1.729   1.084   0.032  1.0964  0.3437 -0.1089
 5610SOL     OW28291   1.442   4.029   2.696 -0.2501 -0.3859  0.2144
 5610SOL    HW128292   1.508   3.977   2.742 -0.0388 -2.6269 -2.7103
 5610SOL    HW228293   1.493   4.074   2.629  0.2424  0.4902  1.1625
 5611SOL     OW28294   0.015   1.531  14.441 -0.3655  0.3555 -0.8183
 5611SOL    HW128295   0.036   1.621  14.413 -0.9644  0.5428 -0.6637
 5611SOL    HW228296   0.016   1.540  14.536  3.4532 -0.6684 -0.7752
 5612SOL     OW28297   2.109   1.756   6.957 -0.2913  0.0889  0.4215
 5612SOL    HW128298   2.014   1.746   6.944 -0.4865  1.6945  0.5717
 5612SOL    HW228299   2.108   1.849   6.978 -2.6489 -0.0062  0.8277
 5613SOL     OW28300   1.574   2.067   4.172  0.3993  1.0394 -0.4330
 5613SOL    HW128301   1.669   2.068   4.182  0.3481 -0.1398  0.2785
 5613SOL    HW228302   1.557   2.157   4.145 -1.0744  0.4287 -1.5621
 5614SOL     OW28303   1.262   2.460  10.718 -0.1667  0.2270 -0.6689
 5614SOL    HW128304   1.212   2.499  10.646 -1.6004 -0.1782  0.1014
 5614SOL    HW228305   1.331   2.525  10.731 -1.1423  0.8458  1.4486
 5615SOL     OW28306   3.764   1.612   3.596  0.5614 -0.1810  0.4558
 5615SOL    HW128307   3.693   1.595   3.535  1.6448  0.0063 -0.8496
 5615SOL    HW228308   3.770   1.527   3.640  0.5376 -1.5728 -2.2210
 5616SOL     OW28309   3.130   2.985  13.584 -0.1363 -0.3590 -0.8710
 5616SOL    HW128310   3.217   2.967  13.548 -0.8615 -0.5330 -2.5399
 5616SOL    HW228311   3.081   2.907  13.558  1.3163 -1.8841  0.9322
 5617SOL     OW28312   2.098   3.856   6.079  0.0281  0.5201  1.1664
 5617SOL    HW128313   2.162   3.786   6.095  2.1734  2.4269  0.8882
 5617SOL    HW228314   2.085   3.906   6.160  1.3627  0.1305  1.6347
 5618SOL     OW28315   1.611   2.575   6.863 -0.3066 -0.2334  0.0107
 5618SOL    HW128316   1.691   2.594   6.911 -0.3563 -0.8649  0.3373
 5618SOL    HW228317   1.572   2.660   6.840  1.2555  0.4787 -0.0208
 5619SOL     OW28318   2.508   0.882  15.507 -0.2371 -0.3609 -1.1479
 5619SOL    HW128319   2.574   0.949  15.492  1.1637 -1.3599  0.5795
 5619SOL    HW228320   2.540   0.829  15.434  0.9092 -1.0859 -0.1312
 5620SOL     OW28321   2.041   1.359   8.340 -0.0956 -0.1517  0.9174
 5620SOL    HW128322   2.062   1.376   8.432 -0.0063 -0.5478  0.9704
 5620SOL    HW228323   1.954   1.395   8.326 -0.0263 -0.4170 -0.1448
 5621SOL     OW28324   2.362   0.722   2.087  0.7700 -0.3394  0.5026
 5621SOL    HW128325   2.299   0.651   2.103  1.6280 -0.6979  2.2697
 5621SOL    HW228326   2.437   0.666   2.067 -0.6782 -0.4080 -4.7662
 5622SOL     OW28327   4.173   4.217   2.406 -0.2245  0.4319  0.0252
 5622SOL    HW128328   4.110   4.276   2.366 -0.7610 -0.8995 -1.1227
 5622SOL    HW228329   4.147   4.134   2.365 -0.6445 -0.1252  1.4296
 5623SOL     OW28330   3.760   1.002   8.687 -0.4193  0.1867 -0.2310
 5623SOL    HW128331   3.716   0.917   8.684  1.0994 -0.6228  0.4823
 5623SOL    HW228332   3.842   0.967   8.723  0.8525  0.6549 -2.6820
 5624SOL     OW28333   3.500   0.574   8.884  0.7313 -0.0819  0.1478
 5624SOL    HW128334   3.520   0.481   8.881  2.7792  0.3431  0.9965
 5624SOL    HW228335   3.545   0.601   8.964  1.5617  0.6654 -0.5726
 5625SOL     OW28336   2.460   0.436   7.706  0.3688  0.5779  0.3749
 5625SOL    HW128337   2.473   0.342   7.719  2.0671  0.4986 -1.8776
 5625SOL    HW228338   2.388   0.436   7.644  1.7901 -1.3821 -1.2761
 5626SOL     OW28339   0.818   2.598  15.099 -0.5572  0.4168 -0.2161
 5626SOL    HW128340   0.804   2.503  15.105  0.4248  0.1609 -1.9010
 5626SOL    HW228341   0.901   2.610  15.147 -1.3419  0.0873  1.2333
 5627SOL     OW28342   2.694   1.449   4.298 -0.4120 -0.0060 -0.1892
 5627SOL    HW128343   2.659   1.446   4.386  1.1875 -0.1901  0.4433
 5627SOL    HW228344   2.776   1.399   4.295 -0.6785 -0.5489  1.7942
 5628SOL     OW28345   2.608   1.486   5.291  0.1494  0.3923 -0.0223
 5628SOL    HW128346   2.573   1.399   5.275  1.0756  0.2805 -1.4111
 5628SOL    HW228347   2.633   1.471   5.382 -1.8858 -1.0061  0.3128
 5629SOL     OW28348   1.375   0.195   3.991 -0.3695  1.3625 -0.1723
 5629SOL    HW128349   1.339   0.279   4.017 -0.6501  0.2298  3.0277
 5629SOL    HW228350   1.429   0.189   4.070  0.9937  2.4791 -1.0198
 5630SOL     OW28351   4.118   1.843  17.550 -0.3250  0.0408 -0.3144
 5630SOL    HW128352   4.140   1.894  17.628 -2.9856  0.1874  0.3531
 5630SOL    HW228353   4.031   1.881  17.541 -0.3400  0.1091  0.1039
 5631SOL     OW28354   2.357   0.780   1.793 -0.1168  0.4029 -0.7222
 5631SOL    HW128355   2.406   0.698   1.804 -0.2461  0.1544 -2.0087
 5631SOL    HW228356   2.283   0.773   1.854 -0.0150 -0.9880 -0.7668
 5632SOL     OW28357   0.222   2.918   5.015  0.4401 -0.1901  0.4581
 5632SOL    HW128358   0.273   2.851   5.060  0.8520 -1.1569 -1.4180
 5632SOL    HW228359   0.233   2.892   4.923 -2.5697  0.1860  0.0096
 5633SOL     OW28360   3.997   3.210   6.402 -0.5005 -0.6073 -0.6100
 5633SOL    HW128361   4.066   3.269   6.370  0.9652 -2.0779 -0.1304
 5633SOL    HW228362   4.049   3.172   6.473 -3.1938  0.5944  1.9820
 5634SOL     OW28363   3.433   4.403   6.614 -0.1028  0.1818 -0.1405
 5634SOL    HW128364   3.420   4.496   6.634 -1.3973  0.3511 -1.7719
 5634SOL    HW228365   3.369   4.394   6.543 -0.7312  0.0303  0.4459
 5635SOL     OW28366   3.572   0.861   6.381 -0.0537 -0.1770  0.1362
 5635SOL    HW128367   3.661   0.870   6.416  0.0821  1.9869 -0.7553
 5635SOL    HW228368   3.531   0.947   6.393 -0.5852 -0.1014 -2.3277
 5636SOL     OW28369   1.342   2.392   3.075 -0.2655 -0.5086  0.0014
 5636SOL    HW128370   1.389   2.474   3.092 -3.0046  1.0592  0.0194
 5636SOL    HW228371   1.320   2.395   2.982  1.9838  0.7225 -0.4991
 5637SOL     OW28372   2.521   1.269   1.921 -1.1274 -0.2232 -0.2003
 5637SOL    HW128373   2.585   1.209   1.960 -3.0609 -0.7180  2.2572
 5637SOL    HW228374   2.461   1.196   1.904  0.3502 -1.8685  1.6735
 5638SOL     OW28375   4.391   1.342  16.318 -0.0436 -0.4908  0.7549
 5638SOL    HW128376   4.456   1.272  16.323 -0.9937 -1.4936 -1.0732
 5638SOL    HW228377   4.384   1.366  16.410 -0.1029 -2.1682  1.1781
 5639SOL     OW28378   3.436   1.784   7.406  0.7351  0.2380  0.0366
 5639SOL    HW128379   3.479   1.827   7.481 -0.7638 -1.3922  1.8373
 5639SOL    HW228380   3.418   1.699   7.446 -1.6612  0.3381 -0.8908
 5640SOL     OW28381   0.082   0.948   3.315 -0.0581  0.9428 -0.2400
 5640SOL    HW128382   0.172   0.947   3.348  0.8448 -0.4095 -2.7313
 5640SOL    HW228383   0.055   1.038   3.336  0.9337  0.7217  2.0334
 5641SOL     OW28384   1.436   4.213   6.366 -0.1463  0.1009  0.2002
 5641SOL    HW128385   1.409   4.240   6.278 -1.1772 -2.4850 -0.2662
 5641SOL    HW228386   1.374   4.141   6.381 -0.7590  0.6724  0.4275
 5642SOL     OW28387   3.327   1.535   6.244 -0.9644  0.0311 -0.5308
 5642SOL    HW128388   3.236   1.544   6.214 -1.5028 -0.4326  0.9654
 5642SOL    HW228389   3.359   1.612   6.197  2.2151  0.0202  1.6398
 5643SOL     OW28390   1.567   4.140  12.316 -0.3248 -0.3456  0.5872
 5643SOL    HW128391   1.594   4.112  12.228  2.6346  1.1572  1.0241
 5643SOL    HW228392   1.572   4.061  12.371  0.0008 -1.6179 -1.2712
 5644SOL     OW28393   3.049   4.099   4.357 -0.1881  0.7996 -0.2051
 5644SOL    HW128394   3.028   4.033   4.423  2.0277 -1.7024 -1.9937
 5644SOL    HW228395   2.991   4.169   4.387 -1.0084 -0.8488  2.0665
 5645SOL     OW28396   1.719   1.419  12.649 -0.1945  0.4455 -0.0375
 5645SOL    HW128397   1.719   1.507  12.685 -0.2032  0.3539  0.1853
 5645SOL    HW228398   1.765   1.432  12.566  0.1321  0.6222  0.1699
 5646SOL     OW28399   2.182   3.525  11.924 -0.1296  0.2373 -0.5955
 5646SOL    HW128400   2.104   3.492  11.968 -0.6621 -0.9246 -2.4392
 5646SOL    HW228401   2.199   3.443  11.877 -2.5543 -0.5581 -0.0580
 5647SOL     OW28402   3.969   2.591  15.782  0.1650  0.3296 -0.0988
 5647SOL    HW128403   3.981   2.506  15.823 -2.4012 -0.9289 -1.9704
 5647SOL    HW228404   3.886   2.568  15.740  1.5704 -0.8703 -2.1668
 5648SOL     OW28405   0.583   1.067  14.859 -0.4435  0.5493  0.2567
 5648SOL    HW128406   0.540   1.029  14.783  0.0731  0.4807 -0.0006
 5648SOL    HW228407   0.538   1.014  14.926 -0.7310  1.5256  0.8422
 5649SOL     OW28408   2.622   2.331   2.938 -0.0037 -0.1853  0.4770
 5649SOL    HW128409   2.619   2.239   2.910  1.2171 -0.5271  1.4995
 5649SOL    HW228410   2.588   2.378   2.861  0.3297 -0.3537  0.2284
 5650SOL     OW28411   3.651   0.588  11.609  0.0962  0.1043 -0.0260
 5650SOL    HW128412   3.606   0.514  11.649  1.2535  0.7190  2.4709
 5650SOL    HW228413   3.660   0.646  11.686 -2.0009 -0.1842  0.4233
 5651SOL     OW28414   1.192   2.857   8.711  0.2221 -0.2761 -0.3340
 5651SOL    HW128415   1.284   2.872   8.733  0.0434  0.9773 -0.4282
 5651SOL    HW228416   1.158   2.900   8.790  2.5003  0.1707  0.4092
 5652SOL     OW28417   3.719   3.556   1.981  0.2708 -0.4989 -0.0415
 5652SOL    HW128418   3.664   3.628   1.949 -0.6938 -0.2430  2.1383
 5652SOL    HW228419   3.798   3.596   2.017  0.8958 -2.1042  0.3936
 5653SOL     OW28420   3.361   4.712  11.959 -0.2228 -0.0768 -0.4833
 5653SOL    HW128421   3.335   4.668  11.878  2.3364  1.4562 -2.1477
 5653SOL    HW228422   3.408   4.653  12.018 -0.1305 -0.4717 -0.9534
 5654SOL     OW28423   1.587   3.686   3.474 -0.4421 -0.3603 -0.7194
 5654SOL    HW128424   1.517   3.743   3.444 -0.3733  0.0132 -0.1707
 5654SOL    HW228425   1.590   3.714   3.566  0.2220 -0.9376 -0.5611
 5655SOL     OW28426   3.255   2.931  16.561  0.2498  0.3408 -0.1730
 5655SOL    HW128427   3.169   2.975  16.563  1.1596  1.8815  4.2608
 5655SOL    HW228428   3.282   2.928  16.652  1.2901 -2.3426 -0.5898
 5656SOL     OW28429   4.440   0.655  12.006 -0.2948 -0.0941 -0.0117
 5656SOL    HW128430   4.460   0.730  11.950 -2.1514 -0.7738 -1.5800
 5656SOL    HW228431   4.345   0.665  12.010 -0.4660  0.3011 -5.1849
 5657SOL     OW28432   3.523   0.598  15.813  0.0605 -0.5051  0.1672
 5657SOL    HW128433   3.564   0.681  15.791  2.7156 -1.7132  0.4702
 5657SOL    HW228434   3.475   0.579  15.732  0.4467  2.2097 -0.6912
 5658SOL     OW28435   3.092   2.875  11.893  0.6285  0.0030  0.1412
 5658SOL    HW128436   3.147   2.932  11.947 -1.2554  1.3229  0.6474
 5658SOL    HW228437   3.039   2.832  11.960  0.4060 -1.4154 -0.9360
 5659SOL     OW28438   2.145   2.873   6.832 -0.0660 -0.1399 -0.4240
 5659SOL    HW128439   2.088   2.826   6.771  0.6361 -0.0146 -1.1845
 5659SOL    HW228440   2.167   2.800   6.891  0.4877 -0.2700 -0.7890
 5660SOL     OW28441   1.468   2.034  16.999  0.1294 -0.1720  0.5053
 5660SOL    HW128442   1.481   2.006  17.089  1.9146  0.2420  0.3641
 5660SOL    HW228443   1.426   2.119  17.010 -1.5904 -1.3523  3.1609
 5661SOL     OW28444   2.564   2.091   7.030 -0.0569  0.3640 -0.6347
 5661SOL    HW128445   2.578   2.150   7.105 -0.0464 -1.9663  1.2114
 5661SOL    HW228446   2.492   2.035   7.057  0.4681 -0.6130 -1.2705
 5662SOL     OW28447   3.082   3.478  10.541 -0.1553  0.3543 -0.9423
 5662SOL    HW128448   3.176   3.459  10.547  0.1337  2.0810  0.0707
 5662SOL    HW228449   3.077   3.564  10.582  1.1901  0.4754 -1.0260
 5663SOL     OW28450   1.875   3.941   5.118  0.1218 -0.1022  0.0245
 5663SOL    HW128451   1.784   3.924   5.094  0.8149 -1.1505 -1.8262
 5663SOL    HW228452   1.900   3.877   5.184  1.2890  0.5345  0.2052
 5664SOL     OW28453   1.550   1.551  14.948  0.0363 -0.0223  0.4505
 5664SOL    HW128454   1.472   1.535  14.895 -0.3395  0.6212  0.8072
 5664SOL    HW228455   1.563   1.470  14.997 -0.7312 -1.0812 -1.0922
 5665SOL     OW28456   1.099   1.771   8.797 -0.0294  0.3065 -0.4154
 5665SOL    HW128457   1.051   1.826   8.858  0.5485 -1.3368  1.5102
 5665SOL    HW228458   1.050   1.689   8.805  0.2396  0.2334  0.4150
 5666SOL     OW28459   0.436   1.348  12.888  0.4709 -0.9811  0.4473
 5666SOL    HW128460   0.459   1.438  12.914  0.6221 -1.2954  1.3906
 5666SOL    HW228461   0.443   1.357  12.793  2.9434  1.3003  0.8305
 5667SOL     OW28462   4.309   0.950   2.454  0.3626 -0.4286 -0.2241
 5667SOL    HW128463   4.234   1.010   2.459  0.2762 -0.3488 -2.5929
 5667SOL    HW228464   4.269   0.887   2.394 -2.0542 -0.1045  1.0457
 5668SOL     OW28465   0.596   2.099  17.243  0.3015  0.5465  0.2020
 5668SOL    HW128466   0.623   2.048  17.166  1.9339 -0.6970  1.6109
 5668SOL    HW228467   0.684   2.127  17.267  0.5085 -0.3312  0.4970
 5669SOL     OW28468   1.363   4.345   3.269  0.1534 -0.2946  0.5637
 5669SOL    HW128469   1.340   4.438   3.262  2.3686  0.1988 -0.1163
 5669SOL    HW228470   1.312   4.301   3.337 -2.4626  1.8130 -0.0524
 5670SOL     OW28471   4.079   0.024  16.421  0.5370 -0.0559  0.0652
 5670SOL    HW128472   4.018   0.058  16.355  2.6960  1.7843 -1.0064
 5670SOL    HW228473   4.158   0.070  16.393 -0.3218  0.6916 -1.1586
 5671SOL     OW28474   3.324   1.236  15.913  0.9053  0.5425 -0.5491
 5671SOL    HW128475   3.409   1.280  15.900  0.9021  1.1134  1.4380
 5671SOL    HW228476   3.294   1.300  15.977  0.1024 -1.6478  1.2614
 5672SOL     OW28477   0.878   2.957   7.223 -0.7609 -0.0238  0.0283
 5672SOL    HW128478   0.824   3.031   7.198  2.4418  1.8928 -1.1672
 5672SOL    HW228479   0.890   2.982   7.315  1.7004  0.2919 -0.3802
 5673SOL     OW28480   2.082   1.807   2.699 -0.0555  0.5269 -0.3030
 5673SOL    HW128481   2.171   1.819   2.668  0.5209 -0.9478  0.8174
 5673SOL    HW228482   2.029   1.835   2.624 -0.4942 -0.7172 -0.4573
 5674SOL     OW28483   1.725   2.449   0.570 -0.2609 -0.1402 -0.2133
 5674SOL    HW128484   1.708   2.356   0.555 -1.1363  0.3668 -2.4606
 5674SOL    HW228485   1.765   2.461   0.484 -1.2566  1.1004 -0.5118
 5675SOL     OW28486   2.281   4.218   4.525 -0.0476  0.4543 -0.1190
 5675SOL    HW128487   2.254   4.229   4.616  0.6499 -0.3554  0.1848
 5675SOL    HW228488   2.369   4.187   4.546 -0.1945 -1.4095 -2.3725
 5676SOL     OW28489   0.041   3.613   8.638 -0.1407 -0.2570 -0.1135
 5676SOL    HW128490   4.690   3.611   8.691  0.6877  0.1283  1.1413
 5676SOL    HW228491   0.009   3.665   8.564 -0.3853  0.2959  0.3791
 5677SOL     OW28492   3.772   1.661   6.667  0.3648 -0.1761 -0.0728
 5677SOL    HW128493   3.774   1.588   6.730  2.0130 -0.3312 -0.3223
 5677SOL    HW228494   3.784   1.743   6.714 -1.1055 -0.5990  1.0726
 5678SOL     OW28495   2.846   3.371   1.345 -0.5767  0.7265 -0.3763
 5678SOL    HW128496   2.786   3.307   1.307 -0.1828  0.8377 -1.1670
 5678SOL    HW228497   2.777   3.420   1.389 -0.5443  0.8123 -0.4213
 5679SOL     OW28498   2.855   2.116   8.498  0.2352 -0.1651 -0.7660
 5679SOL    HW128499   2.763   2.136   8.481  0.1720  0.2847  0.0932
 5679SOL    HW228500   2.850   2.122   8.594 -2.3258 -1.0640 -0.8534
 5680SOL     OW28501   1.949   1.179   4.600  0.0675  0.1058 -0.4073
 5680SOL    HW128502   1.855   1.167   4.595 -0.1923  1.8011  0.1651
 5680SOL    HW228503   1.989   1.115   4.541  0.5136  0.9994 -1.0828
 5681SOL     OW28504   0.133   4.316  15.400  0.0396 -0.6551 -0.6613
 5681SOL    HW128505   0.149   4.390  15.341 -2.0987  0.6155  0.3529
 5681SOL    HW228506   0.119   4.249  15.333 -0.7127 -2.6654  1.5528
 5682SOL     OW28507   4.571   1.662   8.335  0.3718 -1.0735  0.1047
 5682SOL    HW128508   4.539   1.744   8.299 -2.1000 -0.3892  3.7658
 5682SOL    HW228509   4.585   1.676   8.429  0.0184  1.8366 -0.2795
 5683SOL     OW28510   0.716   3.259   9.245 -0.0561  0.1433  0.1888
 5683SOL    HW128511   0.722   3.170   9.279 -1.8273 -0.3439 -0.7470
 5683SOL    HW228512   0.809   3.281   9.243 -0.1352  0.6057  1.5988
 5684SOL     OW28513   3.014   3.530   9.894 -0.1942 -0.2883  0.1643
 5684SOL    HW128514   3.099   3.564   9.867 -0.4167 -0.4448 -0.7152
 5684SOL    HW228515   3.035   3.547   9.986  2.6815  0.0702 -0.5463
 5685SOL     OW28516   3.641   0.622   5.827 -0.6505 -0.1819 -0.4116
 5685SOL    HW128517   3.587   0.544   5.839 -0.0034 -0.3313  1.6043
 5685SOL    HW228518   3.640   0.668   5.911 -0.8032 -0.3637 -0.3156
 5686SOL     OW28519   4.439   0.545   5.845 -0.1178 -0.4984 -0.2859
 5686SOL    HW128520   4.392   0.476   5.891 -0.7331  1.2925  1.8252
 5686SOL    HW228521   4.526   0.549   5.884 -0.7442  0.4625  1.0470
 5687SOL     OW28522   0.718   2.358   6.332 -0.0123 -0.0503 -0.3012
 5687SOL    HW128523   0.784   2.327   6.270  0.3724  0.9361 -0.3765
 5687SOL    HW228524   0.646   2.315   6.286  0.1192 -1.8499  1.1540
 5688SOL     OW28525   3.212   0.829   2.718 -0.4965 -0.1472 -0.3139
 5688SOL    HW128526   3.277   0.840   2.787 -0.0462 -0.5445 -0.6701
 5688SOL    HW228527   3.211   0.921   2.691 -0.9152 -0.1553 -0.3265
 5689SOL     OW28528   3.478   2.110  15.866  0.1727  0.4360 -0.0033
 5689SOL    HW128529   3.486   2.147  15.954 -1.9101  1.6952 -0.3533
 5689SOL    HW228530   3.434   2.185  15.827 -0.8630 -0.1445  0.0383
 5690SOL     OW28531   0.268   1.080   8.341  0.4244  0.3865  0.2163
 5690SOL    HW128532   0.238   1.171   8.345 -0.4722  0.1736 -1.4918
 5690SOL    HW228533   0.272   1.065   8.435  0.0189 -2.1648 -0.1660
 5691SOL     OW28534   0.594   2.782  13.859 -0.2998 -0.2816  0.6964
 5691SOL    HW128535   0.579   2.816  13.948  1.2814  0.2803  0.7550
 5691SOL    HW228536   0.674   2.733  13.876 -1.0496 -1.1537  1.6825
 5692SOL     OW28537   2.964   1.110   3.988  0.4089 -0.3598 -0.0848
 5692SOL    HW128538   2.912   1.082   3.912  0.2108  1.5315 -0.6426
 5692SOL    HW228539   2.982   1.202   3.972 -2.3154 -0.0034 -1.0771
 5693SOL     OW28540   4.519   3.170   4.357 -0.7024  0.1520 -0.4546
 5693SOL    HW128541   4.605   3.187   4.395 -1.1403 -0.5613  0.8553
 5693SOL    HW228542   4.467   3.246   4.379 -0.9931  0.1503 -1.1380
 5694SOL     OW28543   3.928   1.863   7.161 -0.3244 -0.1986  0.2433
 5694SOL    HW128544   3.910   1.802   7.089  0.1141 -1.0013  0.8127
 5694SOL    HW228545   3.886   1.822   7.237 -1.4189 -0.1039 -0.3132
 5695SOL     OW28546   2.375   4.144  11.819  0.2743  0.3154 -0.3102
 5695SOL    HW128547   2.354   4.159  11.911  1.1931 -0.2952  0.0017
 5695SOL    HW228548   2.372   4.235  11.789 -2.3861  0.0263 -0.9369
 5696SOL     OW28549   2.608   2.247   8.453  0.7622  0.1000  0.0864
 5696SOL    HW128550   2.555   2.189   8.398  0.5776 -0.7291  1.1361
 5696SOL    HW228551   2.629   2.318   8.392 -1.6966 -1.4057 -2.5534
 5697SOL     OW28552   2.377   2.438   1.370 -0.0815 -0.1956 -0.2375
 5697SOL    HW128553   2.457   2.482   1.401  0.3304 -1.9901  1.2147
 5697SOL    HW228554   2.408   2.349   1.359  0.8178  0.0548  0.2319
 5698SOL     OW28555   3.592   3.289   9.453  0.1357  0.0409  0.2899
 5698SOL    HW128556   3.608   3.359   9.516 -0.9541 -1.2243  1.9741
 5698SOL    HW228557   3.620   3.330   9.371  0.2268 -0.2170  0.1907
 5699SOL     OW28558   1.380   1.359   0.734  0.0702  0.3366 -0.1796
 5699SOL    HW128559   1.291   1.333   0.758 -0.3510  0.5266 -1.5803
 5699SOL    HW228560   1.383   1.350   0.639 -0.1548  0.8529 -0.2365
 5700SOL     OW28561   0.702   0.462  11.002 -0.6074  0.3563  0.0237
 5700SOL    HW128562   0.708   0.493  11.093  0.4996  0.4252 -0.0727
 5700SOL    HW228563   0.720   0.541  10.952  0.9378  0.7115  1.1111
 5701SOL     OW28564   4.348   1.735   3.538  0.0666 -0.2180 -0.5723
 5701SOL    HW128565   4.374   1.738   3.631  0.3407 -0.9544 -0.6234
 5701SOL    HW228566   4.297   1.654   3.535 -1.5619  0.8314 -0.8764
 5702SOL     OW28567   1.258   3.857   5.867 -0.4089  0.7118  0.2782
 5702SOL    HW128568   1.210   3.865   5.949 -0.3150  0.6175  0.3421
 5702SOL    HW228569   1.311   3.783   5.897  0.2752  1.7518  1.6661
 5703SOL     OW28570   2.496   4.568   5.636  0.2105 -0.0629 -0.2568
 5703SOL    HW128571   2.544   4.603   5.712 -3.1794 -0.5389  2.1116
 5703SOL    HW228572   2.438   4.639   5.608 -2.0449 -1.7223  0.2766
 5704SOL     OW28573   2.734   1.924  15.820  0.3307 -0.2388 -0.6087
 5704SOL    HW128574   2.718   1.952  15.910 -0.6130  0.2928 -0.9400
 5704SOL    HW228575   2.755   1.832  15.835 -0.5992 -0.5958 -1.4830
 5705SOL     OW28576   3.692   4.325  15.167 -0.0439  0.6567 -0.2165
 5705SOL    HW128577   3.602   4.304  15.193  0.0205 -1.1994 -1.4827
 5705SOL    HW228578   3.677   4.369  15.083 -1.4113  0.6181  0.0093
 5706SOL     OW28579   2.819   3.180   0.676 -0.6392  0.4103  0.0454
 5706SOL    HW128580   2.867   3.097   0.678 -3.0624 -0.9611  0.6835
 5706SOL    HW228581   2.827   3.202   0.769 -1.2590 -0.5495  0.3293
 5707SOL     OW28582   1.024   3.080   2.466 -0.0402  0.6729  0.5136
 5707SOL    HW128583   1.020   2.996   2.420 -0.2715  0.7550  0.3849
 5707SOL    HW228584   0.932   3.105   2.459 -0.0021  1.0082  1.1962
 5708SOL     OW28585   2.803   3.787  16.572 -0.0317 -0.2922 -0.3485
 5708SOL    HW128586   2.891   3.765  16.601 -1.0838 -0.4656  2.6712
 5708SOL    HW228587   2.820   3.848  16.500 -0.8288 -0.1924 -0.4529
 5709SOL     OW28588   1.560   4.283   4.361 -0.2275 -0.3063  0.2952
 5709SOL    HW128589   1.626   4.311   4.298  0.3804 -0.1557  1.0023
 5709SOL    HW228590   1.545   4.198   4.320  1.9920  0.7617 -2.7441
 5710SOL     OW28591   0.083   0.287   6.780  0.0919  0.2539  0.3739
 5710SOL    HW128592   0.023   0.213   6.771 -2.1307  1.9757  1.1906
 5710SOL    HW228593   0.030   0.357   6.743  2.5903  1.4622 -0.9561
 5711SOL     OW28594   0.429   2.901  17.460  0.1033 -0.1285 -0.1135
 5711SOL    HW128595   0.502   2.963  17.463  0.4577 -0.5069 -0.8468
 5711SOL    HW228596   0.473   2.832  17.510  1.3763  0.0222 -1.0302
 5712SOL     OW28597   0.318   0.134  12.191  0.0500  0.1460  0.4753
 5712SOL    HW128598   0.326   0.039  12.182  1.4815  0.4376 -1.2389
 5712SOL    HW228599   0.254   0.139  12.263 -0.8667  1.2270 -0.4271
 5713SOL     OW28600   3.974   2.055   3.954  0.7049  0.1143 -0.2862
 5713SOL    HW128601   3.915   2.119   3.915 -1.0915 -0.1909  1.8911
 5713SOL    HW228602   3.993   2.006   3.875 -1.2324 -0.0902 -0.6258
 5714SOL     OW28603   4.194   1.680   3.177 -0.1232  0.0709  0.0809
 5714SOL    HW128604   4.149   1.597   3.163 -0.9793  0.7473 -1.2923
 5714SOL    HW228605   4.260   1.679   3.108  0.1335 -0.1011  0.3345
 5715SOL     OW28606   3.692   1.449   2.780 -0.3983  0.4532 -0.3058
 5715SOL    HW128607   3.711   1.381   2.715 -0.6842 -0.3440  0.4533
 5715SOL    HW228608   3.671   1.520   2.719 -0.7575  0.4154 -0.2249
 5716SOL     OW28609   4.050   1.351   6.758  0.4634  0.1211 -0.0682
 5716SOL    HW128610   4.018   1.334   6.669 -1.3070  0.7012  0.4519
 5716SOL    HW228611   4.054   1.265   6.799 -1.6271 -0.0262 -0.1833
 5717SOL     OW28612   1.751   1.723   6.694 -0.3201  0.2559 -0.4008
 5717SOL    HW128613   1.762   1.722   6.789 -0.6113 -0.9688 -0.3729
 5717SOL    HW228614   1.725   1.632   6.681 -0.1534  0.0662  0.5466
 5718SOL     OW28615   2.002   1.442   6.333  0.1386 -0.0093  0.1833
 5718SOL    HW128616   1.946   1.519   6.340  0.7944  0.4621  0.3268
 5718SOL    HW228617   1.941   1.372   6.310  1.5237 -1.5591  1.1659
 5719SOL     OW28618   1.606   1.406   7.166  0.2136 -0.4545  0.2117
 5719SOL    HW128619   1.554   1.345   7.217  0.4531  0.9363  2.1284
 5719SOL    HW228620   1.567   1.390   7.080 -0.7597 -1.3495  0.8199
 5720SOL     OW28621   0.154   3.482  11.953  0.2530  0.2956  0.0675
 5720SOL    HW128622   0.130   3.440  12.036  1.2870  3.1857  1.8412
 5720SOL    HW228623   0.250   3.480  11.955  0.2553 -0.8690 -1.0703
 5721SOL     OW28624   2.543   1.856   2.490  0.0265 -0.2850 -0.3118
 5721SOL    HW128625   2.632   1.889   2.473 -0.3030  1.5921  1.6415
 5721SOL    HW228626   2.516   1.818   2.407  0.9083 -4.2730  1.2200
 5722SOL     OW28627   2.108   3.028   6.568 -0.2496  0.7239  0.1720
 5722SOL    HW128628   2.108   3.001   6.476  2.7170 -0.5258  0.5531
 5722SOL    HW228629   2.188   2.993   6.608 -1.2062 -1.9691 -0.2997
 5723SOL     OW28630   3.006   1.782   0.181 -0.6731  0.2108 -0.1405
 5723SOL    HW128631   2.966   1.764   0.267  0.1654 -0.8929  0.0220
 5723SOL    HW228632   3.017   1.694   0.143 -0.6044  0.2436 -0.1949
 5724SOL     OW28633   3.464   2.754   5.964 -0.0913 -0.4142  0.8550
 5724SOL    HW128634   3.458   2.680   5.903 -0.8492  0.2683  0.1181
 5724SOL    HW228635   3.418   2.823   5.917 -3.7484 -1.4735  2.8946
 5725SOL     OW28636   2.064   4.288   1.044  0.0174  0.1117  0.0879
 5725SOL    HW128637   2.066   4.297   1.139 -1.1242  0.1444  0.1050
 5725SOL    HW228638   2.037   4.197   1.031 -2.4534  1.0393 -1.3474
 5726SOL     OW28639   2.581   2.954   8.309 -0.1747  0.1459  0.0828
 5726SOL    HW128640   2.660   2.928   8.261  1.0651  1.7373  1.2715
 5726SOL    HW228641   2.535   2.874   8.333 -0.0218  0.5156  1.6111
 5727SOL     OW28642   0.599   0.741   4.417  0.6179 -0.1499 -1.0364
 5727SOL    HW128643   0.676   0.788   4.383  0.7076  1.0187  0.8059
 5727SOL    HW228644   0.571   0.692   4.340 -1.7972  1.1654 -0.9823
 5728SOL     OW28645   1.702   1.991   8.066  0.0654  0.2177  0.3613
 5728SOL    HW128646   1.715   1.942   7.984 -0.4220 -2.7087  2.0474
 5728SOL    HW228647   1.632   2.052   8.044  0.9445  0.2344 -2.3793
 5729SOL     OW28648   1.877   3.782  16.055  0.0661 -0.0531 -0.2561
 5729SOL    HW128649   1.783   3.790  16.073  0.2379 -1.3080  1.1663
 5729SOL    HW228650   1.874   3.726  15.977 -1.9986  1.8071 -1.5301
 5730SOL     OW28651   0.057   0.798   1.613  0.2383  0.8026  0.2932
 5730SOL    HW128652   0.083   0.712   1.579 -1.9471  0.1736  0.2169
 5730SOL    HW228653   0.069   0.853   1.536 -2.4091 -0.7888 -1.2675
 5731SOL     OW28654   3.086   1.755   1.787 -0.4176  0.3339  0.6506
 5731SOL    HW128655   3.047   1.835   1.754 -1.8782 -0.8521 -0.4707
 5731SOL    HW228656   3.139   1.731   1.711  0.5353 -1.4433  1.8500
 5732SOL     OW28657   1.529   4.246   9.365  0.5138  0.2342  0.5580
 5732SOL    HW128658   1.464   4.176   9.376  0.0581  0.9128  2.2938
 5732SOL    HW228659   1.478   4.311   9.414  0.3591 -2.1417  3.5507
 5733SOL     OW28660   2.565   3.327   7.220  0.4050 -0.0205 -0.0290
 5733SOL    HW128661   2.480   3.289   7.196  1.0138  0.3203 -2.7355
 5733SOL    HW228662   2.583   3.291   7.307  0.4098 -2.1473 -0.9040
 5734SOL     OW28663   2.619   2.371   3.627 -0.3132  0.7211 -0.1129
 5734SOL    HW128664   2.652   2.322   3.552 -2.0792 -1.4960  0.5441
 5734SOL    HW228665   2.702   2.406   3.659 -0.9248  1.6920  0.4041
 5735SOL     OW28666   1.802   4.052   4.487  0.0163  0.1132 -0.3723
 5735SOL    HW128667   1.837   4.020   4.404 -0.5805 -0.3197 -0.4641
 5735SOL    HW228668   1.717   4.010   4.475  0.8190 -1.2120 -1.3826
 5736SOL     OW28669   4.566   3.108  14.274 -0.8430 -0.3944 -0.2678
 5736SOL    HW128670   4.560   3.033  14.214 -1.2710 -1.0307  0.5634
 5736SOL    HW228671   4.583   3.184  14.219 -1.5029  0.2142  0.3758
 5737SOL     OW28672   3.743   2.853   1.995  0.0512 -0.2847 -0.2178
 5737SOL    HW128673   3.744   2.947   2.015  3.0078 -0.5007  0.6362
 5737SOL    HW228674   3.782   2.823   2.077  0.8958  0.1469 -0.4694
 5738SOL     OW28675   2.223   3.317   2.549 -0.1427 -0.1244 -0.5033
 5738SOL    HW128676   2.158   3.258   2.588 -1.4165  0.7654 -1.3019
 5738SOL    HW228677   2.289   3.252   2.524 -0.7515 -1.6061  1.7814
 5739SOL     OW28678   2.037   3.149   4.068  0.0741 -1.1159  0.0442
 5739SOL    HW128679   2.023   3.167   4.161 -3.1156 -1.2217 -0.4167
 5739SOL    HW228680   1.961   3.195   4.031  1.2395 -0.4924 -1.5497
 5740SOL     OW28681   2.427   1.367   8.394  0.3457  0.0286 -0.1010
 5740SOL    HW128682   2.473   1.320   8.324  0.3845  0.6487 -0.4958
 5740SOL    HW228683   2.390   1.444   8.351 -0.1507  0.4248  1.0562
 5741SOL     OW28684   3.070   1.581   4.201  0.8368  0.2073 -0.3029
 5741SOL    HW128685   3.139   1.605   4.139  2.9222 -0.4846  1.7414
 5741SOL    HW228686   3.000   1.633   4.162  0.1302 -2.5483 -2.7135
 5742SOL     OW28687   0.290   1.151   3.373 -0.4946 -0.1152  0.5980
 5742SOL    HW128688   0.198   1.180   3.370  0.0222  1.5362  0.2322
 5742SOL    HW228689   0.306   1.161   3.466 -0.1312 -1.0666  0.6352
 5743SOL     OW28690   4.699   0.153   9.340  0.0975 -0.6325  0.0872
 5743SOL    HW128691   4.720   0.241   9.371 -2.1301  0.5783 -1.7878
 5743SOL    HW228692   0.031   0.148   9.266 -0.8508 -2.3289 -0.5754
 5744SOL     OW28693   1.790   4.127   6.947  0.8680  0.0142  0.0740
 5744SOL    HW128694   1.758   4.058   6.889  3.2195 -0.4250 -0.7106
 5744SOL    HW228695   1.708   4.174   6.963  0.5769  0.2134 -2.0216
 5745SOL     OW28696   0.674   0.722  15.268  0.2985  0.2460  0.1824
 5745SOL    HW128697   0.761   0.693  15.240 -0.0800  0.5921 -1.3228
 5745SOL    HW228698   0.652   0.765  15.186  1.3385  0.7095  0.1468
 5746SOL     OW28699   1.425   2.481   2.077 -0.6295 -0.1130 -0.0749
 5746SOL    HW128700   1.492   2.416   2.056 -1.8827 -1.3587 -0.1243
 5746SOL    HW228701   1.404   2.461   2.169  1.6673  3.0810  1.1708
 5747SOL     OW28702   4.279   2.908   8.764  0.1110  0.3459 -0.1074
 5747SOL    HW128703   4.287   2.910   8.669 -0.2322 -1.2872 -0.1751
 5747SOL    HW228704   4.372   2.916   8.784  0.0946 -0.6736  0.4112
 5748SOL     OW28705   1.406   2.514  17.631 -0.5239  0.2008  0.4931
 5748SOL    HW128706   1.428   2.531  17.539 -0.5541  0.0541  0.4591
 5748SOL    HW228707   1.473   2.558  17.683 -1.1060  2.1269 -0.4049
 5749SOL     OW28708   1.530   2.521   3.411 -0.3882 -0.3747  0.0709
 5749SOL    HW128709   1.552   2.500   3.501 -0.8419 -1.5125 -0.0879
 5749SOL    HW228710   1.595   2.585   3.382 -2.6112  2.1790  0.6734
 5750SOL     OW28711   2.747   3.041   3.720 -0.2783  0.7125 -0.1488
 5750SOL    HW128712   2.688   2.966   3.727  0.4888  0.1054 -0.1628
 5750SOL    HW228713   2.718   3.088   3.798  0.7630 -0.4209  0.9263
 5751SOL     OW28714   0.813   1.059   2.776  0.2335 -0.2236  0.2599
 5751SOL    HW128715   0.805   1.014   2.860  1.2570 -0.6299  0.1333
 5751SOL    HW228716   0.775   1.143   2.801  1.2766  0.8499 -1.7694
 5752SOL     OW28717   3.200   2.400   8.619  0.0513  0.5610  0.1130
 5752SOL    HW128718   3.292   2.413   8.593  0.7085 -2.4028  0.9585
 5752SOL    HW228719   3.220   2.310   8.645  2.0099  0.9988  0.1367
 5753SOL     OW28720   3.043   2.253  14.909  0.7391 -0.7122 -0.0065
 5753SOL    HW128721   3.069   2.222  14.996  0.2976  0.8215  0.6711
 5753SOL    HW228722   3.086   2.183  14.860  1.0394 -0.1001 -0.6302
 5754SOL     OW28723   4.133   0.159   9.581 -0.4472 -0.2845  0.2206
 5754SOL    HW128724   4.093   0.195   9.502 -0.2218  0.5361  0.4800
 5754SOL    HW228725   4.225   0.185   9.578 -0.8092  0.7994 -1.3263
 5755SOL     OW28726   3.249   2.335   2.319  0.4785 -0.1057  0.1163
 5755SOL    HW128727   3.241   2.391   2.242 -0.3705 -1.3779 -0.7262
 5755SOL    HW228728   3.173   2.370   2.364  0.2168  1.5352 -1.6387
 5756SOL     OW28729   0.533   3.614   9.108  0.7622  0.1914  0.0552
 5756SOL    HW128730   0.458   3.596   9.052  0.5634 -0.3005  0.4870
 5756SOL    HW228731   0.513   3.545   9.170 -0.8055  0.4949 -0.1237
 5757SOL     OW28732   3.110   1.296   7.520 -0.0716 -0.1901  0.2790
 5757SOL    HW128733   3.053   1.290   7.444 -0.6466  1.1652  0.5990
 5757SOL    HW228734   3.152   1.382   7.509  0.3191 -0.3489  0.5169
 5758SOL     OW28735   1.033   0.624   4.528  0.0305 -0.5303  0.3919
 5758SOL    HW128736   1.008   0.543   4.484 -0.7653 -0.4358  0.6756
 5758SOL    HW228737   1.080   0.674   4.462  0.9506 -1.1568  0.5659
 5759SOL     OW28738   3.897   0.791   3.580  0.4259 -0.0012 -0.5772
 5759SOL    HW128739   3.841   0.862   3.547  1.1874  0.7619 -0.2255
 5759SOL    HW228740   3.912   0.821   3.669 -2.2423  1.0834 -0.4863
 5760SOL     OW28741   4.663   1.342   5.175 -0.2727 -0.2507 -0.2167
 5760SOL    HW128742   4.647   1.416   5.117 -4.7977 -1.0436  0.0275
 5760SOL    HW228743   4.606   1.282   5.127  0.5352 -2.4256  1.5259
 5761SOL     OW28744   1.324   3.761   8.384 -0.2498  0.4100 -0.4169
 5761SOL    HW128745   1.337   3.802   8.470  2.4612  1.9634 -1.5707
 5761SOL    HW228746   1.271   3.683   8.398  1.6318 -0.7964  0.0593
 5762SOL     OW28747   2.502   0.582   5.555 -0.3437  0.2009  0.2989
 5762SOL    HW128748   2.556   0.554   5.628  0.8341 -1.5867 -1.2759
 5762SOL    HW228749   2.491   0.677   5.568 -1.2444  0.2978 -1.0553
 5763SOL     OW28750   2.709   1.132   0.847  0.1422 -0.2281  0.1784
 5763SOL    HW128751   2.675   1.219   0.828  0.5212  0.1020  1.0048
 5763SOL    HW228752   2.650   1.073   0.801 -0.2985 -1.3079  2.0964
 5764SOL     OW28753   3.877   2.183   7.670  0.5081 -0.2668  0.9517
 5764SOL    HW128754   3.942   2.242   7.708  2.6223 -1.7880 -0.3265
 5764SOL    HW228755   3.921   2.098   7.680 -0.6705 -1.2338 -2.2675
 5765SOL     OW28756   2.301   4.164   8.415  0.8156  0.1753  0.6219
 5765SOL    HW128757   2.297   4.192   8.507  1.2437 -0.4063  0.8258
 5765SOL    HW228758   2.293   4.251   8.377  0.5647 -0.8045 -1.5640
 5766SOL     OW28759   4.259   4.214  16.107 -0.9407  0.3392 -0.1743
 5766SOL    HW128760   4.235   4.136  16.157  1.7674 -1.0611 -1.0736
 5766SOL    HW228761   4.347   4.193  16.076 -0.6011  1.1730  0.2028
 5767SOL     OW28762   0.246   1.474   2.137 -0.1400  0.0884  0.7405
 5767SOL    HW128763   0.192   1.416   2.084 -0.0435 -0.5522  1.3439
 5767SOL    HW228764   0.237   1.418   2.214  0.8195 -1.3355 -0.1801
 5768SOL     OW28765   2.791   1.483   8.247  0.1143 -0.3272  0.1514
 5768SOL    HW128766   2.729   1.462   8.317  0.7084 -2.3764  0.0412
 5768SOL    HW228767   2.758   1.438   8.170  1.5591 -1.1958  0.0510
 5769SOL     OW28768   1.952   1.117  16.658  0.1331 -0.2560  0.1971
 5769SOL    HW128769   2.012   1.045  16.681 -0.7001 -0.5822  1.3391
 5769SOL    HW228770   1.925   1.159  16.739  0.5585 -0.7907  0.6225
 5770SOL     OW28771   1.183   4.600   3.551  0.1796 -0.4410  0.2527
 5770SOL    HW128772   1.101   4.648   3.540  0.9844  1.0188  0.6025
 5770SOL    HW228773   1.199   4.640   3.637 -1.5534  0.2977  0.2208
 5771SOL     OW28774   2.124   2.340   3.615 -0.3579  0.1008 -0.5865
 5771SOL    HW128775   2.107   2.296   3.698 -0.9938  0.7076 -0.3929
 5771SOL    HW228776   2.207   2.382   3.638  0.8255 -3.1392  1.0289
 5772SOL     OW28777   4.276   3.276   4.248  0.7789 -0.2293 -0.1692
 5772SOL    HW128778   4.230   3.321   4.177  0.5552 -1.1629 -0.6111
 5772SOL    HW228779   4.335   3.347   4.275 -0.7566 -0.1694  3.0109
 5773SOL     OW28780   3.210   3.304   7.626  0.2733  0.2119 -0.0822
 5773SOL    HW128781   3.256   3.375   7.671  0.7038 -0.5004  0.6148
 5773SOL    HW228782   3.180   3.250   7.700  0.0141  1.1010  0.4627
 5774SOL     OW28783   3.403   4.210  17.247 -0.0981 -0.1469  0.0777
 5774SOL    HW128784   3.409   4.232  17.154  0.0338 -1.0299 -0.1222
 5774SOL    HW228785   3.314   4.238  17.266  0.2554  1.3005 -0.4158
 5775SOL     OW28786   0.698   0.922   9.805 -0.5198  0.0629 -0.5796
 5775SOL    HW128787   0.710   0.949   9.896 -1.9057 -0.2679 -0.3046
 5775SOL    HW228788   0.738   0.998   9.763 -0.0344 -0.9512 -1.9298
 5776SOL     OW28789   2.364   0.948   2.220 -0.0557 -0.0507  0.0238
 5776SOL    HW128790   2.278   0.933   2.258 -0.3190  0.7330 -0.2591
 5776SOL    HW228791   2.368   0.870   2.165  1.4513  0.9597 -1.3094
 5777SOL     OW28792   1.960   1.737   4.700  0.4399  0.1051 -0.0831
 5777SOL    HW128793   2.017   1.799   4.746 -2.4741  1.2952  1.9617
 5777SOL    HW228794   2.016   1.661   4.684  0.9595  0.5162 -0.2038
 5778SOL     OW28795   1.254   4.577   5.816  0.0345 -0.7241 -0.5818
 5778SOL    HW128796   1.234   4.652   5.872  0.8349 -0.7978 -0.2040
 5778SOL    HW228797   1.349   4.574   5.825 -0.3514 -2.2378  2.9477
 5779SOL     OW28798   0.422   3.201   9.387  0.1862 -0.9565  0.0870
 5779SOL    HW128799   0.515   3.190   9.369 -0.1757  0.9224 -3.0195
 5779SOL    HW228800   0.423   3.218   9.481  2.1470  1.1808 -0.3166
 5780SOL     OW28801   1.315   1.282   2.585  0.3671  0.1240 -0.0174
 5780SOL    HW128802   1.222   1.276   2.567  0.3973 -0.6708  0.1012
 5780SOL    HW228803   1.320   1.239   2.670  2.0640 -0.0617 -0.2038
 5781SOL     OW28804   2.893   3.993  12.760 -0.7071 -0.2203 -0.6853
 5781SOL    HW128805   2.847   3.976  12.842 -1.5849 -2.9630 -1.7454
 5781SOL    HW228806   2.943   3.915  12.736 -1.0604 -1.7032  3.4541
 5782SOL     OW28807   4.024   2.226   4.377  0.2896  0.4977  0.6731
 5782SOL    HW128808   4.028   2.135   4.407  1.0969  0.1981 -0.3249
 5782SOL    HW228809   4.113   2.254   4.398  0.2212 -0.1502  1.8018
 5783SOL     OW28810   0.607   3.046   4.094 -0.9749 -0.3831  0.8855
 5783SOL    HW128811   0.654   3.120   4.054  1.3660 -2.5375 -0.3132
 5783SOL    HW228812   0.628   2.967   4.045  0.6304 -0.4518  1.7076
 5784SOL     OW28813   4.260   3.945   2.049 -0.6906  0.4291 -0.2138
 5784SOL    HW128814   4.223   3.969   1.964 -1.3576  1.0697  0.2562
 5784SOL    HW228815   4.298   3.861   2.023 -2.1677 -0.3231  0.0978
 5785SOL     OW28816   2.684   0.775  12.525  0.7785 -0.3768  0.3902
 5785SOL    HW128817   2.747   0.804  12.590  1.2386 -2.1480  0.7247
 5785SOL    HW228818   2.605   0.776  12.579  0.2266 -4.4671 -0.3463
 5786SOL     OW28819   1.526   2.990   2.840 -0.2804 -0.0930  0.0416
 5786SOL    HW128820   1.444   3.022   2.803  0.2196  1.8573  0.6240
 5786SOL    HW228821   1.510   2.998   2.934  0.0467 -1.9418  0.2536
 5787SOL     OW28822   0.734   4.383   7.614  0.1037 -0.1798 -1.1333
 5787SOL    HW128823   0.660   4.408   7.670  1.4854 -0.8502  0.9589
 5787SOL    HW228824   0.738   4.288   7.620 -0.0542 -0.0442  1.1546
 5788SOL     OW28825   3.093   2.524   6.336  0.1581  0.4179  0.3525
 5788SOL    HW128826   3.141   2.446   6.361 -1.1899  0.0430  1.7615
 5788SOL    HW228827   3.154   2.554   6.268  1.1487 -2.1864  0.1191
 5789SOL     OW28828   0.948   0.428   3.587  0.2369 -0.3952 -0.8709
 5789SOL    HW128829   1.013   0.482   3.543  0.1673  2.6770  2.8398
 5789SOL    HW228830   0.951   0.468   3.673 -0.4112 -0.0574 -1.0039
 5790SOL     OW28831   4.214   0.412  15.942 -0.2347 -0.0344 -0.6503
 5790SOL    HW128832   4.280   0.469  15.980  0.7202 -1.0599 -0.7735
 5790SOL    HW228833   4.139   0.470  15.932 -0.3371 -0.0648 -0.0629
 5791SOL     OW28834   2.365   2.172   2.637 -0.2723  0.5666  0.4331
 5791SOL    HW128835   2.315   2.096   2.605 -0.0532  0.3659  0.5629
 5791SOL    HW228836   2.305   2.246   2.636 -1.6997 -0.5932 -0.0671
 5792SOL     OW28837   2.317   2.256  17.224 -0.1309 -0.2162 -0.0923
 5792SOL    HW128838   2.342   2.305  17.146 -0.6815 -2.0083 -1.3792
 5792SOL    HW228839   2.318   2.327  17.289 -0.1137 -0.5313  0.2488
 5793SOL     OW28840   1.488   0.972   3.275  0.8618  0.3767 -0.3504
 5793SOL    HW128841   1.440   1.038   3.324 -1.2873 -0.5544 -1.2271
 5793SOL    HW228842   1.552   0.942   3.340  0.5133 -1.0350 -0.6632
 5794SOL     OW28843   3.802   1.455   7.722  0.1433  0.2046  0.5680
 5794SOL    HW128844   3.734   1.388   7.710  0.4214 -0.1421  0.9052
 5794SOL    HW228845   3.871   1.424   7.664 -0.6660 -0.8602  0.1534
 5795SOL     OW28846   0.134   1.151   5.199  0.0956 -0.0369  0.0215
 5795SOL    HW128847   0.067   1.220   5.196 -2.4453 -2.3574  2.9217
 5795SOL    HW228848   0.157   1.150   5.292 -1.6113  2.1091  0.4762
 5796SOL     OW28849   3.281   4.236  16.211  0.4216  0.1953  0.1133
 5796SOL    HW128850   3.320   4.284  16.284  0.4749 -0.4171  0.4930
 5796SOL    HW228851   3.287   4.149  16.250  1.6676  0.5768  0.7697
 5797SOL     OW28852   0.335   1.770  16.532 -0.2618  0.3710 -0.8129
 5797SOL    HW128853   0.276   1.708  16.575  2.9439 -1.5750  0.7939
 5797SOL    HW228854   0.419   1.739  16.565 -0.5996 -0.0363 -0.3356
 5798SOL     OW28855   0.728   1.772   8.058  0.1402 -0.0521  0.1996
 5798SOL    HW128856   0.769   1.687   8.074 -0.5086 -0.3309  0.3749
 5798SOL    HW228857   0.716   1.787   8.152  1.0030  0.8607  0.1626
 5799SOL     OW28858   3.869   2.444   7.068 -0.4077  0.2826  0.1842
 5799SOL    HW128859   3.959   2.475   7.078 -0.7530  0.9587  1.1720
 5799SOL    HW228860   3.866   2.360   7.115  0.8900  0.5637  0.7532
 5800SOL     OW28861   0.403   3.046   2.587 -0.0820  0.4458 -0.3703
 5800SOL    HW128862   0.360   3.109   2.645 -0.2231  2.2779 -2.4706
 5800SOL    HW228863   0.342   3.057   2.514 -1.6467 -0.5388  0.7778
 5801SOL     OW28864   3.454   2.019   1.545  0.1678 -0.0173  0.2846
 5801SOL    HW128865   3.413   1.965   1.477  0.0422 -0.5081  0.7497
 5801SOL    HW228866   3.384   2.064   1.591 -2.1225 -0.9311 -2.2852
 5802SOL     OW28867   4.580   2.177  15.694 -0.5828 -0.2437  0.2404
 5802SOL    HW128868   4.605   2.147  15.781  1.2961 -0.3832 -0.3494
 5802SOL    HW228869   4.656   2.223  15.659 -0.1078 -0.6489  0.7485
 5803SOL     OW28870   3.257   2.590   7.609 -0.4462 -0.4253  0.1525
 5803SOL    HW128871   3.261   2.593   7.513  0.7137  0.6909  0.2320
 5803SOL    HW228872   3.174   2.556   7.642 -1.4204  0.0815 -1.8034
 5804SOL     OW28873   2.386   2.784   6.094  0.5928  0.3699  0.0697
 5804SOL    HW128874   2.381   2.735   6.012 -1.9021  0.7508 -0.0106
 5804SOL    HW228875   2.437   2.719   6.142  0.1097 -0.6988 -0.8594
 5805SOL     OW28876   0.045   1.592  16.596 -0.2980 -0.0393 -0.3316
 5805SOL    HW128877   0.014   1.517  16.546 -0.6373 -1.3743  1.9027
 5805SOL    HW228878   0.042   1.553  16.683 -1.4503  1.3079  0.2299
 5806SOL     OW28879   2.279   4.063   1.380 -0.5517 -0.2166 -0.0789
 5806SOL    HW128880   2.294   3.971   1.358  0.8063 -0.2103  0.8822
 5806SOL    HW228881   2.183   4.073   1.385 -0.4072  1.6664 -1.0099
 5807SOL     OW28882   0.085   0.827  11.765 -0.8301 -0.1477  0.0921
 5807SOL    HW128883   0.145   0.888  11.724 -1.9392  0.1511 -1.0905
 5807SOL    HW228884   0.022   0.811  11.695  1.1259 -0.5588 -1.5671
 5808SOL     OW28885   0.821   4.229   6.958 -0.3551  0.3178 -0.0644
 5808SOL    HW128886   0.732   4.216   6.988 -0.2960 -0.5753 -0.2887
 5808SOL    HW228887   0.839   4.314   7.000  1.8167 -0.5293  0.7333
 5809SOL     OW28888   3.017   2.763   0.212 -0.8082 -0.4417  0.2170
 5809SOL    HW128889   3.038   2.800   0.127 -1.5350  0.5882  0.4824
 5809SOL    HW228890   3.106   2.756   0.245 -0.5690 -1.9670 -0.7726
 5810SOL     OW28891   3.814   0.109   8.620  0.3265  0.1713 -0.0596
 5810SOL    HW128892   3.808   0.128   8.714 -0.4690  0.0618 -0.0898
 5810SOL    HW228893   3.741   0.164   8.591 -0.6387 -0.7650  0.5890
 5811SOL     OW28894   3.284   4.353   0.236 -0.2419 -0.5237  0.3221
 5811SOL    HW128895   3.191   4.335   0.244 -0.6154  0.6977 -1.1228
 5811SOL    HW228896   3.316   4.294   0.303 -0.9669 -1.6252 -0.3084
 5812SOL     OW28897   4.147   1.787   1.008  0.0846 -0.0847 -0.1888
 5812SOL    HW128898   4.123   1.719   1.071  2.0126  0.3682  1.0315
 5812SOL    HW228899   4.173   1.860   1.064  1.1510 -1.4015  1.0155
 5813SOL     OW28900   1.423   2.398   6.324  0.1772 -0.2045  0.0576
 5813SOL    HW128901   1.435   2.435   6.411  1.2041  0.1228 -0.2248
 5813SOL    HW228902   1.486   2.326   6.331 -0.9562 -1.2737 -0.5964
 5814SOL     OW28903   2.480   2.099   5.761  0.0133  0.3013  0.1451
 5814SOL    HW128904   2.509   2.190   5.762 -2.3601  1.0909 -1.0934
 5814SOL    HW228905   2.502   2.064   5.847  2.6707  1.3065 -0.1295
 5815SOL     OW28906   0.118   3.152   6.876  0.1274  0.3783 -0.4148
 5815SOL    HW128907   0.125   3.146   6.972 -0.8115 -3.2361 -0.5946
 5815SOL    HW228908   0.183   3.219   6.853  1.0875 -0.3329  0.2006
 5816SOL     OW28909   0.017   1.256   7.941 -1.2234  0.0738  0.0107
 5816SOL    HW128910   0.031   1.332   7.998 -1.0533  0.1195 -0.0909
 5816SOL    HW228911   0.021   1.287   7.851  0.2298 -0.9012 -0.2610
 5817SOL     OW28912   4.688   2.649  15.219 -0.0774  0.5616  0.3637
 5817SOL    HW128913   0.008   2.598  15.284 -0.2261 -2.1947 -1.6519
 5817SOL    HW228914   0.034   2.693  15.179 -2.4257  2.9509 -1.3320
 5818SOL     OW28915   4.709   2.152   7.632  0.2849  0.6848  0.3666
 5818SOL    HW128916   4.668   2.104   7.561 -0.0658  0.5312  0.6715
 5818SOL    HW228917   4.720   2.088   7.703 -0.2725  1.0511  0.7870
 5819SOL     OW28918   1.708   1.456   1.353  0.5663 -0.7395  0.0108
 5819SOL    HW128919   1.630   1.432   1.403  0.8900  0.9907  1.3586
 5819SOL    HW228920   1.749   1.371   1.339  2.7928  0.2074  0.7250
 5820SOL     OW28921   2.518   4.495  16.951 -0.0471  0.0636 -0.7939
 5820SOL    HW128922   2.553   4.518  16.865  0.4004  0.9348 -0.3710
 5820SOL    HW228923   2.584   4.427  16.968 -0.4601  0.2527  1.5356
 5821SOL     OW28924   2.823   3.139   1.872  0.1575 -0.4008 -0.1955
 5821SOL    HW128925   2.768   3.184   1.808 -0.2490  1.7946  1.7257
 5821SOL    HW228926   2.866   3.066   1.826  0.3534 -0.4981  0.1444
 5822SOL     OW28927   1.185   1.389   8.632  0.3092  0.0721  0.5349
 5822SOL    HW128928   1.278   1.412   8.632  0.3353 -0.0733 -2.9212
 5822SOL    HW228929   1.182   1.297   8.656  1.8209 -1.0387 -3.5963
 5823SOL     OW28930   0.441   0.408  11.975  0.6005  0.1224 -0.4202
 5823SOL    HW128931   0.421   0.484  11.920  0.7794 -0.6275 -1.5234
 5823SOL    HW228932   0.482   0.442  12.054  0.0106  1.9791 -0.9249
 5824SOL     OW28933   0.021   2.355   3.542 -0.9976  0.7514  0.6180
 5824SOL    HW128934   0.110   2.364   3.510 -1.1459  0.5920  0.1598
 5824SOL    HW228935   0.005   2.261   3.555 -0.3775  0.8305  1.9179
 5825SOL     OW28936   0.230   4.459  14.735  0.8390 -0.1292  0.1595
 5825SOL    HW128937   0.223   4.363  14.732  0.2004 -0.1578  2.2425
 5825SOL    HW228938   0.216   4.489  14.645  0.4085  0.2611  0.3549
 5826SOL     OW28939   4.478   0.835   8.439  0.0621  0.5507 -0.4032
 5826SOL    HW128940   4.384   0.850   8.426  0.3185  2.0583 -0.5158
 5826SOL    HW228941   4.499   0.877   8.523 -2.3917  0.7666  0.1102
 5827SOL     OW28942   1.650   1.579   3.243 -0.1376 -0.0532 -0.2763
 5827SOL    HW128943   1.558   1.553   3.241 -0.2033  0.0297  1.8323
 5827SOL    HW228944   1.678   1.570   3.152  1.2278 -3.0929  0.4498
 5828SOL     OW28945   4.526   1.272  11.125  0.3133 -0.0159 -0.7559
 5828SOL    HW128946   4.598   1.330  11.100 -1.1585  1.5632 -1.3214
 5828SOL    HW228947   4.451   1.321  11.092  0.5133 -0.0421 -1.2512
 5829SOL     OW28948   2.610   0.071   1.795 -0.5017 -0.0481  0.1892
 5829SOL    HW128949   2.531   0.086   1.743 -0.0831 -2.7410 -1.2106
 5829SOL    HW228950   2.679   0.107   1.739  1.4508  0.6192  3.0783
 5830SOL     OW28951   4.547   3.652   7.344  0.0530 -0.4291 -0.3972
 5830SOL    HW128952   4.518   3.706   7.271 -2.3221 -1.8194 -0.4729
 5830SOL    HW228953   4.640   3.657   7.321  0.1743 -0.0383  0.1607
 5831SOL     OW28954   4.221   1.228  11.287 -0.0995  0.4807  0.2916
 5831SOL    HW128955   4.313   1.241  11.307  0.0455 -0.8662  0.4713
 5831SOL    HW228956   4.201   1.306  11.235  0.9929  0.9576  0.5969
 5832SOL     OW28957   3.199   1.626   4.441  0.4619 -0.3055 -0.1979
 5832SOL    HW128958   3.174   1.598   4.353  1.5507  0.9023 -0.8975
 5832SOL    HW228959   3.147   1.706   4.443  0.1129 -0.5514  0.4263
 5833SOL     OW28960   2.721   2.464   7.856  0.3986 -0.5629 -0.1988
 5833SOL    HW128961   2.683   2.534   7.908  0.1066  0.0314 -1.2071
 5833SOL    HW228962   2.807   2.473   7.897  0.4088 -0.2617 -0.2895
 5834SOL     OW28963   0.702   4.324  15.935  0.4762 -0.3980 -0.1335
 5834SOL    HW128964   0.797   4.322  15.940  0.5625  0.2180 -1.6337
 5834SOL    HW228965   0.707   4.260  15.864  2.1154  1.3838 -1.6182
 5835SOL     OW28966   4.591   2.902  16.616  0.3117 -0.0686  0.1908
 5835SOL    HW128967   4.590   2.810  16.642 -0.6939  0.4189  1.8664
 5835SOL    HW228968   4.659   2.935  16.676  0.1500 -0.3567  0.5336
 5836SOL     OW28969   2.283   3.946  15.677  0.1161  0.1839 -0.1061
 5836SOL    HW128970   2.314   3.936  15.767  0.4545 -3.2311 -0.5870
 5836SOL    HW228971   2.241   3.861  15.666 -1.5691  0.9028  0.7780
 5837SOL     OW28972   1.626   2.710  14.165 -0.0766 -0.0469  0.0676
 5837SOL    HW128973   1.621   2.705  14.260 -4.2970  0.2184 -0.1026
 5837SOL    HW228974   1.701   2.769  14.157  1.7063 -2.4096 -0.3825
 5838SOL     OW28975   1.257   0.259   4.880 -0.0197  0.1359  0.3442
 5838SOL    HW128976   1.164   0.254   4.855  0.7354  1.0553 -2.7070
 5838SOL    HW228977   1.289   0.186   4.827  0.0032  1.5384 -1.5911
 5839SOL     OW28978   0.934   1.841  11.354  0.2977 -0.2190  0.1672
 5839SOL    HW128979   0.842   1.852  11.329  0.3351  0.6942  0.4288
 5839SOL    HW228980   0.952   1.757  11.312  2.8947  0.2778  0.2989
 5840SOL     OW28981   1.794   1.858  11.136 -0.1394  0.8827 -0.3335
 5840SOL    HW128982   1.739   1.928  11.171 -0.2738 -1.4235  4.1271
 5840SOL    HW228983   1.876   1.907  11.129  0.5384  0.2512  3.1396
 5841SOL     OW28984   3.208   4.168   7.394 -0.2137 -0.1605  0.5032
 5841SOL    HW128985   3.112   4.164   7.392 -0.1212 -2.4840  0.0271
 5841SOL    HW228986   3.226   4.189   7.302  0.2376  0.9293  0.8453
 5842SOL     OW28987   2.976   1.226   0.409  0.4139  0.2135 -0.6457
 5842SOL    HW128988   3.062   1.222   0.366 -0.1559 -0.3071 -1.7225
 5842SOL    HW228989   2.987   1.309   0.456 -0.8017 -0.8362  1.4891
 5843SOL     OW28990   1.627   2.764  17.184 -0.3199 -0.1778  0.1560
 5843SOL    HW128991   1.633   2.768  17.089  1.9482 -2.1664  0.2264
 5843SOL    HW228992   1.719   2.785  17.199  0.7800 -3.3879 -1.9978
 5844SOL     OW28993   0.833   0.940   0.788  0.2540 -0.4433 -0.3065
 5844SOL    HW128994   0.773   0.881   0.743 -1.2187  0.5200  0.4016
 5844SOL    HW228995   0.785   0.951   0.870 -1.4146 -0.0734 -1.3322
 5845SOL     OW28996   2.538   2.590  15.187 -0.2391  0.5721 -0.1470
 5845SOL    HW128997   2.484   2.541  15.125 -0.8103  0.8586  0.1308
 5845SOL    HW228998   2.617   2.602  15.135  0.4971 -0.6246  0.6773
 5846SOL     OW28999   4.047   1.610   6.867  0.5745  0.8573  0.3195
 5846SOL    HW129000   3.964   1.615   6.913 -0.5307  0.6030 -1.6365
 5846SOL    HW229001   4.047   1.520   6.836  2.4454  1.3340 -1.1029
 5847SOL     OW29002   3.502   1.916   0.456  0.2991  0.1234  0.0769
 5847SOL    HW129003   3.445   1.983   0.418 -1.5355 -1.5698 -0.1017
 5847SOL    HW229004   3.554   1.887   0.381 -0.9930 -2.5455  0.2334
 5848SOL     OW29005   3.511   3.883   6.968 -0.4437 -0.1349 -0.0255
 5848SOL    HW129006   3.543   3.927   6.890  2.4058  0.9953  1.7733
 5848SOL    HW229007   3.587   3.897   7.024 -1.0690 -1.4583  1.1695
 5849SOL     OW29008   1.729   3.464   3.499  0.0235 -0.2508 -0.4331
 5849SOL    HW129009   1.677   3.544   3.495 -2.1056 -1.7170 -2.3603
 5849SOL    HW229010   1.808   3.503   3.536 -1.3986  0.0631  2.2624
 5850SOL     OW29011   1.150   1.349   5.933  0.2740 -0.2246 -0.4418
 5850SOL    HW129012   1.218   1.353   6.000  1.0443  0.1111 -1.2451
 5850SOL    HW229013   1.120   1.258   5.939 -1.0027  0.1024 -1.6947
 5851SOL     OW29014   0.973   1.775   1.034 -0.0131 -0.2562 -0.4123
 5851SOL    HW129015   1.003   1.813   0.951 -0.3906 -1.1497 -0.9485
 5851SOL    HW229016   1.052   1.787   1.087 -0.1676  3.6885 -1.0159
 5852SOL     OW29017   0.491   3.704   4.666 -0.6122  0.3442  0.6338
 5852SOL    HW129018   0.530   3.771   4.722  0.6832 -0.6851  0.9576
 5852SOL    HW229019   0.460   3.741   4.583 -0.9338 -1.4053 -0.0318
 5853SOL     OW29020   2.518   3.465   7.632 -0.2138 -0.0791 -0.0185
 5853SOL    HW129021   2.426   3.466   7.658 -0.2483 -2.1105 -0.0420
 5853SOL    HW229022   2.557   3.445   7.717 -1.2311  0.4811  0.5780
 5854SOL     OW29023   0.021   4.054   4.507  0.2382 -0.2284 -0.2058
 5854SOL    HW129024   4.717   4.143   4.491 -0.3651 -0.6046 -1.0578
 5854SOL    HW229025   0.108   4.073   4.543 -0.5562 -2.4693  2.8800
 5855SOL     OW29026   3.352   1.536  11.477  0.0979  0.3558 -0.5146
 5855SOL    HW129027   3.334   1.443  11.492 -0.0792  0.6258  0.9445
 5855SOL    HW229028   3.442   1.539  11.444 -0.1431 -2.8722 -1.4367
 5856SOL     OW29029   3.156   0.531   3.779 -0.2725 -0.2098 -0.6523
 5856SOL    HW129030   3.086   0.475   3.744 -2.0953  1.8776 -0.3772
 5856SOL    HW229031   3.228   0.485   3.736 -1.5381 -2.9258  0.1088
 5857SOL     OW29032   1.272   1.868  11.581 -0.3261 -0.3001  0.4529
 5857SOL    HW129033   1.279   1.791  11.637 -1.5878 -0.1488  0.8112
 5857SOL    HW229034   1.316   1.940  11.627 -0.1828  0.3147 -0.6479
 5858SOL     OW29035   0.379   2.008   7.838  0.4494  0.2540  0.4362
 5858SOL    HW129036   0.366   1.951   7.914 -2.9352  0.2215 -0.1881
 5858SOL    HW229037   0.466   2.046   7.849 -0.6246  2.5537  0.9951
 5859SOL     OW29038   2.140   0.262  14.702 -0.1497  0.5604 -0.3437
 5859SOL    HW129039   2.057   0.263  14.656 -0.1173 -0.2749 -0.4156
 5859SOL    HW229040   2.202   0.280  14.631  0.1505 -1.1335 -0.5107
 5860SOL     OW29041   2.144   1.808   6.336  0.0876 -0.0225 -0.1215
 5860SOL    HW129042   2.086   1.791   6.263 -0.9036 -1.1915  0.9504
 5860SOL    HW229043   2.082   1.787   6.406 -1.2696  0.6929 -1.1236
 5861SOL     OW29044   1.901   3.105   5.928  0.3626  0.0495  0.8966
 5861SOL    HW129045   1.943   3.019   5.933 -0.2496 -0.2850  0.3696
 5861SOL    HW229046   1.980   3.157   5.943  0.0850  1.5686 -2.9358
 5862SOL     OW29047   1.386   0.629  17.136 -0.1922 -0.0883  0.7294
 5862SOL    HW129048   1.398   0.623  17.041 -1.6540 -0.6215  0.5729
 5862SOL    HW229049   1.448   0.564  17.169 -1.1165 -1.0275  0.6206
 5863SOL     OW29050   4.685   2.555  10.794 -0.0559  0.5442 -0.7400
 5863SOL    HW129051   4.659   2.591  10.879  0.2105 -1.5893  0.2386
 5863SOL    HW229052   4.605   2.510  10.770  0.9653 -0.7018 -1.7908
 5864SOL     OW29053   2.257   1.946   3.543  0.2508  0.3479 -0.4861
 5864SOL    HW129054   2.258   1.868   3.487  2.2068  1.0519 -1.4412
 5864SOL    HW229055   2.221   2.011   3.483 -0.7461 -0.1852 -0.4719
 5865SOL     OW29056   1.978   2.776   6.631 -0.1434  0.2490  0.4801
 5865SOL    HW129057   1.916   2.804   6.698 -0.2219  0.0162  0.5057
 5865SOL    HW229058   1.929   2.774   6.548 -0.2003 -0.0067  0.5198
 5866SOL     OW29059   1.511   4.452   6.694  0.9008  0.2135  0.3514
 5866SOL    HW129060   1.431   4.411   6.661 -0.1095  2.2961  0.1872
 5866SOL    HW229061   1.468   4.497   6.767  0.6588 -0.1910  0.4588
 5867SOL     OW29062   0.249   4.037  17.242  0.1039 -0.5985  0.6185
 5867SOL    HW129063   0.251   3.993  17.327 -0.6427 -1.3311  0.2556
 5867SOL    HW229064   0.307   3.977  17.194  1.1983  0.2111  0.9287
 5868SOL     OW29065   4.547   2.459   3.885 -0.3570  0.2983  0.1522
 5868SOL    HW129066   4.456   2.455   3.916 -0.5529 -0.6460 -0.5643
 5868SOL    HW229067   4.536   2.445   3.791 -1.0031 -1.0480  0.4365
 5869SOL     OW29068   2.076   4.007   1.076  0.2827 -0.0978 -0.4795
 5869SOL    HW129069   2.088   4.020   1.170 -2.0613  1.2325 -0.3639
 5869SOL    HW229070   2.006   3.943   1.065  3.1534 -3.2408 -0.3872
 5870SOL     OW29071   0.464   4.496  12.909 -0.5294 -0.1315 -0.4543
 5870SOL    HW129072   0.513   4.564  12.954 -1.4080 -1.7223  2.8542
 5870SOL    HW229073   0.510   4.415  12.932 -2.3891 -0.6893  1.2271
 5871SOL     OW29074   3.324   2.977   7.349  0.8469  0.0204 -0.1898
 5871SOL    HW129075   3.245   2.944   7.392  1.0449  0.4959  0.5331
 5871SOL    HW229076   3.368   3.019   7.423 -1.1893  2.4732 -0.3826
 5872SOL     OW29077   4.662   0.606   4.027  0.2941  0.1998  0.0753
 5872SOL    HW129078   4.669   0.533   3.966 -1.1797  1.6355 -1.8430
 5872SOL    HW229079   0.028   0.608   4.035  0.4051 -1.9755 -0.8584
 5873SOL     OW29080   2.770   3.850   9.006 -0.6027  0.1261  0.0205
 5873SOL    HW129081   2.743   3.844   8.915 -0.4894  0.5194 -0.0387
 5873SOL    HW229082   2.804   3.762   9.020  1.0959  0.4977 -1.9346
 5874SOL     OW29083   1.571   3.909  12.465 -0.7157  0.0796  0.5892
 5874SOL    HW129084   1.557   3.822  12.427 -2.0898 -0.3428  2.0764
 5874SOL    HW229085   1.582   3.891  12.558 -2.1864 -2.7448  0.2107
 5875SOL     OW29086   2.632   1.054  11.172 -0.7496  0.0434  0.2352
 5875SOL    HW129087   2.701   1.121  11.177  1.3690 -2.0599 -0.7974
 5875SOL    HW229088   2.653   1.021  11.085 -0.6322  0.8063 -0.0267
 5876SOL     OW29089   1.437   1.265   0.134  0.2922 -0.1384 -0.6450
 5876SOL    HW129090   1.470   1.293   0.049  0.4534 -0.0929 -0.5669
 5876SOL    HW229091   1.365   1.210   0.104  1.0738 -2.3705  1.6142
 5877SOL     OW29092   1.945   4.588   3.107 -0.3807  0.3861  0.4928
 5877SOL    HW129093   2.039   4.607   3.109 -0.7904  2.4071  0.1559
 5877SOL    HW229094   1.922   4.590   3.014  2.4581  0.7714 -0.2124
 5878SOL     OW29095   1.291   4.265   8.698  0.1787 -0.1230  0.3401
 5878SOL    HW129096   1.283   4.274   8.793  0.7702  0.1870  0.3557
 5878SOL    HW229097   1.301   4.358   8.681  0.2645  0.2142  2.2259
 5879SOL     OW29098   0.372   1.204   5.935  0.3474  0.5447  0.0977
 5879SOL    HW129099   0.308   1.266   5.900 -1.5667 -1.3815  0.1936
 5879SOL    HW229100   0.387   1.224   6.028 -1.7137  2.1386  0.0849
 5880SOL     OW29101   4.109   2.688   3.160 -0.1301 -0.4185 -0.1262
 5880SOL    HW129102   4.088   2.671   3.068  0.2472  0.3144 -0.3478
 5880SOL    HW229103   4.180   2.752   3.159 -0.2887 -0.2109  2.8987
 5881SOL     OW29104   3.894   3.933   5.215  0.0744 -0.4766  0.0259
 5881SOL    HW129105   3.889   3.979   5.299  2.9502 -2.6128  1.3761
 5881SOL    HW229106   3.804   3.904   5.209  0.1329 -0.1183 -2.5396
 5882SOL     OW29107   1.711   0.331   4.349  0.5786 -0.7068 -0.1947
 5882SOL    HW129108   1.710   0.392   4.275 -0.6618  0.9318  1.1836
 5882SOL    HW229109   1.642   0.273   4.317 -0.6109  0.7012 -0.2047
 5883SOL     OW29110   2.808   0.402   5.366 -0.0029  0.5407 -0.4947
 5883SOL    HW129111   2.890   0.451   5.370 -0.6743  1.4861  1.7049
 5883SOL    HW229112   2.744   0.467   5.336 -0.2693  0.1952 -0.6730
 5884SOL     OW29113   0.658   2.080  15.812 -0.0598  0.0794  0.0293
 5884SOL    HW129114   0.620   2.165  15.790 -1.6476 -1.0431 -1.4516
 5884SOL    HW229115   0.702   2.060  15.730 -0.9268  2.1040 -0.9318
 5885SOL     OW29116   3.411   1.679   2.896 -0.2500 -0.1039  0.1482
 5885SOL    HW129117   3.427   1.586   2.909  2.2015  0.2973 -0.0479
 5885SOL    HW229118   3.498   1.718   2.889 -0.8205  1.3027  0.7955
 5886SOL     OW29119   2.052   1.140   5.650  0.0764  0.6750  0.2013
 5886SOL    HW129120   1.958   1.123   5.636  0.5406 -0.4027 -1.6357
 5886SOL    HW229121   2.084   1.050   5.650 -1.2808  0.1805 -0.2829
 5887SOL     OW29122   1.437   3.351   6.410  0.3543 -0.1872 -0.4829
 5887SOL    HW129123   1.509   3.400   6.451  0.2253  0.6546 -1.2599
 5887SOL    HW229124   1.365   3.399   6.450  0.5441 -1.1555  1.0330
 5888SOL     OW29125   3.780   1.367   8.126  0.3937 -0.4171  0.4709
 5888SOL    HW129126   3.737   1.444   8.163 -1.8865 -2.2875  1.7328
 5888SOL    HW229127   3.868   1.405   8.116 -0.6898  2.2717  1.0199
 5889SOL     OW29128   2.340   2.306   1.777  0.4854 -0.5062  0.1782
 5889SOL    HW129129   2.287   2.322   1.699  1.6475  0.1494 -0.4739
 5889SOL    HW229130   2.408   2.244   1.750 -1.1292 -2.0291 -0.3646
 5890SOL     OW29131   4.267   4.098   3.679 -0.4223 -0.4818 -0.1359
 5890SOL    HW129132   4.176   4.123   3.698 -0.0662 -0.4658  1.6204
 5890SOL    HW229133   4.311   4.142   3.752 -3.2247 -0.5002  1.5609
 5891SOL     OW29134   2.548   1.589   3.308 -0.1293  0.3773  0.0435
 5891SOL    HW129135   2.523   1.518   3.249  1.7504 -1.7696  1.8642
 5891SOL    HW229136   2.629   1.624   3.271 -0.0818 -1.1039 -1.2147
 5892SOL     OW29137   0.589   2.455   6.991 -0.0541 -0.2584  0.4201
 5892SOL    HW129138   0.519   2.484   6.932  0.9602  0.1020 -0.5967
 5892SOL    HW229139   0.544   2.445   7.076 -1.4574  3.5228  0.1291
 5893SOL     OW29140   1.980   3.612   8.386 -0.5064  0.3349  0.0989
 5893SOL    HW129141   1.965   3.611   8.481  1.3031 -3.3224  0.3501
 5893SOL    HW229142   2.072   3.587   8.385 -0.5732 -0.0820  2.4352
 5894SOL     OW29143   0.921   3.379   9.504 -0.1450 -0.6757 -0.1251
 5894SOL    HW129144   0.902   3.335   9.421  1.6727  0.1921 -1.0187
 5894SOL    HW229145   0.942   3.469   9.476  0.0564  0.0441  2.3673
 5895SOL     OW29146   4.515   2.936   7.323 -0.1756  0.1788  0.1268
 5895SOL    HW129147   4.424   2.963   7.323  0.2761  1.6701  1.2175
 5895SOL    HW229148   4.563   2.995   7.381  1.0125  2.0298 -2.7093
 5896SOL     OW29149   2.639   0.212   7.967  0.0368 -0.5276 -0.0609
 5896SOL    HW129150   2.731   0.237   7.964 -0.7209  2.4705  1.5804
 5896SOL    HW229151   2.605   0.290   8.011  2.1386  0.4908 -0.2407
 5897SOL     OW29152   1.864   3.622   0.379  0.5434 -0.0472  0.3404
 5897SOL    HW129153   1.832   3.701   0.336 -0.4767 -0.9320 -0.5192
 5897SOL    HW229154   1.956   3.642   0.362  1.2544 -2.2840  1.5430
 5898SOL     OW29155   3.281   2.021  14.349  0.8727  1.1237 -0.2879
 5898SOL    HW129156   3.247   1.986  14.266  3.8140 -0.9586 -0.6340
 5898SOL    HW229157   3.374   2.015  14.328  1.2624  0.9468  1.4697
 5899SOL     OW29158   1.392   4.221  15.181 -0.1040  0.4310 -0.5421
 5899SOL    HW129159   1.426   4.309  15.163  1.4107 -0.5782 -2.5590
 5899SOL    HW229160   1.462   4.194  15.240 -0.7266  0.5436  0.2491
 5900SOL     OW29161   4.259   1.445  13.093  0.2764 -0.0413  0.0081
 5900SOL    HW129162   4.277   1.525  13.044 -2.4099 -0.3711 -1.5817
 5900SOL    HW229163   4.266   1.379  13.023 -1.8198  1.8631 -2.0068
 5901SOL     OW29164   2.342   1.693   1.488 -0.2799  0.0889 -0.5921
 5901SOL    HW129165   2.318   1.716   1.398 -2.7310  2.4935  0.6778
 5901SOL    HW229166   2.262   1.653   1.522 -1.8355  0.5018 -3.6727
 5902SOL     OW29167   1.773   3.368  14.229 -0.0745  0.5025  0.3139
 5902SOL    HW129168   1.728   3.284  14.240 -1.0842  0.8221 -1.3215
 5902SOL    HW229169   1.699   3.428  14.218  0.4741  1.3155  1.1393
 5903SOL     OW29170   3.495   2.510   7.350 -0.4251 -0.7566  0.1714
 5903SOL    HW129171   3.461   2.586   7.303  0.7301 -0.3228  0.0337
 5903SOL    HW229172   3.585   2.529   7.376 -0.1960 -3.4742  1.4193
 5904SOL     OW29173   0.931   3.368   8.464  0.3914  0.1674  0.4852
 5904SOL    HW129174   0.916   3.396   8.554  1.7666 -0.2483  0.8460
 5904SOL    HW229175   0.881   3.286   8.466  1.6893 -0.6451 -0.5414
 5905SOL     OW29176   3.129   2.133   8.759  0.1839 -0.0525 -0.1421
 5905SOL    HW129177   3.099   2.195   8.826 -3.3009 -0.8920 -0.9244
 5905SOL    HW229178   3.065   2.064   8.776 -1.6145  1.3380 -1.2386
 5906SOL     OW29179   4.714   3.525   2.561  0.2144  0.9146  0.3249
 5906SOL    HW129180   0.060   3.466   2.550 -0.7818 -0.3613  0.3795
 5906SOL    HW229181   4.666   3.532   2.479  1.0950 -0.2862 -0.2976
 5907SOL     OW29182   4.385   4.232  15.831  0.2540  0.3873  0.4227
 5907SOL    HW129183   4.306   4.284  15.822 -0.0907  0.1411  1.9224
 5907SOL    HW229184   4.400   4.221  15.737 -2.2964 -1.1623  0.1901
 5908SOL     OW29185   4.100   2.295  12.164  0.0426  0.3796  0.4057
 5908SOL    HW129186   4.118   2.370  12.221  2.0019 -0.0970  0.4088
 5908SOL    HW229187   4.035   2.339  12.109  2.4466  1.1505 -1.7884
 5909SOL     OW29188   3.352   1.538   2.511 -0.0977 -0.3119  0.2314
 5909SOL    HW129189   3.350   1.511   2.419  3.3220 -2.5009  0.7825
 5909SOL    HW229190   3.308   1.458   2.540 -1.1273 -0.7581 -2.5563
 5910SOL     OW29191   0.505   1.586  12.913 -0.4988 -0.5328 -0.2831
 5910SOL    HW129192   0.490   1.666  12.964  1.2939 -1.0525  1.0523
 5910SOL    HW229193   0.550   1.626  12.838 -0.5503  0.3912  0.1775
 5911SOL     OW29194   0.439   1.329   1.231 -0.0574  0.7134 -0.0721
 5911SOL    HW129195   0.442   1.275   1.153  2.6132  3.4366 -1.8319
 5911SOL    HW229196   0.480   1.271   1.296  0.8284  1.5671  0.1210
 5912SOL     OW29197   3.367   0.280   2.916  0.3114 -0.3285  0.5045
 5912SOL    HW129198   3.337   0.370   2.905 -0.4534 -0.7765 -1.1931
 5912SOL    HW229199   3.408   0.287   3.002  0.1072  0.6847  0.5125
 5913SOL     OW29200   1.851   4.468   6.842 -0.3489  0.0584  0.1736
 5913SOL    HW129201   1.841   4.540   6.903 -0.5145  0.5339 -0.4146
 5913SOL    HW229202   1.797   4.402   6.886 -1.6396  3.2031  3.2527
 5914SOL     OW29203   0.541   3.433   5.038  0.4060 -0.5110 -0.4337
 5914SOL    HW129204   0.632   3.407   5.031  0.4467 -0.6814  0.7508
 5914SOL    HW229205   0.549   3.524   5.067  0.3216 -0.9595  0.9912
 5915SOL     OW29206   3.675   1.626   4.111 -0.1103 -0.6039  0.1190
 5915SOL    HW129207   3.601   1.636   4.172 -0.1354 -1.3202  0.1988
 5915SOL    HW229208   3.675   1.532   4.095 -3.7531 -0.3108 -1.5959
 5916SOL     OW29209   0.423   3.372   2.395  0.5582  0.0155 -0.1352
 5916SOL    HW129210   0.351   3.336   2.343  0.2144 -1.3911  1.3049
 5916SOL    HW229211   0.500   3.350   2.343  1.1762 -0.4896  1.0027
 5917SOL     OW29212   1.008   3.421   6.132 -0.2967 -0.5467  0.3104
 5917SOL    HW129213   0.915   3.441   6.123 -0.1519 -0.1982 -0.3519
 5917SOL    HW229214   1.036   3.455   6.047 -1.9913  1.3836  0.5408
 5918SOL     OW29215   1.797   2.690   3.921  0.1130  0.5645 -0.3165
 5918SOL    HW129216   1.857   2.757   3.954  0.8716  0.0721 -0.6961
 5918SOL    HW229217   1.808   2.609   3.971 -0.8646  1.5320  1.4908
 5919SOL     OW29218   3.270   4.288   2.160  0.1573  0.1634  0.5234
 5919SOL    HW129219   3.220   4.356   2.206 -1.0133 -0.1547 -0.2685
 5919SOL    HW229220   3.226   4.206   2.183  0.4117 -0.2672 -0.5606
 5920SOL     OW29221   2.178   2.003   7.725 -0.3724  0.5784  0.1709
 5920SOL    HW129222   2.193   2.029   7.816 -2.8170  0.0061  0.7207
 5920SOL    HW229223   2.106   2.059   7.697 -1.1529 -0.0198  1.0095
 5921SOL     OW29224   1.754   3.544   7.309 -0.1503 -0.1689  0.3176
 5921SOL    HW129225   1.808   3.490   7.251  1.8869  2.0400  0.1522
 5921SOL    HW229226   1.803   3.625   7.296  0.6252 -0.6690  0.1145
 5922SOL     OW29227   1.946   1.456   2.813 -0.1719 -0.9077 -0.1759
 5922SOL    HW129228   1.942   1.375   2.761  0.2225 -0.3824 -1.0192
 5922SOL    HW229229   1.890   1.518   2.767 -0.7368  0.0840  1.8375
 5923SOL     OW29230   0.000   0.819   0.310  0.3116 -0.5182  0.1448
 5923SOL    HW129231   0.055   0.897   0.309 -0.2031 -0.1409  1.1364
 5923SOL    HW229232   0.037   0.767   0.382 -0.6614 -2.5250 -0.7934
 5924SOL     OW29233   2.982   3.153   6.748 -0.0136  0.2104  0.0070
 5924SOL    HW129234   3.001   3.146   6.654 -1.1396 -3.0945  0.0436
 5924SOL    HW229235   2.996   3.061   6.771  0.0337  0.7356  2.0534
 5925SOL     OW29236   1.394   1.071  11.632 -0.0516 -1.1320  0.2568
 5925SOL    HW129237   1.466   1.011  11.648  1.3328  1.0559  2.1909
 5925SOL    HW229238   1.402   1.113  11.718  0.0775 -0.5534 -0.0340
 5926SOL     OW29239   1.965   3.834   3.705 -0.0086  0.1577  0.3190
 5926SOL    HW129240   2.058   3.816   3.716  0.1924  0.9819  0.0235
 5926SOL    HW229241   1.944   3.762   3.646 -0.5930  0.0964  0.5981
 5927SOL     OW29242   2.719   2.634   5.089  0.1837  0.7625 -0.3625
 5927SOL    HW129243   2.697   2.561   5.030  1.7010 -0.0604  0.0951
 5927SOL    HW229244   2.687   2.714   5.048  0.7243  1.1524 -0.0298
 5928SOL     OW29245   0.097   4.372   9.563 -0.3458  0.0374 -0.1993
 5928SOL    HW129246   0.119   4.279   9.567 -1.9120 -0.4123 -1.8276
 5928SOL    HW229247   0.079   4.386   9.656  0.8643 -0.9941  0.1758
 5929SOL     OW29248   3.457   4.559  12.677  0.6286 -0.4586  0.0419
 5929SOL    HW129249   3.413   4.511  12.748 -0.3938 -0.1032 -0.3426
 5929SOL    HW229250   3.517   4.612  12.729 -0.2228  1.6366 -1.1071
 5930SOL     OW29251   4.615   1.571  11.654  0.1370  0.3795  0.2685
 5930SOL    HW129252   4.539   1.514  11.658  0.6910 -0.4757 -1.1066
 5930SOL    HW229253   4.682   1.516  11.612 -0.0819 -2.7850  4.0715
 5931SOL     OW29254   4.174   0.154  16.018 -0.4162  0.2316  0.4398
 5931SOL    HW129255   4.269   0.141  16.009 -0.0854  2.1212  1.1444
 5931SOL    HW229256   4.178   0.250  16.016 -1.2595  0.2546  0.0218
 5932SOL     OW29257   1.098   2.416   9.231  0.5195  0.8999  0.3330
 5932SOL    HW129258   1.149   2.387   9.156  0.9386  0.7235  0.6814
 5932SOL    HW229259   1.065   2.496   9.191  3.4388  1.9985  0.0989
 5933SOL     OW29260   3.386   2.668   1.945  0.8832 -0.0311 -0.5410
 5933SOL    HW129261   3.466   2.617   1.936 -0.0301 -2.0006  2.4245
 5933SOL    HW229262   3.325   2.620   1.889  0.8069 -1.4096  0.7359
 5934SOL     OW29263   3.002   0.030  13.840  0.3285 -0.3887  0.2707
 5934SOL    HW129264   3.085   0.074  13.819 -1.8136  3.6742  0.2746
 5934SOL    HW229265   2.943   0.105  13.830  0.6795 -0.2019 -0.4457
 5935SOL     OW29266   1.010   4.444   7.929 -0.0967  0.2117 -0.2065
 5935SOL    HW129267   0.932   4.479   7.885  1.0047  3.1621  0.1668
 5935SOL    HW229268   1.047   4.526   7.962 -0.6262  0.2612  0.2715
 5936SOL     OW29269   1.542   3.619   5.057 -0.0931  0.2273  0.1457
 5936SOL    HW129270   1.471   3.556   5.057 -1.3050  1.5998  0.4197
 5936SOL    HW229271   1.484   3.694   5.072  0.3517  1.1298 -2.5619
 5937SOL     OW29272   2.707   4.271   3.658 -0.4994  0.3648  0.6158
 5937SOL    HW129273   2.741   4.243   3.574 -1.3369 -0.9456  0.7142
 5937SOL    HW229274   2.613   4.249   3.661 -0.6627  0.9696 -0.2550
 5938SOL     OW29275   4.685   1.938   0.128 -0.3627 -0.4029 -0.4274
 5938SOL    HW129276   4.726   1.901   0.050 -0.6108  0.5583 -1.0111
 5938SOL    HW229277   4.614   1.875   0.140  0.9693 -2.4528 -3.2388
 5939SOL     OW29278   4.407   0.528  13.889  0.1917  0.1639  0.0141
 5939SOL    HW129279   4.371   0.442  13.867 -2.9502  1.2639  0.8738
 5939SOL    HW229280   4.478   0.501  13.947 -0.3313 -1.5515 -0.1368
 5940SOL     OW29281   0.658   4.369   2.272 -0.3091  0.0072  0.1772
 5940SOL    HW129282   0.724   4.343   2.208 -1.7399  0.8891 -1.6436
 5940SOL    HW229283   0.576   4.336   2.233  0.9358 -2.1562 -0.6200
 5941SOL     OW29284   3.008   1.309   3.793  0.1114  0.4701  0.7766
 5941SOL    HW129285   3.012   1.391   3.744  0.2985 -0.3471 -0.5907
 5941SOL    HW229286   3.009   1.252   3.716  1.2806  0.1677  1.0234
 5942SOL     OW29287   1.574   2.583   9.626 -0.2387 -0.0713 -0.0190
 5942SOL    HW129288   1.520   2.523   9.574 -0.1282  1.6106 -2.0383
 5942SOL    HW229289   1.520   2.584   9.706 -1.2684 -0.0870 -0.7132
 5943SOL     OW29290   1.466   0.907  17.639  0.4534 -0.5955  0.2434
 5943SOL    HW129291   1.515   0.862  17.570 -0.9095  1.1457 -1.8708
 5943SOL    HW229292   1.531   0.972  17.664 -1.0828 -0.2298  3.2299
 5944SOL     OW29293   4.239   3.503   3.018  0.0339 -0.0432  0.6049
 5944SOL    HW129294   4.151   3.475   3.041  0.0026 -0.0284  0.5028
 5944SOL    HW229295   4.248   3.590   3.056 -0.8577  0.0711  0.5527
 5945SOL     OW29296   3.141   4.096   6.748 -0.1028  0.0129  0.1484
 5945SOL    HW129297   3.184   4.041   6.683 -0.7833  1.4335 -1.4858
 5945SOL    HW229298   3.210   4.117   6.811  0.3127 -0.9703  0.0088
 5946SOL     OW29299   3.237   0.954   0.306 -0.2177 -1.2409 -0.5136
 5946SOL    HW129300   3.238   0.863   0.277 -0.3470 -0.4251 -3.0283
 5946SOL    HW229301   3.194   1.004   0.237 -0.7481  0.6518  1.1801
 5947SOL     OW29302   0.745   3.101  15.099 -0.1020  0.3612 -0.6618
 5947SOL    HW129303   0.723   3.085  15.191 -0.4974  0.4364 -0.7407
 5947SOL    HW229304   0.694   3.031  15.059 -0.3220  1.1445 -1.7330
 5948SOL     OW29305   3.804   4.492   2.363 -0.0944  0.0582  0.2386
 5948SOL    HW129306   3.887   4.463   2.327 -1.2355  0.4210 -2.7438
 5948SOL    HW229307   3.830   4.581   2.384  0.5693 -0.8146  3.1436
 5949SOL     OW29308   4.146   3.626  17.649  0.1430  0.2569  0.3381
 5949SOL    HW129309   4.186   3.539  17.652 -2.3539 -0.7833  3.1099
 5949SOL    HW229310   4.105   3.625   0.021 -1.0843  2.9164 -0.1958
 5950SOL     OW29311   0.872   3.583   2.953  0.2020 -0.2132  0.7101
 5950SOL    HW129312   0.861   3.488   2.952  0.9835 -0.3079  1.6178
 5950SOL    HW229313   0.930   3.589   3.029 -2.1329  0.7926  2.4005
 5951SOL     OW29314   2.234   4.556   3.059 -0.3545 -0.5709  0.3318
 5951SOL    HW129315   2.291   4.595   2.993  0.9190 -0.0195  1.7559
 5951SOL    HW229316   2.287   4.585   3.133 -0.2194 -3.1281  1.2532
 5952SOL     OW29317   0.612   2.824   4.550 -0.0734 -0.7113 -0.2592
 5952SOL    HW129318   0.577   2.805   4.463 -0.0851 -0.8494 -0.2242
 5952SOL    HW229319   0.702   2.836   4.522 -1.0116  2.3250 -1.9580
 5953SOL     OW29320   3.560   0.210   7.039 -0.1613  0.1057  0.2871
 5953SOL    HW129321   3.535   0.294   7.078 -1.4050 -0.9648  1.8178
 5953SOL    HW229322   3.652   0.220   7.017  0.1062 -0.8892  0.9491
 5954SOL     OW29323   1.845   3.237  16.726 -0.1371 -0.3868 -0.0104
 5954SOL    HW129324   1.844   3.317  16.674  2.2598  0.0744  0.6758
 5954SOL    HW229325   1.841   3.175  16.653 -0.5886 -1.1399  0.6523
 5955SOL     OW29326   2.764   0.661   7.629  0.3046 -0.4210  0.1028
 5955SOL    HW129327   2.695   0.619   7.577 -1.1770  1.2273  0.7421
 5955SOL    HW229328   2.768   0.613   7.712 -2.6219  2.9274  2.1638
 5956SOL     OW29329   3.193   1.830  10.023 -0.6482 -0.1482  0.3950
 5956SOL    HW129330   3.135   1.785  10.085 -0.2071 -1.2269  0.0220
 5956SOL    HW229331   3.125   1.862   9.963  0.2888  0.8458 -0.1209
 5957SOL     OW29332   3.573   0.631   6.958  0.3144 -0.1815 -0.7281
 5957SOL    HW129333   3.539   0.549   6.995  1.6599 -0.7181 -0.7023
 5957SOL    HW229334   3.501   0.694   6.954  0.3892  0.0197  1.2163
 5958SOL     OW29335   1.115   1.420   6.343 -0.5764 -0.0565  0.2830
 5958SOL    HW129336   1.169   1.484   6.295  0.9465 -1.2860  0.3493
 5958SOL    HW229337   1.125   1.336   6.298  2.2142  0.3297  0.1879
 5959SOL     OW29338   4.579   4.467   4.159  0.1756 -0.5949  0.0486
 5959SOL    HW129339   4.561   4.436   4.248  0.1455  1.4946  0.7603
 5959SOL    HW229340   4.666   4.506   4.154  0.2962 -0.9975 -1.2143
 5960SOL     OW29341   3.934   4.089   8.935  0.1653 -0.0838  0.1970
 5960SOL    HW129342   3.959   4.000   8.910  0.5647 -0.1897  0.9866
 5960SOL    HW229343   3.997   4.138   8.882  0.2300 -1.8253 -1.3403
 5961SOL     OW29344   0.038   2.756   0.771 -0.2945 -0.3222  0.0748
 5961SOL    HW129345   0.030   2.718   0.858 -0.0914 -2.2013 -0.7321
 5961SOL    HW229346   0.039   2.850   0.792  1.8477 -0.6045  1.1351
 5962SOL     OW29347   1.161   0.960   0.304  0.4559 -0.1803  0.0097
 5962SOL    HW129348   1.071   0.930   0.293  0.2538  0.5521 -0.2708
 5962SOL    HW229349   1.154   1.030   0.369 -2.1730  0.2191 -0.6982
 5963SOL     OW29350   3.217   1.987   5.990 -0.6939 -0.3652  0.0523
 5963SOL    HW129351   3.202   2.014   6.080  0.0619 -0.1390  0.1038
 5963SOL    HW229352   3.133   2.019   5.956 -1.4768 -2.7209 -0.2595
 5964SOL     OW29353   4.514   3.795   1.115 -0.2829 -0.7322 -0.2324
 5964SOL    HW129354   4.464   3.756   1.187 -1.4743 -0.6364 -0.9960
 5964SOL    HW229355   4.604   3.773   1.138  0.2671 -1.1368 -2.7050
 5965SOL     OW29356   1.610   0.308   6.070  0.0333 -0.3656 -0.6739
 5965SOL    HW129357   1.624   0.264   5.986  0.3965 -0.2074 -0.6974
 5965SOL    HW229358   1.553   0.382   6.048  0.2451 -0.0521 -0.1686
 5966SOL     OW29359   1.368   0.563   8.602  0.3277 -0.2756  0.3771
 5966SOL    HW129360   1.434   0.565   8.671  0.8256 -1.4285 -0.0683
 5966SOL    HW229361   1.315   0.495   8.644  2.7164 -1.4363  1.4878
 5967SOL     OW29362   0.336   2.513  16.430 -0.2766  0.3396 -0.6845
 5967SOL    HW129363   0.294   2.572  16.368 -0.9275  2.1815  1.5187
 5967SOL    HW229364   0.382   2.573  16.488 -1.5114  2.4125 -1.8767
 5968SOL     OW29365   0.884   1.345   4.496 -0.0428 -0.3748  0.0622
 5968SOL    HW129366   0.971   1.346   4.537  1.7951 -0.2264 -3.7373
 5968SOL    HW229367   0.882   1.262   4.449 -1.3849 -1.4630  2.0568
 5969SOL     OW29368   2.113   4.104   7.305  0.1335  0.0710 -0.0463
 5969SOL    HW129369   2.134   4.150   7.224  0.8265  0.5320  0.3845
 5969SOL    HW229370   2.098   4.175   7.369 -0.6784  0.5951 -0.8283
 5970SOL     OW29371   0.141   1.733  10.278  0.0622 -0.4357  0.2488
 5970SOL    HW129372   0.201   1.660  10.264  0.8769  0.6028 -1.7392
 5970SOL    HW229373   0.167   1.778  10.197  0.1519  1.9566  1.6024
 5971SOL     OW29374   3.813   1.653   9.662 -0.4384  0.5415 -0.3718
 5971SOL    HW129375   3.904   1.651   9.692 -1.0428 -2.2655  1.2954
 5971SOL    HW229376   3.761   1.641   9.742  2.7491 -2.3732  1.3146
 5972SOL     OW29377   2.052   1.151   8.892  1.0125  0.0542 -0.0875
 5972SOL    HW129378   1.999   1.076   8.918 -0.0769  0.9296  0.2129
 5972SOL    HW229379   2.111   1.114   8.826  0.2236 -0.2491 -0.6204
 5973SOL     OW29380   3.231   0.028  17.517 -0.1733  0.5792 -0.1489
 5973SOL    HW129381   3.293   0.100  17.507 -0.2590  0.8251  1.1456
 5973SOL    HW229382   3.226   0.024  17.612 -0.6133 -0.2704 -0.2085
 5974SOL     OW29383   1.408   2.451   4.967 -0.0482 -0.0353 -0.2989
 5974SOL    HW129384   1.364   2.534   4.985  2.8617  1.3197  0.5963
 5974SOL    HW229385   1.344   2.413   4.906 -1.0047  1.6599 -0.3505
 5975SOL     OW29386   1.059   0.877   2.798  0.4111  0.5008 -0.8352
 5975SOL    HW129387   0.980   0.929   2.789  1.1509  1.7716 -0.0287
 5975SOL    HW229388   1.082   0.859   2.706 -1.9009  0.8901 -1.4805
 5976SOL     OW29389   1.801   2.450   1.328  0.3297 -0.1704 -0.1273
 5976SOL    HW129390   1.829   2.376   1.381  1.1385 -0.4003 -0.8849
 5976SOL    HW229391   1.796   2.509   1.402  1.1015 -2.9550  2.1414
 5977SOL     OW29392   3.750   4.633   6.448 -1.3159 -0.2060  0.1262
 5977SOL    HW129393   3.748   4.617   6.542  2.0015 -0.1005  0.2325
 5977SOL    HW229394   3.822   4.695   6.437 -0.9772 -0.6231 -0.0161
 5978SOL     OW29395   1.979   2.498   6.378 -0.0176 -0.0567 -0.2914
 5978SOL    HW129396   2.023   2.427   6.332 -0.6325  0.0880 -1.0903
 5978SOL    HW229397   1.956   2.456   6.461  0.0553  2.2013  0.8714
 5979SOL     OW29398   0.621   1.244   7.519  0.1029 -0.2509  0.0112
 5979SOL    HW129399   0.566   1.189   7.465 -0.0166  0.1846 -0.3136
 5979SOL    HW229400   0.590   1.333   7.499  1.2323 -0.1985 -1.4922
 5980SOL     OW29401   0.756   3.877   7.627  0.1836 -0.1877 -0.7482
 5980SOL    HW129402   0.750   3.809   7.693 -0.2616  0.2626 -0.3202
 5980SOL    HW229403   0.747   3.825   7.548  0.5703 -2.8929  1.0024
 5981SOL     OW29404   3.941   2.774   7.347 -0.4241  0.2036 -0.1221
 5981SOL    HW129405   3.967   2.842   7.410  0.1515  1.7233 -2.0327
 5981SOL    HW229406   3.877   2.726   7.400 -0.0582  0.6999  0.7849
 5982SOL     OW29407   2.263   4.351   5.505  0.6758 -0.0567 -0.1523
 5982SOL    HW129408   2.271   4.307   5.420  0.7833  0.5298 -0.4521
 5982SOL    HW229409   2.222   4.435   5.484  0.4295  0.6148  3.1318
 5983SOL     OW29410   3.768   2.374   5.721  0.2771 -0.1258  0.0244
 5983SOL    HW129411   3.706   2.437   5.684  1.2111  1.2880  0.8740
 5983SOL    HW229412   3.724   2.294   5.692  2.0165 -1.0388 -0.0496
 5984SOL     OW29413   3.553   0.043   5.316 -0.0109 -0.0959  0.7259
 5984SOL    HW129414   3.593   0.130   5.317 -0.9725  0.3516  0.2183
 5984SOL    HW229415   3.609   4.725   5.253  0.1817  1.3386 -0.1669
 5985SOL     OW29416   0.943   0.907  11.658 -0.4690 -0.4303 -0.2986
 5985SOL    HW129417   0.989   0.938  11.735 -0.7439  2.1682 -1.1830
 5985SOL    HW229418   1.016   0.930  11.600  0.1986  0.0559  0.7241
 5986SOL     OW29419   4.193   3.463   1.856  0.2656 -0.1901 -0.1974
 5986SOL    HW129420   4.157   3.380   1.824 -1.7432  0.4666  0.3168
 5986SOL    HW229421   4.121   3.523   1.838  1.0072  0.4304 -1.0530
 5987SOL     OW29422   0.913   1.240   4.057 -0.7971  0.0644  0.2997
 5987SOL    HW129423   1.007   1.254   4.047 -1.2641  1.8940 -1.6865
 5987SOL    HW229424   0.896   1.334   4.068 -2.0563 -0.3243  1.7013
 5988SOL     OW29425   1.681   2.593   5.928 -0.3557 -0.6949  0.5994
 5988SOL    HW129426   1.750   2.654   5.900 -1.1800  0.0217  0.1176
 5988SOL    HW229427   1.609   2.653   5.912  0.8923  0.3515 -1.1249
 5989SOL     OW29428   1.829   1.081   3.610 -0.6270 -0.2110 -0.3857
 5989SOL    HW129429   1.862   1.143   3.545 -0.9612 -1.3463 -1.6465
 5989SOL    HW229430   1.831   1.140   3.685 -0.3916  2.2155 -2.3121
 5990SOL     OW29431   1.979   0.358   5.824  0.2861  0.3578  0.0694
 5990SOL    HW129432   1.959   0.329   5.913 -0.0552  0.6583  0.0961
 5990SOL    HW229433   1.894   0.397   5.803 -0.4215 -1.5846 -0.6117
 5991SOL     OW29434   4.273   4.259  12.879 -0.1905 -0.3015 -0.4371
 5991SOL    HW129435   4.317   4.293  12.801  3.1669  0.2997  1.7252
 5991SOL    HW229436   4.299   4.325  12.943  2.2464  0.0931 -1.8399
 5992SOL     OW29437   3.519   1.112   2.662 -0.0176  0.9748 -0.5518
 5992SOL    HW129438   3.592   1.167   2.636  0.5041  0.2871 -0.5349
 5992SOL    HW229439   3.473   1.114   2.578  0.5803  1.4399 -0.8634
 5993SOL     OW29440   4.160   0.870   6.106  0.5585  0.3189 -0.3344
 5993SOL    HW129441   4.107   0.943   6.138 -0.3082 -0.5360  0.2019
 5993SOL    HW229442   4.240   0.887   6.155 -0.3490 -0.4093  1.3813
 5994SOL     OW29443   4.497   4.256   4.024 -0.0687 -0.5306 -0.1497
 5994SOL    HW129444   4.538   4.259   3.938  1.1917 -0.6684  0.4605
 5994SOL    HW229445   4.536   4.322   4.081 -2.0069 -0.2047  0.8074
 5995SOL     OW29446   0.249   3.200   5.582  0.3443  0.0726  0.0602
 5995SOL    HW129447   0.264   3.169   5.493 -2.4120  1.6762 -1.0014
 5995SOL    HW229448   0.334   3.209   5.624  0.7242  2.2388 -1.1889
 5996SOL     OW29449   1.292   4.527   0.140  0.2070  0.3700  0.2011
 5996SOL    HW129450   1.330   4.521   0.227 -0.1415  2.1911  0.4740
 5996SOL    HW229451   1.205   4.564   0.155  0.8223  1.5977  0.7113
 5997SOL     OW29452   4.204   1.803   8.613 -0.1115  0.6523 -0.7437
 5997SOL    HW129453   4.172   1.714   8.602  0.1716  0.5095 -0.3976
 5997SOL    HW229454   4.144   1.858   8.563 -1.5852 -0.7631 -0.5213
 5998SOL     OW29455   2.014   1.457   4.592 -0.0601 -0.4195  0.3897
 5998SOL    HW129456   2.010   1.425   4.682  1.3950 -0.2249  0.5237
 5998SOL    HW229457   2.013   1.375   4.544 -4.5226 -0.0521 -0.1783
 5999SOL     OW29458   2.903   0.453   7.148 -1.0228 -0.7401 -0.1489
 5999SOL    HW129459   2.962   0.403   7.092  0.8671 -0.2221  1.3986
 5999SOL    HW229460   2.876   0.527   7.094  0.5490  0.2877  0.4789
 6000SOL     OW29461   1.229   2.136   6.228 -0.3186  0.2413  0.6279
 6000SOL    HW129462   1.284   2.186   6.168 -2.6229  1.2769 -0.6310
 6000SOL    HW229463   1.178   2.089   6.162 -1.3919 -0.7128  2.1363
 6001SOL     OW29464   2.375   3.164   7.130  0.4299 -0.2755  0.0631
 6001SOL    HW129465   2.413   3.086   7.170 -1.5536 -0.6072  1.2920
 6001SOL    HW229466   2.387   3.151   7.036  1.0422 -0.0426  0.1108
 6002SOL     OW29467   3.547   3.432   8.733  0.2702 -0.5858 -0.1208
 6002SOL    HW129468   3.483   3.483   8.684 -2.3850 -2.8401  0.9402
 6002SOL    HW229469   3.497   3.350   8.728 -1.0850  0.2013  0.3922
 6003SOL     OW29470   3.565   1.520   3.434 -0.7617 -0.6639  0.0596
 6003SOL    HW129471   3.576   1.523   3.339 -1.7814 -0.7667 -0.0638
 6003SOL    HW229472   3.501   1.450   3.448 -0.2549 -1.0937  0.2556
 6004SOL     OW29473   0.941   1.812  15.583  0.1937 -0.7092 -0.6846
 6004SOL    HW129474   0.948   1.731  15.634 -2.3257 -1.0403 -0.8276
 6004SOL    HW229475   1.035   1.828  15.577 -0.2996  2.3759 -0.1401
 6005SOL     OW29476   4.077   3.483   0.369 -0.1323 -0.5526  0.4568
 6005SOL    HW129477   4.137   3.488   0.443  1.9882  0.9836 -1.3501
 6005SOL    HW229478   4.031   3.566   0.373  1.0012  0.0650  0.6095
 6006SOL     OW29479   2.445   1.441   9.025  0.2962 -0.4809 -0.1274
 6006SOL    HW129480   2.351   1.421   9.025  0.0959  0.4477 -0.2254
 6006SOL    HW229481   2.463   1.382   9.099  0.3000 -1.9027 -1.2650
 6007SOL     OW29482   2.865   3.732   1.736 -0.4113  0.4575  0.1902
 6007SOL    HW129483   2.783   3.777   1.755 -1.2906 -1.7039  1.5109
 6007SOL    HW229484   2.848   3.643   1.764 -1.6517 -0.1692 -2.5764
 6008SOL     OW29485   1.700   3.543   4.032  0.3181  0.3094  0.8411
 6008SOL    HW129486   1.754   3.592   4.093  0.0434  1.9265 -0.1972
 6008SOL    HW229487   1.746   3.460   4.018 -2.8132 -1.6264  2.1856
 6009SOL     OW29488   4.003   2.758   6.524 -0.2709  0.1086  0.4050
 6009SOL    HW129489   4.038   2.671   6.542  1.9383  0.7009 -0.9749
 6009SOL    HW229490   3.942   2.779   6.595  0.7175  3.3577  0.3073
 6010SOL     OW29491   2.549   0.087   7.521 -0.1107 -0.6489  0.1571
 6010SOL    HW129492   2.635   0.125   7.503 -0.1964 -1.1072 -1.1824
 6010SOL    HW229493   2.518   0.129   7.602  1.7128  0.5318  0.2488
 6011SOL     OW29494   1.824   4.192  17.420 -0.2026 -0.1536 -0.1267
 6011SOL    HW129495   1.764   4.179  17.346 -2.8550  1.1901  1.7905
 6011SOL    HW229496   1.914   4.183  17.388  0.0649 -2.1668  1.1217
 6012SOL     OW29497   4.699   0.920   9.279  0.4261  0.3777 -0.4870
 6012SOL    HW129498   0.066   0.921   9.285  0.6143 -1.6368 -3.1305
 6012SOL    HW229499   4.679   0.851   9.343 -1.4480  1.4797  0.1214
 6013SOL     OW29500   1.475   3.131   2.093  0.0597  0.0315  0.1334
 6013SOL    HW129501   1.428   3.213   2.077 -2.4221 -1.5120 -0.4884
 6013SOL    HW229502   1.491   3.107   2.002 -1.1608 -1.7047  0.3646
 6014SOL     OW29503   1.073   4.244   1.475 -0.1794  0.4668  0.1197
 6014SOL    HW129504   1.137   4.314   1.494  0.2045 -0.0632  0.7867
 6014SOL    HW229505   1.016   4.245   1.552 -0.2623  0.3582  0.0591
 6015SOL     OW29506   3.667   1.135   6.311 -0.2235  0.6684  0.1204
 6015SOL    HW129507   3.602   1.140   6.381  3.1971 -2.1510  3.5309
 6015SOL    HW229508   3.623   1.181   6.240  1.7635  1.1064 -0.8423
 6016SOL     OW29509   4.080   3.460  12.935 -0.7676  0.6619  0.2048
 6016SOL    HW129510   4.148   3.422  12.991  0.0573 -0.5896 -1.6233
 6016SOL    HW229511   4.108   3.420  12.852 -0.7730 -0.8828  0.9476
 6017SOL     OW29512   0.069   2.696  14.086 -0.0316 -0.0017 -0.0780
 6017SOL    HW129513   0.069   2.667  13.995  1.5152 -0.1714 -0.0221
 6017SOL    HW229514   0.026   2.781  14.077 -1.3130 -0.7120 -0.6267
 6018SOL     OW29515   0.079   3.629  11.747 -0.1433 -0.2139 -0.3474
 6018SOL    HW129516   0.112   3.572  11.817  0.4415  1.0654  0.4155
 6018SOL    HW229517   0.016   3.688  11.789  2.2571  0.8468  1.7314
 6019SOL     OW29518   2.773   2.435  17.589  0.5543 -0.7827 -0.2400
 6019SOL    HW129519   2.681   2.423  17.610 -0.1879  3.4778 -1.0569
 6019SOL    HW229520   2.776   2.400  17.500  1.6140  0.0776 -0.5439
 6020SOL     OW29521   4.652   1.354  16.533  0.2894  0.1090  0.2323
 6020SOL    HW129522   4.641   1.263  16.503 -0.6985  0.0284  0.8511
 6020SOL    HW229523   4.565   1.388  16.555  0.7604  1.5005 -0.0491
 6021SOL     OW29524   3.470   2.403   3.408  0.0452  0.0210 -0.2171
 6021SOL    HW129525   3.546   2.398   3.350 -0.5599 -1.2960 -0.9147
 6021SOL    HW229526   3.485   2.337   3.475 -0.9874  1.2310  1.2053
 6022SOL     OW29527   3.410   0.394   4.495 -0.3276 -0.0473 -0.3872
 6022SOL    HW129528   3.402   0.467   4.557 -1.5478  0.6358 -1.3559
 6022SOL    HW229529   3.409   0.438   4.410  0.2321  1.9806  0.6581
 6023SOL     OW29530   1.967   0.871   7.917 -0.3773  0.3074 -0.5664
 6023SOL    HW129531   1.899   0.938   7.920 -0.5150  0.2148 -1.4143
 6023SOL    HW229532   2.004   0.888   8.003  1.6139  1.4754 -1.6405
 6024SOL     OW29533   3.787   2.475   7.749 -0.1077 -0.1820  0.3562
 6024SOL    HW129534   3.762   2.527   7.826  0.1806 -0.3990  0.5976
 6024SOL    HW229535   3.881   2.462   7.760  0.2418  1.8149 -0.2650
 6025SOL     OW29536   3.680   3.131   6.074 -0.2468 -0.5131  0.7351
 6025SOL    HW129537   3.717   3.109   6.159 -1.3156 -0.9703  1.0879
 6025SOL    HW229538   3.588   3.130   6.102 -0.5704 -0.0001 -0.2952
 6026SOL     OW29539   0.161   1.448  11.023 -0.3841 -0.1230  0.3257
 6026SOL    HW129540   0.245   1.472  10.983 -0.9999  2.1072  0.4056
 6026SOL    HW229541   0.179   1.371  11.078  1.3634 -0.2209 -0.3766
 6027SOL     OW29542   2.863   0.634   6.899 -0.3923  0.5229  0.1449
 6027SOL    HW129543   2.840   0.618   6.808 -1.7098  2.1322  0.1872
 6027SOL    HW229544   2.876   0.727   6.880  2.1091  0.1358 -0.1397
 6028SOL     OW29545   3.242   3.205   3.148  0.2928 -0.0682 -0.0705
 6028SOL    HW129546   3.178   3.135   3.161 -0.3680  0.3000 -1.3092
 6028SOL    HW229547   3.329   3.166   3.151  0.2972 -0.1794 -2.0012
 6029SOL     OW29548   0.921   4.653   5.877 -0.1002  0.4592 -0.3381
 6029SOL    HW129549   0.916   0.010   5.919 -1.7132  0.9083 -1.4555
 6029SOL    HW229550   0.955   4.662   5.788  1.6452  2.6264  0.5522
 6030SOL     OW29551   3.929   2.142   5.697  0.3454  0.9578 -0.2947
 6030SOL    HW129552   3.879   2.222   5.710  0.6941  1.3771 -1.5207
 6030SOL    HW229553   3.959   2.123   5.787  0.6381 -0.5494 -0.7067
 6031SOL     OW29554   1.156   1.224   4.884  0.1508  0.3266 -0.5124
 6031SOL    HW129555   1.150   1.296   4.822  4.0612  0.0735 -1.1577
 6031SOL    HW229556   1.115   1.155   4.831 -1.9004  0.7723  0.4723
 6032SOL     OW29557   0.720   2.093  14.966 -0.1421 -0.3305 -0.4099
 6032SOL    HW129558   0.785   2.023  14.977  1.2609  0.6197 -2.7930
 6032SOL    HW229559   0.723   2.151  15.042 -1.6763 -1.1385  0.2501
 6033SOL     OW29560   4.091   3.357   1.093  0.4281 -1.4048 -0.0114
 6033SOL    HW129561   4.161   3.355   1.159  0.7270 -3.3569 -0.4004
 6033SOL    HW229562   4.074   3.448   1.067 -1.0008 -2.3718 -2.4100
 6034SOL     OW29563   1.404   3.456   3.391  0.2338  0.1530  0.1969
 6034SOL    HW129564   1.494   3.484   3.374  0.8747 -1.7632  0.4874
 6034SOL    HW229565   1.353   3.522   3.343 -1.3111 -1.2610 -0.1056
 6035SOL     OW29566   1.343   3.095   6.308 -0.1109 -0.3847 -0.3804
 6035SOL    HW129567   1.374   3.182   6.332 -1.7595  0.3526 -0.9037
 6035SOL    HW229568   1.275   3.123   6.246  0.9773 -0.3027 -1.5381
 6036SOL     OW29569   0.202   3.516   3.577  0.0610  0.5174 -0.7673
 6036SOL    HW129570   0.236   3.461   3.506  0.0334 -2.2934  1.3876
 6036SOL    HW229571   0.117   3.542   3.542 -0.2505  1.7885  0.9440
 6037SOL     OW29572   1.023   0.640   5.430 -0.3882  0.3470  0.3927
 6037SOL    HW129573   1.009   0.621   5.523  0.8157 -3.3070 -0.1621
 6037SOL    HW229574   0.986   0.728   5.423 -0.0709  0.4165 -0.4249
 6038SOL     OW29575   1.538   3.622  11.710  0.2113 -0.1996  0.4740
 6038SOL    HW129576   1.476   3.695  11.700  0.3328 -0.3301 -1.1460
 6038SOL    HW229577   1.497   3.563  11.774 -0.8039  0.4521  0.4340
 6039SOL     OW29578   3.999   2.427  11.936 -0.0959  0.5201 -0.0663
 6039SOL    HW129579   3.930   2.443  11.872 -0.0100  0.3171 -0.2079
 6039SOL    HW229580   4.053   2.500  11.907 -1.0891  2.0021  1.7578
 6040SOL     OW29581   3.631   2.750   1.421 -0.1785 -0.1655  0.1386
 6040SOL    HW129582   3.674   2.825   1.380  3.2522 -1.3057  1.6979
 6040SOL    HW229583   3.606   2.689   1.352 -0.8623  2.0469 -1.5557
 6041SOL     OW29584   1.985   1.450   2.349  0.1573  0.3732 -0.1528
 6041SOL    HW129585   1.987   1.400   2.431 -1.6364  1.1719  0.3737
 6041SOL    HW229586   1.915   1.402   2.305  1.8678 -2.2774  0.0341
 6042SOL     OW29587   0.749   1.564   8.824 -0.1730  0.0247 -0.3652
 6042SOL    HW129588   0.718   1.486   8.871 -0.8406  0.2487 -0.4285
 6042SOL    HW229589   0.844   1.566   8.829 -0.2259 -2.0371  1.4318
 6043SOL     OW29590   3.796   3.566   4.364 -0.5175  0.0749 -0.0824
 6043SOL    HW129591   3.727   3.554   4.299  0.0789  0.6504 -0.8258
 6043SOL    HW229592   3.770   3.487   4.412  0.2075  0.7070  1.3518
 6044SOL     OW29593   2.658   0.079   8.381  0.5844 -0.2031 -0.3458
 6044SOL    HW129594   2.607   0.150   8.421  1.9649  0.2750  0.5896
 6044SOL    HW229595   2.745   0.114   8.403  0.7005 -0.6501 -0.1033
 6045SOL     OW29596   0.729   3.291  12.770 -0.0532 -0.4279  0.5226
 6045SOL    HW129597   0.813   3.256  12.799 -0.6045 -2.5791 -0.5020
 6045SOL    HW229598   0.678   3.238  12.831 -0.8426  0.8007  0.9405
 6046SOL     OW29599   0.601   3.546   4.143 -0.3049 -0.2368  0.4715
 6046SOL    HW129600   0.543   3.470   4.143  0.3707 -0.7468  1.1032
 6046SOL    HW229601   0.685   3.502   4.153  0.5070  0.8784 -1.2756
 6047SOL     OW29602   2.925   3.606   3.074  0.1488  0.3585  0.5143
 6047SOL    HW129603   2.836   3.576   3.054 -0.0480  1.1548  0.1872
 6047SOL    HW229604   2.979   3.531   3.049 -1.4648  0.1186 -2.2356
 6048SOL     OW29605   2.733   1.121   1.708 -0.4546  0.0536 -0.2771
 6048SOL    HW129606   2.720   1.028   1.686 -1.1022  0.4944 -1.7419
 6048SOL    HW229607   2.698   1.116   1.796 -2.1571  1.9433 -0.8672
 6049SOL     OW29608   4.093   4.415   9.200  0.0836  0.4129  0.2678
 6049SOL    HW129609   4.108   4.499   9.243  1.9091  1.2380 -1.9301
 6049SOL    HW229610   4.182   4.379   9.198  0.3333  1.0646 -0.2425
 6050SOL     OW29611   2.479   0.851   1.378 -0.2975  1.0824 -0.2608
 6050SOL    HW129612   2.422   0.776   1.359  0.8957 -0.4152  2.0668
 6050SOL    HW229613   2.523   0.861   1.293 -0.9947  1.6995 -0.5467
 6051SOL     OW29614   4.454   4.094   3.498  0.1654 -0.1771 -0.8460
 6051SOL    HW129615   4.387   4.052   3.552  0.7562  0.2195  0.2119
 6051SOL    HW229616   4.459   4.171   3.554  0.1202  0.0141 -1.1090
 6052SOL     OW29617   2.008   2.245  16.731  0.4303 -0.2932 -0.4897
 6052SOL    HW129618   1.954   2.255  16.652  0.6237 -1.7459 -0.7979
 6052SOL    HW229619   2.070   2.178  16.702  0.1552 -1.2100  1.1094
 6053SOL     OW29620   3.042   1.105  15.411  0.0499 -0.1750  0.2245
 6053SOL    HW129621   3.107   1.058  15.463 -0.0030  1.7613  2.0171
 6053SOL    HW229622   3.022   1.049  15.335 -3.1140 -0.1915  1.0601
 6054SOL     OW29623   4.316   1.464   2.919  0.0211  0.3106 -0.1664
 6054SOL    HW129624   4.327   1.554   2.950  0.6928  0.2776 -0.2975
 6054SOL    HW229625   4.361   1.474   2.834  0.7292  0.3955  0.2192
 6055SOL     OW29626   0.661   0.417   8.317 -0.7731 -0.2047 -0.8850
 6055SOL    HW129627   0.693   0.337   8.358  0.2892  0.5386 -0.2614
 6055SOL    HW229628   0.720   0.425   8.243 -0.9187  1.3037 -0.8460
 6056SOL     OW29629   0.378   1.924  14.333  0.3381 -0.6929 -0.3712
 6056SOL    HW129630   0.468   1.931  14.303  0.8186 -0.9613  1.0197
 6056SOL    HW229631   0.384   1.977  14.413  0.4933 -0.4841 -0.5201
 6057SOL     OW29632   2.136   0.119   5.785 -0.2849  0.1836 -0.3542
 6057SOL    HW129633   2.070   0.188   5.774 -0.7268 -0.3529 -1.1435
 6057SOL    HW229634   2.155   0.132   5.877  1.0233  1.9606 -0.8883
 6058SOL     OW29635   0.552   2.353   8.125  0.2363  0.5256  0.6805
 6058SOL    HW129636   0.629   2.331   8.074  0.2048 -0.9068  1.2607
 6058SOL    HW229637   0.563   2.443   8.156  2.8713  0.3292  0.2396
 6059SOL     OW29638   4.587   4.351   2.683 -0.0428  0.0208  0.2973
 6059SOL    HW129639   4.661   4.363   2.623 -1.5895  0.0923 -1.5910
 6059SOL    HW229640   4.508   4.348   2.629  0.2390  3.1194 -0.3295
 6060SOL     OW29641   3.363   0.469  11.212  0.5809 -0.4569 -0.6386
 6060SOL    HW129642   3.273   0.442  11.227  0.5692  1.5643  3.0372
 6060SOL    HW229643   3.409   0.411  11.272 -0.9942  1.9179  2.8266
 6061SOL     OW29644   0.733   0.160  11.302 -0.3706 -0.5688 -0.0263
 6061SOL    HW129645   0.708   0.203  11.383  0.9364 -2.7262  1.5223
 6061SOL    HW229646   0.645   0.156  11.265 -0.4445  1.6865 -0.0745
 6062SOL     OW29647   2.353   0.926   5.361  0.5774 -0.1097 -0.1554
 6062SOL    HW129648   2.314   0.840   5.351  2.0042 -0.5621 -1.6608
 6062SOL    HW229649   2.407   0.904   5.437  0.6696 -1.2632 -0.5574
 6063SOL     OW29650   3.943   1.297   9.855 -0.2287 -0.0688  0.2100
 6063SOL    HW129651   3.976   1.223   9.907 -0.7605 -0.0545  0.5680
 6063SOL    HW229652   4.019   1.314   9.799 -1.3874 -1.1016 -1.6610
 6064SOL     OW29653   0.836   1.613   4.487  0.0033 -0.0590  0.2300
 6064SOL    HW129654   0.902   1.654   4.432  2.2914  0.4711  3.3992
 6064SOL    HW229655   0.857   1.520   4.491 -0.4858 -0.2680 -2.2117
 6065SOL     OW29656   3.987   1.608   4.850 -0.6390  0.2489 -0.1566
 6065SOL    HW129657   3.962   1.626   4.941  2.3159  1.6602  0.3896
 6065SOL    HW229658   3.900   1.607   4.812 -1.3609 -1.0378  1.5206
 6066SOL     OW29659   4.552   4.584  11.912  0.4426  0.3665 -0.2678
 6066SOL    HW129660   4.540   4.605  12.005 -1.6513  1.8991 -0.8906
 6066SOL    HW229661   4.458   4.572  11.896  0.3440  0.0418  0.5622
 6067SOL     OW29662   2.468   3.797   1.167 -0.3451  0.0523 -0.3430
 6067SOL    HW129663   2.528   3.723   1.154  0.4195  0.3566  1.3558
 6067SOL    HW229664   2.387   3.750   1.148 -1.5709  1.0611  2.3273
 6068SOL     OW29665   2.737   4.077  17.512  0.0984 -0.1467  0.1653
 6068SOL    HW129666   2.739   4.154  17.568 -0.3467 -1.8240  2.4726
 6068SOL    HW229667   2.647   4.083  17.482 -0.2796  2.3950  1.8742
 6069SOL     OW29668   1.777   3.037   5.388 -0.9001  0.1011 -0.3098
 6069SOL    HW129669   1.831   2.958   5.390 -1.1728 -0.0704  0.1449
 6069SOL    HW229670   1.846   3.090   5.428 -0.7787 -0.6897  0.5305
 6070SOL     OW29671   3.059   2.802   9.793 -0.4240 -0.0626 -0.1212
 6070SOL    HW129672   3.045   2.786   9.886  0.0805 -0.6792 -0.1443
 6070SOL    HW229673   3.101   2.888   9.794 -1.7198  0.5785 -0.9265
 6071SOL     OW29674   1.933   2.343  12.992 -0.4450 -1.0297 -0.0195
 6071SOL    HW129675   1.989   2.266  12.999  2.3820  1.0410  0.2242
 6071SOL    HW229676   1.987   2.415  13.025 -2.1867  0.3827 -0.2483
 6072SOL     OW29677   2.678   0.261   5.044 -0.0005 -0.3671  0.2522
 6072SOL    HW129678   2.712   0.351   5.044 -0.4183 -0.2093  0.3068
 6072SOL    HW229679   2.723   0.219   5.117 -0.0563  0.1257  0.5726
 6073SOL     OW29680   2.844   1.768  12.164  0.3361 -0.2389  0.1602
 6073SOL    HW129681   2.822   1.675  12.161  0.3044 -0.2189 -0.2015
 6073SOL    HW229682   2.864   1.778  12.071  0.3726  1.5379  0.3722
 6074SOL     OW29683   2.453   0.659   8.260  0.1560 -0.2510  0.3408
 6074SOL    HW129684   2.497   0.648   8.345  0.4131 -1.6162  0.0310
 6074SOL    HW229685   2.382   0.721   8.273  0.0162 -0.2874 -0.2528
 6075SOL     OW29686   2.078   0.543   0.222 -0.3356  0.2278 -0.0840
 6075SOL    HW129687   2.151   0.501   0.176 -1.3684 -0.4709 -1.0973
 6075SOL    HW229688   2.127   0.621   0.247 -0.7595  0.6908 -0.7147
 6076SOL     OW29689   0.712   0.666   4.670 -0.4663 -0.6194 -0.4233
 6076SOL    HW129690   0.624   0.672   4.707 -0.3395 -0.5771 -0.1286
 6076SOL    HW229691   0.693   0.697   4.581 -0.5520 -2.6716 -1.1146
 6077SOL     OW29692   1.205   0.966   5.151 -0.6449  0.5456 -0.7617
 6077SOL    HW129693   1.199   0.937   5.060 -1.0021 -2.2230  0.1536
 6077SOL    HW229694   1.271   0.911   5.193 -0.1410  0.5398 -1.5359
 6078SOL     OW29695   3.140   3.511  13.237 -0.4145  0.4525  0.5664
 6078SOL    HW129696   3.074   3.466  13.291 -0.2358  1.4738  1.6380
 6078SOL    HW229697   3.216   3.527  13.293 -1.0316  3.3693  0.5763
 6079SOL     OW29698   0.157   1.400  12.949  0.2701  0.2653 -0.8232
 6079SOL    HW129699   0.241   1.424  12.911  1.0247 -1.6413 -0.3804
 6079SOL    HW229700   0.151   1.481  13.000 -1.4804 -1.5796  1.9558
 6080SOL     OW29701   3.403   4.015   9.682 -0.2282 -0.2456 -0.1579
 6080SOL    HW129702   3.414   3.991   9.590  2.3458  0.0659  0.0908
 6080SOL    HW229703   3.487   3.974   9.702 -1.5979 -0.8043  4.4719
 6081SOL     OW29704   0.530   3.250   5.452  0.3392 -0.0868 -0.1035
 6081SOL    HW129705   0.518   3.184   5.384  0.7277  0.8658 -1.0901
 6081SOL    HW229706   0.539   3.329   5.400  1.4878  0.1753  0.4952
 6082SOL     OW29707   0.866   4.321   8.131  0.4488  0.1543  0.0973
 6082SOL    HW129708   0.938   4.267   8.165 -0.4494 -0.7027  0.6255
 6082SOL    HW229709   0.915   4.377   8.070  1.0033  1.3305  1.6124
 6083SOL     OW29710   4.719   3.258   8.167 -0.0130 -0.1947  0.3865
 6083SOL    HW129711   4.694   3.277   8.257  2.4996  0.6688  0.8746
 6083SOL    HW229712   4.646   3.300   8.121  1.3297  1.3430 -0.3510
 6084SOL     OW29713   3.369   0.167   8.586 -0.5984  0.3159  0.9794
 6084SOL    HW129714   3.343   0.188   8.676 -2.0394 -3.0003  1.3524
 6084SOL    HW229715   3.299   0.101   8.578  1.0646 -1.1062 -1.9862
 6085SOL     OW29716   4.613   4.580   3.778 -0.2401  0.1783  0.1793
 6085SOL    HW129717   4.581   4.669   3.763 -1.0602 -0.1996 -0.3344
 6085SOL    HW229718   4.532   4.546   3.817  0.7041 -0.6090  1.4558
 6086SOL     OW29719   3.815   4.477   3.855  0.2586  0.9042 -0.2944
 6086SOL    HW129720   3.799   4.385   3.835 -0.9164  1.0444  0.0258
 6086SOL    HW229721   3.825   4.472   3.950  2.6055  0.9440 -0.5358
 6087SOL     OW29722   2.214   4.601  11.196  0.3678 -0.0203  0.6284
 6087SOL    HW129723   2.128   4.576  11.161  0.1749 -0.7399  1.6379
 6087SOL    HW229724   2.185   4.680  11.241  0.2890  2.4419 -3.6641
 6088SOL     OW29725   2.630   4.089   5.037  0.6008 -0.2784  0.5084
 6088SOL    HW129726   2.590   4.004   5.057 -1.8661  1.0914  1.3119
 6088SOL    HW229727   2.580   4.120   4.962  0.0989 -1.3805  0.3878
 6089SOL     OW29728   3.236   3.403  12.273 -0.1246  0.5843 -0.1501
 6089SOL    HW129729   3.287   3.375  12.348  0.1685  1.0393 -0.1794
 6089SOL    HW229730   3.256   3.496  12.267 -0.1918  0.4673 -2.2630
 6090SOL     OW29731   4.430   2.927  17.437  0.7168  0.2907 -0.1041
 6090SOL    HW129732   4.423   2.863  17.367  1.5618  0.3251 -0.2198
 6090SOL    HW229733   4.357   2.907  17.495  0.3526  0.2329 -0.5832
 6091SOL     OW29734   0.655   4.151   3.626  0.3527 -0.2252  0.3752
 6091SOL    HW129735   0.650   4.133   3.720 -0.5557  1.2573  0.6145
 6091SOL    HW229736   0.748   4.171   3.619  0.1072  0.1620 -1.7694
 6092SOL     OW29737   4.433   3.000   0.342  0.4674  0.3023 -0.3776
 6092SOL    HW129738   4.496   3.047   0.287  0.3258 -0.2784 -1.0454
 6092SOL    HW229739   4.487   2.966   0.414  0.8923 -0.2701 -0.9697
 6093SOL     OW29740   2.230   2.288  11.143 -0.1271  0.2687 -0.4395
 6093SOL    HW129741   2.313   2.336  11.141  1.3924 -2.4224 -0.8444
 6093SOL    HW229742   2.208   2.288  11.050  1.2559 -2.9721 -0.7573
 6094SOL     OW29743   1.439   4.506  17.255 -0.2491  0.1811 -0.5893
 6094SOL    HW129744   1.470   4.450  17.326 -0.2290  0.3629 -0.4571
 6094SOL    HW229745   1.352   4.518  17.292  0.4772  1.1164  0.7899
 6095SOL     OW29746   0.595   2.486   8.528 -0.1716  0.1240  0.0658
 6095SOL    HW129747   0.503   2.497   8.554  0.2075  2.0353  0.6053
 6095SOL    HW229748   0.616   2.413   8.586 -0.2874  0.4878  0.5641
 6096SOL     OW29749   1.428   1.601   0.488 -0.0828 -0.5430  0.2895
 6096SOL    HW129750   1.486   1.525   0.491 -0.1541 -0.6159 -0.2791
 6096SOL    HW229751   1.363   1.579   0.555  0.3696 -1.2620  0.4921
 6097SOL     OW29752   0.625   3.972   6.853  0.3028 -0.6002 -0.1557
 6097SOL    HW129753   0.597   3.924   6.775 -3.4231  0.4197  0.5352
 6097SOL    HW229754   0.647   4.056   6.815 -0.4159  0.8879  2.7168
 6098SOL     OW29755   4.194   0.800   9.074 -0.1588  0.4375 -0.3473
 6098SOL    HW129756   4.169   0.874   9.129  0.8380  0.1582  0.4827
 6098SOL    HW229757   4.258   0.754   9.128 -1.7658 -1.5019 -0.0383
 6099SOL     OW29758   4.333   4.265   5.050  0.4121  0.1481  0.3063
 6099SOL    HW129759   4.391   4.320   5.103  0.4476  0.2153  0.1968
 6099SOL    HW229760   4.252   4.260   5.101  0.7163 -3.7628  0.4642
 6100SOL     OW29761   1.694   3.719   5.823  0.0699  0.0353 -0.5792
 6100SOL    HW129762   1.732   3.789   5.876  0.6688 -0.2386 -0.6367
 6100SOL    HW229763   1.757   3.717   5.750 -1.9231 -0.3757 -2.2790
 6101SOL     OW29764   0.623   1.187   6.052 -0.1828  0.0354 -0.3577
 6101SOL    HW129765   0.577   1.260   6.094 -0.5184 -0.8083  0.7453
 6101SOL    HW229766   0.682   1.159   6.122 -1.2103  1.3476  1.0321
 6102SOL     OW29767   1.845   0.469   9.133  0.0087  0.1335  0.1127
 6102SOL    HW129768   1.825   0.405   9.200  1.7864 -1.2028 -0.6169
 6102SOL    HW229769   1.759   0.477   9.093 -0.3314  1.2201  1.0456
 6103SOL     OW29770   0.366   3.817   5.379 -0.4619 -0.2498 -0.3414
 6103SOL    HW129771   0.281   3.776   5.365 -0.4084 -0.4281 -0.1271
 6103SOL    HW229772   0.391   3.849   5.292 -3.2173  2.2670 -0.1951
 6104SOL     OW29773   3.146   1.547   7.892 -0.2645 -0.0391  0.2787
 6104SOL    HW129774   3.226   1.496   7.901 -0.2956  0.2051  1.9474
 6104SOL    HW229775   3.074   1.486   7.907 -0.9076  0.6370 -0.0548
 6105SOL     OW29776   2.807   0.826   5.354  0.4634  0.1550 -0.3942
 6105SOL    HW129777   2.776   0.871   5.432  0.9839  1.9462 -1.2239
 6105SOL    HW229778   2.805   0.896   5.288  1.4388  0.1797 -0.3926
 6106SOL     OW29779   2.381   2.750   1.151 -0.8089 -0.1829 -0.0575
 6106SOL    HW129780   2.401   2.727   1.061 -0.4264  1.2553 -0.3464
 6106SOL    HW229781   2.289   2.727   1.162 -0.7481 -0.4708 -0.1537
 6107SOL     OW29782   4.632   0.299   9.990  0.6762 -0.8105 -0.2530
 6107SOL    HW129783   4.619   0.250  10.072  0.7325 -0.0456  0.2142
 6107SOL    HW229784   4.700   0.360  10.018 -0.7953  0.8515 -0.3270
 6108SOL     OW29785   1.639   1.077  13.361  0.2152  0.3368 -0.1302
 6108SOL    HW129786   1.731   1.062  13.384  0.3527 -1.0870 -1.5501
 6108SOL    HW229787   1.647   1.163  13.319 -0.0236  0.9395  1.0484
 6109SOL     OW29788   0.627   4.451   6.996 -0.0274 -0.2886  0.1055
 6109SOL    HW129789   0.623   4.541   7.027 -0.6290 -0.4252  0.4322
 6109SOL    HW229790   0.643   4.464   6.903  4.9094  0.6375  1.0584
 6110SOL     OW29791   1.485   4.694   6.069 -0.3119  0.4731  0.2411
 6110SOL    HW129792   1.578   4.718   6.074 -0.5646  1.4169  0.3933
 6110SOL    HW229793   1.502   4.655   5.983 -0.1356 -1.3476  1.0839
 6111SOL     OW29794   3.753   0.703   1.558 -0.2759 -0.6296 -0.1818
 6111SOL    HW129795   3.825   0.697   1.495 -0.6609  0.5284 -0.7337
 6111SOL    HW229796   3.783   0.646   1.629  0.6502  1.1565  0.8522
 6112SOL     OW29797   0.516   1.096   9.156  0.1758  0.0528 -0.5101
 6112SOL    HW129798   0.446   1.118   9.217  0.2458  0.0678 -0.4347
 6112SOL    HW229799   0.586   1.062   9.212  0.3251 -1.3661 -1.5669
 6113SOL     OW29800   2.423   0.928   7.127 -0.2737 -0.3426 -0.8558
 6113SOL    HW129801   2.504   0.952   7.173 -0.4618  0.2105 -0.8087
 6113SOL    HW229802   2.463   0.887   7.051 -1.5316 -0.7588 -1.2804
 6114SOL     OW29803   3.797   4.560   2.887 -0.1422  0.1036 -0.1957
 6114SOL    HW129804   3.798   4.568   2.982  4.1744  0.8756 -0.2894
 6114SOL    HW229805   3.753   4.642   2.868 -0.6268 -0.9960 -3.8141
 6115SOL     OW29806   0.651   3.898   9.473  0.0942  0.2860  0.0265
 6115SOL    HW129807   0.628   3.915   9.381  1.0531 -1.0588 -0.4574
 6115SOL    HW229808   0.637   3.805   9.488 -0.9980  0.6103  1.0242
 6116SOL     OW29809   1.397   4.338  17.690  0.3557  0.0495  0.5752
 6116SOL    HW129810   1.335   4.268  17.711  1.2427 -1.0376 -0.4262
 6116SOL    HW229811   1.366   4.411   0.029 -0.6527 -0.4285  0.6584
 6117SOL     OW29812   3.401   3.753   5.162  0.0562  0.4651  0.2511
 6117SOL    HW129813   3.429   3.731   5.073  0.6820  0.1584  0.5212
 6117SOL    HW229814   3.469   3.819   5.174  1.0027 -0.2508 -1.1528
 6118SOL     OW29815   3.401   0.878   5.328 -0.6833  0.1171 -0.8942
 6118SOL    HW129816   3.346   0.937   5.378  1.2652  1.4647 -0.3619
 6118SOL    HW229817   3.414   0.801   5.383 -1.0281  1.5461  1.1700
 6119SOL     OW29818   4.077   4.326   0.823  0.1749 -0.7760 -0.1154
 6119SOL    HW129819   4.065   4.351   0.914 -0.1975 -0.4697 -0.2528
 6119SOL    HW229820   4.050   4.234   0.827 -1.5928 -0.2335  0.5173
 6120SOL     OW29821   3.266   0.418   9.408 -0.0644 -0.4305  0.4455
 6120SOL    HW129822   3.220   0.381   9.333 -0.5450  3.1562 -1.0567
 6120SOL    HW229823   3.352   0.440   9.372 -1.0016 -0.5906 -1.9259
 6121SOL     OW29824   4.244   2.374   4.465  0.1593  0.5558 -0.3520
 6121SOL    HW129825   4.333   2.380   4.500  0.2580  0.3351 -0.5667
 6121SOL    HW229826   4.247   2.420   4.382  1.3500 -0.6886 -0.9839
 6122SOL     OW29827   4.377   0.571  16.111  0.2562  0.0796  0.3475
 6122SOL    HW129828   4.452   0.597  16.058  0.4195 -0.7074  0.1943
 6122SOL    HW229829   4.421   0.496  16.152  0.8150  0.4705  0.4680
 6123SOL     OW29830   0.264   1.824   8.454  0.2341  0.1664  0.6703
 6123SOL    HW129831   0.232   1.780   8.375  1.3113 -0.9013  0.8142
 6123SOL    HW229832   0.205   1.898   8.464 -0.9380 -0.5762 -0.7511
 6124SOL     OW29833   3.981   2.825  12.186  0.2132  0.1304 -0.2383
 6124SOL    HW129834   4.030   2.895  12.229 -0.4965  0.1974  0.4765
 6124SOL    HW229835   4.017   2.815  12.098 -0.0982 -0.0413 -0.3469
 6125SOL     OW29836   4.190   1.075   1.121 -0.5394 -0.2421  0.2492
 6125SOL    HW129837   4.140   1.123   1.054  1.0895  1.8166  0.5017
 6125SOL    HW229838   4.122   1.077   1.189 -0.9674  4.0465 -0.2658
 6126SOL     OW29839   4.013   0.821   6.707 -0.0084 -0.2771  0.2541
 6126SOL    HW129840   4.074   0.748   6.715 -2.9612 -2.5898  1.8020
 6126SOL    HW229841   3.974   0.826   6.795 -1.9772 -2.8932 -0.4539
 6127SOL     OW29842   3.371   3.484   7.306 -0.2470 -0.0810  0.0241
 6127SOL    HW129843   3.321   3.550   7.258 -0.9128  0.0331  0.8809
 6127SOL    HW229844   3.303   3.418   7.319 -0.6727  0.2210 -0.6840
 6128SOL     OW29845   1.051   1.295  17.003 -0.3350  0.6993  0.0932
 6128SOL    HW129846   1.028   1.236  17.075  0.3971 -1.0586 -1.1367
 6128SOL    HW229847   0.974   1.352  16.996  0.0241  1.1472 -0.2362
 6129SOL     OW29848   0.674   0.940   9.424  0.4443 -0.8233 -0.3839
 6129SOL    HW129849   0.739   0.970   9.488 -0.0144 -0.8490  0.0932
 6129SOL    HW229850   0.729   0.887   9.366 -1.1924 -1.6183 -1.1952
 6130SOL     OW29851   4.524   4.678   8.253  0.3256  0.6856 -0.2854
 6130SOL    HW129852   4.550   4.587   8.269  2.0596  0.5640 -3.7088
 6130SOL    HW229853   4.439   4.690   8.294 -0.1685  1.6790 -1.5722
 6131SOL     OW29854   3.273   2.018   3.779  0.0207 -0.3009 -0.2660
 6131SOL    HW129855   3.335   1.980   3.717 -1.1301 -0.4027 -1.3405
 6131SOL    HW229856   3.187   1.994   3.745 -0.2538 -1.2350  1.0930
 6132SOL     OW29857   2.684   1.053  14.687 -0.0457  0.3891  0.4594
 6132SOL    HW129858   2.594   1.082  14.673  0.3800  2.1045  1.2271
 6132SOL    HW229859   2.708   1.006  14.606  0.2862  2.7821 -0.8352
 6133SOL     OW29860   4.206   4.596   4.546 -0.4657  0.0951 -0.3320
 6133SOL    HW129861   4.217   4.621   4.454  1.1439  2.2323  0.4464
 6133SOL    HW229862   4.231   4.504   4.541  2.6800  1.0389 -1.6110
 6134SOL     OW29863   3.903   2.317  10.627 -0.9680  0.2080 -0.0197
 6134SOL    HW129864   3.950   2.401  10.624 -1.0611  0.1749 -2.0730
 6134SOL    HW229865   3.977   2.268  10.590  1.3736  2.4558  1.6323
 6135SOL     OW29866   1.443   1.210  11.839  0.1079 -0.2610 -0.5982
 6135SOL    HW129867   1.394   1.191  11.919  1.0555 -1.4139 -0.2840
 6135SOL    HW229868   1.456   1.304  11.843 -0.2204 -0.2663  0.5349
 6136SOL     OW29869   1.083   1.821   4.342 -0.0348  0.5133  0.2947
 6136SOL    HW129870   1.145   1.794   4.275 -0.7560 -1.4716  0.4332
 6136SOL    HW229871   1.139   1.852   4.413 -0.4394 -0.1076  0.8812
 6137SOL     OW29872   2.482   2.145   8.212  0.4913  0.2915  0.8117
 6137SOL    HW129873   2.518   2.198   8.141 -2.5343 -0.2778 -1.1306
 6137SOL    HW229874   2.489   2.053   8.187 -0.3778  0.7771 -1.1936
 6138SOL     OW29875   4.612   1.164   5.763 -0.0604  0.4105  0.2642
 6138SOL    HW129876   4.524   1.129   5.775  0.2860 -0.3318  0.6210
 6138SOL    HW229877   4.602   1.203   5.676  1.3507 -3.1156 -1.4671
 6139SOL     OW29878   1.821   0.004   4.125 -0.1407 -0.2083 -0.4110
 6139SOL    HW129879   1.785   0.049   4.049  0.4539  1.2018  0.1378
 6139SOL    HW229880   1.913   4.727   4.098 -0.0190 -0.7682  0.1118
 6140SOL     OW29881   3.660   0.855   5.164  0.5467  0.1264 -0.0617
 6140SOL    HW129882   3.717   0.867   5.240 -0.9396  0.6193  0.9807
 6140SOL    HW229883   3.578   0.867   5.212 -0.0393 -1.6992 -0.6135
 6141SOL     OW29884   3.137   2.443   0.531  0.5640  0.1504 -0.4178
 6141SOL    HW129885   3.192   2.511   0.571  0.3639  0.4955 -0.7265
 6141SOL    HW229886   3.070   2.504   0.501 -0.4518 -1.0471 -0.5737
 6142SOL     OW29887   0.548   3.593  12.338 -0.6998 -0.3796 -0.2204
 6142SOL    HW129888   0.639   3.564  12.344 -0.8199 -1.0895 -1.8287
 6142SOL    HW229889   0.555   3.647  12.259 -0.9643  0.2825  0.2098
 6143SOL     OW29890   0.840   3.173   8.896 -0.5382  0.0928 -0.3667
 6143SOL    HW129891   0.894   3.246   8.925  1.5478 -0.9834 -1.4967
 6143SOL    HW229892   0.912   3.109   8.896  0.2042  0.9263  0.8809
 6144SOL     OW29893   3.691   1.760   2.848 -0.2010 -0.0121  0.0901
 6144SOL    HW129894   3.781   1.744   2.877 -0.9326 -2.1940  1.1147
 6144SOL    HW229895   3.683   1.719   2.762  1.5877  2.6021 -1.3336
 6145SOL     OW29896   4.520   0.406   1.347 -0.4764  0.1465 -0.0001
 6145SOL    HW129897   4.580   0.374   1.415 -1.1124  0.5363  0.7464
 6145SOL    HW229898   4.583   0.448   1.289  0.5140 -0.5862  0.5477
 6146SOL     OW29899   1.414   3.205  12.128  0.2746 -0.2322 -0.1740
 6146SOL    HW129900   1.492   3.185  12.076 -0.3099  0.0110 -1.1359
 6146SOL    HW229901   1.356   3.238  12.059  0.5746 -2.2084 -1.3747
 6147SOL     OW29902   0.531   0.074   2.917 -0.4425 -0.1975 -0.1361
 6147SOL    HW129903   0.533   4.712   2.887 -0.4315  0.3551 -1.7611
 6147SOL    HW229904   0.608   0.104   2.870 -1.0068  1.4915 -0.0186
 6148SOL     OW29905   4.415   3.521  16.169 -0.4036 -0.6548 -0.2772
 6148SOL    HW129906   4.428   3.603  16.122 -3.0612 -1.1627 -1.9015
 6148SOL    HW229907   4.429   3.549  16.259 -1.6229  1.4770 -0.7326
 6149SOL     OW29908   3.607   2.517   6.462  0.0310  0.1669  0.4754
 6149SOL    HW129909   3.698   2.529   6.437  0.0156 -1.1986 -0.2036
 6149SOL    HW229910   3.622   2.504   6.556 -2.0220  1.1338  0.9563
 6150SOL     OW29911   2.532   4.650   1.989  0.9372  0.0556 -0.4115
 6150SOL    HW129912   2.438   4.661   1.976  0.7529  0.1574  1.0127
 6150SOL    HW229913   2.564   4.702   1.915  2.2290 -0.7692 -0.4398
 6151SOL     OW29914   0.191   0.839   2.815  0.0546  0.9426 -0.0956
 6151SOL    HW129915   0.101   0.811   2.800 -0.0529  0.7283  0.9810
 6151SOL    HW229916   0.233   0.766   2.859 -1.8735 -0.3871 -0.4599
 6152SOL     OW29917   4.379   1.123  16.014 -0.2998 -0.0092 -0.1043
 6152SOL    HW129918   4.452   1.160  16.064  1.1667 -0.3312 -1.9654
 6152SOL    HW229919   4.420   1.140  15.929  0.7968  0.1143  0.4406
 6153SOL     OW29920   4.460   0.753   7.264 -0.2210 -1.0835  0.0762
 6153SOL    HW129921   4.460   0.662   7.236 -0.9799 -0.6296 -1.3639
 6153SOL    HW229922   4.367   0.761   7.282 -0.4736 -0.0589 -1.6846
 6154SOL     OW29923   2.510   1.035  15.254  0.1049  0.7667 -0.4836
 6154SOL    HW129924   2.521   1.122  15.216 -0.4909  0.7438 -0.7013
 6154SOL    HW229925   2.415   1.022  15.253 -0.0257  1.7047 -0.6132
 6155SOL     OW29926   0.891   0.760  16.034 -0.1478 -0.3217  0.3338
 6155SOL    HW129927   0.876   0.853  16.020 -1.0718 -0.4562  0.4273
 6155SOL    HW229928   0.858   0.732  15.948  2.2927 -0.5752 -0.5143
 6156SOL     OW29929   2.834   3.937   1.992  0.2741  0.0487  0.5984
 6156SOL    HW129930   2.826   3.997   1.918 -1.0259 -0.3914  0.3792
 6156SOL    HW229931   2.743   3.911   2.006  0.3640  0.0090  1.1414
 6157SOL     OW29932   3.930   4.359   7.122  0.1777 -0.1986 -0.2223
 6157SOL    HW129933   3.898   4.341   7.034 -1.8693 -0.2837  0.5363
 6157SOL    HW229934   3.961   4.449   7.133  0.5962 -0.5544  1.5382
 6158SOL     OW29935   4.304   1.716  15.663  0.5556  0.4213  0.7660
 6158SOL    HW129936   4.392   1.734  15.696  1.0483 -1.1744  0.3266
 6158SOL    HW229937   4.253   1.742  15.740 -1.1243 -0.2346 -0.1233
 6159SOL     OW29938   2.053   0.963   2.825 -0.0089 -1.2522  0.2034
 6159SOL    HW129939   2.037   1.053   2.796 -1.7406 -1.2136  1.2714
 6159SOL    HW229940   2.066   0.921   2.740  2.2203  2.8412 -1.4850
 6160SOL     OW29941   2.904   2.493  14.396  0.0077 -0.4623  0.0073
 6160SOL    HW129942   2.996   2.512  14.375 -0.1795  1.2214  0.6898
 6160SOL    HW229943   2.866   2.580  14.409 -1.5768 -1.1994  0.2090
 6161SOL     OW29944   4.700   2.585   7.112  0.2098  0.3842  0.4453
 6161SOL    HW129945   4.677   2.619   7.198  2.8890  1.7915  0.6089
 6161SOL    HW229946   0.015   2.664   7.077  0.0377  0.6280  0.7818
 6162SOL     OW29947   2.236   4.406   0.322 -0.0865  0.2439 -0.2807
 6162SOL    HW129948   2.206   4.462   0.393  0.0291  0.3408 -0.3084
 6162SOL    HW229949   2.312   4.358   0.356 -0.7119 -0.4607  0.1257
 6163SOL     OW29950   4.510   1.900   7.087  0.2481 -0.5797 -0.6938
 6163SOL    HW129951   4.491   1.808   7.070  0.2728 -0.4520 -1.3790
 6163SOL    HW229952   4.602   1.917   7.068 -0.3644  0.2272 -2.8988
 6164SOL     OW29953   1.317   2.627   9.777 -0.4360 -0.4412  0.5321
 6164SOL    HW129954   1.375   2.671   9.839  0.0360 -1.1094  0.5654
 6164SOL    HW229955   1.278   2.556   9.828  0.2242 -0.1689  1.4125
 6165SOL     OW29956   0.707   3.956   2.423  0.3222  0.4998 -0.5512
 6165SOL    HW129957   0.615   3.982   2.434  0.3029  0.5203 -0.7525
 6165SOL    HW229958   0.758   4.023   2.469  0.5975 -0.0992  0.0060
 6166SOL     OW29959   3.634   0.327  11.426 -0.0019 -0.1541 -0.1660
 6166SOL    HW129960   3.549   0.283  11.430  0.6674 -1.3619  0.9529
 6166SOL    HW229961   3.644   0.353  11.518 -1.0418 -0.6781  0.1036
 6167SOL     OW29962   1.966   3.803   0.110 -0.5469  0.0684 -0.0662
 6167SOL    HW129963   1.986   3.833   0.021  2.2499 -3.0784 -0.5015
 6167SOL    HW229964   1.994   3.877   0.165  0.9998  1.2546 -2.4159
 6168SOL     OW29965   1.593   4.150   2.509  0.1901 -0.6578  0.2342
 6168SOL    HW129966   1.571   4.219   2.446 -2.0893  0.0040  1.7860
 6168SOL    HW229967   1.602   4.074   2.451 -1.2232 -0.0142 -0.8347
 6169SOL     OW29968   0.640   4.510  15.384 -0.1034  0.1566  0.5793
 6169SOL    HW129969   0.675   4.423  15.405  0.0301  0.6354  2.3665
 6169SOL    HW229970   0.721   4.556  15.364  0.1859 -0.5464  0.1475
 6170SOL     OW29971   2.247   3.406   1.638 -0.2121  0.6511 -0.3245
 6170SOL    HW129972   2.185   3.397   1.566  1.4669  2.3521 -1.9562
 6170SOL    HW229973   2.220   3.494   1.665 -2.7585 -0.4793  0.9119
 6171SOL     OW29974   4.709   4.627   6.246  0.1379  0.6243  0.9397
 6171SOL    HW129975   0.047   4.695   6.236  0.3121  0.0985 -1.5841
 6171SOL    HW229976   4.683   4.620   6.154  1.0988  0.6206  0.6689
 6172SOL     OW29977   4.312   1.420   6.601 -0.2701 -0.1949  1.0551
 6172SOL    HW129978   4.227   1.381   6.623 -0.5244  0.5387  1.3651
 6172SOL    HW229979   4.353   1.456   6.679  0.7293  1.5604 -0.2693
 6173SOL     OW29980   4.078   0.146   4.415 -0.4685  0.8333  0.5503
 6173SOL    HW129981   4.003   0.205   4.404 -1.9772 -1.0512  0.6060
 6173SOL    HW229982   4.032   0.065   4.392  0.0231  0.1512  2.0041
 6174SOL     OW29983   1.574   3.050   7.440  0.1533  0.4468 -0.3400
 6174SOL    HW129984   1.533   2.981   7.492 -1.2772  0.8094 -0.9957
 6174SOL    HW229985   1.629   3.085   7.511  4.2363  1.2501 -3.9105
 6175SOL     OW29986   0.702   2.287   4.895 -0.2603 -0.2430 -0.3770
 6175SOL    HW129987   0.632   2.267   4.957 -0.8045 -0.6716 -1.1386
 6175SOL    HW229988   0.775   2.292   4.957 -1.1858 -1.7365  0.8114
 6176SOL     OW29989   0.602   3.374   8.351  0.0686 -0.0968 -0.0768
 6176SOL    HW129990   0.654   3.294   8.361  0.2115  0.1080  0.8020
 6176SOL    HW229991   0.654   3.426   8.289  0.5510  0.0038  0.4169
 6177SOL     OW29992   2.882   2.086  10.442  0.2323 -0.6582 -0.1105
 6177SOL    HW129993   2.869   2.040  10.359 -2.9745 -0.6712  0.3976
 6177SOL    HW229994   2.790   2.110  10.446  0.0660 -1.1873 -0.8691
 6178SOL     OW29995   1.573   4.148   7.443  0.5113 -0.1004  0.2479
 6178SOL    HW129996   1.600   4.082   7.380  2.4981  0.0862  0.8996
 6178SOL    HW229997   1.559   4.219   7.380 -0.7745 -0.9680 -0.4324
 6179SOL     OW29998   2.732   0.893  15.270 -0.1093  0.6451 -0.0733
 6179SOL    HW129999   2.653   0.946  15.270  0.3193  1.2635  2.1008
 6179SOL    HW230000   2.705   0.808  15.234 -1.4818  1.0955 -0.1248
 6180SOL     OW30001   0.217   0.150   1.414  0.2738  0.2091 -0.8821
 6180SOL    HW130002   0.221   0.085   1.484  0.4836  0.7984 -0.3511
 6180SOL    HW230003   0.260   0.098   1.346  1.6964  1.3364 -0.8465
 6181SOL     OW30004   3.151   1.625   0.932 -0.1287 -0.5623 -0.4432
 6181SOL    HW130005   3.239   1.630   0.894  0.1758  0.2768  0.3459
 6181SOL    HW230006   3.141   1.532   0.951 -0.6287 -0.7553 -1.6848
 6182SOL     OW30007   3.667   3.394   9.204 -0.3612 -0.3277 -0.4029
 6182SOL    HW130008   3.610   3.400   9.127 -1.7023 -1.6391  0.4921
 6182SOL    HW230009   3.692   3.484   9.222  1.2169 -1.1462  1.4456
 6183SOL     OW30010   0.142   2.076   0.297 -1.0258  0.1759 -0.2614
 6183SOL    HW130011   0.063   2.034   0.264  1.5336 -3.4977 -1.7834
 6183SOL    HW230012   0.171   2.121   0.218  4.4346  1.4865  2.4324
 6184SOL     OW30013   3.236   0.670  15.998  0.1217 -0.0301 -0.7399
 6184SOL    HW130014   3.245   0.738  15.931 -0.8210  0.0321 -0.8086
 6184SOL    HW230015   3.327   0.642  15.995 -0.4112 -1.8909  0.4947
 6185SOL     OW30016   3.290   2.390   1.559 -0.0338  0.1826  0.6753
 6185SOL    HW130017   3.269   2.305   1.519  0.0608  0.6496 -0.3653
 6185SOL    HW230018   3.369   2.363   1.607  0.5794 -0.7033 -0.7999
 6186SOL     OW30019   2.850   2.972   8.578 -0.0507  0.2665  0.1494
 6186SOL    HW130020   2.858   3.016   8.493  1.2416  2.3771  1.3428
 6186SOL    HW230021   2.807   2.892   8.548  0.8185 -0.0141 -0.3302
 6187SOL     OW30022   0.318   0.102  11.676  0.3742  0.2614 -0.4012
 6187SOL    HW130023   0.314   0.166  11.605  0.0789  1.0316  0.3115
 6187SOL    HW230024   0.227   0.072  11.686  0.9553 -1.1654  0.5329
 6188SOL     OW30025   3.723   2.646   0.324  0.1250 -0.9360 -0.0445
 6188SOL    HW130026   3.634   2.623   0.349  0.4139 -0.5988  1.2911
 6188SOL    HW230027   3.760   2.564   0.293 -1.2756 -0.7015 -2.2690
 6189SOL     OW30028   1.262   4.228   2.766  0.3900 -0.1515  0.1474
 6189SOL    HW130029   1.331   4.163   2.763 -0.2276 -0.6703 -3.4409
 6189SOL    HW230030   1.280   4.271   2.682 -0.2652  3.0391  1.6427
 6190SOL     OW30031   3.151   2.437   6.006 -0.6618  0.4424  0.9039
 6190SOL    HW130032   3.113   2.359   6.045 -0.8156  1.4190  2.7189
 6190SOL    HW230033   3.208   2.465   6.078  0.0005  0.5422  0.3389
 6191SOL     OW30034   1.884   4.138   9.237 -0.0167  0.1941 -0.0838
 6191SOL    HW130035   1.932   4.096   9.166 -1.3740  1.3848 -1.6933
 6191SOL    HW230036   1.960   4.169   9.288 -0.0249 -1.1118  0.7088
 6192SOL     OW30037   2.496   1.936   1.195  0.8086  0.1606 -0.7428
 6192SOL    HW130038   2.407   1.939   1.229  0.9262  0.5318 -0.4632
 6192SOL    HW230039   2.475   1.954   1.103 -0.7009 -0.9116 -0.5975
 6193SOL     OW30040   1.279   3.572  16.169  0.2937  0.4936 -0.1840
 6193SOL    HW130041   1.257   3.569  16.076 -1.3977  0.1757  0.2302
 6193SOL    HW230042   1.202   3.599  16.219  1.1079  0.7650  0.9326
 6194SOL     OW30043   0.048   2.721   0.260 -0.0987 -0.0084  0.5074
 6194SOL    HW130044   0.128   2.682   0.295 -0.1169  0.6481  1.2583
 6194SOL    HW230045   0.054   2.816   0.264  0.9644 -0.1469  2.2522
 6195SOL     OW30046   2.601   1.074  13.078 -0.0524  0.1292  0.5574
 6195SOL    HW130047   2.665   1.031  13.021 -0.1595 -1.7632  1.8491
 6195SOL    HW230048   2.551   1.111  13.006 -0.7440  0.9230  1.4558
 6196SOL     OW30049   4.672   0.403   7.549  0.0566  0.6037 -0.3660
 6196SOL    HW130050   4.593   0.352   7.530 -0.4086  0.5763  1.7155
 6196SOL    HW230051   4.710   0.342   7.611 -1.3316  0.7919  0.6703
 6197SOL     OW30052   3.824   4.683   6.973  0.2284 -0.5964  0.4436
 6197SOL    HW130053   3.819   4.682   6.877 -2.1239  2.0499  0.5280
 6197SOL    HW230054   3.776   4.601   6.983  0.8836 -0.9448  0.7173
 6198SOL     OW30055   3.822   4.110   4.993  0.0589 -0.3683  0.1391
 6198SOL    HW130056   3.759   4.061   4.940  0.5200 -0.7317 -0.0661
 6198SOL    HW230057   3.846   4.046   5.061  0.2992  1.2489  1.5834
 6199SOL     OW30058   3.460   0.865   5.727 -0.2580 -0.1546  0.3934
 6199SOL    HW130059   3.370   0.857   5.697  0.5390 -1.4112 -1.6611
 6199SOL    HW230060   3.478   0.777   5.759  2.2301 -0.0413 -0.6799
 6200SOL     OW30061   0.124   1.687   8.235 -0.2446 -0.4816 -0.4458
 6200SOL    HW130062   0.127   1.597   8.201 -2.8318 -1.4561  1.9088
 6200SOL    HW230063   0.033   1.688   8.266  0.5767  0.2409  1.9083
 6201SOL     OW30064   1.642   2.722   9.193  0.1698 -0.2025  0.2796
 6201SOL    HW130065   1.605   2.735   9.280  0.2513  1.4661  0.0631
 6201SOL    HW230066   1.700   2.649   9.215 -0.5874 -1.6682 -2.5034
 6202SOL     OW30067   3.518   2.893   5.092  0.0653 -0.3221  0.1029
 6202SOL    HW130068   3.572   2.972   5.101  0.6525 -0.5339 -1.6114
 6202SOL    HW230069   3.554   2.841   5.020  0.3975 -0.7753  0.5972
 6203SOL     OW30070   0.984   4.661   2.487  0.2802 -0.1625  0.0456
 6203SOL    HW130071   0.915   4.726   2.477  2.4458  2.0420 -0.6826
 6203SOL    HW230072   0.938   4.581   2.464 -0.6441  0.2039  0.6508
 6204SOL     OW30073   3.509   1.714   1.104  0.0698  0.1636 -0.3847
 6204SOL    HW130074   3.550   1.628   1.119  0.4196  0.6071  1.2123
 6204SOL    HW230075   3.506   1.720   1.009  1.8095  0.8429 -0.3969
 6205SOL     OW30076   2.691   2.306  15.702  0.3391  0.7055  0.5437
 6205SOL    HW130077   2.767   2.253  15.725 -1.6518 -1.9129  1.1468
 6205SOL    HW230078   2.696   2.314  15.607 -0.1459  0.4032  0.4954
 6206SOL     OW30079   1.619   2.914   5.032  0.1992 -0.3833  0.4030
 6206SOL    HW130080   1.531   2.894   5.062 -0.7779 -1.5421 -3.2373
 6206SOL    HW230081   1.657   2.832   5.061  2.3360  1.0587  1.7235
 6207SOL     OW30082   4.309   3.191   7.727 -0.0149 -0.2323  0.5482
 6207SOL    HW130083   4.355   3.110   7.751  2.1467  0.6926 -0.4496
 6207SOL    HW230084   4.379   3.255   7.738 -0.6280  0.7807 -1.5297
 6208SOL     OW30085   0.678   2.013   4.270  0.0722  1.0410 -0.5085
 6208SOL    HW130086   0.611   2.016   4.337  2.1274 -1.9815  1.7094
 6208SOL    HW230087   0.763   2.023   4.313  0.9653  0.1116 -2.0234
 6209SOL     OW30088   4.420   3.217  13.334  0.1814  0.5694 -1.0232
 6209SOL    HW130089   4.375   3.157  13.274 -1.7592  2.3606 -1.3589
 6209SOL    HW230090   4.507   3.221  13.294  0.2097  0.1887 -0.9991
 6210SOL     OW30091   1.691   1.711   8.518  0.2832  0.5098 -0.0632
 6210SOL    HW130092   1.733   1.781   8.469  2.3954 -0.4330  0.4029
 6210SOL    HW230093   1.601   1.720   8.485 -0.8122 -1.6196  2.2655
 6211SOL     OW30094   4.568   4.005  12.868 -0.0803 -0.7477 -1.0119
 6211SOL    HW130095   4.613   4.079  12.910  1.1718 -1.2467 -1.4848
 6211SOL    HW230096   4.600   3.929  12.916  1.8651  0.5513 -0.2748
 6212SOL     OW30097   4.496   1.025   0.424 -0.4686  0.0154 -0.5107
 6212SOL    HW130098   4.419   0.990   0.468 -0.4365  0.2132 -0.3024
 6212SOL    HW230099   4.553   0.950   0.441  0.2913  0.4853 -0.9586
 6213SOL     OW30100   1.095   4.214   9.237 -0.3332 -0.3957 -0.6042
 6213SOL    HW130101   1.127   4.125   9.255  0.7638  0.1502  0.1422
 6213SOL    HW230102   1.008   4.200   9.201 -0.9121  0.2451  0.5726
 6214SOL     OW30103   2.052   3.433   2.910  0.6130  0.6809  0.0043
 6214SOL    HW130104   2.089   3.389   2.834  0.4636 -1.1015  0.9688
 6214SOL    HW230105   1.967   3.453   2.872  0.8109  0.8277 -0.3658
 6215SOL     OW30106   2.836   2.283   3.973 -0.2625  0.0561  0.0931
 6215SOL    HW130107   2.908   2.345   3.962 -0.7535  0.3284 -1.4951
 6215SOL    HW230108   2.884   2.203   3.956  1.0692  0.9910 -0.5565
 6216SOL     OW30109   4.042   1.774   5.368  0.8017  0.3496 -0.0231
 6216SOL    HW130110   3.980   1.846   5.382 -1.3609 -1.6191  0.4128
 6216SOL    HW230111   4.029   1.739   5.456  0.2041  0.6498  0.0083
 6217SOL     OW30112   0.722   4.403   6.739  0.6533 -0.1305  0.1607
 6217SOL    HW130113   0.766   4.400   6.653  3.8089 -0.4089  1.7867
 6217SOL    HW230114   0.768   4.331   6.783  0.8166 -1.4514 -2.1224
 6218SOL     OW30115   1.504   1.973  10.906  0.1576  0.2204 -0.1697
 6218SOL    HW130116   1.535   1.884  10.887 -0.2405  0.7235 -3.1405
 6218SOL    HW230117   1.524   1.974  11.000 -0.5634 -3.5666  0.0330
 6219SOL     OW30118   1.418   4.679  13.116 -0.4910 -0.3253  0.1473
 6219SOL    HW130119   1.359   4.606  13.137 -1.4531 -0.4079 -2.9193
 6219SOL    HW230120   1.441   4.699  13.207  1.8832 -2.0528 -0.0763
 6220SOL     OW30121   4.591   0.807   5.651 -0.2685  0.1473 -0.6714
 6220SOL    HW130122   4.661   0.776   5.708 -1.6277  1.7762  1.9176
 6220SOL    HW230123   4.541   0.727   5.636  0.3615 -0.7667  1.9664
 6221SOL     OW30124   3.694   3.810   5.729  0.0141 -0.5160  0.1285
 6221SOL    HW130125   3.777   3.856   5.715 -0.1159 -1.0691 -2.4370
 6221SOL    HW230126   3.685   3.818   5.824 -2.1505  0.6618 -0.1730
 6222SOL     OW30127   0.890   2.245   3.266 -0.0675  0.2738  0.1223
 6222SOL    HW130128   0.839   2.240   3.185  2.4974 -0.8601 -1.4166
 6222SOL    HW230129   0.947   2.318   3.241 -1.2161  0.5214 -1.7131
 6223SOL     OW30130   4.133   0.208   7.502  0.0574 -0.2200 -0.0325
 6223SOL    HW130131   4.184   0.261   7.441  0.7951 -0.3228  0.4973
 6223SOL    HW230132   4.105   0.137   7.444  1.8571 -1.2122  0.3259
 6224SOL     OW30133   1.863   0.909   5.463 -0.2277 -0.0274  0.0447
 6224SOL    HW130134   1.943   0.881   5.507  1.4116  0.7629 -2.4514
 6224SOL    HW230135   1.794   0.855   5.502 -0.2423  0.7893  1.1662
 6225SOL     OW30136   0.955   2.133   0.531  0.1928 -0.4782 -0.0379
 6225SOL    HW130137   1.030   2.180   0.493  0.4538 -0.4643  0.4844
 6225SOL    HW230138   0.894   2.207   0.538  0.6845  0.0609 -1.5944
 6226SOL     OW30139   1.637   2.068  15.928  0.5390  0.0276  1.1461
 6226SOL    HW130140   1.688   2.117  15.993  1.5531  0.1141  0.2868
 6226SOL    HW230141   1.617   2.139  15.868  2.3854 -1.0154 -0.7159
 6227SOL     OW30142   2.063   1.024   8.181  0.4264  0.4569  0.4347
 6227SOL    HW130143   2.157   1.034   8.195  0.1712  1.3203  1.5823
 6227SOL    HW230144   2.039   1.112   8.211  1.3525  0.6224  0.6880
 6228SOL     OW30145   4.204   1.693  16.318 -0.1533 -0.4414 -0.5070
 6228SOL    HW130146   4.178   1.759  16.254 -0.9450 -0.2021  0.0653
 6228SOL    HW230147   4.296   1.694  16.293 -0.2069  0.5783 -0.6635
 6229SOL     OW30148   0.621   3.669  10.971  0.0919  0.2927 -0.4896
 6229SOL    HW130149   0.635   3.729  11.044  2.1421 -0.7578 -0.0082
 6229SOL    HW230150   0.709   3.665  10.933  0.7913 -2.7600  1.3496
 6230SOL     OW30151   2.987   1.698   0.727 -0.1613  0.4349  0.0749
 6230SOL    HW130152   2.937   1.620   0.702 -1.2571  1.1811 -0.0379
 6230SOL    HW230153   3.037   1.669   0.803 -2.0932 -1.1347  0.7383
 6231SOL     OW30154   1.884   0.621   7.930 -0.2236  0.0467  1.0326
 6231SOL    HW130155   1.788   0.630   7.928  0.0029  2.3190  0.5940
 6231SOL    HW230156   1.899   0.713   7.909 -0.6489 -0.1993 -0.3505
 6232SOL     OW30157   3.010   1.005  11.184  0.3122 -0.0533 -0.1886
 6232SOL    HW130158   2.941   1.056  11.141  0.2763  0.5944  0.6370
 6232SOL    HW230159   3.055   0.970  11.107  1.0072 -0.6866  0.5148
 6233SOL     OW30160   4.056   2.606   2.892 -0.0764  0.4803  0.4089
 6233SOL    HW130161   4.058   2.698   2.864 -0.2972  0.1158 -0.7818
 6233SOL    HW230162   4.100   2.560   2.821 -0.6134  0.7804 -0.1154
 6234SOL     OW30163   2.741   1.426  15.028  0.3096 -0.0673  0.1062
 6234SOL    HW130164   2.705   1.470  14.950  0.1233 -1.2445 -0.4743
 6234SOL    HW230165   2.734   1.336  14.997 -0.4198 -0.3156  0.9829
 6235SOL     OW30166   1.383   1.356  14.370  0.5182  0.1212  0.6911
 6235SOL    HW130167   1.316   1.423  14.356  1.0819  0.6424  0.5002
 6235SOL    HW230168   1.452   1.416  14.397 -0.7511  1.9795 -0.1353
 6236SOL     OW30169   3.843   2.720   0.569  0.4265  0.0842  0.1431
 6236SOL    HW130170   3.801   2.780   0.631  2.7406 -0.1316  1.9098
 6236SOL    HW230171   3.802   2.755   0.490 -1.5919 -1.6841  0.4303
 6237SOL     OW30172   1.976   0.767   8.364  0.2623  0.6721  0.6641
 6237SOL    HW130173   2.021   0.844   8.400  0.2603  0.9404  0.0911
 6237SOL    HW230174   2.029   0.744   8.287 -0.0879  1.1091  0.2953
 6238SOL     OW30175   3.180   2.788   6.514  0.0310  0.0473  0.0775
 6238SOL    HW130176   3.258   2.803   6.461  0.1097  1.9877  0.7382
 6238SOL    HW230177   3.118   2.751   6.451  0.0248  2.3044 -1.2471
 6239SOL     OW30178   0.287   2.143   5.249 -0.6357  0.2370  0.0359
 6239SOL    HW130179   0.349   2.212   5.227 -3.5053  2.9136  0.2769
 6239SOL    HW230180   0.290   2.083   5.174  1.1182  0.4942 -0.0984
 6240SOL     OW30181   1.128   0.665   6.538  0.0720 -0.3494 -0.1347
 6240SOL    HW130182   1.124   0.636   6.629  2.6029 -3.8741 -1.1116
 6240SOL    HW230183   1.161   0.585   6.496 -2.3562 -2.5432  2.1656
 6241SOL     OW30184   4.597   3.231  14.034 -0.3255 -0.1977 -0.4768
 6241SOL    HW130185   4.503   3.248  14.026 -0.0365  1.6988  0.3608
 6241SOL    HW230186   4.636   3.302  13.984 -0.1417 -0.7149 -1.0730
 6242SOL     OW30187   4.470   3.734   3.910  0.3389 -0.0131  0.0756
 6242SOL    HW130188   4.463   3.639   3.901 -0.8493 -0.0990  2.0049
 6242SOL    HW230189   4.388   3.753   3.956  1.0333  3.2185  0.0333
 6243SOL     OW30190   3.795   3.186   5.361  0.5222 -0.9306 -0.1953
 6243SOL    HW130191   3.853   3.262   5.371 -0.7367 -0.2598  2.0537
 6243SOL    HW230192   3.730   3.218   5.424 -1.0953  0.3521 -2.5619
 6244SOL     OW30193   0.528   0.769   4.908 -0.7404 -0.4556 -0.5212
 6244SOL    HW130194   0.451   0.805   4.864  0.2020  2.2259 -0.0058
 6244SOL    HW230195   0.491   0.707   4.971  0.6282  0.9043  1.6286
 6245SOL     OW30196   1.459   0.245   9.916 -1.2213  0.9249 -0.4345
 6245SOL    HW130197   1.476   0.334   9.884  0.9470 -0.6790 -3.6455
 6245SOL    HW230198   1.377   0.263   9.963 -0.9353  0.9896  0.0403
 6246SOL     OW30199   4.116   1.645  17.358  0.3352 -0.4244 -0.0529
 6246SOL    HW130200   4.099   1.716  17.420 -0.6516  1.6556 -2.6976
 6246SOL    HW230201   4.027   1.612  17.342  0.2436  0.0895 -0.6094
 6247SOL     OW30202   1.055   0.628  14.974  0.8426 -0.4875  0.4879
 6247SOL    HW130203   0.971   0.589  14.994  1.2377 -1.3493  0.4890
 6247SOL    HW230204   1.073   0.682  15.051  0.5965 -0.1171  0.2810
 6248SOL     OW30205   3.605   3.902   1.301 -0.2228 -0.1201 -0.3623
 6248SOL    HW130206   3.511   3.889   1.287 -0.3321 -0.8753  1.0833
 6248SOL    HW230207   3.614   3.909   1.396 -1.2624 -1.5647 -0.1470
 6249SOL     OW30208   0.758   3.153   8.375  0.2854 -0.0879  0.0906
 6249SOL    HW130209   0.832   3.092   8.384 -1.0576 -1.7011  0.0306
 6249SOL    HW230210   0.737   3.126   8.286  0.4640 -0.9545  0.3156
 6250SOL     OW30211   4.431   1.994   4.568 -0.1258  0.2225 -0.5152
 6250SOL    HW130212   4.484   1.968   4.493 -2.0812 -0.2789 -1.7369
 6250SOL    HW230213   4.445   2.088   4.567  1.9228 -0.0984 -1.0047
 6251SOL     OW30214   2.772   0.136   9.234  0.0354  0.3771 -0.8952
 6251SOL    HW130215   2.814   0.105   9.153 -1.0459  1.4571 -1.8737
 6251SOL    HW230216   2.759   0.229   9.215 -0.1243  0.7987  1.3437
 6252SOL     OW30217   0.722   3.390   7.816 -0.7139 -0.1452 -0.1603
 6252SOL    HW130218   0.778   3.403   7.893 -0.0893  0.7171 -0.7709
 6252SOL    HW230219   0.636   3.375   7.856 -0.2947  2.8356  1.8536
 6253SOL     OW30220   0.985   2.180  11.231 -0.2769  0.4770 -0.1283
 6253SOL    HW130221   1.046   2.249  11.206  1.4238 -1.4224 -1.1862
 6253SOL    HW230222   0.990   2.192  11.326  0.8299 -1.6817  0.0857
 6254SOL     OW30223   0.469   1.578  11.150 -0.0523 -0.1708  0.2394
 6254SOL    HW130224   0.488   1.569  11.057  2.9570  1.4933  0.6924
 6254SOL    HW230225   0.386   1.626  11.158  0.3462  1.0271 -2.5352
 6255SOL     OW30226   1.603   2.675   0.040  0.1406 -0.0513  0.3129
 6255SOL    HW130227   1.675   2.675   0.104  0.0459  1.2091  0.4089
 6255SOL    HW230228   1.641   2.732  17.689 -0.1449 -0.0902  0.1182
 6256SOL     OW30229   4.642   1.691   6.788 -0.0408 -0.1840 -0.0047
 6256SOL    HW130230   4.616   1.764   6.731  1.6446 -0.7203 -1.4586
 6256SOL    HW230231   4.700   1.636   6.735  0.4908  0.6744 -0.3118
 6257SOL     OW30232   3.513   0.078   9.432  0.0869 -0.3010  0.2840
 6257SOL    HW130233   3.425   0.040   9.434  0.5325 -1.2426  2.4436
 6257SOL    HW230234   3.497   0.143   9.499 -1.0622 -0.6569  0.3580
 6258SOL     OW30235   3.435   1.718  16.292  0.2016  0.0146  0.1806
 6258SOL    HW130236   3.362   1.659  16.270 -1.6727  1.8362  1.5087
 6258SOL    HW230237   3.485   1.705  16.212  0.5716  1.1385  0.2265
 6259SOL     OW30238   4.674   1.254   5.432 -0.0267  0.3467  0.6808
 6259SOL    HW130239   4.683   1.292   5.345  1.5967 -0.2845  0.5765
 6259SOL    HW230240   0.038   1.233   5.446 -0.4137 -1.2472  0.8002
 6260SOL     OW30241   3.497   4.401   2.862 -0.6081 -0.2318  0.1113
 6260SOL    HW130242   3.527   4.418   2.773 -0.0932 -0.2818  0.2779
 6260SOL    HW230243   3.548   4.472   2.901 -0.1907  0.2608 -1.3448
 6261SOL     OW30244   2.729   0.404   6.406 -0.2788  0.2030 -0.0720
 6261SOL    HW130245   2.770   0.462   6.342 -0.0103  1.6726  1.4100
 6261SOL    HW230246   2.695   0.340   6.344 -1.7745  0.4107  0.5293
 6262SOL     OW30247   2.917   0.802   8.374 -0.4408  0.5020 -0.0240
 6262SOL    HW130248   3.009   0.791   8.349 -0.4190  0.1042  0.2346
 6262SOL    HW230249   2.921   0.757   8.459  0.6174 -2.0380 -1.4205
 6263SOL     OW30250   3.151   0.916   6.682 -0.3186  1.1281  0.2253
 6263SOL    HW130251   3.061   0.919   6.715 -0.8509  1.5925 -1.2916
 6263SOL    HW230252   3.202   0.879   6.755 -0.2360  1.1518  0.1794
 6264SOL     OW30253   2.133   4.384  12.005  0.0442 -0.5587  0.0069
 6264SOL    HW130254   2.041   4.355  11.998  0.6271 -2.3716 -0.2551
 6264SOL    HW230255   2.145   4.435  11.925  0.5658 -0.3193  0.2431
 6265SOL     OW30256   4.432   1.477  10.829  0.2910 -0.0735 -0.0022
 6265SOL    HW130257   4.415   1.541  10.899 -1.5527  0.3303 -0.8184
 6265SOL    HW230258   4.528   1.481  10.830  0.2607  0.7956  0.1747
 6266SOL     OW30259   0.509   2.410   8.922 -0.8652 -0.0177 -0.6679
 6266SOL    HW130260   0.508   2.505   8.931  2.4350 -0.0746  0.3491
 6266SOL    HW230261   0.425   2.409   8.877  0.1617 -1.0170 -2.5831
 6267SOL     OW30262   4.426   2.003  16.073 -0.0833  0.0271  0.3154
 6267SOL    HW130263   4.358   2.058  16.110  0.3462  1.5572 -1.1593
 6267SOL    HW230264   4.391   1.918  16.099  0.4619 -0.1753  0.3874
 6268SOL     OW30265   2.254   4.547  11.826 -0.1929  0.0324  0.5958
 6268SOL    HW130266   2.314   4.588  11.887  0.7329 -1.1003  0.4469
 6268SOL    HW230267   2.311   4.503  11.764  0.0947  2.3616 -0.7761
 6269SOL     OW30268   0.005   2.429   0.219 -0.1426  0.1143  0.5740
 6269SOL    HW130269   0.036   2.518   0.230  0.5470  0.1195 -1.5383
 6269SOL    HW230270   4.710   2.409   0.310 -0.3704  3.2671  1.1936
 6270SOL     OW30271   2.198   0.261   1.004  0.0009  0.1559 -0.1365
 6270SOL    HW130272   2.287   0.292   1.020  0.6177 -1.8222  0.2081
 6270SOL    HW230273   2.144   0.340   1.003  0.3215  0.3890  0.9950
 6271SOL     OW30274   1.563   2.454  13.750 -0.2284  0.6522  0.0447
 6271SOL    HW130275   1.592   2.477  13.838  1.0094  0.9586 -0.4489
 6271SOL    HW230276   1.473   2.487  13.756 -1.4108 -2.5487 -0.0257
 6272SOL     OW30277   3.599   2.695   8.520 -0.6241  0.4659  0.6480
 6272SOL    HW130278   3.676   2.713   8.466 -0.1274 -0.2428  1.1160
 6272SOL    HW230279   3.605   2.605   8.553  1.5754  0.7783  1.0964
 6273SOL     OW30280   0.797   4.592   7.824  0.0739  0.4512 -0.0648
 6273SOL    HW130281   0.706   4.562   7.822  0.5442 -0.9542 -0.2337
 6273SOL    HW230282   0.808   4.604   7.729 -1.3383  1.3068 -0.1185
 6274SOL     OW30283   0.948   1.888   5.462  0.4525  0.4271 -0.1977
 6274SOL    HW130284   1.028   1.936   5.441  0.6719 -0.5046 -1.5138
 6274SOL    HW230285   0.978   1.807   5.504  0.3810  0.0349 -0.8974
 6275SOL     OW30286   4.216   1.204   5.366 -0.2562 -0.0284  0.2049
 6275SOL    HW130287   4.128   1.204   5.403 -0.5567 -0.5047 -0.5143
 6275SOL    HW230288   4.220   1.120   5.322 -0.7730 -0.8479  1.7089
 6276SOL     OW30289   4.172   1.007   9.724  0.1255  0.4289 -0.0827
 6276SOL    HW130290   4.228   1.081   9.699 -0.3715  0.3108 -1.5793
 6276SOL    HW230291   4.155   1.033   9.814 -1.2468 -1.3533  0.1547
 6277SOL     OW30292   1.658   4.464   3.636 -0.1391 -0.3431  0.1702
 6277SOL    HW130293   1.662   4.540   3.578  2.9076 -0.4962  0.1852
 6277SOL    HW230294   1.582   4.477   3.693  0.3686 -0.1446  0.8059
 6278SOL     OW30295   3.960   2.836   0.194  0.0872  0.0200 -0.3983
 6278SOL    HW130296   4.050   2.824   0.226 -0.2694  0.5393  0.8166
 6278SOL    HW230297   3.966   2.931   0.187 -0.7269  0.0240 -1.1120
 6279SOL     OW30298   3.508   1.919   7.177  0.3914  0.4656 -0.1515
 6279SOL    HW130299   3.543   2.006   7.199  2.3592 -0.2630 -0.4072
 6279SOL    HW230300   3.469   1.889   7.259 -1.4866 -0.6720 -1.4743
 6280SOL     OW30301   3.146   4.099   9.071  0.3808 -0.3402 -0.4465
 6280SOL    HW130302   3.228   4.135   9.036 -0.1001  0.3165 -0.9044
 6280SOL    HW230303   3.148   4.100   9.167 -0.2996 -0.7077 -0.4302
 6281SOL     OW30304   3.309   1.750   0.591 -0.2585  0.4487  0.1233
 6281SOL    HW130305   3.374   1.809   0.551 -1.1104  1.4925  0.2616
 6281SOL    HW230306   3.352   1.716   0.669  0.6356 -1.0607 -1.0122
 6282SOL     OW30307   1.791   0.187  14.278  0.0100  0.4412  0.3451
 6282SOL    HW130308   1.761   0.144  14.198 -1.1759  2.3039 -0.2189
 6282SOL    HW230309   1.779   0.276  14.245  1.8720 -0.0504 -1.6816
 6283SOL     OW30310   2.985   0.505   8.824 -0.1743  0.2261 -0.8778
 6283SOL    HW130311   3.063   0.519   8.877 -1.9650  1.3271  1.4376
 6283SOL    HW230312   2.913   0.542   8.875  2.1486  1.3102  1.5872
 6284SOL     OW30313   2.824   0.915   7.552 -0.0797  0.0079  0.3384
 6284SOL    HW130314   2.731   0.927   7.530  0.5028  1.0762 -1.5709
 6284SOL    HW230315   2.821   0.820   7.566 -1.5811  0.1168  0.7997
 6285SOL     OW30316   0.245   2.094   9.383  0.6107 -0.2562 -0.1757
 6285SOL    HW130317   0.272   2.003   9.372  1.3296  0.0410 -0.8538
 6285SOL    HW230318   0.169   2.101   9.325  1.1281  1.3250 -0.6652
 6286SOL     OW30319   0.442   4.514  10.273  0.3070 -0.6503 -0.1113
 6286SOL    HW130320   0.448   4.421  10.296  1.8402 -0.4398  0.3130
 6286SOL    HW230321   0.489   4.553  10.346 -2.7362 -1.4007  2.2746
 6287SOL     OW30322   4.654   0.073   7.039  0.2791  0.0049 -0.5715
 6287SOL    HW130323   4.713   0.066   6.964  2.5675  2.2096  1.0294
 6287SOL    HW230324   4.687   4.722   7.079 -1.0172 -1.5289 -2.5707
 6288SOL     OW30325   0.299   4.631   9.168  0.4307 -0.3406 -0.4117
 6288SOL    HW130326   0.373   4.686   9.196  0.6265 -0.8545  0.0689
 6288SOL    HW230327   0.312   4.560   9.231 -0.7776  0.7084  1.0066
 6289SOL     OW30328   3.658   3.423   6.598  0.5601  0.2966  0.6380
 6289SOL    HW130329   3.674   3.355   6.663  3.5273  1.4112  1.0657
 6289SOL    HW230330   3.621   3.489   6.656  0.4742  1.4230 -0.6933
 6290SOL     OW30331   2.600   0.388   4.241  0.2483  0.3513  0.2608
 6290SOL    HW130332   2.681   0.337   4.243 -0.2001 -0.4073 -0.8792
 6290SOL    HW230333   2.640   0.474   4.256 -2.0185  1.3416  0.5807
 6291SOL     OW30334   4.376   2.689  17.247 -0.0767  0.4701  0.1205
 6291SOL    HW130335   4.429   2.633  17.303  1.0593 -0.0778 -1.4803
 6291SOL    HW230336   4.290   2.656  17.271  0.3780 -1.0077 -0.2909
 6292SOL     OW30337   0.551   0.448  15.004 -0.0616  0.3777  0.4783
 6292SOL    HW130338   0.610   0.494  14.945  3.4092 -4.6846  0.0505
 6292SOL    HW230339   0.602   0.448  15.085  1.5319 -0.7287 -0.5358
 6293SOL     OW30340   0.238   2.598  13.194 -0.7431 -0.2780 -0.1432
 6293SOL    HW130341   0.190   2.570  13.116  1.0725  0.3782 -1.4989
 6293SOL    HW230342   0.329   2.608  13.167 -0.1996  0.7723  2.1127
 6294SOL     OW30343   4.037   3.930   5.909 -0.7035 -0.1441  0.0759
 6294SOL    HW130344   3.979   3.883   5.969 -1.8700  1.8604  0.5105
 6294SOL    HW230345   4.001   3.893   5.828  1.6117 -3.5063  0.5938
 6295SOL     OW30346   2.742   1.151   8.776 -0.3461 -0.0127 -0.4017
 6295SOL    HW130347   2.682   1.082   8.748 -0.1859 -0.4071  0.2179
 6295SOL    HW230348   2.687   1.227   8.794  1.1158 -0.1048  4.5639
 6296SOL     OW30349   3.975   2.495   8.232 -0.5623  0.2489 -0.0763
 6296SOL    HW130350   3.999   2.425   8.171  0.6543  0.1934  0.4629
 6296SOL    HW230351   4.055   2.514   8.282 -0.1752 -0.9291 -0.2523
 6297SOL     OW30352   3.275   3.647   6.646  0.1477  0.2248  0.0352
 6297SOL    HW130353   3.341   3.622   6.581 -1.0665 -0.6577 -0.8559
 6297SOL    HW230354   3.327   3.626   6.725  0.8957  0.3067 -0.4329
 6298SOL     OW30355   1.195   2.701   7.446 -0.1212 -0.4386 -0.1909
 6298SOL    HW130356   1.244   2.775   7.412 -3.0197  1.5460 -0.0790
 6298SOL    HW230357   1.121   2.712   7.386 -1.8881 -3.4406  1.4163
 6299SOL     OW30358   1.693   3.253   1.752  0.3686  0.0463 -1.4314
 6299SOL    HW130359   1.679   3.248   1.657  0.1099  0.3303 -1.4088
 6299SOL    HW230360   1.637   3.180   1.778 -1.4185  1.9428  0.0506
 6300SOL     OW30361   3.467   4.087   4.148 -0.4156  0.5042  0.0297
 6300SOL    HW130362   3.371   4.094   4.153 -0.4314  3.0240 -3.3252
 6300SOL    HW230363   3.474   4.020   4.215 -1.3866 -2.4121 -2.7664
 6301SOL     OW30364   4.501   2.003  12.035  0.3150 -0.0390  0.3117
 6301SOL    HW130365   4.473   1.955  11.957 -0.0084  0.3893  0.1636
 6301SOL    HW230366   4.416   1.999  12.078  0.6202  0.6588  0.9900
 6302SOL     OW30367   3.999   4.315   1.582  0.2217 -0.5021 -0.0318
 6302SOL    HW130368   4.046   4.325   1.665  0.6925 -0.8227 -0.2587
 6302SOL    HW230369   3.991   4.220   1.579  1.5110 -0.7054  2.6208
 6303SOL     OW30370   0.856   2.452   8.730 -0.2006  0.3069 -0.4463
 6303SOL    HW130371   0.894   2.487   8.810 -0.3970 -0.8395  0.1388
 6303SOL    HW230372   0.807   2.386   8.779 -2.4874  1.7847 -0.7153
 6304SOL     OW30373   0.748   2.022   2.633  0.0908  0.3842 -0.2409
 6304SOL    HW130374   0.732   1.981   2.548 -0.6218 -0.3014  0.2237
 6304SOL    HW230375   0.841   1.998   2.629 -0.0174  0.1805 -1.4232
 6305SOL     OW30376   0.876   0.776   6.435 -0.7014  0.5355  0.9998
 6305SOL    HW130377   0.964   0.740   6.451 -0.7315  0.1197  0.2295
 6305SOL    HW230378   0.867   0.830   6.514 -0.1817 -0.5677  1.8091
 6306SOL     OW30379   3.404   4.152  16.587 -0.6044 -0.3858  0.0264
 6306SOL    HW130380   3.386   4.156  16.681 -1.5434 -2.1347 -0.0905
 6306SOL    HW230381   3.487   4.104  16.595 -0.5446  0.1438  2.6717
 6307SOL     OW30382   3.240   3.778   6.172  0.3736 -0.3633  0.3236
 6307SOL    HW130383   3.333   3.801   6.164  0.5298 -1.4347 -0.9582
 6307SOL    HW230384   3.246   3.687   6.199  1.6732 -0.7214 -1.1798
 6308SOL     OW30385   2.933   1.168   6.969  0.6732 -0.4310  0.5510
 6308SOL    HW130386   3.018   1.163   7.011 -0.2932  2.6795  2.8220
 6308SOL    HW230387   2.966   1.194   6.883  1.4893  1.2952  1.3796
 6309SOL     OW30388   4.510   4.008   5.288 -0.3513 -0.1603  0.1735
 6309SOL    HW130389   4.598   4.028   5.257 -0.0606 -0.6657  0.6788
 6309SOL    HW230390   4.517   3.917   5.316 -3.1556  0.3482  2.5310
 6310SOL     OW30391   0.021   0.050   5.715  0.3273 -0.1546 -0.7956
 6310SOL    HW130392   0.032   0.025   5.623 -0.2690 -0.4765 -0.7770
 6310SOL    HW230393   0.075   4.718   5.766  2.9516  1.6953 -1.3936
 6311SOL     OW30394   3.368   4.375   5.090  0.5592  0.4182 -0.1080
 6311SOL    HW130395   3.303   4.431   5.049 -0.4143 -0.1088  0.7292
 6311SOL    HW230396   3.433   4.445   5.094  1.8622 -0.8040  0.2249
 6312SOL     OW30397   0.942   2.815   6.983  0.2283 -0.2646  0.6649
 6312SOL    HW130398   0.870   2.753   6.976  2.3369 -2.8774  2.1699
 6312SOL    HW230399   0.923   2.852   7.070 -0.7379  1.1693 -0.1429
 6313SOL     OW30400   1.060   2.425   4.480  0.1190 -0.1794 -0.1167
 6313SOL    HW130401   0.973   2.466   4.486  0.1873  0.0182 -0.5055
 6313SOL    HW230402   1.117   2.486   4.433  0.3643  1.2581  2.0659
 6314SOL     OW30403   0.219   3.388   2.564  0.1857  0.3631  0.7722
 6314SOL    HW130404   0.243   3.340   2.643 -0.6320 -3.0544 -1.0674
 6314SOL    HW230405   0.305   3.400   2.524  0.5133  0.8386  1.6358
 6315SOL     OW30406   3.880   1.305   6.514  0.0338 -0.5108  0.9583
 6315SOL    HW130407   3.843   1.246   6.579 -2.1549  1.4697  1.5194
 6315SOL    HW230408   3.836   1.273   6.435 -0.0494  0.4714  0.6128
 6316SOL     OW30409   4.482   3.273   9.487 -0.1984  0.0892  0.4544
 6316SOL    HW130410   4.456   3.332   9.558  1.2595  2.4079 -0.9414
 6316SOL    HW230411   4.465   3.190   9.532  2.3052 -0.2428  0.7610
 6317SOL     OW30412   1.010   1.517   8.826  0.0321  0.2149  0.5629
 6317SOL    HW130413   1.055   1.474   8.753 -1.9299 -1.5934  0.4246
 6317SOL    HW230414   1.031   1.460   8.900  1.1510  2.2934  1.8173
 6318SOL     OW30415   1.833   3.295   3.963  0.6368  0.4185  0.4642
 6318SOL    HW130416   1.908   3.319   3.908 -0.4767  1.1769 -0.7236
 6318SOL    HW230417   1.775   3.239   3.911  0.7151  0.7639  0.0023
 6319SOL     OW30418   4.449   1.823  16.305  0.5980 -0.5491 -0.0009
 6319SOL    HW130419   4.530   1.789  16.342  0.6469 -1.3898 -0.8775
 6319SOL    HW230420   4.429   1.904  16.351 -1.8568 -1.2655  0.2041
 6320SOL     OW30421   0.635   3.107   7.539  0.2713  0.2752  0.3893
 6320SOL    HW130422   0.557   3.142   7.582  1.5599  1.8527  1.4450
 6320SOL    HW230423   0.615   3.129   7.448 -0.0167 -0.4366  0.2796
 6321SOL     OW30424   0.421   0.301   4.849  0.5182  0.3899  0.3055
 6321SOL    HW130425   0.399   0.381   4.897 -0.9089 -0.9103  1.8287
 6321SOL    HW230426   0.386   0.323   4.762  3.3622  5.1708  0.3997
 6322SOL     OW30427   3.411   3.718   1.183  0.0810 -0.2377  0.0777
 6322SOL    HW130428   3.484   3.682   1.133  2.5515  3.5631  1.0005
 6322SOL    HW230429   3.378   3.641   1.230 -0.4999 -0.3191 -0.4634
 6323SOL     OW30430   3.685   4.200   9.823  0.4741 -0.2460 -0.2496
 6323SOL    HW130431   3.777   4.171   9.817  1.3647  2.4255  0.5809
 6323SOL    HW230432   3.645   4.127   9.776  1.8120 -0.5722 -0.8812
 6324SOL     OW30433   4.681   3.695   8.336  0.5167 -0.0209  0.5245
 6324SOL    HW130434   4.611   3.631   8.324 -1.3563  2.1509  0.0470
 6324SOL    HW230435   0.018   3.666   8.272 -0.3066  0.7077 -0.6280
 6325SOL     OW30436   0.724   2.959   9.640  0.2002 -0.0255 -0.3610
 6325SOL    HW130437   0.644   2.956   9.693  1.5597  1.1142  1.7427
 6325SOL    HW230438   0.785   3.005   9.697  1.1031 -0.9178 -0.6089
 6326SOL     OW30439   0.374   1.807  12.177 -0.2908  0.0780  0.1130
 6326SOL    HW130440   0.367   1.898  12.204  1.2993  0.7112 -1.6499
 6326SOL    HW230441   0.469   1.793  12.179 -0.4297 -1.0521 -1.5179
 6327SOL     OW30442   2.437   3.288   5.551 -0.9513  0.9859  0.8808
 6327SOL    HW130443   2.366   3.352   5.558  0.2266  2.6681 -2.6464
 6327SOL    HW230444   2.449   3.277   5.457 -1.3133 -1.7753  1.1664
 6328SOL     OW30445   1.415   1.650   5.389 -0.4990 -0.2530 -0.1983
 6328SOL    HW130446   1.422   1.611   5.302  1.8722 -0.0903 -0.0750
 6328SOL    HW230447   1.363   1.729   5.373  2.6435  2.3319  2.3536
 6329SOL     OW30448   1.089   0.448  17.620  0.1660 -0.5821  0.1097
 6329SOL    HW130449   1.072   0.478  17.709  2.6515  3.4086 -0.7240
 6329SOL    HW230450   1.174   0.488  17.603 -1.0943  2.5069  0.9715
 6330SOL     OW30451   3.815   2.475   2.446 -0.4113  0.4351 -0.2840
 6330SOL    HW130452   3.825   2.394   2.496  1.7709 -0.8298 -2.7929
 6330SOL    HW230453   3.728   2.502   2.476 -0.8815 -0.3346 -0.9484
 6331SOL     OW30454   1.676   2.774   4.757  0.0621 -0.2566  0.6903
 6331SOL    HW130455   1.613   2.755   4.826 -0.0837  0.3141  0.7215
 6331SOL    HW230456   1.753   2.761   4.812  0.7172 -1.3877 -0.4943
 6332SOL     OW30457   4.638   3.903   5.680 -0.0207  0.7876 -0.4276
 6332SOL    HW130458   4.615   3.995   5.696 -0.2676  0.4975  0.8538
 6332SOL    HW230459   4.724   3.917   5.640 -0.8644 -0.9959 -2.8135
 6333SOL     OW30460   3.341   4.368  16.430  0.2839 -0.6177  0.2227
 6333SOL    HW130461   3.343   4.300  16.498  1.8970 -1.8077 -0.9963
 6333SOL    HW230462   3.413   4.420  16.465  2.7606 -0.0568 -5.6198
 6334SOL     OW30463   4.432   2.423   3.197  0.4349  0.0976  0.1112
 6334SOL    HW130464   4.401   2.383   3.116  0.8706 -0.9086  0.4441
 6334SOL    HW230465   4.430   2.514   3.165  0.0190 -0.3909 -1.2566
 6335SOL     OW30466   2.432   0.952   6.025 -0.2321 -0.2585 -0.2314
 6335SOL    HW130467   2.397   0.919   6.108 -0.7139 -0.2345 -0.4209
 6335SOL    HW230468   2.463   1.035   6.061 -0.4146 -0.5419  0.5726
 6336SOL     OW30469   0.708   0.470   9.527 -0.0161  0.5161 -0.0278
 6336SOL    HW130470   0.664   0.522   9.594 -0.1755  0.0053  0.2575
 6336SOL    HW230471   0.753   0.407   9.584  1.6062 -0.2439 -2.1222
 6337SOL     OW30472   2.797   1.639   4.126 -0.6604 -0.3010  0.3942
 6337SOL    HW130473   2.822   1.582   4.054 -0.1747 -0.9389  1.0709
 6337SOL    HW230474   2.754   1.577   4.185  0.2120 -0.5648  0.7475
 6338SOL     OW30475   0.192   2.992   3.000 -0.4266 -0.2639  0.5815
 6338SOL    HW130476   0.247   3.004   3.078  0.2120 -0.2976  0.1400
 6338SOL    HW230477   0.114   3.044   3.019 -1.4009 -0.4762 -2.7740
 6339SOL     OW30478   3.933   3.406   5.889  0.4404  0.3967  0.3863
 6339SOL    HW130479   3.977   3.443   5.812  3.8862 -1.9492  1.2587
 6339SOL    HW230480   4.000   3.374   5.949  0.0987  0.4697  0.8008
 6340SOL     OW30481   2.705   3.537  11.948 -0.8889 -0.0410 -0.0631
 6340SOL    HW130482   2.681   3.621  11.988  0.7706 -0.3948  1.6374
 6340SOL    HW230483   2.637   3.476  11.976  1.6947 -2.9963 -0.2964
 6341SOL     OW30484   2.081   1.102   5.353 -0.1952 -0.4027 -0.1905
 6341SOL    HW130485   2.056   1.058   5.434 -2.1014  0.1812 -0.4692
 6341SOL    HW230486   2.044   1.043   5.288 -1.0276  0.6208 -0.6445
 6342SOL     OW30487   2.786   1.779   9.785  0.2071  0.5412  0.2194
 6342SOL    HW130488   2.778   1.685   9.801  1.1955  0.1637 -1.5324
 6342SOL    HW230489   2.695   1.806   9.771  0.1441  0.3693  0.2972
 6343SOL     OW30490   3.360   2.394  14.963 -0.0934  0.0168 -0.3662
 6343SOL    HW130491   3.380   2.475  14.915  1.4668 -0.1396  0.0252
 6343SOL    HW230492   3.269   2.392  14.933 -0.8718 -2.2038  2.1644
 6344SOL     OW30493   3.532   3.416  10.284 -0.4417  0.2411  0.0072
 6344SOL    HW130494   3.590   3.374  10.347 -0.3570  1.1826  0.5439
 6344SOL    HW230495   3.596   3.479  10.249  0.1797  0.3638  1.3967
 6345SOL     OW30496   1.538   1.683   7.266 -0.1169 -0.2958 -0.1010
 6345SOL    HW130497   1.546   1.688   7.361  1.6356 -1.7519 -0.1735
 6345SOL    HW230498   1.586   1.605   7.239 -1.5294 -0.3986 -2.3007
 6346SOL     OW30499   2.959   0.642   6.139 -0.1128  0.4360  0.4642
 6346SOL    HW130500   2.998   0.694   6.069 -0.7542  0.2385 -0.0311
 6346SOL    HW230501   3.017   0.566   6.148 -0.4009  0.2320  0.5777
 6347SOL     OW30502   1.692   4.136   8.619 -0.2420  0.2232  0.1877
 6347SOL    HW130503   1.642   4.152   8.699 -2.1866 -0.7187 -0.8337
 6347SOL    HW230504   1.770   4.095   8.655 -1.0824 -0.2862  1.4170
 6348SOL     OW30505   3.933   0.326   7.670  0.0250  0.1222 -0.0369
 6348SOL    HW130506   3.980   0.401   7.705  1.9633 -0.9929 -0.2878
 6348SOL    HW230507   3.993   0.295   7.602  1.1478 -1.7472  1.8273
 6349SOL     OW30508   4.121   2.975  15.768 -0.2173 -0.6380  0.0523
 6349SOL    HW130509   4.092   3.011  15.684 -1.9569  0.6850  1.2347
 6349SOL    HW230510   4.071   3.020  15.836 -2.6368 -1.2595 -1.3141
 6350SOL     OW30511   2.028   2.445   4.422 -0.0836 -0.4502  0.1843
 6350SOL    HW130512   2.102   2.504   4.436  0.7361 -0.8068 -2.5740
 6350SOL    HW230513   1.959   2.505   4.394 -1.1630 -0.5334  2.6657
 6351SOL     OW30514   4.216   2.736   7.906  0.3510  0.1879 -0.6591
 6351SOL    HW130515   4.122   2.720   7.913  0.2347  1.2779  0.1309
 6351SOL    HW230516   4.254   2.657   7.945  0.5045  0.0858 -1.0175
 6352SOL     OW30517   0.469   0.611   5.113  0.0973 -0.5092  0.1796
 6352SOL    HW130518   0.450   0.662   5.192 -2.1155 -0.8439 -0.1374
 6352SOL    HW230519   0.526   0.544   5.153  2.4058  0.5354 -1.3302
 6353SOL     OW30520   2.083   1.988  14.412  0.8216 -0.3446  0.3202
 6353SOL    HW130521   2.099   2.069  14.461  0.7426 -0.6527  0.8556
 6353SOL    HW230522   2.106   1.918  14.474 -2.5682 -1.0149  0.7910
 6354SOL     OW30523   2.975   1.699   7.435  0.2508  0.3951 -0.6098
 6354SOL    HW130524   3.001   1.643   7.507 -0.4519 -0.1784 -0.7974
 6354SOL    HW230525   3.059   1.736   7.410  1.3518  0.7413  3.7391
 6355SOL     OW30526   0.046   0.978   8.057 -0.0942  0.0227  0.3913
 6355SOL    HW130527   4.728   1.058   8.033 -0.0031 -0.1302 -0.2912
 6355SOL    HW230528   4.712   0.913   8.025 -0.2804  1.0984 -1.3899
 6356SOL     OW30529   4.595   4.222   6.195  0.2189  0.3011 -0.3114
 6356SOL    HW130530   4.656   4.219   6.270 -1.1004 -1.9727  0.6502
 6356SOL    HW230531   4.655   4.252   6.127  2.8776  0.3821  2.0575
 6357SOL     OW30532   2.635   1.392   8.841  0.3132 -0.0851  0.3824
 6357SOL    HW130533   2.592   1.448   8.776  1.2035  0.9910  0.7117
 6357SOL    HW230534   2.572   1.389   8.913 -0.6129 -0.8212 -0.4690
 6358SOL     OW30535   1.768   4.714   7.334 -0.2667  0.5722 -0.5561
 6358SOL    HW130536   1.798   4.629   7.363  0.8587  1.9682  2.3846
 6358SOL    HW230537   1.683   0.001   7.375  0.7989 -0.3211  1.9551
 6359SOL     OW30538   2.030   3.672  10.489  0.6649  0.2326  0.3870
 6359SOL    HW130539   2.005   3.730  10.561  3.1609  1.5060  0.2549
 6359SOL    HW230540   1.949   3.622  10.489  1.1938 -0.6293 -2.0292
 6360SOL     OW30541   4.275   3.951  10.066  0.3258  0.1522  0.0584
 6360SOL    HW130542   4.367   3.960  10.042 -0.4497  0.9924 -2.6460
 6360SOL    HW230543   4.237   4.022  10.015 -0.9923 -0.4554  0.1923
 6361SOL     OW30544   2.184   4.624   1.149 -0.1866  0.1061 -0.8117
 6361SOL    HW130545   2.127   4.667   1.084 -0.8122  0.6721  0.1115
 6361SOL    HW230546   2.167   4.688   1.217 -0.1058 -1.2853  0.5044
 6362SOL     OW30547   3.607   2.171   5.613  0.2314 -0.0106  0.1327
 6362SOL    HW130548   3.534   2.171   5.675  0.5969  1.7671  0.5606
 6362SOL    HW230549   3.575   2.131   5.533 -1.1430  0.9652  0.1925
 6363SOL     OW30550   2.207   4.652  15.410  0.2759  0.3301  0.3039
 6363SOL    HW130551   2.256   4.714  15.355  0.4158 -0.0060  0.0469
 6363SOL    HW230552   2.170   4.598  15.341 -0.0814  2.1919 -0.9799
 6364SOL     OW30553   0.066   1.433   2.732 -0.1539  0.5772 -0.2577
 6364SOL    HW130554   4.710   1.475   2.748 -0.3524 -0.9711  2.7421
 6364SOL    HW230555   0.035   1.379   2.659  3.0901 -0.7272 -0.6548
 6365SOL     OW30556   3.665   0.816   2.287 -0.2853  0.7670  0.6565
 6365SOL    HW130557   3.716   0.769   2.222 -0.8476  0.4002  0.4904
 6365SOL    HW230558   3.737   0.866   2.327 -0.4260  1.3801  0.1323
 6366SOL     OW30559   1.018   3.107  17.335  0.2338 -0.7509  0.2961
 6366SOL    HW130560   1.000   3.200  17.346  0.8526 -0.5599 -0.2922
 6366SOL    HW230561   1.110   3.120  17.356 -0.0092 -2.3970  2.3610
 6367SOL     OW30562   0.438   0.509  14.270 -0.0629 -0.2070 -0.6146
 6367SOL    HW130563   0.446   0.457  14.191 -3.0043  0.3009 -1.2178
 6367SOL    HW230564   0.437   0.441  14.338  1.7953 -0.2365 -0.5988
 6368SOL     OW30565   2.344   2.510   5.089 -0.2740  0.0347  0.4600
 6368SOL    HW130566   2.433   2.511   5.054  0.5129 -0.1441  2.5231
 6368SOL    HW230567   2.292   2.452   5.034  1.3574 -0.4944 -0.5240
 6369SOL     OW30568   1.485   1.785   3.033  0.0767  0.4548 -0.0718
 6369SOL    HW130569   1.433   1.715   2.993  1.7995 -2.1695  2.3157
 6369SOL    HW230570   1.460   1.775   3.124 -0.1949 -1.6084 -0.3739
 6370SOL     OW30571   0.486   1.855   3.477  0.3893 -0.5211  0.6725
 6370SOL    HW130572   0.575   1.869   3.447  0.2137  0.6483  0.6845
 6370SOL    HW230573   0.475   1.922   3.545 -2.1906 -1.2678  1.0244
 6371SOL     OW30574   0.408   4.429   4.765  0.2655 -0.2546  0.3104
 6371SOL    HW130575   0.473   4.472   4.709 -0.4694 -0.9670 -1.0913
 6371SOL    HW230576   0.336   4.409   4.705  0.6619 -1.7189  0.3092
 6372SOL     OW30577   3.638   3.322   0.329  0.1366 -0.6736 -0.8088
 6372SOL    HW130578   3.692   3.288   0.257  0.8996  0.0260 -0.5567
 6372SOL    HW230579   3.581   3.246   0.341 -0.3987 -0.1948 -0.2956
 6373SOL     OW30580   2.943   0.432   9.379  0.3965  0.2878  0.4913
 6373SOL    HW130581   2.931   0.513   9.429 -1.6835 -0.1886  0.7651
 6373SOL    HW230582   2.972   0.383   9.455  1.2132  0.5572  0.3510
 6374SOL     OW30583   4.463   0.707   6.430 -0.7192  0.2605 -0.0084
 6374SOL    HW130584   4.464   0.762   6.509 -0.4994  1.7742 -1.0607
 6374SOL    HW230585   4.421   0.762   6.364  0.9392  1.4211 -0.1162
 6375SOL     OW30586   0.641   2.329   2.655 -0.3961 -0.3738  0.4824
 6375SOL    HW130587   0.567   2.360   2.707  0.1776  0.3461  0.8779
 6375SOL    HW230588   0.620   2.335   2.562  0.3242 -0.6189  0.3057
 6376SOL     OW30589   2.434   3.547  17.624 -1.0621  0.7683  0.2720
 6376SOL    HW130590   2.399   3.544  17.713 -1.7646 -0.2468 -0.0323
 6376SOL    HW230591   2.524   3.574  17.642 -1.1096  0.1253  1.4308
 6377SOL     OW30592   3.398   4.483   4.732 -0.1884 -0.0054 -0.2993
 6377SOL    HW130593   3.391   4.522   4.819 -0.9859 -0.7245 -0.0444
 6377SOL    HW230594   3.448   4.403   4.747 -1.9705 -0.8877  0.8960
 6378SOL     OW30595   2.609   0.482  12.662 -0.0436 -0.5040  0.2297
 6378SOL    HW130596   2.597   0.510  12.753  0.5677  1.4352 -0.2996
 6378SOL    HW230597   2.524   0.509  12.629  0.6283 -0.1265 -1.1761
 6379SOL     OW30598   1.230   3.556   5.209  0.2255 -0.0644 -0.2654
 6379SOL    HW130599   1.142   3.586   5.189 -0.1456 -0.2808  1.1013
 6379SOL    HW230600   1.281   3.626   5.249  1.1194  1.4071 -3.9111
 6380SOL     OW30601   1.655   2.716  12.572  0.1079 -0.6468  0.5467
 6380SOL    HW130602   1.623   2.806  12.569 -1.3255 -1.1946 -0.3869
 6380SOL    HW230603   1.602   2.671  12.507  0.8045  0.3628 -0.7386
 6381SOL     OW30604   2.008   0.278   4.830  0.2038 -0.0375 -0.0555
 6381SOL    HW130605   2.081   0.275   4.768 -1.6028  0.6217 -2.1971
 6381SOL    HW230606   2.049   0.318   4.907  2.9228 -2.5955 -0.1876
 6382SOL     OW30607   0.320   3.579   6.174 -0.0845  0.6643  0.3085
 6382SOL    HW130608   0.316   3.560   6.080  0.6541  1.2639  0.1538
 6382SOL    HW230609   0.227   3.571   6.192 -0.4130 -0.0690 -1.7485
 6383SOL     OW30610   0.737   2.104  12.169  0.1945 -0.5063  0.4555
 6383SOL    HW130611   0.747   2.163  12.094  3.3669 -0.2703  1.0503
 6383SOL    HW230612   0.683   2.037  12.129  0.3383 -0.4469  0.1629
 6384SOL     OW30613   4.249   2.209   8.419 -0.3446 -0.1477 -0.2261
 6384SOL    HW130614   4.216   2.162   8.496 -0.8087 -0.5978 -0.6976
 6384SOL    HW230615   4.220   2.298   8.440  3.8293  1.3297 -0.7945
 6385SOL     OW30616   0.459   3.232   5.750  0.3939  0.2610  0.2697
 6385SOL    HW130617   0.466   3.175   5.827 -4.4450 -1.4189 -0.5202
 6385SOL    HW230618   0.546   3.214   5.713  1.1899 -1.1762  2.8336
 6386SOL     OW30619   2.388   3.006   3.541  0.1902  0.9685 -0.3708
 6386SOL    HW130620   2.472   3.002   3.496  2.1198  0.8974  3.2599
 6386SOL    HW230621   2.329   2.974   3.472 -0.4373  0.4370  0.4089
 6387SOL     OW30622   1.197   3.278   0.686 -0.0155 -0.1184  0.3987
 6387SOL    HW130623   1.217   3.186   0.705 -2.8679 -0.4217  1.8277
 6387SOL    HW230624   1.151   3.317   0.760  0.7803 -1.5957  1.6874
 6388SOL     OW30625   2.752   3.566   3.838  0.0354 -0.7665 -0.1285
 6388SOL    HW130626   2.750   3.657   3.867  0.0739 -0.7843 -0.0709
 6388SOL    HW230627   2.796   3.582   3.754  1.7128  3.3299  1.5062
 6389SOL     OW30628   3.887   2.867   7.039  0.1912  0.2958 -0.3600
 6389SOL    HW130629   3.974   2.864   6.999 -0.7181  0.3663 -2.3290
 6389SOL    HW230630   3.907   2.815   7.117 -1.4249 -0.0508 -0.1630
 6390SOL     OW30631   1.192   2.544  13.673 -0.0228  0.1410 -0.1241
 6390SOL    HW130632   1.250   2.551  13.597  0.3565  1.2908  0.2756
 6390SOL    HW230633   1.180   2.449  13.677 -0.7483  0.2769  0.7767
 6391SOL     OW30634   2.693   0.277   3.246 -0.1555 -0.2196  0.3230
 6391SOL    HW130635   2.704   0.361   3.202 -0.4462  0.2750  1.1824
 6391SOL    HW230636   2.750   0.286   3.323  0.2177 -0.2408  0.0469
 6392SOL     OW30637   4.206   1.910   4.716 -0.1892 -0.4573 -0.4449
 6392SOL    HW130638   4.288   1.909   4.665 -0.2863  3.5654 -0.6944
 6392SOL    HW230639   4.176   1.821   4.699 -0.8593 -0.2492 -0.3492
 6393SOL     OW30640   2.054   3.758  15.754  0.1664 -0.2213 -0.1094
 6393SOL    HW130641   2.024   3.846  15.777 -2.0643 -0.7238 -1.0352
 6393SOL    HW230642   2.020   3.758  15.664 -0.0625 -1.3700 -0.0287
 6394SOL     OW30643   3.452   2.163  15.012 -0.5014 -0.7467  0.2298
 6394SOL    HW130644   3.382   2.125  15.066 -1.8687 -1.6055 -2.1329
 6394SOL    HW230645   3.420   2.252  15.006  4.3564  0.8995 -1.3159
 6395SOL     OW30646   2.384   1.668   2.810 -0.7200 -0.3466  0.6681
 6395SOL    HW130647   2.382   1.724   2.888  2.2723  1.2388 -0.3955
 6395SOL    HW230648   2.333   1.590   2.832 -2.1924  0.4205 -0.0437
 6396SOL     OW30649   0.994   4.093   4.179  0.3206  0.4195  0.2772
 6396SOL    HW130650   0.964   4.170   4.132 -2.9207  0.4458  2.3337
 6396SOL    HW230651   0.925   4.031   4.154 -0.4224  0.7462  1.5286
 6397SOL     OW30652   4.488   0.061   5.763 -0.4704 -1.0669 -0.2703
 6397SOL    HW130653   4.487   0.106   5.847  1.1700 -1.3107 -0.1140
 6397SOL    HW230654   4.581   0.047   5.743  0.1693  0.0149  1.9217
 6398SOL     OW30655   1.451   1.275  17.224  0.1133  0.3913 -0.0491
 6398SOL    HW130656   1.391   1.326  17.278  0.3291  0.4611  0.1241
 6398SOL    HW230657   1.478   1.214  17.292  0.1309 -1.6917 -1.9393
 6399SOL     OW30658   4.391   3.917   4.817 -0.9392  0.5850 -0.2538
 6399SOL    HW130659   4.364   3.910   4.725 -0.0756  0.4697 -0.5009
 6399SOL    HW230660   4.482   3.892   4.804 -1.4163 -1.6350  0.8172
 6400SOL     OW30661   3.203   3.273   7.088  0.1247  0.3056  0.0333
 6400SOL    HW130662   3.137   3.341   7.070 -1.2356 -1.0812 -0.2221
 6400SOL    HW230663   3.194   3.266   7.183  1.7071  3.7305  0.4568
 6401SOL     OW30664   2.145   4.538   0.540 -0.2760  0.2591  0.3044
 6401SOL    HW130665   2.084   4.611   0.532 -0.5598 -0.3656 -3.3347
 6401SOL    HW230666   2.202   4.582   0.603 -0.5118  0.9899  0.0175
 6402SOL     OW30667   2.246   3.623   5.778  0.4600 -0.3517  0.0416
 6402SOL    HW130668   2.340   3.609   5.774  0.3682 -1.2044  0.8086
 6402SOL    HW230669   2.238   3.709   5.820  1.4622  0.2995 -1.1235
 6403SOL     OW30670   2.914   2.450   3.420 -0.1814  0.1309 -0.2280
 6403SOL    HW130671   2.846   2.515   3.405 -0.2309 -0.4247 -2.4092
 6403SOL    HW230672   2.898   2.428   3.512 -0.3624  0.7488 -0.1151
 6404SOL     OW30673   3.149   1.510   9.527  0.1830  0.1257  0.2335
 6404SOL    HW130674   3.117   1.502   9.436 -0.3430  1.1916  0.3258
 6404SOL    HW230675   3.107   1.590   9.558  0.4015  0.8358 -1.3066
 6405SOL     OW30676   2.829   0.111   7.386 -0.0035 -0.3800 -0.0400
 6405SOL    HW130677   2.899   0.047   7.380  1.2410  0.9904 -0.1397
 6405SOL    HW230678   2.784   0.081   7.307 -0.4433 -0.7343  0.3471
 6406SOL     OW30679   3.464   4.472   7.822 -0.1267 -0.1844  0.1882
 6406SOL    HW130680   3.491   4.394   7.774  0.0965 -1.7775  2.8771
 6406SOL    HW230681   3.545   4.498   7.866 -0.0788  0.1382 -0.0922
 6407SOL     OW30682   4.004   4.608   8.107  0.0231 -0.1843  0.2886
 6407SOL    HW130683   3.956   4.613   8.190  2.2273  2.7124  1.4164
 6407SOL    HW230684   4.006   4.697   8.072 -1.2092 -0.7802 -1.2902
 6408SOL     OW30685   1.048   0.973   1.832 -0.0468 -0.1907  0.5343
 6408SOL    HW130686   0.955   0.993   1.836 -0.3580 -1.7055  0.8175
 6408SOL    HW230687   1.076   0.968   1.741  0.0148 -0.5425  0.5732
 6409SOL     OW30688   2.267   0.952  10.056 -0.1668 -0.3024 -0.0902
 6409SOL    HW130689   2.214   0.873  10.062 -1.6272  0.7100  0.1753
 6409SOL    HW230690   2.239   0.997  10.136  3.9599 -0.6014  1.5454
 6410SOL     OW30691   3.387   0.243  15.169 -0.5281 -0.1838  0.3553
 6410SOL    HW130692   3.326   0.191  15.116 -2.5964 -0.3730  2.9542
 6410SOL    HW230693   3.374   0.217  15.260  1.9176 -1.0155  0.4777
 6411SOL     OW30694   1.059   0.084   7.936  0.4509 -0.4100  0.1103
 6411SOL    HW130695   1.096   0.068   7.849 -0.7841 -1.0061 -0.3084
 6411SOL    HW230696   1.106   0.164   7.959  0.7062  0.1720 -2.4529
 6412SOL     OW30697   3.654   0.429   7.543  0.4270 -0.8181  0.0113
 6412SOL    HW130698   3.717   0.388   7.602  1.5138  0.0168 -0.5960
 6412SOL    HW230699   3.627   0.347   7.500  2.5597 -1.0704 -0.8353
 6413SOL     OW30700   0.317   2.089  12.231  0.0228 -0.0598 -0.0802
 6413SOL    HW130701   0.261   2.108  12.156  0.4703  1.2902 -0.0756
 6413SOL    HW230702   0.375   2.164  12.221  0.6082 -0.5474 -0.3683
 6414SOL     OW30703   1.620   4.482   0.808  0.0995 -0.0009 -0.1327
 6414SOL    HW130704   1.627   4.448   0.718 -0.0241 -1.9448  0.5934
 6414SOL    HW230705   1.701   4.452   0.850  1.1774  0.5646 -1.7776
 6415SOL     OW30706   3.507   0.715  11.052  0.7430 -0.8213 -0.4140
 6415SOL    HW130707   3.453   0.731  11.129  2.2793  0.9979  0.2531
 6415SOL    HW230708   3.547   0.802  11.051 -2.6051  0.7183 -0.1147
 6416SOL     OW30709   3.168   4.464   3.583 -0.1031  0.0436  0.0349
 6416SOL    HW130710   3.173   4.559   3.588 -1.8827  0.0566  2.0059
 6416SOL    HW230711   3.253   4.450   3.624 -1.2643 -1.7675  1.8909
 6417SOL     OW30712   1.410   0.949   7.937  0.1158 -0.0351 -0.6980
 6417SOL    HW130713   1.338   0.915   7.988  1.3350  1.3607  1.9587
 6417SOL    HW230714   1.464   0.987   8.006 -1.2575 -0.8842  0.8347
 6418SOL     OW30715   3.442   3.832   2.751 -0.1286 -0.2358 -0.1611
 6418SOL    HW130716   3.429   3.784   2.670  0.3104  0.2998 -0.5483
 6418SOL    HW230717   3.533   3.860   2.737  0.8278 -2.9534  0.6269
 6419SOL     OW30718   2.868   4.368   5.965  1.0863  0.3369  0.7182
 6419SOL    HW130719   2.949   4.329   5.999  1.6724 -0.1985 -1.2743
 6419SOL    HW230720   2.796   4.323   6.010  1.8936 -1.8587 -0.2076
 6420SOL     OW30721   0.906   0.548   9.893 -0.9664 -0.2011  0.6775
 6420SOL    HW130722   0.945   0.526   9.808 -1.1678 -0.0681  0.5520
 6420SOL    HW230723   0.833   0.486   9.901  0.5072 -1.7566  2.1016
 6421SOL     OW30724   2.984   2.703   8.139  0.1784 -0.2316  0.4620
 6421SOL    HW130725   2.971   2.612   8.112  0.5401 -0.0697 -0.2570
 6421SOL    HW230726   2.893   2.724   8.161 -0.3741 -2.8952  0.7250
 6422SOL     OW30727   4.449   2.723   3.539 -0.2664 -0.4717  0.0743
 6422SOL    HW130728   4.455   2.628   3.532  0.5613 -0.3474 -0.8319
 6422SOL    HW230729   4.399   2.736   3.620 -3.3297  2.0427 -2.2138
 6423SOL     OW30730   4.558   3.074   6.302  0.3393 -0.5643  0.1333
 6423SOL    HW130731   4.533   3.147   6.358 -0.7052 -0.0224 -1.0793
 6423SOL    HW230732   4.585   3.006   6.365  0.8814  0.1667  0.6902
 6424SOL     OW30733   2.545   3.499  16.173  0.5481  0.2478 -0.3161
 6424SOL    HW130734   2.542   3.404  16.160  2.5771  0.4274 -2.0926
 6424SOL    HW230735   2.451   3.519  16.175  0.8549  1.5455  1.0548
 6425SOL     OW30736   3.596   3.704   6.199  0.0344 -0.1688 -0.4130
 6425SOL    HW130737   3.647   3.641   6.149  2.0681  0.3407  1.0337
 6425SOL    HW230738   3.624   3.780   6.148 -0.9296  1.5966  1.7051
 6426SOL     OW30739   0.782   1.030   7.027  0.2037 -0.3687  0.2312
 6426SOL    HW130740   0.833   1.036   7.108 -0.6607 -0.2976  0.7616
 6426SOL    HW230741   0.831   0.967   6.974  0.0461  0.6075 -1.0664
 6427SOL     OW30742   3.931   0.092  16.083 -0.2566 -0.3482 -0.2789
 6427SOL    HW130743   3.920   0.162  16.147 -0.4956  0.1276 -0.8527
 6427SOL    HW230744   4.018   0.118  16.053 -0.2151 -2.2537 -1.8447
 6428SOL     OW30745   4.397   1.426  16.601  0.5048 -0.5036  0.4797
 6428SOL    HW130746   4.355   1.354  16.649  0.8607  0.2937  1.9762
 6428SOL    HW230747   4.377   1.504  16.652  0.9030  0.3439 -0.6499
 6429SOL     OW30748   2.010   2.956   1.295  1.0165 -0.2925 -0.1989
 6429SOL    HW130749   1.937   2.894   1.295  0.6351  0.1581  0.7114
 6429SOL    HW230750   1.973   3.034   1.254  0.5854 -0.9217 -1.0048
 6430SOL     OW30751   0.112   2.462   6.341  0.1623  0.0119 -0.1842
 6430SOL    HW130752   0.025   2.482   6.305  0.3635 -0.8296 -1.1566
 6430SOL    HW230753   0.102   2.370   6.366 -0.2824  0.3354  0.8290
 6431SOL     OW30754   3.642   3.157   1.145 -0.4148  0.0410 -0.0204
 6431SOL    HW130755   3.604   3.167   1.232 -1.1766  2.9718 -0.7017
 6431SOL    HW230756   3.633   3.243   1.104 -1.7462 -0.4553 -0.8121
 6432SOL     OW30757   1.772   4.328   8.121 -0.0082  0.1260 -0.3391
 6432SOL    HW130758   1.774   4.414   8.163 -1.0037  0.2691 -0.5905
 6432SOL    HW230759   1.866   4.312   8.121 -0.3548 -1.9004  2.0822
 6433SOL     OW30760   4.083   2.967   4.093 -0.5952  0.0408 -0.3525
 6433SOL    HW130761   4.092   3.020   4.014  0.9307 -1.2268 -1.0097
 6433SOL    HW230762   4.076   3.035   4.161  0.0159 -0.7765  0.5214
 6434SOL     OW30763   1.950   2.266  15.103  0.0400  0.3240 -0.5597
 6434SOL    HW130764   1.979   2.205  15.035 -0.0964 -2.0041  1.4680
 6434SOL    HW230765   1.859   2.239  15.118  1.3226 -2.7432  1.8517
 6435SOL     OW30766   4.582   4.054   1.017  0.0566  0.2584 -0.3182
 6435SOL    HW130767   4.561   3.981   1.075 -0.8525  2.1216  1.7215
 6435SOL    HW230768   4.644   4.106   1.069  0.7828 -0.0311 -0.8915
 6436SOL     OW30769   0.156   3.898   5.576 -0.0197 -0.3662 -0.2531
 6436SOL    HW130770   0.224   3.846   5.617 -0.1062 -0.9905 -0.9191
 6436SOL    HW230771   0.196   3.964   5.519  1.6460  0.7281  2.1539
 6437SOL     OW30772   4.334   0.985   5.221  0.3684  0.3159 -0.1521
 6437SOL    HW130773   4.395   0.971   5.293 -0.2810 -1.7443  0.0027
 6437SOL    HW230774   4.357   0.922   5.153  1.5549 -0.2730  0.7938
 6438SOL     OW30775   1.845   4.650   2.021  0.1255  0.3443  0.6187
 6438SOL    HW130776   1.758   4.612   2.014 -0.1049  1.2353 -1.3546
 6438SOL    HW230777   1.892   4.568   2.004 -2.8230 -1.4584  1.3209
 6439SOL     OW30778   3.529   2.495   0.439  0.4776  0.1091 -0.0159
 6439SOL    HW130779   3.565   2.507   0.527 -2.1903  0.8358  0.9894
 6439SOL    HW230780   3.558   2.405   0.428 -4.3781 -1.5778  0.9063
 6440SOL     OW30781   0.085   1.352   7.682 -0.3971 -0.0841 -0.0281
 6440SOL    HW130782   4.727   1.392   7.674  0.4688  1.5651 -1.1350
 6440SOL    HW230783   0.132   1.421   7.637 -2.4630  1.1882 -0.2441
 6441SOL     OW30784   1.329   3.911   3.060  0.4093  0.4010 -0.1327
 6441SOL    HW130785   1.271   3.895   2.986 -2.6251  0.4723  2.2561
 6441SOL    HW230786   1.300   4.001   3.072  1.6419  0.4915  2.2521
 6442SOL     OW30787   3.677   3.278   2.868  0.3116 -0.1069  0.3750
 6442SOL    HW130788   3.642   3.331   2.940  1.6701  0.6228  0.4975
 6442SOL    HW230789   3.767   3.263   2.896  0.2012 -0.5880  0.4747
 6443SOL     OW30790   4.504   1.740   4.291  0.0152  0.3923 -0.1440
 6443SOL    HW130791   4.413   1.752   4.318 -0.1295 -0.7006 -0.1521
 6443SOL    HW230792   4.497   1.744   4.196  1.4963 -1.4455 -0.3337
 6444SOL     OW30793   0.278   4.047   4.615 -0.2321  0.2946 -0.0311
 6444SOL    HW130794   0.299   3.959   4.645  0.5954  0.8485  1.0050
 6444SOL    HW230795   0.363   4.085   4.594 -0.9801  0.9393 -1.9438
 6445SOL     OW30796   3.375   3.424  10.567  0.4100 -0.6163 -0.1236
 6445SOL    HW130797   3.411   3.513  10.562  1.5659 -1.0389  0.5595
 6445SOL    HW230798   3.430   3.401  10.642 -0.0622  0.2277  0.4816
 6446SOL     OW30799   0.615   3.235   6.058  0.2519  0.0438  0.5606
 6446SOL    HW130800   0.636   3.162   6.000 -0.9651 -0.3181  0.5750
 6446SOL    HW230801   0.606   3.204   6.148 -0.8878  0.7449  0.7045
 6447SOL     OW30802   2.511   2.075   1.946  0.0255 -0.3524  0.2139
 6447SOL    HW130803   2.474   1.996   1.907 -0.3021  0.2418 -0.6891
 6447SOL    HW230804   2.541   2.123   1.869  0.5335 -1.1730 -0.1006
 6448SOL     OW30805   1.656   3.421   7.546  0.2709 -0.6199 -0.4147
 6448SOL    HW130806   1.675   3.463   7.462  1.9276 -1.9281 -0.7120
 6448SOL    HW230807   1.565   3.391   7.545  0.7093 -1.9039 -1.0534
 6449SOL     OW30808   3.099   0.449   2.620 -0.1103 -0.5432  0.0707
 6449SOL    HW130809   3.067   0.366   2.583  1.7872 -0.5684 -1.4970
 6449SOL    HW230810   3.191   0.453   2.595 -1.4100 -0.5033 -4.7475
 6450SOL     OW30811   1.377   4.274   0.439 -0.4602  0.1631 -0.5837
 6450SOL    HW130812   1.342   4.192   0.404 -0.4460  0.6307 -1.7184
 6450SOL    HW230813   1.439   4.277   0.366  0.4375  0.8576  0.2024
 6451SOL     OW30814   1.986   3.947  14.800  0.0167  0.0808  0.7235
 6451SOL    HW130815   1.966   3.949  14.706 -0.8593  1.3422  0.9307
 6451SOL    HW230816   2.057   3.884  14.789 -0.9991 -0.6612 -1.4562
 6452SOL     OW30817   1.260   4.474   4.743  0.0745 -0.5575  0.5188
 6452SOL    HW130818   1.275   4.408   4.811  0.3783 -0.5937  0.4135
 6452SOL    HW230819   1.294   4.555   4.781 -0.4137 -0.0485 -0.1319
 6453SOL     OW30820   1.508   2.642   0.328 -0.1239  0.0635  0.3476
 6453SOL    HW130821   1.471   2.571   0.379  0.5269 -0.8061 -0.3958
 6453SOL    HW230822   1.481   2.621   0.239  0.6636 -2.0658  0.6123
 6454SOL     OW30823   4.699   3.051   0.225 -0.0957 -0.3414  0.2641
 6454SOL    HW130824   0.065   3.066   0.233 -0.1850  1.0042 -1.2618
 6454SOL    HW230825   4.687   3.028   0.133 -0.0587  0.3795  0.0860
 6455SOL     OW30826   2.547   2.970   7.233 -0.4326  0.4856 -0.4757
 6455SOL    HW130827   2.561   2.953   7.140  3.5871  1.5090 -0.0625
 6455SOL    HW230828   2.579   2.891   7.277  0.9004  1.8191  0.9309
 6456SOL     OW30829   3.495   4.011   5.480  0.3481  0.4212 -1.0838
 6456SOL    HW130830   3.401   4.025   5.487  0.1867 -1.2994  0.0972
 6456SOL    HW230831   3.493   3.918   5.456 -1.3068  0.7686 -2.3041
 6457SOL     OW30832   4.497   1.346  13.233  0.2103  0.6770 -0.9967
 6457SOL    HW130833   4.445   1.377  13.159  0.4720 -1.1073 -1.9240
 6457SOL    HW230834   4.431   1.305  13.290  0.6254  1.5595  0.1257
 6458SOL     OW30835   3.124   2.734   3.255 -0.1055 -0.0981 -0.1328
 6458SOL    HW130836   3.030   2.730   3.274 -0.1432 -1.3713 -0.5768
 6458SOL    HW230837   3.148   2.650   3.295 -0.2521  0.0886  0.3528
 6459SOL     OW30838   2.056   4.028   9.076 -0.4456 -0.4199  0.5763
 6459SOL    HW130839   2.134   4.077   9.051 -1.1821  0.4952  0.0520
 6459SOL    HW230840   2.087   3.981   9.153  0.0219  0.5039  0.9558
 6460SOL     OW30841   2.619   0.796   4.563  0.4573 -0.0982  0.0786
 6460SOL    HW130842   2.537   0.784   4.611  1.9970  0.4961  2.8100
 6460SOL    HW230843   2.644   0.886   4.585 -0.9606  0.4354 -0.4916
 6461SOL     OW30844   2.877   2.956   3.492 -0.1281  0.6684  0.1106
 6461SOL    HW130845   2.830   2.993   3.567  0.1565  0.1172  0.5588
 6461SOL    HW230846   2.908   2.875   3.533 -0.2051 -0.4223 -1.9906
 6462SOL     OW30847   3.492   3.587   9.432 -0.1374  0.8384  0.0345
 6462SOL    HW130848   3.569   3.601   9.377 -0.4357  0.1001 -0.5698
 6462SOL    HW230849   3.529   3.570   9.518 -0.0856  0.9634  0.0358
 6463SOL     OW30850   0.780   3.007  17.252  0.1683  0.1308 -0.3404
 6463SOL    HW130851   0.871   3.018  17.278 -0.2391  2.0176  0.2797
 6463SOL    HW230852   0.785   3.021  17.158  2.7090  0.4094 -0.1628
 6464SOL     OW30853   3.190   3.369  17.154  0.4271 -0.3351  0.0381
 6464SOL    HW130854   3.263   3.405  17.203 -1.8762  1.4690  2.1308
 6464SOL    HW230855   3.198   3.278  17.181  0.4610 -0.0035  1.1358
 6465SOL     OW30856   0.574   1.483   9.661 -0.2814 -0.2697 -0.7331
 6465SOL    HW130857   0.650   1.481   9.603  0.0288  0.3510 -0.3542
 6465SOL    HW230858   0.546   1.391   9.667 -1.8455  0.4351  2.9986
 6466SOL     OW30859   1.901   0.542  11.817 -0.0965 -0.0407  0.1085
 6466SOL    HW130860   1.946   0.579  11.741  0.0920  0.9540  0.7013
 6466SOL    HW230861   1.905   0.447  11.810  1.8295  0.1778 -1.7483
 6467SOL     OW30862   2.962   1.494   6.237 -0.5993  0.2374 -0.4045
 6467SOL    HW130863   3.002   1.542   6.164  2.1475 -0.9998  0.2708
 6467SOL    HW230864   2.891   1.552   6.265  0.8603  1.8563 -0.0439
 6468SOL     OW30865   3.826   0.899  17.574  0.3883 -0.1526  0.0361
 6468SOL    HW130866   3.880   0.966  17.615  0.2643  2.1826 -3.6255
 6468SOL    HW230867   3.769   0.864  17.642  0.4116 -0.0148  0.1247
 6469SOL     OW30868   1.577   4.313   7.241  0.1868 -0.7502 -0.5203
 6469SOL    HW130869   1.621   4.289   7.159 -0.0959  0.4882 -1.0418
 6469SOL    HW230870   1.484   4.313   7.216  0.1661 -2.2665 -0.4443
 6470SOL     OW30871   2.337   0.861  12.424  0.3145  0.1874 -0.4014
 6470SOL    HW130872   2.363   0.777  12.385  1.4639  0.6758 -0.6829
 6470SOL    HW230873   2.419   0.877  12.471  1.0136  0.5216 -1.7403
 6471SOL     OW30874   4.711   1.609   2.376  0.0553  0.2077  0.0780
 6471SOL    HW130875   4.618   1.589   2.365 -0.3599  2.0114  0.2106
 6471SOL    HW230876   0.012   1.524   2.345 -0.5000 -0.2076  0.7081
 6472SOL     OW30877   0.814   3.878  15.330  0.3422 -0.2317  0.1378
 6472SOL    HW130878   0.794   3.967  15.359  0.4936 -0.4434  0.8932
 6472SOL    HW230879   0.778   3.832  15.405 -2.9854  0.5013 -0.9914
 6473SOL     OW30880   1.633   1.481   4.968  0.2427  0.4469  0.0638
 6473SOL    HW130881   1.638   1.411   4.904  0.8728  0.0830  0.5081
 6473SOL    HW230882   1.581   1.546   4.921  0.8340  1.4771  0.8239
 6474SOL     OW30883   1.675   3.153   0.930 -0.2771 -0.3989 -0.1185
 6474SOL    HW130884   1.735   3.159   0.855  1.6632 -1.9595  1.2889
 6474SOL    HW230885   1.670   3.241   0.968 -0.7412 -0.4919  0.0302
 6475SOL     OW30886   2.204   0.174   8.734  0.0512 -0.2264  0.3099
 6475SOL    HW130887   2.160   0.259   8.733 -2.8153 -1.6997 -0.1092
 6475SOL    HW230888   2.138   0.108   8.713  0.3593 -0.3347 -0.3100
 6476SOL     OW30889   1.520   2.021   7.292  0.4189 -0.0299 -0.4848
 6476SOL    HW130890   1.616   2.023   7.298  0.4714 -2.9176 -0.0012
 6476SOL    HW230891   1.499   2.114   7.295  0.8583  0.0471  0.3485
 6477SOL     OW30892   4.686   3.014  17.679  0.6990 -0.4331 -0.4538
 6477SOL    HW130893   0.027   3.014  17.613  0.7456  0.9562 -0.4161
 6477SOL    HW230894   4.639   2.932  17.671  1.2946 -0.9516  1.2879
 6478SOL     OW30895   0.862   3.281   3.148 -0.1012 -0.7035 -0.1167
 6478SOL    HW130896   0.950   3.318   3.142  0.0168 -0.9430  0.1601
 6478SOL    HW230897   0.833   3.297   3.059  0.8864  1.1220 -0.1192
 6479SOL     OW30898   1.484   2.596   6.144 -0.1837  0.2606 -0.3825
 6479SOL    HW130899   1.564   2.578   6.096 -0.9699 -3.2693 -0.4036
 6479SOL    HW230900   1.475   2.516   6.197 -2.9224  1.6198  1.2528
 6480SOL     OW30901   0.044   0.533   3.383  0.2776 -0.2906 -0.3346
 6480SOL    HW130902   0.025   0.439   3.379 -0.8568  0.0075 -2.1199
 6480SOL    HW230903   4.690   0.564   3.346  0.0717  1.1638  1.3501
 6481SOL     OW30904   3.279   1.254  16.626 -0.9081  0.0491 -0.3556
 6481SOL    HW130905   3.302   1.285  16.539 -2.8622  2.3930 -0.0158
 6481SOL    HW230906   3.333   1.176  16.639 -2.2663 -1.2587 -2.5283
 6482SOL     OW30907   0.843   4.562   5.479 -0.1386 -0.2235 -0.1051
 6482SOL    HW130908   0.826   4.468   5.473  4.1539 -0.9537 -0.9974
 6482SOL    HW230909   0.760   4.592   5.517  0.2675 -0.2826  0.8358
 6483SOL     OW30910   4.622   2.811   4.645 -0.2063  0.0729  1.0230
 6483SOL    HW130911   4.684   2.882   4.629 -0.4973  0.3192  0.9939
 6483SOL    HW230912   4.662   2.738   4.598  1.0785 -0.5968  3.1747
 6484SOL     OW30913   0.726   0.639   3.476  0.3488 -0.0998 -0.1166
 6484SOL    HW130914   0.806   0.667   3.430  0.0193  0.2093 -0.4995
 6484SOL    HW230915   0.665   0.666   3.407  0.3573 -2.0627 -0.8992
 6485SOL     OW30916   3.716   0.567  13.507 -0.3703  0.0220 -0.1653
 6485SOL    HW130917   3.668   0.646  13.483 -0.8083 -0.2283 -0.1236
 6485SOL    HW230918   3.654   0.527  13.568 -0.8648 -1.5243 -1.6629
 6486SOL     OW30919   1.715   0.607  13.533  0.1491  0.3316  0.4236
 6486SOL    HW130920   1.721   0.697  13.564  0.0273  0.6579 -0.4761
 6486SOL    HW230921   1.711   0.622  13.438 -0.3757  1.2201  0.5892
 6487SOL     OW30922   4.462   0.393   4.998  0.7001 -0.0525 -0.5528
 6487SOL    HW130923   4.394   0.376   5.063 -0.2623  0.8765 -1.3184
 6487SOL    HW230924   4.429   0.339   4.926 -1.0152 -0.6804  0.6982
 6488SOL     OW30925   3.386   2.038   5.095 -0.3587 -0.0584  0.1561
 6488SOL    HW130926   3.365   2.065   5.185 -2.1176 -0.6354 -0.0902
 6488SOL    HW230927   3.474   2.072   5.077 -1.5491  2.3988 -0.9559
 6489SOL     OW30928   1.802   2.641   5.626 -0.1736 -0.0922 -0.1157
 6489SOL    HW130929   1.895   2.637   5.645  0.4843  2.2433 -2.9340
 6489SOL    HW230930   1.804   2.663   5.533  1.0296  2.3438  0.5057
 6490SOL     OW30931   2.773   0.971   5.623 -0.1688 -0.0782 -0.1509
 6490SOL    HW130932   2.824   0.892   5.641  1.5414  1.1088  0.1903
 6490SOL    HW230933   2.737   0.977   5.712 -0.4754 -1.2470 -0.1911
 6491SOL     OW30934   4.508   2.716   0.401  0.5551  0.3875 -0.5548
 6491SOL    HW130935   4.590   2.690   0.359  0.1678 -0.0565 -1.0406
 6491SOL    HW230936   4.527   2.793   0.453  3.4248 -0.7993  0.1276
 6492SOL     OW30937   2.066   3.201   4.731 -0.0660  0.2571 -0.0001
 6492SOL    HW130938   1.988   3.193   4.677  0.7471  0.4844 -1.2184
 6492SOL    HW230939   2.119   3.141   4.678 -2.7686 -1.1731 -1.0645
 6493SOL     OW30940   0.848   4.505   3.125 -0.1545 -0.2763 -0.0452
 6493SOL    HW130941   0.783   4.575   3.139 -0.3475 -0.8210  1.7879
 6493SOL    HW230942   0.836   4.483   3.033  2.3602  2.1299 -0.9855
 6494SOL     OW30943   4.374   4.417  12.220  0.9390  0.4554 -0.3219
 6494SOL    HW130944   4.311   4.489  12.224 -1.9935 -2.0836 -1.3919
 6494SOL    HW230945   4.448   4.477  12.209  2.5019 -1.2046  1.1637
 6495SOL     OW30946   4.054   0.637   4.461 -0.8229  0.2155  0.1353
 6495SOL    HW130947   4.101   0.695   4.521  1.6319 -0.3178 -1.2641
 6495SOL    HW230948   4.126   0.624   4.398 -1.9691 -0.6906 -0.9853
 6496SOL     OW30949   0.437   3.989   2.537  0.1390  0.0877 -0.0834
 6496SOL    HW130950   0.448   4.055   2.606  1.6842  0.4328 -0.6516
 6496SOL    HW230951   0.371   4.032   2.482  0.0698 -2.0212 -1.6417
 6497SOL     OW30952   2.471   4.211   4.826  0.4907 -0.4996 -0.2345
 6497SOL    HW130953   2.446   4.302   4.842  3.0093  0.0710  0.5411
 6497SOL    HW230954   2.502   4.207   4.735 -1.4147 -0.6724 -0.8723
 6498SOL     OW30955   1.324   3.080   7.658  0.3477 -0.2277 -0.2309
 6498SOL    HW130956   1.381   3.005   7.640  0.2390  0.1590 -2.0854
 6498SOL    HW230957   1.373   3.103   7.737 -1.4124 -1.1443  1.1455
 6499SOL     OW30958   1.901   2.688   3.190 -0.1988 -0.5346  0.0685
 6499SOL    HW130959   1.908   2.783   3.184 -0.7095 -0.4193  1.3227
 6499SOL    HW230960   1.824   2.671   3.244 -0.7853  0.0823 -0.5662
 6500SOL     OW30961   4.161   4.602   0.870  0.3787  0.7225  0.2795
 6500SOL    HW130962   4.157   4.516   0.828 -3.3475  0.5110  1.0467
 6500SOL    HW230963   4.184   4.663   0.800 -0.0440  0.1811 -0.3312
 6501SOL     OW30964   1.975   0.618   5.660 -0.7446 -0.4286  0.2842
 6501SOL    HW130965   1.888   0.578   5.657 -0.6909 -0.3644 -1.8786
 6501SOL    HW230966   2.023   0.553   5.711  0.7818 -0.6993 -1.5118
 6502SOL     OW30967   3.515   1.157   9.418  0.3844  0.1406  0.4753
 6502SOL    HW130968   3.476   1.104   9.487 -0.5581 -3.5117 -2.8810
 6502SOL    HW230969   3.452   1.229   9.414  0.0701 -0.0935  1.1214
 6503SOL     OW30970   4.256   4.164   4.381  1.1223  0.0426  0.0562
 6503SOL    HW130971   4.242   4.074   4.350 -1.6656 -0.1684  1.9308
 6503SOL    HW230972   4.196   4.212   4.324 -0.4775 -0.6579  1.1663
 6504SOL     OW30973   1.092   3.786   5.025  0.4932  0.3345 -0.0193
 6504SOL    HW130974   1.063   3.859   4.971 -1.3991 -1.1812 -1.0536
 6504SOL    HW230975   1.038   3.802   5.103 -1.4103  1.0298 -1.5068
 6505SOL     OW30976   0.612   3.427  14.169 -0.2077  0.0855  0.1378
 6505SOL    HW130977   0.579   3.489  14.234  1.9287 -1.2226  2.4516
 6505SOL    HW230978   0.582   3.344  14.206 -0.1204 -0.1698 -0.3550
 6506SOL     OW30979   1.203   0.304   2.171  0.1643 -0.4600 -0.5866
 6506SOL    HW130980   1.256   0.345   2.102  0.7353  0.8962  0.6459
 6506SOL    HW230981   1.250   0.351   2.240  0.5977 -2.3221  0.3907
 6507SOL     OW30982   0.765   2.330   7.966  0.4117  0.3120  0.0391
 6507SOL    HW130983   0.811   2.410   7.939  0.8975  0.0210  0.0018
 6507SOL    HW230984   0.838   2.286   8.010 -0.5203  1.9350  3.2284
 6508SOL     OW30985   4.169   2.574   1.502 -0.4821 -0.8205 -0.2407
 6508SOL    HW130986   4.187   2.582   1.595 -0.0139 -1.5356 -0.2688
 6508SOL    HW230987   4.093   2.516   1.516  0.8886 -2.5463  0.0795
 6509SOL     OW30988   3.027   2.421  17.019  0.1235 -0.8199  0.2691
 6509SOL    HW130989   2.945   2.469  17.013  0.1800 -0.5756  1.4724
 6509SOL    HW230990   2.995   2.331  17.012 -1.9155  0.1664 -3.1301
 6510SOL     OW30991   0.904   4.166   1.702 -0.0489 -0.0084 -0.0176
 6510SOL    HW130992   0.918   4.098   1.768 -1.1522 -0.3278 -0.1073
 6510SOL    HW230993   0.810   4.167   1.686  0.0464  1.3519 -0.4824
 6511SOL     OW30994   0.000   0.318   1.466  0.0224  0.1948  0.0552
 6511SOL    HW130995   4.692   0.292   1.550 -1.1927  1.9350  0.0544
 6511SOL    HW230996   0.064   0.250   1.444  1.0848  0.8781  1.0538
 6512SOL     OW30997   0.956   1.202  12.172 -0.1760  0.4723  0.0466
 6512SOL    HW130998   1.011   1.234  12.244 -1.3576 -0.0564  1.1749
 6512SOL    HW230999   0.952   1.284  12.123 -0.9470 -0.3329 -1.2414
 6513SOL     OW31000   4.377   4.282   2.016  0.1141  0.2098  0.3742
 6513SOL    HW131001   4.462   4.300   1.977  0.6830  0.3112  1.6683
 6513SOL    HW231002   4.372   4.187   2.027 -0.2657  0.0501 -1.2162
 6514SOL     OW31003   1.805   2.440   0.303  0.2551 -0.3828 -0.5011
 6514SOL    HW131004   1.834   2.506   0.240 -0.5575 -0.4177 -0.9121
 6514SOL    HW231005   1.710   2.431   0.295 -0.1664  1.9423  2.0710
 6515SOL     OW31006   1.691   2.286  13.193 -0.2390 -0.1357 -0.1184
 6515SOL    HW131007   1.606   2.247  13.212 -1.2962  1.4500 -1.6451
 6515SOL    HW231008   1.684   2.343  13.117 -0.4509  0.7843  0.5938
 6516SOL     OW31009   3.010   0.542   9.623 -0.4878  0.1856  0.6181
 6516SOL    HW131010   2.936   0.529   9.683 -2.2268  0.9461 -1.3731
 6516SOL    HW231011   3.086   0.517   9.675 -1.1956 -1.2006  0.9876
 6517SOL     OW31012   4.362   1.578   6.007  0.6519  0.5077 -0.0945
 6517SOL    HW131013   4.361   1.514   5.936  1.0952  0.6034 -0.1926
 6517SOL    HW231014   4.371   1.656   5.952  0.1122  1.0656  0.6157
 6518SOL     OW31015   1.707   1.841   2.624  0.7668  0.4788 -0.2258
 6518SOL    HW131016   1.668   1.928   2.629 -0.3308 -0.2759  3.8488
 6518SOL    HW231017   1.667   1.817   2.541  1.0664  1.1230 -0.5611
 6519SOL     OW31018   2.633   4.376   3.217  0.2496  0.0620 -0.2182
 6519SOL    HW131019   2.696   4.306   3.236 -0.2412 -0.0878  0.8425
 6519SOL    HW231020   2.621   4.413   3.304 -2.0003 -0.9164 -0.1044
 6520SOL     OW31021   4.694   3.076   8.463 -0.0816  0.0083 -0.3264
 6520SOL    HW131022   0.008   3.148   8.416  1.4332 -1.0414 -0.5595
 6520SOL    HW231023   4.605   3.075   8.427  0.7600  2.2997 -2.4809
 6521SOL     OW31024   0.085   1.394   3.605 -0.2259 -0.0854  0.4391
 6521SOL    HW131025   0.019   1.332   3.576 -0.7007  0.5001  0.2786
 6521SOL    HW231026   0.035   1.471   3.631 -1.1752 -0.2989 -0.8191
 6522SOL     OW31027   3.056   0.784   9.501  0.1245  0.4998 -0.0602
 6522SOL    HW131028   3.055   0.839   9.580 -0.5767 -0.4605  0.5999
 6522SOL    HW231029   3.039   0.694   9.530  0.9301  1.0539  2.1685
 6523SOL     OW31030   1.618   0.963  11.425 -0.1256 -0.1919  0.3982
 6523SOL    HW131031   1.704   0.986  11.392 -0.1034  1.6272  1.7541
 6523SOL    HW231032   1.640   0.908  11.501 -1.1668 -2.4284 -0.8995
 6524SOL     OW31033   0.497   1.940   3.018  0.1444 -0.5724  0.3419
 6524SOL    HW131034   0.520   2.005   2.952 -0.4108 -0.2658  0.4575
 6524SOL    HW231035   0.564   1.949   3.087  0.9080  1.4135 -0.6352
 6525SOL     OW31036   4.114   4.448   2.690  0.1939 -0.1048 -0.1112
 6525SOL    HW131037   4.153   4.427   2.775 -1.3519  2.5796  1.2488
 6525SOL    HW231038   4.124   4.543   2.700  0.4166 -0.0177 -1.1523
 6526SOL     OW31039   2.559   3.787  15.577 -0.8247 -0.2581 -0.2354
 6526SOL    HW131040   2.533   3.791  15.485  2.1509 -0.4129 -1.0887
 6526SOL    HW231041   2.605   3.870  15.584 -1.2627 -0.1230  0.9803
 6527SOL     OW31042   0.719   3.259  11.165  1.2018 -0.0383 -0.0074
 6527SOL    HW131043   0.754   3.213  11.089 -0.1168  1.3155 -1.4480
 6527SOL    HW231044   0.773   3.338  11.172  3.0162 -1.3010  0.2202
 6528SOL     OW31045   0.307   2.939   3.478 -0.4911 -0.0374  0.6959
 6528SOL    HW131046   0.313   3.028   3.512 -0.7466  0.1259  0.3096
 6528SOL    HW231047   0.339   2.881   3.547 -1.2088  1.3838  2.2205
 6529SOL     OW31048   3.536   0.741  14.646 -0.0924  0.0470  0.1087
 6529SOL    HW131049   3.542   0.646  14.630  0.2787  0.4404 -2.0887
 6529SOL    HW231050   3.532   0.732  14.741  0.6658  0.3775  0.1700
 6530SOL     OW31051   1.865   1.345   8.699 -0.2551  0.0716 -0.6334
 6530SOL    HW131052   1.864   1.440   8.692 -1.6625 -0.0398 -2.0197
 6530SOL    HW231053   1.836   1.339   8.790  2.0683 -0.1044  0.0868
 6531SOL     OW31054   4.290   0.126  16.307 -0.0543 -0.0465  0.1259
 6531SOL    HW131055   4.324   0.212  16.329  1.2204 -0.7651  0.9999
 6531SOL    HW231056   4.352   0.096  16.240 -0.5922  1.2012 -0.9161
 6532SOL     OW31057   2.202   2.176   5.734 -0.3446  0.1136  0.2947
 6532SOL    HW131058   2.281   2.209   5.690  0.2418 -1.4076  0.2114
 6532SOL    HW231059   2.232   2.186   5.824 -0.8554  0.2095  0.4533
 6533SOL     OW31060   4.684   2.695   7.642  0.9078  0.0296 -0.2491
 6533SOL    HW131061   0.008   2.620   7.670 -0.7460 -1.3762 -0.9446
 6533SOL    HW231062   4.662   2.736   7.726  0.6725  2.0543 -1.2900
 6534SOL     OW31063   3.697   1.248   0.169  0.5056  0.3708  0.1201
 6534SOL    HW131064   3.636   1.175   0.168 -0.2794  1.0315 -0.4398
 6534SOL    HW231065   3.657   1.312   0.110 -1.0084 -0.4344  0.2712
 6535SOL     OW31066   2.563   1.385   4.542 -0.2535  0.4860 -0.1255
 6535SOL    HW131067   2.492   1.344   4.590 -0.4648  0.2794 -0.6136
 6535SOL    HW231068   2.621   1.311   4.521 -0.0157  0.4886  0.5159
 6536SOL     OW31069   1.323   2.436   1.815  0.1150 -0.5174 -0.4996
 6536SOL    HW131070   1.243   2.457   1.862  0.0904 -0.8146 -0.4110
 6536SOL    HW231071   1.379   2.423   1.891  1.8659 -2.1132 -2.0393
 6537SOL     OW31072   4.119   4.219  15.609  0.6993 -0.1169  0.2962
 6537SOL    HW131073   4.029   4.216  15.576  0.9700 -1.4211 -0.3173
 6537SOL    HW231074   4.133   4.128  15.633 -0.2645 -0.1526  0.7297
 6538SOL     OW31075   3.582   3.803   1.940  0.8307  0.0296 -0.1939
 6538SOL    HW131076   3.609   3.846   1.860  0.8425 -1.5973 -1.0561
 6538SOL    HW231077   3.537   3.867   1.995 -0.8876  1.1551 -2.8999
 6539SOL     OW31078   1.505   3.033   3.111  0.1997  0.3278  0.0197
 6539SOL    HW131079   1.458   2.979   3.175 -1.3658  1.3373 -0.2840
 6539SOL    HW231080   1.494   3.119   3.152 -0.8875 -0.5534  1.5996
 6540SOL     OW31081   3.829   0.469   8.769 -0.5482 -0.2242  0.0145
 6540SOL    HW131082   3.831   0.526   8.846  0.5720 -1.6672  1.0658
 6540SOL    HW231083   3.767   0.400   8.791  0.1850 -0.9548 -0.1758
 6541SOL     OW31084   1.956   2.132   1.308  0.4552 -0.0173 -0.0665
 6541SOL    HW131085   1.886   2.141   1.372  0.7110 -0.1712  0.2397
 6541SOL    HW231086   2.015   2.090   1.371 -0.7981 -1.1188  0.3666
 6542SOL     OW31087   1.035   3.515   2.049  0.1742 -0.6381 -0.2814
 6542SOL    HW131088   1.097   3.464   1.998 -1.1490 -1.5254 -1.0140
 6542SOL    HW231089   1.058   3.607   2.035  0.1764 -0.9417 -2.3839
 6543SOL     OW31090   0.148   2.545  14.875 -0.1794 -0.2761 -0.2702
 6543SOL    HW131091   0.068   2.494  14.859 -0.0421  0.2851 -2.7594
 6543SOL    HW231092   0.165   2.597  14.797 -0.5478  2.1691  1.2748
 6544SOL     OW31093   3.198   1.011   0.578  0.1223 -0.2087  0.5603
 6544SOL    HW131094   3.194   0.978   0.488 -3.5109 -0.6026  0.8441
 6544SOL    HW231095   3.113   0.983   0.614  0.0514 -0.1871  0.4093
 6545SOL     OW31096   3.923   1.414  16.044  0.4567 -0.3720 -0.2482
 6545SOL    HW131097   3.981   1.431  16.118 -0.8002  0.2942  0.5802
 6545SOL    HW231098   3.933   1.492  15.990  0.0547 -1.1183 -1.3938
 6546SOL     OW31099   1.557   3.726  12.227 -1.0724 -0.6939  0.7008
 6546SOL    HW131100   1.606   3.654  12.187 -1.4558 -0.0706 -0.8772
 6546SOL    HW231101   1.496   3.661  12.262 -2.0479 -0.5073 -0.6825
 6547SOL     OW31102   0.386   3.820   4.437 -0.0768  0.0022  0.0100
 6547SOL    HW131103   0.332   3.898   4.430  0.3775  0.4676  1.6722
 6547SOL    HW231104   0.435   3.818   4.355 -0.0090  1.5603  0.0102
 6548SOL     OW31105   2.908   3.194  17.115  0.1982  0.9176  0.2345
 6548SOL    HW131106   2.959   3.250  17.057  0.7485  1.0311  0.8321
 6548SOL    HW231107   2.902   3.254  17.190  0.2360 -1.3795  2.0970
 6549SOL     OW31108   2.258   2.201   3.150 -0.0217  0.3805 -0.7411
 6549SOL    HW131109   2.190   2.135   3.165 -1.2342  1.4309 -1.6145
 6549SOL    HW231110   2.199   2.268   3.114 -2.6268 -1.4755  0.0892
 6550SOL     OW31111   1.637   1.995   5.630  0.1199 -0.0883  0.0042
 6550SOL    HW131112   1.573   1.938   5.588  0.7679  0.1992 -1.3593
 6550SOL    HW231113   1.715   1.939   5.635 -0.0070 -0.0086  3.3283
 6551SOL     OW31114   1.279   1.157   6.553  0.1487 -0.5410 -0.5128
 6551SOL    HW131115   1.321   1.098   6.490  0.0701 -0.2211 -0.8611
 6551SOL    HW231116   1.188   1.150   6.525  0.7317  0.5840 -2.6674
 6552SOL     OW31117   1.173   4.267  10.357  0.8039 -0.1085  0.0143
 6552SOL    HW131118   1.159   4.331  10.286  2.2103  1.4636  1.1546
 6552SOL    HW231119   1.103   4.294  10.417 -0.6748 -0.1616 -1.6739
 6553SOL     OW31120   4.155   1.434  16.224 -0.0423 -0.4556  0.1168
 6553SOL    HW131121   4.237   1.393  16.252 -0.2257 -0.5585  0.5103
 6553SOL    HW231122   4.176   1.527  16.237  0.6585 -0.5937 -0.0360
 6554SOL     OW31123   2.298   4.259   4.251 -0.5565  0.4702 -0.2883
 6554SOL    HW131124   2.283   4.241   4.343  0.1626 -1.9166 -0.6129
 6554SOL    HW231125   2.271   4.349   4.233 -0.0702  0.1748 -2.5020
 6555SOL     OW31126   1.579   2.301  17.657 -0.2542 -0.0524 -0.3454
 6555SOL    HW131127   1.580   2.265  17.568 -0.8923 -0.1890 -0.2990
 6555SOL    HW231128   1.517   2.372  17.644 -0.9784 -0.0737  2.9938
 6556SOL     OW31129   4.348   1.290   2.601 -0.1169  0.4342 -0.3232
 6556SOL    HW131130   4.274   1.346   2.578 -0.4453  1.0590  2.2336
 6556SOL    HW231131   4.339   1.223   2.533 -1.9547 -1.1268  1.4136
 6557SOL     OW31132   3.437   1.535   5.681  0.3136 -0.2846  0.1496
 6557SOL    HW131133   3.428   1.613   5.735  1.2634  0.0958 -0.2264
 6557SOL    HW231134   3.519   1.557   5.637  0.2076  1.2483  0.7262
 6558SOL     OW31135   1.914   1.707   2.262 -0.6407 -0.1126 -0.3607
 6558SOL    HW131136   1.961   1.635   2.305  2.2395  1.1944 -1.3033
 6558SOL    HW231137   1.854   1.656   2.208 -1.3497  0.3007  0.0440
 6559SOL     OW31138   1.731   3.668  10.495 -0.3120  0.2348  0.0467
 6559SOL    HW131139   1.696   3.743  10.543 -2.8561  0.1291 -1.6768
 6559SOL    HW231140   1.707   3.688  10.405 -0.7551 -2.2290 -0.3795
 6560SOL     OW31141   0.928   4.323   6.533  0.3165  0.4037  0.1039
 6560SOL    HW131142   0.949   4.276   6.453 -0.0001  0.6303 -0.1095
 6560SOL    HW231143   1.005   4.380   6.533  0.4725  0.2018  1.2770
 6561SOL     OW31144   1.885   2.419   7.321 -0.0932  0.0008  0.2945
 6561SOL    HW131145   1.862   2.488   7.384 -0.8287  1.1822 -1.2665
 6561SOL    HW231146   1.924   2.351   7.376  3.0268  0.5055 -1.2858
 6562SOL     OW31147   2.403   3.344  15.673 -0.0129  0.0149 -0.8793
 6562SOL    HW131148   2.417   3.249  15.670  2.5674  0.3717 -0.0674
 6562SOL    HW231149   2.314   3.339  15.637  0.3389  0.9891 -1.8872
 6563SOL     OW31150   2.174   1.626   8.786 -0.0202 -0.0781 -0.0880
 6563SOL    HW131151   2.207   1.647   8.873  1.7572 -0.5086 -0.6417
 6563SOL    HW231152   2.097   1.682   8.782  0.0826  0.0618 -0.1064
 6564SOL     OW31153   3.578   0.067   3.280 -0.1875  0.1015 -0.1029
 6564SOL    HW131154   3.619   4.720   3.322  0.1690  0.4495  0.1729
 6564SOL    HW231155   3.645   0.135   3.290 -1.6237  1.0656  2.8770
 6565SOL     OW31156   3.898   2.464   0.703 -0.6379 -0.4103  0.3698
 6565SOL    HW131157   3.868   2.540   0.654 -1.5100  0.4801  2.2666
 6565SOL    HW231158   3.882   2.393   0.641 -1.1151  1.0191 -1.1366
 6566SOL     OW31159   4.351   3.329  14.011 -0.9128  0.3718  0.0952
 6566SOL    HW131160   4.292   3.275  14.063 -1.4447  0.7731 -0.0882
 6566SOL    HW231161   4.289   3.374  13.953 -0.2035 -0.2350 -1.1185
 6567SOL     OW31162   0.688   4.499   8.257  0.2454  0.6575  0.3327
 6567SOL    HW131163   0.757   4.433   8.259 -1.4579 -1.1180 -0.2205
 6567SOL    HW231164   0.611   4.444   8.273  1.7101 -0.9692  1.8792
 6568SOL     OW31165   3.959   2.084   6.332  0.5115  0.2181 -0.0200
 6568SOL    HW131166   3.959   2.128   6.417 -1.2569 -0.8891  0.5603
 6568SOL    HW231167   3.925   2.147   6.269  1.2952 -0.1909 -0.8521
 6569SOL     OW31168   1.354   4.432   4.405 -0.0254  1.0056 -0.1580
 6569SOL    HW131169   1.430   4.382   4.377 -0.5798  0.5879 -0.9170
 6569SOL    HW231170   1.342   4.418   4.499 -0.6189  0.7842 -0.2659
 6570SOL     OW31171   1.729   2.443   4.616  0.4890 -0.0327  0.1468
 6570SOL    HW131172   1.783   2.387   4.672 -0.0643 -0.9626 -0.2621
 6570SOL    HW231173   1.639   2.414   4.631  0.2248  0.5918 -0.2207
 6571SOL     OW31174   0.740   1.192   4.752  0.4075  0.7085 -0.1171
 6571SOL    HW131175   0.646   1.209   4.756  0.1721 -0.9087  1.3173
 6571SOL    HW231176   0.765   1.273   4.708  3.1897 -0.0307  0.1410
 6572SOL     OW31177   0.282   2.588   9.771 -0.6414  0.0560  0.7402
 6572SOL    HW131178   0.227   2.512   9.787  0.4960 -0.9812 -0.2521
 6572SOL    HW231179   0.300   2.568   9.679  1.3552  2.4144  0.6112
 6573SOL     OW31180   0.305   0.811   5.797 -0.0704 -0.0474  0.1324
 6573SOL    HW131181   0.314   0.777   5.708  2.1922  0.4992  0.1375
 6573SOL    HW231182   0.304   0.905   5.778 -0.2522  0.1283  1.0133
 6574SOL     OW31183   2.001   1.229   1.408  0.5118 -0.4108 -0.0224
 6574SOL    HW131184   1.993   1.196   1.318 -0.0384  0.9901 -0.4927
 6574SOL    HW231185   2.030   1.153   1.458  0.2494 -1.6277 -1.7117
 6575SOL     OW31186   0.323   0.294   4.601  0.2744 -0.0794 -0.1246
 6575SOL    HW131187   0.303   0.224   4.539  3.7045 -2.1417  1.1183
 6575SOL    HW231188   0.241   0.289   4.650  0.7159 -0.3539  0.5900
 6576SOL     OW31189   3.635   2.037   8.883 -0.2552  0.0235  0.3861
 6576SOL    HW131190   3.661   2.128   8.895 -0.7275  0.5145 -2.4109
 6576SOL    HW231191   3.564   2.023   8.946  0.4846  0.4369  1.3177
 6577SOL     OW31192   1.600   0.494   5.435  0.7112 -0.4256 -0.3355
 6577SOL    HW131193   1.563   0.425   5.490  2.9026 -0.9180  0.5249
 6577SOL    HW231194   1.542   0.480   5.360 -0.8027  0.1494  0.7174
 6578SOL     OW31195   1.535   4.281   6.956  0.0804 -0.0849 -0.2357
 6578SOL    HW131196   1.493   4.225   6.891 -1.0366  0.1156  0.3267
 6578SOL    HW231197   1.497   4.365   6.932 -0.0610 -0.4288 -1.2182
 6579SOL     OW31198   0.779   0.887   4.298 -0.6116  0.2819 -0.3346
 6579SOL    HW131199   0.850   0.933   4.344  1.1839 -0.5850 -2.2769
 6579SOL    HW231200   0.818   0.882   4.211 -2.3884  1.2319 -1.2015
 6580SOL     OW31201   2.858   3.497   2.789 -0.4929 -0.4458 -0.6480
 6580SOL    HW131202   2.766   3.515   2.811  0.4073  3.9918 -0.6942
 6580SOL    HW231203   2.867   3.409   2.825 -0.9654  0.5201  1.7990
 6581SOL     OW31204   3.618   4.174   8.193  0.0537 -0.2078 -0.0873
 6581SOL    HW131205   3.587   4.265   8.184  1.0119 -0.0339 -1.6430
 6581SOL    HW231206   3.563   4.157   8.270  2.8651  1.2003  2.2106
 6582SOL     OW31207   0.873   1.234   1.067 -0.0625 -0.0094 -0.5244
 6582SOL    HW131208   0.811   1.299   1.034  0.3511  1.7213  2.1094
 6582SOL    HW231209   0.948   1.292   1.080 -1.0783  1.5166 -1.4825
 6583SOL     OW31210   4.073   1.669   9.802  0.2258 -0.5352 -0.1633
 6583SOL    HW131211   4.134   1.622   9.859 -0.5290  1.8494  2.5683
 6583SOL    HW231212   4.133   1.723   9.751  0.6142 -2.5767 -1.8655
 6584SOL     OW31213   3.445   1.149   2.922 -0.2638  0.3999 -0.0984
 6584SOL    HW131214   3.511   1.092   2.959  0.0021  1.4133  0.9975
 6584SOL    HW231215   3.464   1.129   2.830  2.6323  0.4861  0.4901
 6585SOL     OW31216   3.876   4.479   4.115 -0.0213 -0.4082  0.1926
 6585SOL    HW131217   3.905   4.568   4.135 -2.9100  0.4806  0.2947
 6585SOL    HW231218   3.816   4.460   4.187 -1.4895 -0.8055 -1.1428
 6586SOL     OW31219   3.991   1.742  13.468 -0.4481  0.3340  0.4411
 6586SOL    HW131220   4.042   1.662  13.454  1.3872  1.6804 -0.5025
 6586SOL    HW231221   3.910   1.689  13.469 -0.9525  1.0551 -1.6760
 6587SOL     OW31222   2.785   3.846   7.794  0.3768 -0.3509  0.2563
 6587SOL    HW131223   2.710   3.799   7.831 -1.1323  1.8927  0.0224
 6587SOL    HW231224   2.764   3.930   7.833  0.2805 -0.3771  0.2625
 6588SOL     OW31225   3.346   1.080   2.382  0.2345 -0.1930 -0.5988
 6588SOL    HW131226   3.335   1.175   2.375 -3.3891 -0.7480 -2.4539
 6588SOL    HW231227   3.262   1.062   2.339 -0.2176 -0.8298  0.5746
 6589SOL     OW31228   2.994   1.948   9.910 -0.7854  0.6345 -0.0227
 6589SOL    HW131229   2.925   1.899   9.866 -0.4323  1.0592 -1.0576
 6589SOL    HW231230   2.951   2.025   9.945 -0.4202 -0.1422  2.1075
 6590SOL     OW31231   4.294   0.544   2.530 -0.3779  1.0857  0.2025
 6590SOL    HW131232   4.332   0.464   2.566 -1.1556 -0.2028 -1.8082
 6590SOL    HW231233   4.311   0.533   2.436  0.2100  0.6401  0.3597
 6591SOL     OW31234   3.844   4.367   6.420 -0.3457  0.0221 -0.0504
 6591SOL    HW131235   3.924   4.399   6.376 -0.4163  1.0124  0.5449
 6591SOL    HW231236   3.803   4.453   6.419 -1.7433 -0.6261  2.1402
 6592SOL     OW31237   4.264   3.701   0.364  0.5142 -0.5200  0.6569
 6592SOL    HW131238   4.275   3.606   0.355 -2.1631 -0.5989 -1.8781
 6592SOL    HW231239   4.355   3.724   0.382  0.7635  0.5270 -1.9671
 6593SOL     OW31240   2.374   0.659   6.622  0.6027 -0.3192  0.1393
 6593SOL    HW131241   2.343   0.644   6.712 -0.3868  2.1334  0.2210
 6593SOL    HW231242   2.468   0.671   6.634  0.3840  1.3328  0.1978
 6594SOL     OW31243   3.011   2.913  11.639  0.5321  0.0664  0.3333
 6594SOL    HW131244   2.918   2.899  11.655  0.3504  4.3966  2.9475
 6594SOL    HW231245   3.057   2.892  11.720 -2.1532 -1.0331  1.5455
 6595SOL     OW31246   0.645   2.965   3.816  0.0657 -0.1792  0.2396
 6595SOL    HW131247   0.723   2.910   3.821 -1.1029 -1.7735  1.0578
 6595SOL    HW231248   0.681   3.046   3.779 -1.5168 -0.0690 -1.0710
 6596SOL     OW31249   2.748   4.708   6.851 -0.3225  0.2761 -0.1748
 6596SOL    HW131250   2.742   0.068   6.888 -1.8724 -1.1946  3.1278
 6596SOL    HW231251   2.708   4.652   6.918 -1.7276  0.5604 -0.7732
 6597SOL     OW31252   0.015   2.045  12.176  0.2415  0.0463  0.2074
 6597SOL    HW131253   0.076   2.105  12.134  0.9583 -0.4607  0.5183
 6597SOL    HW231254   4.667   2.051  12.119  1.1182  1.0007 -0.8594
 6598SOL     OW31255   3.165   2.636   4.234  0.2195  0.0495 -0.4233
 6598SOL    HW131256   3.082   2.674   4.206 -1.5822 -2.0687  2.0197
 6598SOL    HW231257   3.213   2.621   4.152  0.7414  3.1963 -0.6745
 6599SOL     OW31258   2.449   3.743   5.043  0.0138 -0.1444  0.2776
 6599SOL    HW131259   2.363   3.782   5.060  0.6891  1.4649  0.0102
 6599SOL    HW231260   2.432   3.690   4.966 -2.7597 -0.9822  1.4844
 6600SOL     OW31261   3.882   0.737   2.955 -0.1252  0.4752  0.2769
 6600SOL    HW131262   3.800   0.786   2.952 -0.0036  0.4448 -3.7089
 6600SOL    HW231263   3.860   0.667   3.016  0.6978  1.1816  1.3919
 6601SOL     OW31264   3.442   3.006   0.945 -0.2194 -0.4689  0.0957
 6601SOL    HW131265   3.395   2.948   1.005 -1.5013 -0.6995 -1.1238
 6601SOL    HW231266   3.486   3.065   1.006  2.5640  1.5068 -3.8036
 6602SOL     OW31267   2.567   0.729  15.065  0.3339 -0.2311  0.2173
 6602SOL    HW131268   2.629   0.775  15.009 -1.7493  1.4497 -0.7002
 6602SOL    HW231269   2.495   0.738  15.003 -1.1223 -0.5797  1.8676
 6603SOL     OW31270   0.619   4.216   7.164 -0.4284  0.3936  0.3592
 6603SOL    HW131271   0.530   4.204   7.132 -0.1299 -1.2452  0.1386
 6603SOL    HW231272   0.629   4.311   7.159 -1.3313  0.5240  1.1892
 6604SOL     OW31273   2.315   1.988   0.982 -0.2116 -0.3891  0.3939
 6604SOL    HW131274   2.334   2.075   0.947 -0.0231 -0.1976  0.9789
 6604SOL    HW231275   2.231   1.969   0.940 -0.0504  0.3653 -0.2626
 6605SOL     OW31276   1.666   4.190   3.795 -0.7885  0.1097  0.2819
 6605SOL    HW131277   1.746   4.164   3.841 -0.0754  1.6784 -0.0639
 6605SOL    HW231278   1.706   4.261   3.744 -2.2207  0.6888 -0.0332
 6606SOL     OW31279   4.381   1.081   1.378  0.2327 -0.1553  0.0829
 6606SOL    HW131280   4.357   1.170   1.352  0.5425 -0.3297 -0.7999
 6606SOL    HW231281   4.382   1.041   1.291  0.9520 -1.6492  0.7873
 6607SOL     OW31282   3.818   0.699  11.097 -0.4413 -0.2203 -0.2465
 6607SOL    HW131283   3.793   0.790  11.077  0.8638  0.4578  1.1577
 6607SOL    HW231284   3.790   0.699  11.189  1.2690 -1.6272  0.2631
 6608SOL     OW31285   2.308   0.025   5.607  0.5150  0.0658  0.1844
 6608SOL    HW131286   2.268   0.064   5.685  2.0810  1.0456  0.5047
 6608SOL    HW231287   2.275   0.074   5.532  0.4915  0.7129  0.6118
 6609SOL     OW31288   3.921   4.562   4.865  0.3483  0.4173 -0.2331
 6609SOL    HW131289   3.916   4.543   4.959  1.8683  1.4272  0.0719
 6609SOL    HW231290   4.010   4.532   4.847  0.9300  2.1433 -0.2710
 6610SOL     OW31291   2.008   3.660  16.325 -0.1059 -0.2073  0.4970
 6610SOL    HW131292   2.023   3.699  16.238 -0.9564  2.6835  1.6555
 6610SOL    HW231293   1.913   3.649  16.322  0.0473 -0.7729 -2.6781
 6611SOL     OW31294   0.295   0.780   6.508  0.7396 -0.1644  0.5286
 6611SOL    HW131295   0.201   0.761   6.505  0.5142  1.3242 -1.9980
 6611SOL    HW231296   0.309   0.765   6.601 -0.1701 -0.3807  0.6244
 6612SOL     OW31297   2.434   0.921   0.768  0.3861  0.0770  0.0925
 6612SOL    HW131298   2.463   0.913   0.677 -0.2463  1.6685 -0.2505
 6612SOL    HW231299   2.344   0.894   0.751 -0.2274  0.6732  2.3686
 6613SOL     OW31300   1.618   2.673   1.687 -0.1897 -0.5299 -0.0146
 6613SOL    HW131301   1.656   2.677   1.775 -0.2639 -0.9599  0.0392
 6613SOL    HW231302   1.528   2.655   1.716  0.2653 -2.9980 -0.1009
 6614SOL     OW31303   1.989   0.730   3.011  0.1551 -0.6877 -0.0698
 6614SOL    HW131304   2.020   0.795   2.948 -0.0759 -1.6670 -1.2053
 6614SOL    HW231305   1.894   0.724   3.016 -0.0798  2.4162 -0.9864
 6615SOL     OW31306   4.041   2.103  10.467  0.2019 -0.1979 -0.1349
 6615SOL    HW131307   4.114   2.086  10.409  2.1294  0.3642  2.1252
 6615SOL    HW231308   3.995   2.156  10.401 -2.4083 -0.9749  1.0389
 6616SOL     OW31309   1.736   4.617   6.617  0.4896 -0.1838 -0.1595
 6616SOL    HW131310   1.778   4.557   6.679  1.6585  2.5772  1.7562
 6616SOL    HW231311   1.646   4.585   6.629  0.2010  1.7033  2.9050
 6617SOL     OW31312   0.149   1.871   8.764  0.3113  0.0240  0.4578
 6617SOL    HW131313   0.233   1.832   8.788 -0.1902 -0.7932  0.8594
 6617SOL    HW231314   0.135   1.939   8.831  1.2533  1.0056 -0.3283
 6618SOL     OW31315   4.627   0.982   7.726 -0.2228  0.3498  0.9599
 6618SOL    HW131316   4.543   1.022   7.707 -0.1910  0.7789  1.7172
 6618SOL    HW231317   4.602   0.895   7.756  1.6262 -0.6335 -0.3342
 6619SOL     OW31318   1.229   2.757  10.640  0.3183 -0.1684 -0.3515
 6619SOL    HW131319   1.134   2.759  10.633  0.2781  0.6806  0.3409
 6619SOL    HW231320   1.233   2.758  10.736  1.4466  0.7861 -0.4067
 6620SOL     OW31321   4.347   2.471   9.175 -0.0197  0.1374 -0.3329
 6620SOL    HW131322   4.352   2.461   9.270  0.0037  1.1640 -0.2240
 6620SOL    HW231323   4.274   2.410   9.161  0.9791 -2.1058  4.0843
 6621SOL     OW31324   0.781   2.774   6.259 -0.0847 -0.2522 -0.7411
 6621SOL    HW131325   0.688   2.774   6.239 -0.2562 -0.1188  0.0339
 6621SOL    HW231326   0.815   2.816   6.180  2.3155  2.1877  1.5393
 6622SOL     OW31327   1.550   0.784   4.897  0.5991  0.1438 -0.0620
 6622SOL    HW131328   1.525   0.720   4.964 -0.2522  0.8881  0.3298
 6622SOL    HW231329   1.544   0.725   4.822  1.1090  1.5061 -1.1640
 6623SOL     OW31330   4.170   2.264   9.604 -0.0450 -0.1453  0.2552
 6623SOL    HW131331   4.075   2.274   9.606 -0.0533  0.0584 -0.8414
 6623SOL    HW231332   4.182   2.295   9.694  0.3144  0.0795  0.1335
 6624SOL     OW31333   2.471   1.756   5.192  0.3338 -0.1574 -0.3029
 6624SOL    HW131334   2.497   1.802   5.272  0.4426  0.6484 -0.7967
 6624SOL    HW231335   2.469   1.666   5.224 -0.6908 -0.3490 -0.9183
 6625SOL     OW31336   1.268   4.728  13.706 -0.6659 -0.3366  0.2271
 6625SOL    HW131337   1.296   4.663  13.641 -0.5028 -0.4505  0.4066
 6625SOL    HW231338   1.181   0.025  13.677 -0.2625  0.9002  0.1192
 6626SOL     OW31339   0.251   2.539  14.301  0.0531 -0.4045  0.1217
 6626SOL    HW131340   0.279   2.479  14.370 -0.3937 -2.1146 -1.1899
 6626SOL    HW231341   0.243   2.483  14.224 -0.1524 -3.0772  2.0763
 6627SOL     OW31342   2.637   1.303   3.220 -0.0903 -0.1954 -0.1805
 6627SOL    HW131343   2.727   1.328   3.245 -0.7398 -0.5962  2.6368
 6627SOL    HW231344   2.593   1.331   3.300  0.5780  2.2315 -0.6531
 6628SOL     OW31345   4.397   1.140  11.948 -0.4480  0.1741  0.1916
 6628SOL    HW131346   4.339   1.103  11.881 -0.5911 -1.2462  1.0827
 6628SOL    HW231347   4.326   1.171  12.005 -0.8073  1.0482 -0.7361
 6629SOL     OW31348   0.262   0.789   0.963 -0.2922  0.2882 -0.0713
 6629SOL    HW131349   0.212   0.869   0.948 -1.3797 -0.4318 -0.3325
 6629SOL    HW231350   0.222   0.760   1.045  0.3022  1.4151  0.6172
 6630SOL     OW31351   3.237   4.469  10.514 -0.4215  0.8469 -0.1757
 6630SOL    HW131352   3.322   4.464  10.472 -0.3125  0.1647  0.1378
 6630SOL    HW231353   3.264   4.504  10.599 -1.2018 -1.4210  1.0074
 6631SOL     OW31354   0.039   4.013  10.429  0.3101  0.2512 -0.5944
 6631SOL    HW131355   0.036   3.985  10.520  2.2053 -3.6813 -1.7141
 6631SOL    HW231356   4.726   3.939  10.385 -1.4457 -0.4378  2.2720
 6632SOL     OW31357   4.693   3.765   9.700 -0.3824  0.8486  0.2513
 6632SOL    HW131358   4.716   3.857   9.683  1.1462  0.4185 -0.0035
 6632SOL    HW231359   0.045   3.729   9.737 -0.0519  0.9809 -0.3250
 6633SOL     OW31360   3.590   4.117   4.497  0.2858  0.2172  0.6004
 6633SOL    HW131361   3.619   4.155   4.415  1.8200  3.0417  2.4666
 6633SOL    HW231362   3.659   4.061   4.533  0.1184 -0.7217 -0.5503
 6634SOL     OW31363   1.126   3.302   2.232  0.0452  0.4175  0.0287
 6634SOL    HW131364   1.058   3.369   2.233  1.5758  1.9959 -0.7260
 6634SOL    HW231365   1.153   3.317   2.142  1.6764 -1.5976  0.1889
 6635SOL     OW31366   1.048   2.983   8.942 -0.7191  0.1396 -0.2841
 6635SOL    HW131367   1.080   2.905   8.988 -2.8105 -1.9576 -2.3633
 6635SOL    HW231368   1.103   3.050   8.983  2.4532 -1.8537 -1.2629
 6636SOL     OW31369   1.605   2.506  14.003  0.3213 -0.7048  0.0755
 6636SOL    HW131370   1.608   2.592  14.044 -0.9889 -0.4140 -0.4301
 6636SOL    HW231371   1.510   2.491  14.012  0.4325 -3.0354 -2.5141
 6637SOL     OW31372   2.657   0.300   6.666  0.0309 -0.0837  0.1433
 6637SOL    HW131373   2.682   0.338   6.581  0.4067 -4.0306 -1.5000
 6637SOL    HW231374   2.579   0.245   6.654 -0.5130  0.5374  0.8454
 6638SOL     OW31375   0.362   2.165   5.503 -0.6537 -0.1122  0.3836
 6638SOL    HW131376   0.329   2.161   5.413  1.5924 -0.0960 -0.4432
 6638SOL    HW231377   0.417   2.240   5.482  0.4651 -1.1667 -0.5047
 6639SOL     OW31378   2.692   2.030  17.475 -0.2265 -0.2932  0.6478
 6639SOL    HW131379   2.721   2.117  17.444  0.9864 -1.4207 -1.4022
 6639SOL    HW231380   2.603   2.037  17.440 -0.2244 -0.2280  0.6548
 6640SOL     OW31381   3.802   3.520  12.586  0.2739  0.4895  0.3466
 6640SOL    HW131382   3.787   3.442  12.531  0.0926 -0.6724  2.0445
 6640SOL    HW231383   3.755   3.495  12.665  0.7830  1.0332  0.8105
 6641SOL     OW31384   0.240   0.958  11.586  0.6415  0.5203  0.5719
 6641SOL    HW131385   0.255   0.904  11.508 -0.9343  0.3213  0.3987
 6641SOL    HW231386   0.329   0.988  11.602  0.4868  0.4628  1.4947
 6642SOL     OW31387   0.971   1.895  11.680 -0.0301  0.3568  0.4151
 6642SOL    HW131388   0.996   1.935  11.763 -1.9484 -0.1318  1.2334
 6642SOL    HW231389   0.922   1.818  11.710 -1.5119  1.0006 -0.3183
 6643SOL     OW31390   1.134   1.484  16.149 -0.1213  0.6576  0.0145
 6643SOL    HW131391   1.196   1.499  16.220 -1.8547  3.4898  0.9428
 6643SOL    HW231392   1.051   1.481  16.196  0.2425  0.5472  0.6495
 6644SOL     OW31393   3.255   0.751   9.297 -0.2715  0.1181 -0.2299
 6644SOL    HW131394   3.183   0.753   9.359  1.7498  2.1458  2.0423
 6644SOL    HW231395   3.313   0.686   9.337  0.2305  0.7573  0.0934
 6645SOL     OW31396   1.308   4.514   6.156  0.1565 -0.1556  0.0442
 6645SOL    HW131397   1.387   4.566   6.139  1.1674 -1.0509  1.9093
 6645SOL    HW231398   1.296   4.551   6.244 -2.7436 -1.4697  0.2112
 6646SOL     OW31399   2.072   2.296   6.238 -0.2497 -0.1631 -0.3090
 6646SOL    HW131400   2.000   2.248   6.196 -0.4304  0.3012 -0.5238
 6646SOL    HW231401   2.141   2.230   6.248 -3.0757 -3.2606 -1.2595
 6647SOL     OW31402   3.216   3.787   3.076 -0.0930 -0.2726  0.2016
 6647SOL    HW131403   3.287   3.773   3.139 -0.1213 -3.3733 -0.4294
 6647SOL    HW231404   3.265   3.795   2.994 -1.2760  1.6085 -0.3259
 6648SOL     OW31405   3.942   0.868   3.829 -0.0950 -0.3949  0.3177
 6648SOL    HW131406   3.999   0.825   3.893  1.7121  1.2579 -0.1883
 6648SOL    HW231407   3.940   0.958   3.862  1.4453 -0.1002 -0.4133
 6649SOL     OW31408   4.367   1.128   3.350  0.1922 -0.3213 -0.0349
 6649SOL    HW131409   4.411   1.210   3.372 -1.2264 -0.2476  2.4836
 6649SOL    HW231410   4.394   1.111   3.259  0.0768 -1.8780  0.2213
 6650SOL     OW31411   1.104   1.511   9.335  0.0321  0.0869  0.5167
 6650SOL    HW131412   1.056   1.572   9.392 -2.4634 -0.9904 -0.4366
 6650SOL    HW231413   1.141   1.450   9.399  1.5031  0.7266  0.2728
 6651SOL     OW31414   4.175   4.475   8.337  0.0040 -0.0474  0.1330
 6651SOL    HW131415   4.154   4.474   8.431  1.4459  0.6465  0.4539
 6651SOL    HW231416   4.211   4.562   8.321  0.0019 -0.2673 -1.0612
 6652SOL     OW31417   4.041   2.464   4.623  0.5726  0.5949  0.0521
 6652SOL    HW131418   4.077   2.549   4.649  1.5035  0.7710 -1.8388
 6652SOL    HW231419   4.116   2.430   4.574 -0.7076 -0.6097 -1.0335
 6653SOL     OW31420   0.982   1.110   3.103  0.3753  0.0695 -0.4274
 6653SOL    HW131421   0.919   1.038   3.094 -0.0582  0.7023 -2.2905
 6653SOL    HW231422   0.928   1.185   3.079 -0.2295 -1.0807 -2.7108
 6654SOL     OW31423   0.235   1.801   3.175 -0.8779  0.5388  0.3684
 6654SOL    HW131424   0.194   1.747   3.242  0.2612  1.1393  1.5551
 6654SOL    HW231425   0.178   1.878   3.170  0.2694  1.3372 -0.7672
 6655SOL     OW31426   2.170   4.279   7.734 -0.5737 -0.4278  0.2468
 6655SOL    HW131427   2.254   4.324   7.740 -1.6975  1.9946 -2.3614
 6655SOL    HW231428   2.207   4.194   7.711  0.4724  0.4387 -1.3610
 6656SOL     OW31429   0.218   3.799   0.535 -0.0008  0.4869  0.0201
 6656SOL    HW131430   0.226   3.716   0.487  0.2668  0.4995  0.0459
 6656SOL    HW231431   0.205   3.854   0.459  3.2596  0.3725 -0.5934
 6657SOL     OW31432   0.787   0.072  15.136  0.1756  0.5848  0.1406
 6657SOL    HW131433   0.821   4.728  15.189  0.4828  0.2214 -0.5634
 6657SOL    HW231434   0.784   0.031  15.050  0.9203  0.9861 -0.0803
 6658SOL     OW31435   1.028   2.906   3.881  0.1223  0.1607 -0.1761
 6658SOL    HW131436   1.051   2.936   3.792  0.1047  0.9176  0.0722
 6658SOL    HW231437   1.108   2.936   3.925 -0.0456  0.0853  0.1791
 6659SOL     OW31438   2.123   2.176   0.067 -0.2628 -0.0943  0.5992
 6659SOL    HW131439   2.153   2.095   0.109  3.1959  0.6238 -0.4619
 6659SOL    HW231440   2.088   2.230   0.138  0.6719  1.3799 -0.0623
 6660SOL     OW31441   3.923   2.471  16.228  0.2180  0.1466  0.3554
 6660SOL    HW131442   4.004   2.473  16.278  1.8954  1.8952 -2.4543
 6660SOL    HW231443   3.940   2.543  16.167 -1.6725  0.3733  0.0928
 6661SOL     OW31444   1.090   3.937   9.303  0.1850 -0.7591  0.4301
 6661SOL    HW131445   1.029   3.873   9.341 -0.6209 -0.5061 -0.4348
 6661SOL    HW231446   1.128   3.895   9.226  1.9011 -4.0184  3.0626
 6662SOL     OW31447   3.304   0.549  10.948  0.1881 -0.5174  0.4101
 6662SOL    HW131448   3.353   0.630  10.930 -1.2565  0.1062 -0.6950
 6662SOL    HW231449   3.331   0.542  11.039  0.2248  2.9978  0.6888
 6663SOL     OW31450   3.601   2.104  11.708 -0.1760  0.0967  0.5102
 6663SOL    HW131451   3.587   2.154  11.627 -2.2995 -0.7849  0.3388
 6663SOL    HW231452   3.697   2.102  11.698 -0.3346 -0.7527 -0.7885
 6664SOL     OW31453   2.162   4.468   3.347 -0.2666  0.4211 -0.7292
 6664SOL    HW131454   2.182   4.374   3.348  4.0489  1.2727 -4.2787
 6664SOL    HW231455   2.248   4.507   3.331 -0.0986  0.4096  0.1674
 6665SOL     OW31456   1.097   1.534  14.760 -0.0657  0.3814 -0.3261
 6665SOL    HW131457   1.048   1.583  14.826  0.5051  2.1780 -1.2387
 6665SOL    HW231458   1.034   1.487  14.705 -1.6300  1.5380  0.4949
 6666SOL     OW31459   1.306   3.708   7.923 -0.2501 -0.4341 -0.2976
 6666SOL    HW131460   1.253   3.765   7.868  1.2887  2.1977  0.9713
 6666SOL    HW231461   1.272   3.728   8.010  3.3007  0.8572  0.8164
 6667SOL     OW31462   2.209   2.893   5.041  0.3819 -0.1237  0.3123
 6667SOL    HW131463   2.287   2.915   4.989 -0.6834  1.2815 -0.6876
 6667SOL    HW231464   2.153   2.963   5.009  0.8582  1.0168  1.9935
 6668SOL     OW31465   4.093   0.042  12.261  0.6360  0.4908  0.1880
 6668SOL    HW131466   4.026   0.009  12.320  0.7610 -2.6403 -1.3910
 6668SOL    HW231467   4.048   0.125  12.244  2.3846  1.3283 -0.3879
 6669SOL     OW31468   4.356   2.258  13.065 -0.0920  0.3506  0.0624
 6669SOL    HW131469   4.304   2.280  13.142 -0.5609 -1.9659  0.4069
 6669SOL    HW231470   4.324   2.170  13.043 -0.1387  0.1617  0.8610
 6670SOL     OW31471   2.322   2.788  15.124  0.5439 -1.0103 -0.3357
 6670SOL    HW131472   2.378   2.716  15.152  1.8476  0.3326  0.4737
 6670SOL    HW231473   2.384   2.857  15.098 -1.3294  0.6554 -0.4398
 6671SOL     OW31474   3.449   2.636   2.924  0.0529  0.3881 -0.2316
 6671SOL    HW131475   3.540   2.664   2.934 -0.3007  1.4800 -0.0992
 6671SOL    HW231476   3.445   2.644   2.829  0.1841 -1.9679 -0.4426
 6672SOL     OW31477   3.110   0.970   8.556 -0.5933  0.0766 -0.3592
 6672SOL    HW131478   3.083   1.027   8.484  2.5758  1.1548 -0.6929
 6672SOL    HW231479   3.113   1.024   8.635  1.8091  0.6077 -0.8133
 6673SOL     OW31480   3.404   2.674  12.442 -0.2986  0.1401  0.2809
 6673SOL    HW131481   3.417   2.581  12.458  2.7634  0.4634 -0.3218
 6673SOL    HW231482   3.426   2.719  12.524 -1.7646  0.3357  0.5744
 6674SOL     OW31483   4.192   1.261  12.848 -0.1732  0.6977  0.0915
 6674SOL    HW131484   4.188   1.175  12.805  2.0457  0.6751 -0.0518
 6674SOL    HW231485   4.284   1.284  12.855  0.0498 -0.4111  0.8059
 6675SOL     OW31486   3.919   0.078   9.192 -0.2181 -0.8730 -0.6536
 6675SOL    HW131487   3.990   0.065   9.129 -0.3195  0.5722 -1.0718
 6675SOL    HW231488   3.844   0.020   9.180 -1.6181  0.9752 -0.6926
 6676SOL     OW31489   0.160   4.568   8.709 -0.0999 -0.3210 -0.5020
 6676SOL    HW131490   0.157   4.472   8.699  1.3932 -0.2727 -1.4530
 6676SOL    HW231491   0.220   4.575   8.783  0.2264  0.3076 -0.8287
 6677SOL     OW31492   2.233   4.568   1.625 -0.7955 -0.3082  0.8621
 6677SOL    HW131493   2.247   4.526   1.541 -1.8107 -0.4973  0.7914
 6677SOL    HW231494   2.213   4.484   1.666  0.0356 -0.7304  0.3953
 6678SOL     OW31495   0.982   2.491   7.814  0.4283 -0.0985  0.3052
 6678SOL    HW131496   0.918   2.481   7.743 -0.9563  1.8685  1.3029
 6678SOL    HW231497   1.043   2.422   7.788 -0.1423 -1.5589  2.8661
 6679SOL     OW31498   3.732   3.545   8.366 -0.1787 -0.2052  0.2182
 6679SOL    HW131499   3.714   3.504   8.281  0.4370 -1.5965  0.7626
 6679SOL    HW231500   3.815   3.589   8.348 -0.4328 -0.3697 -1.4323
 6680SOL     OW31501   4.125   2.048   7.210  0.5973 -0.1812 -0.5668
 6680SOL    HW131502   4.105   1.955   7.200 -1.8794  0.1457  1.1432
 6680SOL    HW231503   4.207   2.056   7.162  0.9960 -0.2205  0.0991
 6681SOL     OW31504   2.321   2.579   0.121  0.1337 -0.1473 -0.7212
 6681SOL    HW131505   2.282   2.612   0.202  2.0784  1.8707 -0.6091
 6681SOL    HW231506   2.294   2.633   0.048 -0.3936 -3.1991 -2.7880
 6682SOL     OW31507   0.788   3.165   7.113  0.8089  0.3754 -0.3871
 6682SOL    HW131508   0.851   3.211   7.168  1.6374 -0.9931 -0.2074
 6682SOL    HW231509   0.822   3.174   7.025 -0.3342  1.6131 -0.7122
 6683SOL     OW31510   4.610   4.065   6.817  0.2726  0.0899 -0.1671
 6683SOL    HW131511   4.615   4.145   6.765  1.7398  1.1240  1.5770
 6683SOL    HW231512   4.518   4.038   6.810  1.2074 -3.1442  0.1975
 6684SOL     OW31513   4.317   1.144   0.178 -0.3856 -0.1686 -0.1285
 6684SOL    HW131514   4.309   1.175   0.088  2.1556 -1.1156 -0.6754
 6684SOL    HW231515   4.227   1.112   0.189 -0.6044  0.3621 -0.3624
 6685SOL     OW31516   2.649   3.115   6.327 -0.2023  0.0550  0.8469
 6685SOL    HW131517   2.569   3.126   6.377 -1.1422 -1.3159 -0.3475
 6685SOL    HW231518   2.608   3.083   6.247  0.6371 -1.4284  1.0031
 6686SOL     OW31519   0.396   2.795   8.104 -0.3100  0.0503  0.5009
 6686SOL    HW131520   0.459   2.726   8.125 -0.9385 -1.2481 -1.8750
 6686SOL    HW231521   0.322   2.741   8.077 -0.3287 -0.4418  1.5255
 6687SOL     OW31522   2.537   1.487   4.881 -0.0923  0.2430  0.4589
 6687SOL    HW131523   2.543   1.393   4.894 -1.1870  0.0919 -0.1237
 6687SOL    HW231524   2.446   1.490   4.852  0.7010 -2.6713 -2.3872
 6688SOL     OW31525   1.787   3.975   0.890  0.2114 -0.3240 -0.3521
 6688SOL    HW131526   1.725   3.905   0.872  0.1348 -0.0372 -1.2181
 6688SOL    HW231527   1.736   4.055   0.879  0.2724 -0.2566 -0.1544
 6689SOL     OW31528   1.333   1.235   4.580 -0.2759  0.7915 -0.1090
 6689SOL    HW131529   1.410   1.290   4.568  1.2452 -0.9948  1.4573
 6689SOL    HW231530   1.267   1.291   4.619 -1.6118 -0.5127 -0.4754
 6690SOL     OW31531   0.426   2.696   5.458 -0.7694 -0.6006 -0.1964
 6690SOL    HW131532   0.354   2.750   5.427  0.0791 -0.0256 -1.1544
 6690SOL    HW231533   0.393   2.683   5.547 -2.8339  0.0968 -0.8836
 6691SOL     OW31534   2.152   4.159   5.985  0.1477 -0.3590  0.1741
 6691SOL    HW131535   2.162   4.066   6.008  0.4969 -0.0151  1.4002
 6691SOL    HW231536   2.175   4.202   6.067 -0.8598  1.7963 -0.6916
 6692SOL     OW31537   0.548   0.142   9.971 -0.4312  0.6281 -0.3135
 6692SOL    HW131538   0.594   0.129  10.054  3.5223  0.5043 -2.5667
 6692SOL    HW231539   0.621   0.136   9.910  0.1199 -0.1023  0.4102
 6693SOL     OW31540   0.592   1.490   4.700  0.2333  0.2172  0.0209
 6693SOL    HW131541   0.549   1.567   4.662 -0.0577  0.6826  1.3042
 6693SOL    HW231542   0.674   1.495   4.651  0.3304  0.4305  0.2063
 6694SOL     OW31543   3.784   3.706   6.910 -0.3984  0.7444 -0.2118
 6694SOL    HW131544   3.772   3.755   6.991  4.3644 -1.3206  1.7583
 6694SOL    HW231545   3.868   3.662   6.923 -1.9483 -1.9835  0.7931
 6695SOL     OW31546   0.922   3.215  14.747  0.2304  0.5469  0.7313
 6695SOL    HW131547   0.938   3.289  14.688  0.9168 -1.0162 -1.0082
 6695SOL    HW231548   0.884   3.153  14.686 -3.4468  2.0385  1.5254
 6696SOL     OW31549   1.945   2.365  13.663  0.2706  0.5899  0.1368
 6696SOL    HW131550   1.899   2.386  13.744  1.7800  0.7275  0.9379
 6696SOL    HW231551   1.891   2.291  13.635 -0.6258  1.1266  0.4456
 6697SOL     OW31552   1.698   0.246   6.613  0.2732  0.1197 -0.3656
 6697SOL    HW131553   1.688   0.184   6.541  0.1611  2.0342 -2.0067
 6697SOL    HW231554   1.791   0.259   6.633  0.3170  0.6055 -0.8661
 6698SOL     OW31555   3.421   3.199   6.653  0.0635 -0.7823 -0.0881
 6698SOL    HW131556   3.428   3.161   6.740 -3.4269  1.3970  1.1644
 6698SOL    HW231557   3.405   3.288   6.684  2.7494 -1.0104  1.9357
 6699SOL     OW31558   4.538   2.280   9.603 -0.2288  0.3154 -0.3101
 6699SOL    HW131559   4.543   2.188   9.629 -0.0892  0.5707  0.5854
 6699SOL    HW231560   4.513   2.312   9.690  1.8511 -2.6966  1.3974
 6700SOL     OW31561   2.991   3.156   6.090 -0.1571 -0.9131 -0.1358
 6700SOL    HW131562   2.963   3.205   6.167 -0.1442  1.6122 -1.7604
 6700SOL    HW231563   2.978   3.217   6.018 -0.3859 -0.9007 -0.0834
 6701SOL     OW31564   1.558   1.401   7.889 -0.8559  0.2387 -0.5708
 6701SOL    HW131565   1.580   1.490   7.863  0.5214  0.8617  2.8482
 6701SOL    HW231566   1.530   1.405   7.980  1.1634 -1.5851  0.1231
 6702SOL     OW31567   3.171   3.567   3.701 -0.3379 -0.5823  0.9093
 6702SOL    HW131568   3.094   3.602   3.656  0.6887 -0.9459 -1.1518
 6702SOL    HW231569   3.135   3.508   3.767 -1.5253 -1.4518 -0.5035
 6703SOL     OW31570   3.121   0.615  14.607  0.2076  0.0814  0.5831
 6703SOL    HW131571   3.064   0.663  14.667  0.6710  1.7059 -0.2734
 6703SOL    HW231572   3.114   0.669  14.528  2.4887 -1.8139 -0.8916
 6704SOL     OW31573   4.649   2.352   2.158  0.2370 -0.3221 -0.0793
 6704SOL    HW131574   4.571   2.321   2.205  0.4963 -1.5096 -0.4305
 6704SOL    HW231575   4.693   2.268   2.165  0.1500 -0.2881  0.9339
 6705SOL     OW31576   3.733   3.066   1.572 -0.3819  0.3171  0.0382
 6705SOL    HW131577   3.703   3.152   1.602  1.6836  0.3045  2.0853
 6705SOL    HW231578   3.686   3.041   1.492  0.0963 -1.4063  0.2877
 6706SOL     OW31579   2.636   2.006   3.620  0.0894 -0.0001 -0.4926
 6706SOL    HW131580   2.640   2.085   3.565  0.5248 -0.4668 -1.1352
 6706SOL    HW231581   2.542   2.011   3.636  0.3517  1.1262  0.7083
 6707SOL     OW31582   0.786   4.350   9.361  0.3499  0.5099  0.0983
 6707SOL    HW131583   0.831   4.285   9.308 -1.5127  0.9625 -2.0659
 6707SOL    HW231584   0.725   4.291   9.406  0.3468 -0.6876 -1.4691
 6708SOL     OW31585   2.779   3.937  11.071  0.0926  0.1069  0.1080
 6708SOL    HW131586   2.704   3.968  11.122 -0.3871  2.4756 -2.0354
 6708SOL    HW231587   2.738   3.941  10.985  0.4397  1.2936 -0.0059
 6709SOL     OW31588   4.579   3.406   3.641  0.4725 -0.0424  0.0711
 6709SOL    HW131589   4.571   3.484   3.587 -0.9393  1.7380  2.7971
 6709SOL    HW231590   4.503   3.361   3.604  0.0330  1.2384 -0.5936
 6710SOL     OW31591   0.224   3.681   2.653  0.3531 -0.7626  0.5547
 6710SOL    HW131592   0.299   3.695   2.595 -0.1759 -3.0177 -0.7011
 6710SOL    HW231593   0.158   3.664   2.586 -0.7538 -0.3306  1.5512
 6711SOL     OW31594   0.962   0.446   3.921  0.3615  0.0675  0.1302
 6711SOL    HW131595   0.974   0.499   4.000 -0.7334  1.3699 -0.5817
 6711SOL    HW231596   0.975   0.358   3.955 -0.5551 -0.2937 -0.4588
 6712SOL     OW31597   1.270   3.288  16.244 -0.1260  0.5978 -0.0500
 6712SOL    HW131598   1.325   3.278  16.322  0.9809  2.2082 -0.6187
 6712SOL    HW231599   1.239   3.379  16.244 -0.8800  0.3405 -0.4948
 6713SOL     OW31600   2.172   0.622  14.689 -0.6120  0.1622 -0.0544
 6713SOL    HW131601   2.181   0.621  14.594  0.8122  1.9107  0.0349
 6713SOL    HW231602   2.077   0.616  14.701 -0.4430 -0.7985  0.7840
 6714SOL     OW31603   2.448   0.166   7.768 -0.3228  0.0480 -0.2844
 6714SOL    HW131604   2.365   0.134   7.801  0.0775 -0.7150 -0.0311
 6714SOL    HW231605   2.510   0.156   7.841  1.1701  1.5005 -1.3336
 6715SOL     OW31606   0.030   1.251   3.342 -0.3984 -0.3176  0.0798
 6715SOL    HW131607   4.714   1.255   3.427 -3.0602 -1.7057 -1.2366
 6715SOL    HW231608   4.697   1.298   3.287 -0.5688  0.8698  1.2767
 6716SOL     OW31609   0.442   4.631   5.409 -0.0569  0.6070  0.4028
 6716SOL    HW131610   0.493   4.710   5.390 -0.1679  0.9941  1.7024
 6716SOL    HW231611   0.360   4.642   5.361 -0.6956  0.6235  1.4782
 6717SOL     OW31612   4.432   1.289   1.865 -0.2693  0.3527  0.4440
 6717SOL    HW131613   4.396   1.303   1.953 -1.0777  0.6008  0.0742
 6717SOL    HW231614   4.490   1.214   1.881 -0.0029  0.7393  1.2792
 6718SOL     OW31615   1.061   1.531   2.735  0.0075  0.9932  0.1465
 6718SOL    HW131616   1.094   1.441   2.733  0.4554  1.0673  3.1037
 6718SOL    HW231617   1.031   1.535   2.644  1.5285  0.4266 -0.3782
 6719SOL     OW31618   3.806   3.115   3.483  0.1893  0.3237  0.5789
 6719SOL    HW131619   3.808   3.020   3.490  0.0094  0.2005 -1.0244
 6719SOL    HW231620   3.879   3.149   3.535  0.7318 -0.6293  0.4270
 6720SOL     OW31621   4.509   2.353   6.479 -0.0002  0.2117  0.0945
 6720SOL    HW131622   4.430   2.376   6.430  1.2788  0.6646 -1.7934
 6720SOL    HW231623   4.474   2.299   6.549  0.8501 -0.6474 -0.1496
 6721SOL     OW31624   3.113   0.828  16.254 -0.3007  0.6248 -0.3786
 6721SOL    HW131625   3.158   0.760  16.203 -0.5370 -2.7901  3.9762
 6721SOL    HW231626   3.051   0.853  16.185 -2.0077  0.8246  1.2150
 6722SOL     OW31627   4.305   0.611   2.977 -0.2434  0.0683 -0.3641
 6722SOL    HW131628   4.400   0.601   2.975 -0.3650 -1.3433  0.9864
 6722SOL    HW231629   4.280   0.544   2.912  0.3398 -0.1574 -0.3558
 6723SOL     OW31630   3.787   2.045   5.204 -0.2046  0.1538  0.3191
 6723SOL    HW131631   3.857   2.047   5.270  0.7376  2.1650 -0.7384
 6723SOL    HW231632   3.783   2.139   5.184  1.2995 -0.0860 -1.1140
 6724SOL     OW31633   3.794   0.855  14.361  0.1597  0.2667  0.0441
 6724SOL    HW131634   3.784   0.950  14.365 -1.2491  0.1736 -1.3779
 6724SOL    HW231635   3.706   0.827  14.338  1.4866 -0.7579 -3.9207
 6725SOL     OW31636   1.729   0.521   4.144 -0.4405 -0.1827 -0.4328
 6725SOL    HW131637   1.792   0.592   4.156 -2.0414  1.3633 -1.2397
 6725SOL    HW231638   1.767   0.481   4.065  1.1588  0.1157  0.1753
 6726SOL     OW31639   2.716   1.857  14.894  0.7233 -0.9442  0.2222
 6726SOL    HW131640   2.668   1.871  14.976  1.3569  2.8901 -0.0860
 6726SOL    HW231641   2.672   1.920  14.838  2.6229  0.0235 -0.1879
 6727SOL     OW31642   3.863   2.619   1.116 -0.5225  0.5479 -0.0814
 6727SOL    HW131643   3.893   2.687   1.056 -1.1412 -0.2282 -1.2616
 6727SOL    HW231644   3.946   2.591   1.155 -0.9148 -1.8906 -1.0315
 6728SOL     OW31645   1.269   3.388   5.673  0.0505 -0.2063 -0.3164
 6728SOL    HW131646   1.230   3.431   5.597 -1.3794 -0.6816  0.1594
 6728SOL    HW231647   1.343   3.447   5.688  0.1864  0.4239 -3.5763
 6729SOL     OW31648   3.313   2.830   4.880 -0.1105  0.2638  0.3450
 6729SOL    HW131649   3.277   2.760   4.934  2.5872 -1.5645 -0.2429
 6729SOL    HW231650   3.331   2.898   4.944  1.2229 -0.4389  0.7080
 6730SOL     OW31651   0.920   3.362   4.984  0.1590  0.4057  0.5150
 6730SOL    HW131652   0.964   3.291   4.937 -2.1211  0.4840 -1.7302
 6730SOL    HW231653   0.945   3.338   5.073  0.3259  1.0914  0.6519
 6731SOL     OW31654   0.648   0.662  14.207 -0.1587  0.4778  0.7354
 6731SOL    HW131655   0.573   0.618  14.248  0.5160  0.9521  2.4634
 6731SOL    HW231656   0.641   0.638  14.114 -0.9096 -1.6200  1.3158
 6732SOL     OW31657   4.266   0.208   4.651 -0.1142 -0.1439 -0.0184
 6732SOL    HW131658   4.225   0.184   4.567  2.8383 -2.5475 -0.7830
 6732SOL    HW231659   4.201   0.183   4.716 -1.0077  0.4162 -0.6996
 6733SOL     OW31660   0.496   3.349   2.876  0.1792 -0.5396  0.8612
 6733SOL    HW131661   0.485   3.437   2.910  0.9117  0.0752 -0.4971
 6733SOL    HW231662   0.557   3.344   2.803  0.0842 -1.8333  0.8632
 6734SOL     OW31663   2.542   4.128   2.092  0.0656  0.5840 -0.4057
 6734SOL    HW131664   2.498   4.115   2.008 -0.8018  0.2014  0.1033
 6734SOL    HW231665   2.550   4.224   2.092  1.2239  0.4712 -1.4519
 6735SOL     OW31666   4.457   0.314  14.942  0.1404  0.2203  0.3027
 6735SOL    HW131667   4.529   0.253  14.928  0.0036  0.1308  0.0040
 6735SOL    HW231668   4.393   0.278  14.881 -0.7447  2.8336 -0.2989
 6736SOL     OW31669   2.931   4.351   7.384 -0.6782 -0.3524  0.2250
 6736SOL    HW131670   2.840   4.379   7.397 -0.2517  0.9703  0.3610
 6736SOL    HW231671   2.954   4.381   7.297 -0.4730 -0.4447  0.2471
 6737SOL     OW31672   2.176   0.039   2.840 -0.2880  0.1000  0.4691
 6737SOL    HW131673   2.233   0.016   2.767  1.2943  1.8259  1.1552
 6737SOL    HW231674   2.134   4.685   2.863 -0.5584  0.5603  1.6918
 6738SOL     OW31675   3.861   2.410   1.830  0.1472 -0.5191  0.4672
 6738SOL    HW131676   3.947   2.449   1.845  0.7327 -1.1310 -1.3187
 6738SOL    HW231677   3.853   2.420   1.735  0.2986  2.4130  0.7803
 6739SOL     OW31678   4.024   3.513   2.133 -0.3591 -0.2490  0.2553
 6739SOL    HW131679   4.111   3.474   2.142  0.2305  1.4890  2.2833
 6739SOL    HW231680   3.987   3.441   2.083 -2.2886  0.0032  1.3285
 6740SOL     OW31681   2.758   2.036  16.078 -0.0217 -0.2039  0.1669
 6740SOL    HW131682   2.849   2.066  16.082 -0.0794  0.0781 -0.5939
 6740SOL    HW231683   2.767   1.948  16.114  0.7573 -0.3807 -0.4627
 6741SOL     OW31684   1.244   2.149   8.082 -0.2920 -0.6365  0.4360
 6741SOL    HW131685   1.321   2.098   8.108  0.9019  0.1996 -1.5333
 6741SOL    HW231686   1.251   2.224   8.141  2.3790 -1.9554  1.7777
 6742SOL     OW31687   3.410   4.313   9.221 -0.0372 -0.0611 -0.0642
 6742SOL    HW131688   3.405   4.258   9.143 -0.4652 -0.2091  0.0640
 6742SOL    HW231689   3.354   4.253   9.271  0.4810  0.4857  1.1741
 6743SOL     OW31690   3.021   4.604   5.961  0.4126  0.3302 -0.6215
 6743SOL    HW131691   2.962   4.530   5.952  0.5877  0.1723 -0.4809
 6743SOL    HW231692   3.002   4.623   6.053  0.5188  0.2426 -0.5814
 6744SOL     OW31693   3.341   1.321  16.373  0.3024 -0.0408  0.3358
 6744SOL    HW131694   3.360   1.266  16.297  2.9323  1.7029 -0.2735
 6744SOL    HW231695   3.254   1.357  16.359  0.2353  1.2260  4.0375
 6745SOL     OW31696   2.231   3.275   3.218  0.3332 -0.3875 -0.1078
 6745SOL    HW131697   2.325   3.276   3.199  0.2699  0.6373 -0.3571
 6745SOL    HW231698   2.199   3.287   3.128  1.5609  1.0161 -0.3561
 6746SOL     OW31699   1.173   3.660   6.257  0.1250  0.5109 -0.0759
 6746SOL    HW131700   1.216   3.621   6.181  0.6408  0.3192  0.3131
 6746SOL    HW231701   1.098   3.698   6.211  0.7506  1.3485 -0.4050
 6747SOL     OW31702   2.192   1.485   3.338  0.2400  0.3165  0.3255
 6747SOL    HW131703   2.099   1.498   3.320  0.7760  0.3020 -2.4298
 6747SOL    HW231704   2.221   1.535   3.262  1.6878 -1.7611 -0.4955
 6748SOL     OW31705   3.589   4.249   6.459 -0.3772  0.5150  0.0907
 6748SOL    HW131706   3.682   4.268   6.462 -0.2035 -0.1742 -0.8781
 6748SOL    HW231707   3.559   4.315   6.522 -1.2547  0.6225 -0.4399
 6749SOL     OW31708   2.517   1.708   4.323  0.0107  0.2521  0.1883
 6749SOL    HW131709   2.466   1.678   4.398  0.8875 -1.9186 -0.0955
 6749SOL    HW231710   2.452   1.753   4.270  0.6535 -0.4890 -1.2262
 6750SOL     OW31711   0.597   2.339  15.693  0.0326  0.1742 -0.1088
 6750SOL    HW131712   0.556   2.371  15.773 -0.4009 -0.7873  0.0466
 6750SOL    HW231713   0.599   2.417  15.638  2.5658  0.9537  1.0404
 6751SOL     OW31714   4.119   1.487   1.211 -0.2959  0.1127  0.6224
 6751SOL    HW131715   4.146   1.551   1.277 -0.6473 -1.3954  2.2154
 6751SOL    HW231716   4.025   1.503   1.210 -0.3784 -0.3793  0.9034
 6752SOL     OW31717   1.512   0.582   5.885  0.6659 -0.7674 -0.0575
 6752SOL    HW131718   1.438   0.569   5.825 -1.0123  1.9679  1.3875
 6752SOL    HW231719   1.472   0.629   5.959 -0.0239  0.2989 -1.1180
 6753SOL     OW31720   4.433   3.257   1.686 -0.0838  0.4053  0.1362
 6753SOL    HW131721   4.496   3.319   1.720 -0.4825  0.2199  1.2056
 6753SOL    HW231722   4.399   3.306   1.611  1.8542 -0.6268 -1.4160
 6754SOL     OW31723   4.452   3.378   7.001  0.4665  0.2422  0.0187
 6754SOL    HW131724   4.469   3.301   6.947 -0.1116 -0.3822  0.7095
 6754SOL    HW231725   4.497   3.356   7.083  2.2465 -1.8886 -1.5412
 6755SOL     OW31726   3.814   4.269   5.228  0.3502  0.1819 -0.6391
 6755SOL    HW131727   3.862   4.343   5.190  2.9306  0.0929  2.4618
 6755SOL    HW231728   3.784   4.231   5.145  0.5951 -3.1532  0.8355
 6756SOL     OW31729   3.861   1.112   2.752 -0.2775 -0.0832 -0.5682
 6756SOL    HW131730   3.780   1.089   2.797 -0.4751  0.9238 -0.3926
 6756SOL    HW231731   3.818   1.169   2.687  0.7472 -0.0689 -1.2237
 6757SOL     OW31732   1.473   2.684   7.837  0.2961 -0.0315  0.1384
 6757SOL    HW131733   1.499   2.599   7.872  0.3504  0.3401  1.0217
 6757SOL    HW231734   1.380   2.666   7.844  0.3694 -0.8827 -1.1448
 6758SOL     OW31735   1.835   2.311   4.824 -0.1101  0.0781  0.2042
 6758SOL    HW131736   1.814   2.312   4.917 -0.3339  0.4230  0.1519
 6758SOL    HW231737   1.917   2.264   4.834 -0.7034 -1.2328 -1.1257
 6759SOL     OW31738   1.632   3.731  10.261  0.6346 -0.0172 -0.1391
 6759SOL    HW131739   1.586   3.815  10.257  1.0580  0.2912  1.4113
 6759SOL    HW231740   1.562   3.670  10.238  0.9953 -0.5565  0.1991
 6760SOL     OW31741   2.223   1.967   2.339  0.1191  0.3358  0.7283
 6760SOL    HW131742   2.245   2.059   2.322 -0.6180  0.3804  0.0316
 6760SOL    HW231743   2.301   1.927   2.301 -0.2884 -0.4835  0.7596
 6761SOL     OW31744   0.346   3.766   5.923 -0.0369 -0.3754 -0.2171
 6761SOL    HW131745   0.357   3.844   5.976  0.4458  1.3432 -2.8587
 6761SOL    HW231746   0.363   3.795   5.834  2.8257  1.3412  0.8727
 6762SOL     OW31747   0.153   1.075   7.615  0.1884 -0.0392 -0.2413
 6762SOL    HW131748   0.075   1.020   7.618 -0.7004  1.1189 -1.8680
 6762SOL    HW231749   0.116   1.162   7.633  1.8933  0.8092 -0.7954
 6763SOL     OW31750   1.918   4.022   7.602  0.0816  0.2909 -0.2745
 6763SOL    HW131751   1.946   3.959   7.535  3.8743  1.3394  0.3175
 6763SOL    HW231752   1.919   3.965   7.679  0.0859 -0.3898 -0.7810
 6764SOL     OW31753   1.170   4.521   8.621  0.1696 -0.5688 -0.1659
 6764SOL    HW131754   1.175   4.616   8.626 -4.6859 -0.2871 -0.8248
 6764SOL    HW231755   1.122   4.503   8.540  0.7679  1.1198 -0.8872
 6765SOL     OW31756   1.678   0.038   2.398  0.6700  0.2266 -0.3701
 6765SOL    HW131757   1.603   4.716   2.430  3.0841 -2.0031  1.6892
 6765SOL    HW231758   1.724   0.053   2.481 -1.4770  0.0952  0.8704
 6766SOL     OW31759   2.754   2.210   1.239  0.2280 -0.1784 -0.5215
 6766SOL    HW131760   2.822   2.267   1.274  0.9849 -0.9521 -0.7351
 6766SOL    HW231761   2.813   2.171   1.175  2.4485  0.8412  0.9064
 6767SOL     OW31762   0.926   1.208  15.540  0.0385 -0.4666 -0.3957
 6767SOL    HW131763   0.920   1.295  15.501 -2.5957 -0.6444 -0.3781
 6767SOL    HW231764   0.875   1.156  15.478 -2.0739  1.1057  0.0347
 6768SOL     OW31765   3.585   2.511   6.754  0.2028 -0.2586  0.0320
 6768SOL    HW131766   3.544   2.447   6.811  0.5981  0.6407  1.3094
 6768SOL    HW231767   3.646   2.560   6.809 -1.1416  0.1830  1.1193
 6769SOL     OW31768   1.335   4.037  11.078 -0.4247 -0.2177  0.4321
 6769SOL    HW131769   1.284   3.962  11.045 -2.9172  0.8288  1.9621
 6769SOL    HW231770   1.323   4.047  11.172 -0.1313 -1.0469  0.5640
 6770SOL     OW31771   3.278   3.592   8.685 -0.6198  0.0599  0.6055
 6770SOL    HW131772   3.290   3.648   8.609 -0.5315  0.6447  1.0493
 6770SOL    HW231773   3.184   3.583   8.694 -0.4829 -0.4970  1.4708
 6771SOL     OW31774   1.005   4.600   5.065 -0.0173  0.1289 -0.4485
 6771SOL    HW131775   1.077   4.574   5.122  2.1389  0.9331 -2.8522
 6771SOL    HW231776   1.021   4.694   5.062 -0.2614  0.1541 -1.0014
 6772SOL     OW31777   1.661   0.729   5.546  0.5428 -0.2623  0.1728
 6772SOL    HW131778   1.648   0.652   5.491  1.3182 -0.5996  0.4690
 6772SOL    HW231779   1.572   0.747   5.577 -0.1366 -3.1928 -0.0878
 6773SOL     OW31780   1.682   4.054   0.126 -0.0890 -0.3345  0.1298
 6773SOL    HW131781   1.713   4.130   0.076  1.9161 -0.1200  1.7064
 6773SOL    HW231782   1.620   4.102   0.181  0.1343 -0.0639  0.1459
 6774SOL     OW31783   2.644   2.898   3.324  0.1593  0.1636  0.0885
 6774SOL    HW131784   2.614   2.815   3.361 -0.4065  0.8382  1.1659
 6774SOL    HW231785   2.721   2.916   3.378 -0.5268 -0.4606  1.2945
 6775SOL     OW31786   3.501   3.807   4.365 -0.9798  0.0482  0.0344
 6775SOL    HW131787   3.450   3.740   4.320 -0.3449 -0.6195  0.3154
 6775SOL    HW231788   3.433   3.849   4.417  0.7568 -0.7713  3.0005
 6776SOL     OW31789   2.282   0.514  11.350 -0.6664  0.1358 -0.1427
 6776SOL    HW131790   2.319   0.603  11.354 -0.1741 -0.0144 -1.6182
 6776SOL    HW231791   2.348   0.466  11.301 -0.0710 -0.3732  1.1467
 6777SOL     OW31792   0.190   3.896   4.952  0.3536 -0.4105  0.6959
 6777SOL    HW131793   0.201   3.972   4.896  0.0048 -0.1255  1.0171
 6777SOL    HW231794   0.142   3.834   4.897  2.1064 -0.7036 -0.4999
 6778SOL     OW31795   3.907   3.932   3.803  0.0659 -0.4643 -0.4641
 6778SOL    HW131796   3.895   3.919   3.708 -1.2370  2.8701 -0.7592
 6778SOL    HW231797   3.858   3.860   3.844  0.3058 -1.0278 -1.1613
 6779SOL     OW31798   0.772   2.321   0.577 -0.1843 -0.5692 -0.3059
 6779SOL    HW131799   0.765   2.365   0.492 -1.8893  0.2719  0.2630
 6779SOL    HW231800   0.733   2.387   0.634 -1.1395  0.4900 -2.1779
 6780SOL     OW31801   0.698   1.888   4.869 -0.1155  0.5946 -0.4838
 6780SOL    HW131802   0.641   1.812   4.871  1.8808 -0.8668  0.7160
 6780SOL    HW231803   0.742   1.889   4.784  0.6572 -1.8053 -0.1035
 6781SOL     OW31804   3.108   4.045   7.861 -0.1716  0.6643 -0.3188
 6781SOL    HW131805   3.070   4.124   7.823 -1.9317 -0.7802 -1.5044
 6781SOL    HW231806   3.198   4.066   7.836  0.1026 -0.1015  0.0412
 6782SOL     OW31807   4.425   4.265   3.170  0.6152  0.0111 -0.4031
 6782SOL    HW131808   4.341   4.293   3.206  1.2116 -0.1263  1.0888
 6782SOL    HW231809   4.401   4.210   3.097  0.8131 -1.0379  0.3246
 6783SOL     OW31810   1.207   0.832   9.810 -0.2201  0.3681 -0.1873
 6783SOL    HW131811   1.125   0.843   9.859 -1.0828 -0.9439 -1.3714
 6783SOL    HW231812   1.240   0.746   9.835 -1.0989  0.3417  0.9065
 6784SOL     OW31813   1.153   4.689  12.946  0.2611  0.6843 -0.0935
 6784SOL    HW131814   1.125   4.618  12.889  1.0925  0.1975  0.1208
 6784SOL    HW231815   1.236   4.655  12.977 -0.5618  0.5471  1.9820
 6785SOL     OW31816   4.486   4.077   5.920 -0.0593 -0.5355  0.0721
 6785SOL    HW131817   4.465   3.985   5.929  0.0780 -0.5028  0.7112
 6785SOL    HW231818   4.507   4.100   6.011 -0.7709  1.5804 -0.3095
 6786SOL     OW31819   4.668   1.687   5.891  0.3282  0.0915  0.1810
 6786SOL    HW131820   4.593   1.705   5.833  0.7637  0.6976 -0.2018
 6786SOL    HW231821   4.637   1.602   5.921 -1.6804  0.0317 -2.0613
 6787SOL     OW31822   2.051   2.230   7.495 -0.3712 -0.4588 -0.3130
 6787SOL    HW131823   2.075   2.279   7.574 -0.9662 -2.1227  0.9021
 6787SOL    HW231824   2.137   2.191   7.480  0.9061  1.7106  1.2597
 6788SOL     OW31825   0.789   0.141   8.320  0.2798 -0.1294 -0.2561
 6788SOL    HW131826   0.775   0.060   8.269  0.5810 -0.4225  0.1349
 6788SOL    HW231827   0.883   0.153   8.308  0.0490  0.4152 -1.5312
 6789SOL     OW31828   3.057   2.173   2.747 -0.2349 -0.1329 -0.0561
 6789SOL    HW131829   3.000   2.138   2.815  1.5887  0.0748  1.5889
 6789SOL    HW231830   3.049   2.103   2.683 -1.8775  0.2145 -0.2165
 6790SOL     OW31831   3.684   2.241  14.906 -0.3091 -0.0018 -0.8624
 6790SOL    HW131832   3.604   2.208  14.946 -1.3279  3.0042 -0.4395
 6790SOL    HW231833   3.652   2.331  14.917  1.5958  0.6192 -0.3723
 6791SOL     OW31834   1.929   1.114   6.668  1.2341  0.3561  0.0258
 6791SOL    HW131835   1.988   1.137   6.596  0.5634  0.8904 -0.3530
 6791SOL    HW231836   1.929   1.190   6.726 -1.3167  0.7787 -0.5452
 6792SOL     OW31837   4.673   1.540   4.380 -0.0477 -0.2292  0.0143
 6792SOL    HW131838   4.710   1.514   4.296 -1.3643 -1.9979 -0.0165
 6792SOL    HW231839   4.618   1.611   4.349  0.8379 -0.1169 -1.3131
 6793SOL     OW31840   3.436   3.938   2.142  0.1149  0.5657  0.6212
 6793SOL    HW131841   3.352   3.895   2.162 -0.3846  1.3984  0.3171
 6793SOL    HW231842   3.450   3.953   2.235 -0.6575  1.9924  0.4968
 6794SOL     OW31843   2.148   1.703   0.068 -0.4992 -0.2877  0.7546
 6794SOL    HW131844   2.207   1.670   0.001 -1.1835 -0.4257  0.2223
 6794SOL    HW231845   2.169   1.642   0.139 -1.2657 -1.2179  0.1789
 6795SOL     OW31846   1.158   2.400   9.879  0.7209 -0.1158 -0.3471
 6795SOL    HW131847   1.071   2.395   9.841  2.3473 -0.5534 -3.9760
 6795SOL    HW231848   1.200   2.350   9.809 -0.0629 -3.2472  1.3910
 6796SOL     OW31849   0.851   1.640   3.631  0.3105  0.3738 -0.2710
 6796SOL    HW131850   0.820   1.699   3.562 -2.1446 -0.5287  0.0555
 6796SOL    HW231851   0.816   1.683   3.709  1.2582 -1.2642  1.0606
 6797SOL     OW31852   1.022   1.933  13.369  0.0557 -0.2324 -0.1803
 6797SOL    HW131853   1.083   1.861  13.383  1.2814  0.7559 -0.3757
 6797SOL    HW231854   0.994   1.954  13.458 -1.1827  1.2559 -0.8984
 6798SOL     OW31855   1.964   3.504   7.048  0.4054  0.0391 -0.1133
 6798SOL    HW131856   1.997   3.419   7.077  0.5250  0.4862  1.0583
 6798SOL    HW231857   1.911   3.486   6.970 -0.9146 -0.3695  0.8818
 6799SOL     OW31858   0.855   1.384   2.379 -0.0172  0.1118  0.3296
 6799SOL    HW131859   0.889   1.391   2.289 -2.7519 -0.6006 -0.7626
 6799SOL    HW231860   0.761   1.387   2.360  0.0662  1.2977  0.1181
 6800SOL     OW31861   4.434   1.355   8.418 -0.1788  0.4061  0.1462
 6800SOL    HW131862   4.384   1.370   8.498 -0.8215  0.8273 -0.3346
 6800SOL    HW231863   4.517   1.391   8.447  0.6666 -1.7812  0.3987
 6801SOL     OW31864   0.455   1.523   2.771 -0.5299  0.4445 -0.2406
 6801SOL    HW131865   0.383   1.508   2.832 -1.4310  1.9599 -0.9272
 6801SOL    HW231866   0.493   1.597   2.819 -0.2196  0.3271 -0.3033
 6802SOL     OW31867   2.885   3.722   1.205 -0.6220  0.4871 -0.5991
 6802SOL    HW131868   2.974   3.757   1.208 -0.9965  1.2742  1.2144
 6802SOL    HW231869   2.856   3.781   1.274  0.4418  0.2671  0.0342
 6803SOL     OW31870   0.541   3.321   3.584 -0.2298  0.2948 -0.3522
 6803SOL    HW131871   0.588   3.314   3.501 -2.9282  2.5055 -2.0700
 6803SOL    HW231872   0.454   3.284   3.570 -0.5340  0.7927  0.2382
 6804SOL     OW31873   2.640   0.303   3.718 -0.1305  0.1296 -0.1441
 6804SOL    HW131874   2.693   0.284   3.795 -1.0695 -0.5551  0.3361
 6804SOL    HW231875   2.580   0.358   3.768 -3.4282 -1.5427 -2.2547
 6805SOL     OW31876   3.391   1.133   9.004  0.0998  0.0861  0.5111
 6805SOL    HW131877   3.361   1.115   8.915  1.9153 -0.0432 -0.0734
 6805SOL    HW231878   3.368   1.226   9.014 -0.5137  0.2815 -2.6595
 6806SOL     OW31879   1.002   3.386   8.949  0.7111 -0.0391  0.1473
 6806SOL    HW131880   1.029   3.467   8.992 -0.4200  0.5152 -0.1817
 6806SOL    HW231881   1.063   3.328   8.995  1.1179  0.6156  0.4360
 6807SOL     OW31882   1.083   1.775   1.853 -0.0989 -0.6515 -0.4099
 6807SOL    HW131883   1.054   1.852   1.804 -1.9967 -0.0257  1.6952
 6807SOL    HW231884   1.178   1.782   1.867  0.2004 -0.6197 -2.4051
 6808SOL     OW31885   2.364   0.233   6.403 -0.0328  0.4140 -0.5229
 6808SOL    HW131886   2.305   0.278   6.463 -1.0144 -0.5000 -0.8005
 6808SOL    HW231887   2.367   0.145   6.441  0.9339  0.6430 -0.0756
 6809SOL     OW31888   4.420   2.096   3.346  0.8794  0.1515 -0.5605
 6809SOL    HW131889   4.368   2.176   3.345 -0.5475 -0.8065 -2.9180
 6809SOL    HW231890   4.353   2.030   3.364 -0.5169  1.3096 -1.5952
 6810SOL     OW31891   0.554   2.821  11.443 -0.1245 -0.0040  0.3065
 6810SOL    HW131892   0.611   2.855  11.374 -1.5682 -1.2517 -1.4850
 6810SOL    HW231893   0.505   2.901  11.463  1.8818  1.4711 -0.5708
 6811SOL     OW31894   3.716   0.337   3.927 -0.5057 -0.3474  0.5831
 6811SOL    HW131895   3.741   0.292   4.008  0.5028  1.0021  1.0199
 6811SOL    HW231896   3.731   0.429   3.949  3.3837 -0.6364 -0.7271
 6812SOL     OW31897   1.034   1.152   7.964 -0.3413 -0.0523 -0.0894
 6812SOL    HW131898   1.049   1.238   7.925  1.0649  0.1162  0.8295
 6812SOL    HW231899   0.978   1.178   8.037 -0.7704 -0.3683 -0.3079
 6813SOL     OW31900   0.244   2.680   3.167 -0.2634 -0.2354  0.7328
 6813SOL    HW131901   0.276   2.609   3.112 -2.0190  0.3333 -1.0385
 6813SOL    HW231902   0.295   2.756   3.137  0.7071 -1.7528 -1.4331
 6814SOL     OW31903   2.592   0.615   1.801  0.1482  0.2937 -0.0395
 6814SOL    HW131904   2.625   0.534   1.762 -1.0770  0.7602 -2.0658
 6814SOL    HW231905   2.597   0.588   1.893 -1.8590 -1.3673 -0.4208
 6815SOL     OW31906   1.794   1.477   8.335 -0.0703 -0.8969  0.2800
 6815SOL    HW131907   1.724   1.525   8.292  1.7471  0.8603 -0.7566
 6815SOL    HW231908   1.751   1.450   8.416  0.4701 -0.0563  0.8533
 6816SOL     OW31909   0.023   0.719   6.447 -0.1717  0.2251  0.1603
 6816SOL    HW131910   0.076   0.703   6.369  0.0453 -1.1921  0.6017
 6816SOL    HW231911   4.666   0.683   6.426 -1.2327  0.8433  3.5170
 6817SOL     OW31912   2.209   0.198   0.643  0.3707 -0.3670  0.0741
 6817SOL    HW131913   2.206   0.294   0.642  1.9026 -0.3269  0.5228
 6817SOL    HW231914   2.295   0.174   0.610  0.8256 -0.6352  1.4527
 6818SOL     OW31915   4.290   4.136   7.855  0.1976  0.1420 -0.0453
 6818SOL    HW131916   4.301   4.055   7.806 -0.7917 -0.2305  0.3361
 6818SOL    HW231917   4.295   4.101   7.944  0.6484  0.7359  0.1691
 6819SOL     OW31918   0.630   4.632  14.643  0.1762  0.9192  0.1333
 6819SOL    HW131919   0.618   4.537  14.649 -0.9996  1.0738  0.0803
 6819SOL    HW231920   0.547   4.661  14.606 -0.9035 -1.6994  0.4632
 6820SOL     OW31921   2.545   2.074   2.860 -0.0249  0.3209 -0.6506
 6820SOL    HW131922   2.480   2.063   2.790  0.6351 -1.8210 -0.9081
 6820SOL    HW231923   2.492   2.052   2.937 -1.8426  1.0134 -1.6956
 6821SOL     OW31924   3.253   3.606  14.330  0.1462 -0.0810 -0.5982
 6821SOL    HW131925   3.335   3.621  14.377  0.4102 -0.9173 -0.7945
 6821SOL    HW231926   3.207   3.538  14.379  1.9118  0.2022  1.4472
 6822SOL     OW31927   1.016   0.470   9.672 -0.1828 -0.2658  0.2108
 6822SOL    HW131928   1.018   0.410   9.597  4.1879 -0.0581  0.1622
 6822SOL    HW231929   1.110   0.467   9.693 -0.1511 -0.5440  0.0327
 6823SOL     OW31930   2.390   3.617  15.738  0.1340  0.0758 -0.4631
 6823SOL    HW131931   2.432   3.667  15.668 -2.2890 -0.1580 -2.1005
 6823SOL    HW231932   2.418   3.526  15.723 -2.9657 -0.9390 -0.0258
 6824SOL     OW31933   0.185   2.291   7.324  0.2324 -0.2337 -0.7391
 6824SOL    HW131934   0.151   2.315   7.410 -0.5972 -0.4735 -0.9946
 6824SOL    HW231935   0.277   2.268   7.331  0.1171 -0.4068  0.1137
 6825SOL     OW31936   0.213   1.899   3.532 -0.0924 -0.4375 -0.1838
 6825SOL    HW131937   0.194   1.813   3.569  0.5125  0.9722  3.3969
 6825SOL    HW231938   0.295   1.880   3.487  1.2482  2.1604  1.1423
 6826SOL     OW31939   1.028   0.319   8.313  0.9555 -0.4742 -0.3182
 6826SOL    HW131940   1.073   0.403   8.309  0.5704 -0.1010  3.2825
 6826SOL    HW231941   0.945   0.348   8.277  1.1095 -0.0411 -0.3225
 6827SOL     OW31942   1.938   1.852  17.653  0.2679 -0.1551  0.2211
 6827SOL    HW131943   2.012   1.900  17.615 -0.0705 -0.3097 -0.6257
 6827SOL    HW231944   1.993   1.778  17.680 -0.2255 -0.3312  0.7475
 6828SOL     OW31945   3.765   2.576   4.213 -0.2542 -0.6665 -0.1096
 6828SOL    HW131946   3.831   2.645   4.211 -1.6325  0.6729  0.4384
 6828SOL    HW231947   3.685   2.613   4.251 -0.5148 -0.1027 -1.2174
 6829SOL     OW31948   1.281   4.418  16.778  0.2077 -0.1245  0.4563
 6829SOL    HW131949   1.236   4.452  16.856  0.8630 -0.0541  0.8006
 6829SOL    HW231950   1.332   4.492  16.746  1.1637 -0.4762  1.1676
 6830SOL     OW31951   4.492   3.412   7.737  0.3963  0.1118 -0.1335
 6830SOL    HW131952   4.448   3.471   7.676  0.1539 -1.3339 -1.3568
 6830SOL    HW231953   4.468   3.463   7.815  0.9866 -1.8260  1.3144
 6831SOL     OW31954   0.048   4.326   2.480 -0.6001 -0.2000 -0.0105
 6831SOL    HW131955   0.083   4.358   2.397 -0.1150  0.7448  0.5595
 6831SOL    HW231956   0.074   4.234   2.470  1.8206  0.6485 -1.5434
 6832SOL     OW31957   2.121   3.205   0.120 -0.3944  0.3649 -0.4213
 6832SOL    HW131958   2.194   3.235   0.066  0.5841  1.1213  1.3336
 6832SOL    HW231959   2.156   3.219   0.208 -0.8660 -4.0968  0.4897
 6833SOL     OW31960   4.451   2.962   5.412 -0.7405 -0.4007 -0.1467
 6833SOL    HW131961   4.363   2.928   5.400 -0.2484 -1.5557 -0.4651
 6833SOL    HW231962   4.439   3.057   5.422 -1.7492 -0.4955 -0.4649
 6834SOL     OW31963   1.524   4.152   8.852  0.5191 -0.4436  0.0527
 6834SOL    HW131964   1.480   4.227   8.893  0.8344  0.2312 -0.8307
 6834SOL    HW231965   1.506   4.084   8.917  1.6448 -1.6706 -0.9277
 6835SOL     OW31966   3.953   0.833  11.575 -0.2072  0.3027  0.4248
 6835SOL    HW131967   3.919   0.887  11.647  2.0385  1.1877  0.8283
 6835SOL    HW231968   3.987   0.757  11.622 -1.8602 -0.6476  0.0837
 6836SOL     OW31969   1.597   1.812  15.871 -0.2808 -0.2813 -0.0740
 6836SOL    HW131970   1.629   1.902  15.878  2.1220 -1.2359  1.2246
 6836SOL    HW231971   1.601   1.789  15.963 -1.7866  1.3321  0.4002
 6837SOL     OW31972   0.479   3.021  11.093  1.2399  0.3855  0.0780
 6837SOL    HW131973   0.536   2.961  11.141  1.8096  0.4457 -0.5200
 6837SOL    HW231974   0.395   3.003  11.134  0.6479 -0.3574 -1.4495
 6838SOL     OW31975   3.917   2.148  12.339  0.4193 -0.6978 -0.3398
 6838SOL    HW131976   4.004   2.182  12.317  0.2415 -0.9232 -1.4018
 6838SOL    HW231977   3.863   2.227  12.329  0.2726 -0.7175  0.2558
 6839SOL     OW31978   0.512   3.511   6.559  0.1874  0.2788  0.5787
 6839SOL    HW131979   0.445   3.576   6.539 -0.4973 -0.0714  1.7391
 6839SOL    HW231980   0.534   3.473   6.474 -1.0829 -0.2306  0.4714
 6840SOL     OW31981   1.648   2.007   6.920  0.3063 -0.0474 -0.3782
 6840SOL    HW131982   1.716   1.994   6.985 -1.6454  0.4447  1.7689
 6840SOL    HW231983   1.589   1.934   6.937  0.8959  0.0247  2.0001
 6841SOL     OW31984   3.758   3.897   7.088  0.4029 -0.1964  0.1063
 6841SOL    HW131985   3.828   3.963   7.087  0.4919 -0.3040 -0.9814
 6841SOL    HW231986   3.765   3.863   7.177  0.3470  0.7317  0.4574
 6842SOL     OW31987   0.767   2.584   2.143 -0.4934 -0.4046 -0.0176
 6842SOL    HW131988   0.747   2.491   2.135  0.4556 -0.5575 -0.6728
 6842SOL    HW231989   0.705   2.617   2.077 -1.6558  1.7224  2.1267
 6843SOL     OW31990   1.616   2.679   1.398 -0.3180  0.0645 -0.3845
 6843SOL    HW131991   1.639   2.690   1.490 -0.2447 -0.1383 -0.3776
 6843SOL    HW231992   1.525   2.708   1.399  0.0459  1.1994 -0.3076
 6844SOL     OW31993   4.245   4.156   1.753  0.1445 -0.5132  0.1258
 6844SOL    HW131994   4.339   4.138   1.756  0.5599  2.1825  3.0037
 6844SOL    HW231995   4.249   4.248   1.778  0.6806 -0.1415 -1.3410
 6845SOL     OW31996   4.147   4.471  15.471 -0.1233 -0.3534  0.6694
 6845SOL    HW131997   4.123   4.540  15.533  2.5223  0.7253  0.4619
 6845SOL    HW231998   4.107   4.398  15.518 -2.9114  1.4876  1.1782
 6846SOL     OW31999   4.052   0.628  11.711 -0.8646  0.4168 -0.0409
 6846SOL    HW132000   3.988   0.560  11.732 -0.6655  0.4432  0.6510
 6846SOL    HW232001   4.083   0.635  11.801 -0.3963 -1.7858 -0.0355
 6847SOL     OW32002   3.482   0.509  13.654 -0.3665 -0.0233  0.3761
 6847SOL    HW132003   3.434   0.456  13.591  0.3300 -1.1341  0.7766
 6847SOL    HW232004   3.417   0.514  13.724  0.9251 -1.1208  1.6694
 6848SOL     OW32005   4.160   1.505   5.511 -0.1582 -0.3795 -0.5353
 6848SOL    HW132006   4.081   1.468   5.549  0.5798 -0.4308  0.9393
 6848SOL    HW232007   4.229   1.440   5.523  0.6099  1.2029  3.5587
 6849SOL     OW32008   2.597   1.157  15.922  0.4499  0.3116  0.2491
 6849SOL    HW132009   2.610   1.087  15.858  0.4302 -2.7565  3.6265
 6849SOL    HW232010   2.518   1.122  15.963 -0.4889 -1.3505 -2.9497
 6850SOL     OW32011   4.200   3.786   1.147 -0.5133  0.7893 -0.2380
 6850SOL    HW132012   4.134   3.738   1.097 -0.2067 -0.8271  0.9387
 6850SOL    HW232013   4.243   3.723   1.205  1.6604  1.3850 -1.1625
 6851SOL     OW32014   4.565   3.117   0.848  0.4846 -0.3134 -0.1230
 6851SOL    HW132015   4.644   3.065   0.860  1.2642  0.7122 -0.8580
 6851SOL    HW232016   4.502   3.045   0.843  0.6131 -0.4847  0.7307
 6852SOL     OW32017   2.838   2.593   6.328  0.4511 -0.2138  0.2480
 6852SOL    HW132018   2.932   2.581   6.346  0.9338  2.5942 -0.4202
 6852SOL    HW232019   2.821   2.687   6.321  0.8986 -0.1976 -0.6232
 6853SOL     OW32020   1.131   0.292   2.937  0.3489 -0.1066 -0.0854
 6853SOL    HW132021   1.058   0.353   2.923 -1.2284 -2.0339 -0.1890
 6853SOL    HW232022   1.074   0.216   2.938  1.6942 -1.1123  0.3788
 6854SOL     OW32023   0.557   1.463  17.477 -0.0216  0.1054 -0.5428
 6854SOL    HW132024   0.617   1.428  17.411  1.0338  1.2050 -0.1697
 6854SOL    HW232025   0.624   1.493  17.538 -1.2135  1.8137 -0.0918
 6855SOL     OW32026   3.122   0.449   6.087  0.0213 -0.4652  0.0947
 6855SOL    HW132027   3.147   0.422   5.999 -1.7517  0.6130 -0.7357
 6855SOL    HW232028   3.199   0.496   6.120 -0.4535 -0.1602  0.7792
 6856SOL     OW32029   2.675   3.162   1.282 -0.1168 -0.0435  0.0227
 6856SOL    HW132030   2.675   3.110   1.363 -1.4550  0.7037  0.5027
 6856SOL    HW232031   2.617   3.108   1.231 -0.0705  2.0342 -2.2403
 6857SOL     OW32032   1.016   2.016  17.059  0.1030  0.0187 -0.0638
 6857SOL    HW132033   0.924   1.999  17.081  0.4085  1.6563  2.4371
 6857SOL    HW232034   1.016   2.111  17.075 -0.8684 -0.0917  0.6259
 6858SOL     OW32035   2.209   1.415   2.199 -0.2515 -0.7388 -0.0434
 6858SOL    HW132036   2.151   1.448   2.268 -0.2547 -3.3752  1.2248
 6858SOL    HW232037   2.229   1.495   2.150  2.2000 -0.7517  0.9428
 6859SOL     OW32038   0.440   3.551   3.724  0.0419  0.2080 -0.1028
 6859SOL    HW132039   0.463   3.468   3.683 -0.3462 -0.0320  0.1589
 6859SOL    HW232040   0.360   3.583   3.681  0.6090  0.7170 -0.7638
 6860SOL     OW32041   0.096   1.116   4.801 -0.3911  0.2633 -0.2370
 6860SOL    HW132042   0.104   1.161   4.717 -0.3254  0.0968 -0.3211
 6860SOL    HW232043   0.003   1.096   4.792 -0.0603 -1.3583 -0.1889
 6861SOL     OW32044   3.264   0.506   6.601 -0.1914  0.5631  0.6792
 6861SOL    HW132045   3.353   0.533   6.578  0.0759 -0.0130  1.0241
 6861SOL    HW232046   3.216   0.556   6.535  2.1322  0.6679 -0.9449
 6862SOL     OW32047   2.891   2.096   5.844  0.3600  0.2811  0.4837
 6862SOL    HW132048   2.840   2.133   5.773 -1.4980 -1.7470  0.7889
 6862SOL    HW232049   2.925   2.014   5.809  2.3580  0.9049  0.9025
 6863SOL     OW32050   4.690   0.910  15.477 -0.3450  0.1722 -0.4653
 6863SOL    HW132051   0.034   0.854  15.505 -0.5285 -1.2660 -2.8473
 6863SOL    HW232052   4.706   0.991  15.524 -1.4980 -0.7311  1.5066
 6864SOL     OW32053   3.739   3.740   9.842 -0.4593 -0.0766  0.5637
 6864SOL    HW132054   3.833   3.751   9.856 -0.5893 -0.9582  2.0351
 6864SOL    HW232055   3.715   3.706   9.928  0.8678 -1.6442  0.3210
 6865SOL     OW32056   1.700   4.245  12.022  0.0468 -0.1795  0.1515
 6865SOL    HW132057   1.783   4.252  11.976  1.7943  0.5831  3.4771
 6865SOL    HW232058   1.727   4.282  12.105 -0.9983  0.1382  0.3510
 6866SOL     OW32059   2.815   3.884   1.437 -0.0440 -0.0035 -0.4682
 6866SOL    HW132060   2.888   3.944   1.426  0.8755 -0.6737  2.2414
 6866SOL    HW232061   2.768   3.943   1.495  0.0571 -2.4582  2.1467
 6867SOL     OW32062   3.387   2.617   1.279  0.5060 -0.4005 -0.6284
 6867SOL    HW132063   3.375   2.522   1.283 -1.3706 -0.1438 -0.3809
 6867SOL    HW232064   3.457   2.613   1.214  1.0138 -0.3704 -0.0935
 6868SOL     OW32065   2.629   2.857   5.827 -0.1468  0.3618  0.2041
 6868SOL    HW132066   2.617   2.944   5.865 -1.8275  0.0856  0.3048
 6868SOL    HW232067   2.702   2.820   5.877 -1.0159  0.1514  1.3192
 6869SOL     OW32068   3.262   0.231   8.818  0.2989 -0.0857  0.1119
 6869SOL    HW132069   3.187   0.288   8.836 -1.0507 -2.8464  3.1766
 6869SOL    HW232070   3.286   0.196   8.904  1.3758  1.8911  0.6296
 6870SOL     OW32071   4.069   2.260   1.642  0.0524 -0.2259 -0.2455
 6870SOL    HW132072   4.050   2.348   1.608 -1.4405 -0.9234 -1.2531
 6870SOL    HW232073   4.117   2.272   1.723  1.7398 -0.6791 -1.1711
 6871SOL     OW32074   3.353   0.855  10.713  0.2639  0.7362  0.0063
 6871SOL    HW132075   3.398   0.888  10.791  1.6286  1.3889 -1.0563
 6871SOL    HW232076   3.413   0.846  10.639  1.3345 -0.5503  1.0173
 6872SOL     OW32077   2.879   2.581  15.501  0.3122 -0.1111  0.0548
 6872SOL    HW132078   2.860   2.590  15.594  0.5188 -0.8361  0.1679
 6872SOL    HW232079   2.796   2.549  15.463  0.9726  1.1766 -2.4904
 6873SOL     OW32080   4.188   0.858   8.500 -0.4804  0.4452  0.4988
 6873SOL    HW132081   4.214   0.844   8.591  1.3020  0.3759 -0.0362
 6873SOL    HW232082   4.195   0.954   8.497 -2.9966  0.5923 -1.0849
 6874SOL     OW32083   3.958   0.281  11.057 -0.6912  0.6168  0.3805
 6874SOL    HW132084   4.033   0.283  11.117 -0.4644  1.6200  0.0591
 6874SOL    HW232085   3.893   0.305  11.123 -3.5265 -2.6060 -1.2528
 6875SOL     OW32086   0.475   2.033   5.927  0.3766 -0.0665 -0.4130
 6875SOL    HW132087   0.425   2.086   5.865  0.4133  1.3620  0.7772
 6875SOL    HW232088   0.565   2.044   5.899 -0.3107  0.4757 -2.4089
 6876SOL     OW32089   1.382   1.341  16.934  0.2797  0.1824 -0.1089
 6876SOL    HW132090   1.440   1.417  16.936 -1.0762  1.1364  3.0386
 6876SOL    HW232091   1.407   1.287  17.009 -0.9100 -1.4075 -0.8447
 6877SOL     OW32092   4.633   0.872   2.773 -0.1840 -0.3800 -0.0183
 6877SOL    HW132093   4.544   0.841   2.762 -0.8927  2.0534 -1.0089
 6877SOL    HW232094   4.602   0.962   2.768  1.3121  0.1909  0.8111
 6878SOL     OW32095   3.920   3.382   2.350  0.1900  0.0646  0.3909
 6878SOL    HW132096   3.883   3.436   2.421  0.4927  0.4589  0.2514
 6878SOL    HW232097   3.964   3.449   2.297 -1.3311  1.3688  0.7651
 6879SOL     OW32098   3.802   3.429   3.357 -0.1667  0.0678  0.0531
 6879SOL    HW132099   3.810   3.334   3.352  1.9456  0.1995  1.2085
 6879SOL    HW232100   3.814   3.457   3.447  1.5386 -0.8857  0.1243
 6880SOL     OW32101   3.757   0.788   2.639  0.1489  0.0595 -0.3798
 6880SOL    HW132102   3.787   0.799   2.549  0.4054 -3.0533 -0.6503
 6880SOL    HW232103   3.830   0.733   2.667 -0.3126 -1.0889 -1.4408
 6881SOL     OW32104   3.249   0.548  16.996 -0.6649 -0.0646 -0.3442
 6881SOL    HW132105   3.232   0.613  17.064 -0.3264  1.3025 -1.5763
 6881SOL    HW232106   3.344   0.555  16.981 -0.8267 -0.1012 -1.4154
 6882SOL     OW32107   3.749   0.060   9.823  0.6415 -0.1747  0.2691
 6882SOL    HW132108   3.793   0.138   9.787 -1.2222  0.1735 -1.2366
 6882SOL    HW232109   3.758   4.727   9.750  0.1424 -0.4083  0.4084
 6883SOL     OW32110   0.204   4.172   4.865 -0.3298  0.1138  0.1172
 6883SOL    HW132111   0.117   4.211   4.860 -0.0488  0.5396 -1.6038
 6883SOL    HW232112   0.227   4.152   4.774  0.2090  0.0939  0.2611
 6884SOL     OW32113   2.457   2.277   4.516  0.2225  0.2760  0.1175
 6884SOL    HW132114   2.535   2.223   4.504  1.0570  1.8397 -1.4153
 6884SOL    HW232115   2.465   2.334   4.593  1.0597  1.0681 -0.5640
 6885SOL     OW32116   4.114   1.140  15.201  0.4728  0.1920  0.2133
 6885SOL    HW132117   4.124   1.070  15.265 -2.9430  0.6534  1.2115
 6885SOL    HW232118   4.151   1.098  15.123  1.0531 -2.9037  2.1757
 6886SOL     OW32119   4.247   2.278   5.866 -1.2594  0.3315  0.0568
 6886SOL    HW132120   4.326   2.329   5.850 -2.4610  2.8105  2.0185
 6886SOL    HW232121   4.180   2.329   5.821 -0.2385  2.1000  0.5496
 6887SOL     OW32122   1.167   2.140  10.119  0.2165 -0.1369  0.2568
 6887SOL    HW132123   1.233   2.107  10.058  0.0600  0.6545 -0.3341
 6887SOL    HW232124   1.104   2.170  10.053 -0.3955  0.1507  0.9696
 6888SOL     OW32125   1.770   1.065   5.744 -0.4249  0.1343 -0.2366
 6888SOL    HW132126   1.689   1.102   5.778  1.1033  1.5858  1.8054
 6888SOL    HW232127   1.785   0.990   5.801 -1.0576  0.6018  0.5405
 6889SOL     OW32128   4.653   0.823   3.595  0.1593  1.0501 -0.3654
 6889SOL    HW132129   4.570   0.870   3.583 -0.6967 -0.2016  0.6589
 6889SOL    HW232130   4.695   0.834   3.510  2.2949  2.4421  0.8794
 6890SOL     OW32131   2.944   0.290   3.036 -0.3426  0.2951 -0.3008
 6890SOL    HW132132   2.874   0.225   3.044 -0.8147  0.7591 -0.7005
 6890SOL    HW232133   3.020   0.232   3.043  0.5545  1.5986  0.6666
 6891SOL     OW32134   1.110   2.190   5.777 -0.0230 -0.5542 -0.4611
 6891SOL    HW132135   1.150   2.256   5.834  1.1246  0.0242 -1.9217
 6891SOL    HW232136   1.059   2.246   5.718 -0.4496  1.5686  1.9098
 6892SOL     OW32137   1.685   1.830   4.724  0.0265 -0.3905  0.4244
 6892SOL    HW132138   1.702   1.922   4.705  1.1102 -0.2539  2.0688
 6892SOL    HW232139   1.766   1.786   4.697  1.3979  1.6842  1.1977
 6893SOL     OW32140   0.112   3.523   0.832  0.0852 -0.2821  0.0753
 6893SOL    HW132141   0.186   3.540   0.889  1.1137 -1.9737 -0.7412
 6893SOL    HW232142   0.055   3.481   0.896  1.2006 -1.7657  0.1071
 6894SOL     OW32143   3.359   4.605   6.325 -0.6461  0.5713 -0.5493
 6894SOL    HW132144   3.429   4.568   6.271  1.3976  1.7286  1.3253
 6894SOL    HW232145   3.321   4.521   6.351  1.0316  0.2766  0.8957
 6895SOL     OW32146   3.859   3.832   1.975 -0.6990 -0.1221 -0.0246
 6895SOL    HW132147   3.930   3.890   1.949 -0.0433 -0.7911  0.2844
 6895SOL    HW232148   3.790   3.899   1.980  0.7968  1.3018  1.8503
 6896SOL     OW32149   3.641   3.166  14.145 -0.1101  0.0736 -0.1937
 6896SOL    HW132150   3.710   3.133  14.087  0.8489  4.7826 -1.7425
 6896SOL    HW232151   3.604   3.084  14.177 -0.5123  0.4978  0.4156
 6897SOL     OW32152   0.376   2.446   2.310  0.3310 -0.3243 -0.2882
 6897SOL    HW132153   0.331   2.529   2.294  1.5925  0.5207  0.6318
 6897SOL    HW232154   0.392   2.465   2.402  0.1444 -0.4284 -0.2331
 6898SOL     OW32155   4.379   3.675   1.316 -0.2217  0.3593 -0.3249
 6898SOL    HW132156   4.415   3.586   1.322 -1.1050 -0.1042 -1.7559
 6898SOL    HW232157   4.364   3.713   1.402  0.7255 -0.1032  0.0561
 6899SOL     OW32158   3.565   2.619  13.470 -0.2497  0.2298  0.1852
 6899SOL    HW132159   3.550   2.713  13.478  2.4782  0.5841  1.0656
 6899SOL    HW232160   3.595   2.601  13.559 -2.3526 -0.7078  0.7042
 6900SOL     OW32161   0.508   1.024   6.538  1.0912  0.4018  0.5310
 6900SOL    HW132162   0.476   0.946   6.582 -0.5304 -0.7474 -2.7021
 6900SOL    HW232163   0.495   1.085   6.611 -1.1528  0.4452  0.0866
 6901SOL     OW32164   0.291   3.815   7.598 -0.9227 -0.1550  0.1432
 6901SOL    HW132165   0.213   3.833   7.650 -0.9884 -0.0422  0.0043
 6901SOL    HW232166   0.361   3.804   7.663 -1.3007  0.3729  0.6327
 6902SOL     OW32167   3.833   3.090   8.616 -0.1794 -0.2629  0.3585
 6902SOL    HW132168   3.773   3.135   8.556 -1.6209 -1.3723  0.9389
 6902SOL    HW232169   3.843   3.007   8.569  0.3535  0.6199 -1.0746
 6903SOL     OW32170   4.284   3.296  16.040 -0.0265 -0.9434 -0.2473
 6903SOL    HW132171   4.335   3.358  16.092  0.4275 -0.8088 -0.8376
 6903SOL    HW232172   4.305   3.213  16.082  0.5048  0.0342  1.4304
 6904SOL     OW32173   2.953   1.472   6.951 -0.2460  0.1081  0.5785
 6904SOL    HW132174   2.958   1.545   6.890  0.7699  0.4582  1.0869
 6904SOL    HW232175   2.872   1.433   6.919  0.2529  0.3386 -0.9585
 6905SOL     OW32176   4.612   2.616   5.266 -0.0569 -0.5076  0.4142
 6905SOL    HW132177   4.558   2.537   5.256 -0.2447 -0.6540  2.5640
 6905SOL    HW232178   4.550   2.689   5.272 -0.0531 -0.4027 -0.9105
 6906SOL     OW32179   2.096   0.886   6.156 -0.2635 -0.9721 -0.0891
 6906SOL    HW132180   2.109   0.970   6.112  2.5634 -0.4840  1.6855
 6906SOL    HW232181   2.169   0.876   6.216 -0.2019 -0.4258 -0.0806
 6907SOL     OW32182   3.667   3.242  11.854  0.2160 -0.1494 -0.1055
 6907SOL    HW132183   3.653   3.278  11.941 -1.1353 -1.0215  0.0423
 6907SOL    HW232184   3.742   3.183  11.859 -0.0026 -0.6660 -2.6209
 6908SOL     OW32185   4.254   1.208   6.330  0.1422 -0.0226  0.0100
 6908SOL    HW132186   4.339   1.251   6.331  0.9997 -1.7466  0.7516
 6908SOL    HW232187   4.200   1.287   6.325 -0.8439 -0.8629 -2.5225
 6909SOL     OW32188   0.197   2.959   4.138  0.7305  0.3511 -0.2888
 6909SOL    HW132189   0.254   2.962   4.061  1.2513  2.8750  0.2076
 6909SOL    HW232190   0.150   3.040   4.118  0.9766 -0.0355 -2.4629
 6910SOL     OW32191   4.319   1.691  13.000 -0.2544  0.2220  0.1331
 6910SOL    HW132192   4.362   1.764  12.955 -0.1888  0.9835  1.4552
 6910SOL    HW232193   4.381   1.676  13.070  0.0111 -0.8332 -0.3263
 6911SOL     OW32194   2.625   3.266  16.371  0.5260 -0.5088  0.4816
 6911SOL    HW132195   2.542   3.232  16.337  0.2398 -0.1219  0.7896
 6911SOL    HW232196   2.672   3.265  16.287 -0.2604  1.3542  0.0132
 6912SOL     OW32197   0.025   4.157   5.267 -0.2779 -0.6417 -0.6369
 6912SOL    HW132198   0.112   4.174   5.230 -0.4050 -1.2988 -1.2420
 6912SOL    HW232199   4.723   4.246   5.285  0.4859 -0.5373  0.1378
 6913SOL     OW32200   1.479   4.569   3.848 -0.3137 -0.0026  0.5241
 6913SOL    HW132201   1.404   4.628   3.838  0.2852  0.9379  1.6713
 6913SOL    HW232202   1.494   4.566   3.942  3.2609  0.6261 -0.0256
 6914SOL     OW32203   2.620   4.090   0.800 -0.2226 -0.2157 -0.2130
 6914SOL    HW132204   2.631   4.043   0.718 -0.0847 -0.5127 -0.0243
 6914SOL    HW232205   2.706   4.097   0.841 -0.7671  0.6271  0.7936
 6915SOL     OW32206   2.465   4.019   2.351  0.5216 -0.0355  0.3995
 6915SOL    HW132207   2.493   4.017   2.260 -2.4732  1.2255 -0.5382
 6915SOL    HW232208   2.477   4.112   2.368 -1.9957  0.3136  0.2958
 6916SOL     OW32209   3.670   0.623  12.231  0.6825  0.1935  0.1416
 6916SOL    HW132210   3.679   0.697  12.171  2.4218 -0.0770  0.0681
 6916SOL    HW232211   3.586   0.647  12.270  0.1681 -1.0173 -0.1975
 6917SOL     OW32212   3.703   4.117   3.275 -0.0911  0.3140  0.2779
 6917SOL    HW132213   3.745   4.108   3.190 -1.0973 -2.5582  0.1117
 6917SOL    HW232214   3.692   4.212   3.268 -0.9260  0.1504 -0.5448
 6918SOL     OW32215   2.464   2.804   4.385  0.2898 -0.3621 -0.1512
 6918SOL    HW132216   2.486   2.893   4.357  0.4011 -0.5588 -0.6937
 6918SOL    HW232217   2.551   2.768   4.404 -0.2167 -3.3366 -3.4874
 6919SOL     OW32218   2.154   2.797   3.460  0.3434  0.2031  0.0085
 6919SOL    HW132219   2.137   2.876   3.410  0.1076 -2.3817 -4.0226
 6919SOL    HW232220   2.112   2.730   3.405 -1.5069 -0.1511  1.8220
 6920SOL     OW32221   1.855   1.854   0.929 -0.0341  0.1992  0.0059
 6920SOL    HW132222   1.762   1.877   0.918 -0.5048 -1.4729  0.4475
 6920SOL    HW232223   1.855   1.790   1.000 -0.7575 -0.1707 -0.3204
 6921SOL     OW32224   1.294   2.605  10.417 -0.1653  0.3100 -0.2457
 6921SOL    HW132225   1.285   2.663  10.493 -1.2066  1.9507 -1.6041
 6921SOL    HW232226   1.389   2.607  10.409 -0.3697 -0.2900 -3.0100
 6922SOL     OW32227   4.542   2.814   5.712  0.0824  0.0987  0.4565
 6922SOL    HW132228   4.451   2.817   5.742 -0.6989  0.6590 -2.0444
 6922SOL    HW232229   4.544   2.727   5.674  0.1144 -0.1515  1.0305
 6923SOL     OW32230   2.771   0.915   1.004 -0.0247 -0.2118 -0.4003
 6923SOL    HW132231   2.778   0.995   0.951 -0.1650 -1.1616 -1.8696
 6923SOL    HW232232   2.754   0.961   1.086  1.6465 -1.9563  0.9315
 6924SOL     OW32233   1.132   0.496   2.550  0.2454  0.0723 -0.1834
 6924SOL    HW132234   1.166   0.475   2.463  1.0040 -0.6595  0.2906
 6924SOL    HW232235   1.216   0.506   2.595 -0.9413  1.7948  1.6360
 6925SOL     OW32236   0.781   2.274  15.180 -0.2478 -0.1666 -0.2227
 6925SOL    HW132237   0.876   2.261  15.190 -0.4748 -0.3857  1.8127
 6925SOL    HW232238   0.761   2.242  15.269 -1.8841 -0.4575 -0.6939
 6926SOL     OW32239   4.525   2.891  13.399  0.0127 -0.5839 -0.0194
 6926SOL    HW132240   4.567   2.942  13.468 -0.3554  0.6744 -0.7281
 6926SOL    HW232241   4.603   2.855  13.355  0.4195  0.9540 -0.5683
 6927SOL     OW32242   4.057   4.480   6.281 -0.3280  0.1725  0.4930
 6927SOL    HW132243   4.087   4.461   6.192  0.0784  1.7645  0.2963
 6927SOL    HW232244   4.023   4.568   6.265  0.8673  0.1944 -1.9583
 6928SOL     OW32245   3.022   4.265   0.237  0.1433 -0.9485  0.1510
 6928SOL    HW132246   2.946   4.212   0.257  0.3593 -1.0197  0.7744
 6928SOL    HW232247   2.989   4.324   0.169  0.8158 -1.2089 -0.4008
 6929SOL     OW32248   1.499   2.928   2.546  0.9990  0.1103 -0.3737
 6929SOL    HW132249   1.528   2.971   2.627 -3.0403 -2.2531  2.3061
 6929SOL    HW232250   1.550   2.979   2.484 -0.6265  2.1446 -0.0372
 6930SOL     OW32251   0.410   1.665   4.236 -0.4213 -0.0305  0.0527
 6930SOL    HW132252   0.321   1.700   4.228 -0.6702 -0.1792  2.3077
 6930SOL    HW232253   0.401   1.579   4.195 -3.2259 -0.2104  1.0987
 6931SOL     OW32254   1.810   2.465  11.546  0.5261  0.3188  0.7077
 6931SOL    HW132255   1.736   2.520  11.574 -0.9118  0.1384 -2.7222
 6931SOL    HW232256   1.795   2.390  11.604  0.8299  0.9975  1.6724
 6932SOL     OW32257   4.206   1.241   8.940  0.2286  0.1761  1.1923
 6932SOL    HW132258   4.183   1.332   8.919  0.0449  0.3195  2.0170
 6932SOL    HW232259   4.132   1.212   8.993 -1.5298  2.6964  0.0926
 6933SOL     OW32260   2.024   2.483  14.946  0.2008 -0.2315 -0.6695
 6933SOL    HW132261   1.937   2.523  14.948 -0.0127 -0.7114 -0.1090
 6933SOL    HW232262   2.012   2.420  15.018 -1.0746  0.7831 -0.0040
 6934SOL     OW32263   0.109   3.145  10.414  0.3621 -0.3398  0.2535
 6934SOL    HW132264   0.031   3.091  10.426  2.2152 -3.0979 -0.1329
 6934SOL    HW232265   0.176   3.078  10.402  0.2980 -0.4392  0.4491
 6935SOL     OW32266   2.343   2.121   4.970 -0.9815 -0.4468 -0.1760
 6935SOL    HW132267   2.421   2.067   4.978 -0.7381 -0.0937 -0.1840
 6935SOL    HW232268   2.280   2.071   5.024 -1.2112 -0.6634 -0.6442
 6936SOL     OW32269   0.196   3.611   4.422  0.5842 -0.0447 -0.0157
 6936SOL    HW132270   0.271   3.663   4.448  1.1945 -1.2095  0.5609
 6936SOL    HW232271   0.192   3.629   4.329 -1.6200  0.5176  0.1847
 6937SOL     OW32272   2.728   3.953   4.105 -0.6353 -0.1460  0.6123
 6937SOL    HW132273   2.762   4.022   4.048 -2.2730  0.6092  0.5370
 6937SOL    HW232274   2.791   3.882   4.095  1.6387  2.0786 -0.6292
 6938SOL     OW32275   1.821   4.666   9.987 -0.2097 -0.2294  0.8671
 6938SOL    HW132276   1.890   4.649  10.051  1.2381  0.4695 -0.5098
 6938SOL    HW232277   1.765   4.589  10.001 -0.7693 -0.4085 -2.4860
 6939SOL     OW32278   1.368   0.783   5.574 -0.0689 -0.1945 -0.0473
 6939SOL    HW132279   1.370   0.701   5.623  0.1614  0.0069  0.2766
 6939SOL    HW232280   1.277   0.814   5.581  0.0460  0.2612 -0.5836
 6940SOL     OW32281   3.910   3.169  10.873  0.0466  0.1594  0.2906
 6940SOL    HW132282   3.973   3.212  10.816 -0.7142  0.0313 -0.6561
 6940SOL    HW232283   3.970   3.132  10.938  0.6392  3.1382  1.4440
 6941SOL     OW32284   2.164   4.107  12.630 -0.6705 -0.9356  0.0605
 6941SOL    HW132285   2.157   4.011  12.631 -0.8692 -0.9325 -1.2598
 6941SOL    HW232286   2.255   4.117  12.603 -0.1428  2.0561  2.9075
 6942SOL     OW32287   3.796   0.296   9.700 -0.2775 -0.3429  0.1834
 6942SOL    HW132288   3.871   0.336   9.656 -1.7893  1.0628 -1.1165
 6942SOL    HW232289   3.832   0.332   9.782  0.6098 -0.3834 -0.1820
 6943SOL     OW32290   0.546   0.927   6.068  0.2332 -0.4609 -0.0507
 6943SOL    HW132291   0.498   0.934   6.150  0.3918  2.1782 -0.1879
 6943SOL    HW232292   0.502   0.995   6.017  0.8648 -1.4010 -1.8763
 6944SOL     OW32293   1.141   1.736   8.192  0.4882 -0.4681  0.3782
 6944SOL    HW132294   1.112   1.665   8.249 -1.6025  1.7584  2.1016
 6944SOL    HW232295   1.132   1.809   8.253  1.3566 -0.2993  0.2953
 6945SOL     OW32296   2.540   3.501  16.506  0.2936  0.0141  0.2409
 6945SOL    HW132297   2.534   3.408  16.528 -0.8472 -0.3671 -1.7026
 6945SOL    HW232298   2.489   3.511  16.425  1.6516  1.3734 -0.4474
 6946SOL     OW32299   1.813   1.005   6.062 -0.5405 -0.1933  0.2144
 6946SOL    HW132300   1.780   0.935   6.005  3.9892 -1.3591 -0.9880
 6946SOL    HW232301   1.898   1.027   6.025 -0.3949 -3.1175 -1.1710
 6947SOL     OW32302   3.056   1.944   5.208  0.7196 -0.4233 -0.4547
 6947SOL    HW132303   3.008   1.870   5.244 -1.6940  1.4418  0.1029
 6947SOL    HW232304   3.147   1.913   5.211  0.8623  0.0323 -0.1175
 6948SOL     OW32305   3.862   0.022   3.154  0.5476 -0.0291  0.2031
 6948SOL    HW132306   3.883   0.093   3.214 -0.8235 -0.3946  1.1263
 6948SOL    HW232307   3.798   0.062   3.095  0.6470  1.2438  0.9747
 6949SOL     OW32308   0.780   0.933   1.769  0.1403  0.2474  0.3139
 6949SOL    HW132309   0.755   0.841   1.776  0.8242  0.1366  1.3255
 6949SOL    HW232310   0.739   0.955   1.852 -1.8589  3.9967 -1.6723
 6950SOL     OW32311   1.208   1.232   5.454 -0.4933 -0.1569 -0.0280
 6950SOL    HW132312   1.123   1.220   5.496  0.0199 -0.7797  0.8217
 6950SOL    HW232313   1.204   1.183   5.372  2.3385 -0.2403 -0.1100
 6951SOL     OW32314   1.706   4.327   9.177  0.5287 -0.2430 -0.0365
 6951SOL    HW132315   1.626   4.279   9.197  0.3085 -0.5557 -1.6206
 6951SOL    HW232316   1.778   4.267   9.198 -0.8026 -1.5160  0.8504
 6952SOL     OW32317   3.618   2.322   2.678  0.2655 -0.8247 -0.1441
 6952SOL    HW132318   3.553   2.386   2.648 -0.1064 -1.4922 -0.7777
 6952SOL    HW232319   3.663   2.372   2.746  0.7183 -0.2878 -0.8390
 6953SOL     OW32320   3.324   2.641   0.649  0.6049  0.1957 -0.2958
 6953SOL    HW132321   3.401   2.607   0.695 -0.0997 -0.1869  0.6135
 6953SOL    HW232322   3.366   2.708   0.596  1.1538 -0.7168 -1.0137
 6954SOL     OW32323   2.789   2.822  12.656  0.1949 -0.4601 -0.4030
 6954SOL    HW132324   2.799   2.840  12.750 -2.5530 -1.2300  0.0478
 6954SOL    HW232325   2.882   2.814  12.637  0.0149 -0.6041 -1.2382
 6955SOL     OW32326   1.765   0.812  12.478 -0.5304  0.7080 -0.4175
 6955SOL    HW132327   1.814   0.863  12.542 -1.3131  1.6554 -0.5737
 6955SOL    HW232328   1.682   0.860  12.477 -0.7922  0.2604  0.1110
 6956SOL     OW32329   4.275   2.665  17.613  0.2525  0.3775  0.2195
 6956SOL    HW132330   4.333   2.606  17.565 -1.3060 -0.8489 -0.1314
 6956SOL    HW232331   4.329   2.685  17.690  1.0221  1.6277 -0.6297
 6957SOL     OW32332   2.136   0.678  16.956  0.1856 -0.0811 -0.5175
 6957SOL    HW132333   2.083   0.633  16.890 -0.4508 -1.8206  1.2078
 6957SOL    HW232334   2.144   0.612  17.024  2.7087 -1.7053 -2.3711
 6958SOL     OW32335   1.832   3.275  13.972  0.0538  0.5009 -0.5990
 6958SOL    HW132336   1.829   3.327  14.053 -1.9323  0.5825 -0.7199
 6958SOL    HW232337   1.746   3.234  13.972  1.1274 -1.7380  0.7573
 6959SOL     OW32338   4.698   0.663   8.341  0.4625  0.4838 -0.7176
 6959SOL    HW132339   4.628   0.727   8.353  0.7558  0.0127  3.3639
 6959SOL    HW232340   0.048   0.715   8.329 -0.5610  1.6827 -2.2111
 6960SOL     OW32341   2.973   3.875   4.525  0.7130  0.1437  0.1181
 6960SOL    HW132342   2.946   3.915   4.608 -0.6107 -0.4895  0.0043
 6960SOL    HW232343   2.921   3.795   4.537 -0.3937  0.8563  0.0207
 6961SOL     OW32344   1.757   2.825   7.059 -0.3568 -0.0566  0.0444
 6961SOL    HW132345   1.712   2.801   7.140 -1.9503  1.4463 -0.3917
 6961SOL    HW232346   1.795   2.905   7.095 -1.2554  1.1446 -1.7077
 6962SOL     OW32347   0.813   3.427   5.434 -0.3322  0.0632  0.6342
 6962SOL    HW132348   0.818   3.383   5.349 -1.7454 -0.1811  0.6705
 6962SOL    HW232349   0.750   3.495   5.410 -0.2904 -0.6620 -1.4867
 6963SOL     OW32350   2.245   2.476   6.707 -0.2647  0.0411 -0.5153
 6963SOL    HW132351   2.263   2.447   6.796  1.3919  0.4585 -0.7166
 6963SOL    HW232352   2.334   2.476   6.671 -0.7801 -2.7490 -1.7554
 6964SOL     OW32353   0.450   0.850  16.328 -0.1001  0.4162  0.0267
 6964SOL    HW132354   0.411   0.930  16.364 -0.5464  0.1089  0.2313
 6964SOL    HW232355   0.380   0.795  16.292 -0.3722  0.3187  0.6963
 6965SOL     OW32356   0.539   4.057   7.501 -0.2862 -0.1465 -0.1155
 6965SOL    HW132357   0.486   4.068   7.580 -0.9191  0.4711 -0.6302
 6965SOL    HW232358   0.597   3.986   7.528 -1.4030 -0.6849  0.8268
 6966SOL     OW32359   2.812   3.165  14.652 -0.1090  0.0145  0.6082
 6966SOL    HW132360   2.834   3.220  14.576 -2.0004 -0.2957 -0.1427
 6966SOL    HW232361   2.870   3.092  14.632  0.0363  0.2356  0.2221
 6967SOL     OW32362   3.819   1.627   6.998  0.2494  0.4424  0.0080
 6967SOL    HW132363   3.779   1.540   7.004  1.4291 -0.2396 -2.1007
 6967SOL    HW232364   3.746   1.685   6.976 -0.5352 -0.1717  0.9561
 6968SOL     OW32365   1.461   1.359   8.172 -0.7288  0.2028  0.1998
 6968SOL    HW132366   1.490   1.412   8.246 -0.3590  1.3694 -0.7850
 6968SOL    HW232367   1.366   1.361   8.184 -0.5472  2.8709  0.9968
 6969SOL     OW32368   4.326   1.876   5.926  0.1770 -0.1067  0.0570
 6969SOL    HW132369   4.390   1.917   5.985 -0.1478 -4.0678  3.1787
 6969SOL    HW232370   4.252   1.890   5.985 -0.0661  0.7932 -0.4607
 6970SOL     OW32371   4.675   2.818   7.877 -0.1040 -0.2786  0.2129
 6970SOL    HW132372   4.646   2.903   7.910 -1.7263 -0.9234  0.4428
 6970SOL    HW232373   4.684   2.778   7.964 -0.4297 -0.3645  0.2080
 6971SOL     OW32374   3.612   4.042   6.782  0.3069  0.2635 -0.2441
 6971SOL    HW132375   3.576   4.093   6.710  0.6574 -0.2900 -0.8148
 6971SOL    HW232376   3.685   3.995   6.742 -1.3257 -1.5257 -1.1367
 6972SOL     OW32377   3.610   0.826  13.138 -0.8652  0.2894  0.1132
 6972SOL    HW132378   3.699   0.790  13.142 -0.9139  0.1947  0.3723
 6972SOL    HW232379   3.605   0.844  13.044  1.2195  0.1357 -0.0317
 6973SOL     OW32380   1.910   0.592  17.163  0.3781  0.5587  0.2228
 6973SOL    HW132381   1.981   0.554  17.215  0.7371 -1.8771 -2.0165
 6973SOL    HW232382   1.874   0.659  17.221  1.5337  0.9969  0.4340
 6974SOL     OW32383   4.144   2.826  10.536 -0.5355  0.2710  0.2047
 6974SOL    HW132384   4.186   2.816  10.450 -0.9489 -4.1315  0.4702
 6974SOL    HW232385   4.116   2.917  10.537  0.5422  0.6288 -2.8108
 6975SOL     OW32386   2.155   4.061  15.940  0.2302  0.0716  0.1938
 6975SOL    HW132387   2.236   4.014  15.921 -0.2708 -0.0425 -1.6964
 6975SOL    HW232388   2.183   4.143  15.899 -1.5190  1.1726  1.2189
 6976SOL     OW32389   2.483   1.154   6.836  0.3458 -0.7197 -0.0346
 6976SOL    HW132390   2.552   1.176   6.898  1.1530 -3.0149 -0.1325
 6976SOL    HW232391   2.499   1.060   6.842  0.4191 -0.7672 -0.9639
 6977SOL     OW32392   3.581   0.988   7.412  0.2721  0.3689  0.1064
 6977SOL    HW132393   3.568   1.039   7.332 -2.7522 -0.4236  0.0839
 6977SOL    HW232394   3.516   1.034   7.465 -0.9223 -1.3855  0.1527
 6978SOL     OW32395   2.711   1.304   6.647 -0.2434  0.0050  0.6971
 6978SOL    HW132396   2.804   1.325   6.638 -0.4007  0.4428  0.0761
 6978SOL    HW232397   2.702   1.355   6.728  1.8972  0.3365  0.7486
 6979SOL     OW32398   4.260   4.020   8.449  0.3656  0.1707  0.2555
 6979SOL    HW132399   4.313   4.097   8.427 -0.2003  0.8832  1.3596
 6979SOL    HW232400   4.172   4.056   8.437  0.6036  0.4073 -0.8053
 6980SOL     OW32401   0.641   3.059  17.470 -0.3972 -1.0404 -0.1309
 6980SOL    HW132402   0.707   3.088  17.532  0.7696  1.1640 -2.4317
 6980SOL    HW232403   0.692   3.046  17.390 -1.0213  1.1814 -0.8846
 6981SOL     OW32404   2.697   2.339  15.442  0.0597 -0.2321  0.4737
 6981SOL    HW132405   2.607   2.336  15.408 -0.0668  2.0182  0.6259
 6981SOL    HW232406   2.747   2.364  15.364 -0.4960 -0.0787  0.1635
 6982SOL     OW32407   3.880   3.309  17.692 -0.1949  0.3583  0.5331
 6982SOL    HW132408   3.850   3.382  17.638  0.4603  1.6102  1.8385
 6982SOL    HW232409   3.948   3.362   0.020 -0.7544 -0.8328  2.8654
 6983SOL     OW32410   4.240   2.967   6.416  0.6302 -0.2974  0.1327
 6983SOL    HW132411   4.212   2.878   6.440  0.5961  0.1419  1.6981
 6983SOL    HW232412   4.242   3.014   6.499 -0.7478  0.1765 -0.1038
 6984SOL     OW32413   1.378   1.432  10.679  0.2978  0.0985 -0.9665
 6984SOL    HW132414   1.411   1.521  10.665  0.1246  0.1762 -0.8810
 6984SOL    HW232415   1.290   1.441  10.644 -0.1470 -1.4881 -0.2755
 6985SOL     OW32416   3.390   3.962   5.955  0.5835 -0.0270 -0.3045
 6985SOL    HW132417   3.387   4.049   5.996  0.0639 -0.8421  1.4086
 6985SOL    HW232418   3.313   3.922   5.996  0.5740 -0.0491 -0.3444
 6986SOL     OW32419   2.560   3.000   1.022 -0.3456  0.4753  0.2863
 6986SOL    HW132420   2.635   2.941   1.024  0.8349  1.8976 -1.7312
 6986SOL    HW232421   2.496   2.949   1.072  0.1905  3.0006  3.4730
 6987SOL     OW32422   1.702   2.047  16.841  1.0366  0.3815  0.2848
 6987SOL    HW132423   1.625   2.038  16.897  2.0330 -1.0153  1.4289
 6987SOL    HW232424   1.773   2.028  16.903  2.6000 -0.5943 -1.7927
 6988SOL     OW32425   0.181   1.640   5.714  0.7699  0.1096 -1.0598
 6988SOL    HW132426   0.137   1.625   5.630  0.8153  0.0329 -1.0698
 6988SOL    HW232427   0.108   1.666   5.770  2.6141  0.6172  1.0960
 6989SOL     OW32428   2.489   2.812   2.131  0.0626 -0.5558  0.1434
 6989SOL    HW132429   2.497   2.867   2.053 -0.1627 -0.1200  0.4235
 6989SOL    HW232430   2.395   2.812   2.147 -0.2174 -1.4264 -1.5010
 6990SOL     OW32431   1.951   4.515   1.394 -0.4322  0.2834  0.2721
 6990SOL    HW132432   1.886   4.496   1.462  1.3241  0.8277  2.1039
 6990SOL    HW232433   1.985   4.433   1.358 -0.6054  2.0708 -3.9351
 6991SOL     OW32434   1.383   4.660   3.344 -0.4936  0.5694 -0.4692
 6991SOL    HW132435   1.467   4.676   3.388 -0.1155 -0.4482 -0.8170
 6991SOL    HW232436   1.340   4.660   3.430 -0.0385 -1.1339 -0.2543
 6992SOL     OW32437   4.401   0.991   6.880  0.7616  0.5484 -0.3199
 6992SOL    HW132438   4.323   0.970   6.932  0.9277  1.4077  0.2851
 6992SOL    HW232439   4.476   0.952   6.925  1.6629  1.1457 -1.3138
 6993SOL     OW32440   2.849   0.867  17.192 -0.5440 -0.0856  1.1947
 6993SOL    HW132441   2.887   0.893  17.108 -0.2838 -1.2943  0.9382
 6993SOL    HW232442   2.789   0.800  17.163 -1.0221 -0.5099  3.1526
 6994SOL     OW32443   0.251   0.903   4.815  0.1189  0.2380  0.3472
 6994SOL    HW132444   0.310   0.962   4.769 -0.9942  0.4248 -0.8447
 6994SOL    HW232445   0.185   0.970   4.834  0.3189  0.5114  0.0694
 6995SOL     OW32446   0.354   3.462  11.023 -0.7508  0.0839 -0.1552
 6995SOL    HW132447   0.402   3.391  11.067 -1.2144 -0.4478 -0.5124
 6995SOL    HW232448   0.264   3.431  11.016 -0.6522 -0.3634  0.4811
 6996SOL     OW32449   2.225   1.328   4.405 -0.7055  0.2913  0.3885
 6996SOL    HW132450   2.286   1.371   4.345 -0.6005 -1.6551 -0.8958
 6996SOL    HW232451   2.145   1.326   4.353 -0.2135  0.2639 -0.3812
 6997SOL     OW32452   3.306   3.932   1.073  0.2401 -0.0322  0.1368
 6997SOL    HW132453   3.377   3.996   1.077 -1.3034  1.5366  1.7466
 6997SOL    HW232454   3.346   3.852   1.107  0.2215  0.5301  1.4446
 6998SOL     OW32455   3.739   1.488   8.465 -0.2267 -0.4370 -0.0275
 6998SOL    HW132456   3.807   1.420   8.463 -2.3381 -2.5536 -0.3184
 6998SOL    HW232457   3.767   1.520   8.551 -0.3544 -0.4097  0.0030
 6999SOL     OW32458   1.353   4.569   7.484  0.9208  0.1906 -0.0401
 6999SOL    HW132459   1.312   4.613   7.410  0.2258 -3.9843 -2.1331
 6999SOL    HW232460   1.434   4.618   7.499  0.0920  1.3341  0.6265
 7000SOL     OW32461   0.552   4.448   4.080 -0.4694  0.3555  0.4414
 7000SOL    HW132462   0.576   4.540   4.087  1.6448 -0.3137  1.9887
 7000SOL    HW232463   0.541   4.443   3.985  0.3946 -0.9664  0.4019
 7001SOL     OW32464   4.723   1.184   9.299 -0.9090  0.2204  1.0122
 7001SOL    HW132465   4.682   1.225   9.223 -1.4555  1.7617  2.1467
 7001SOL    HW232466   4.717   1.089   9.289  0.1556  0.3640 -0.9346
 7002SOL     OW32467   4.527   0.794  15.295  0.4660  0.3630 -0.5089
 7002SOL    HW132468   4.452   0.853  15.304 -0.6000 -1.2194  0.7892
 7002SOL    HW232469   4.585   0.821  15.366  0.6956 -0.1983 -0.4844
 7003SOL     OW32470   0.365   1.198   2.466  0.0258 -0.0184  0.4110
 7003SOL    HW132471   0.363   1.290   2.491  1.2765 -1.0600  4.3486
 7003SOL    HW232472   0.455   1.185   2.496  1.4196  3.2958 -2.3591
 7004SOL     OW32473   1.478   1.030   4.889  0.3947  0.4905 -0.3182
 7004SOL    HW132474   1.406   1.025   4.826  0.3949 -1.1495 -0.1788
 7004SOL    HW232475   1.503   0.938   4.891 -0.8875  0.1924  1.4915
 7005SOL     OW32476   2.675   1.163   7.038  0.5519 -0.1328 -0.8348
 7005SOL    HW132477   2.667   1.099   7.108 -2.8018  0.7572 -0.3929
 7005SOL    HW232478   2.764   1.150   7.007  0.6423  0.9199 -1.0141
 7006SOL     OW32479   0.460   1.983   4.432 -0.3235  0.3141  0.3301
 7006SOL    HW132480   0.406   1.988   4.510 -0.6232  0.3408  0.1224
 7006SOL    HW232481   0.400   1.981   4.357  1.7030 -1.7399 -1.2359
 7007SOL     OW32482   1.496   4.648   4.710  0.2310 -0.3693 -0.0941
 7007SOL    HW132483   1.567   4.680   4.766  1.2237 -1.0524 -0.9703
 7007SOL    HW232484   1.526   4.563   4.678  1.4687 -0.3419  0.9993
 7008SOL     OW32485   3.634   3.084   6.539  0.2816 -0.2866 -0.5040
 7008SOL    HW132486   3.571   3.155   6.551  2.5308  1.8274 -1.0245
 7008SOL    HW232487   3.592   3.023   6.599 -0.3523 -0.5797 -1.2390
 7009SOL     OW32488   0.843   0.492  15.117 -0.3809 -0.0645 -0.2217
 7009SOL    HW132489   0.816   0.411  15.161 -1.6692 -0.5955 -1.9983
 7009SOL    HW232490   0.863   0.536  15.200  0.4163 -2.3914  0.8386
 7010SOL     OW32491   0.915   3.083  14.338  0.6243 -0.2570 -0.6771
 7010SOL    HW132492   0.948   3.172  14.335 -0.6888  0.3536  3.0620
 7010SOL    HW232493   0.885   3.068  14.428 -1.9856  3.6753 -0.8873
 7011SOL     OW32494   4.717   2.369   9.424 -0.2532  0.4805 -0.3015
 7011SOL    HW132495   4.650   2.362   9.491 -0.1187 -0.4858 -0.2670
 7011SOL    HW232496   4.697   2.454   9.385  0.2800  1.6437  1.9833
 7012SOL     OW32497   2.441   3.883  13.102  0.2756  0.3016  0.0123
 7012SOL    HW132498   2.508   3.890  13.034  1.8159 -1.0981  1.3704
 7012SOL    HW232499   2.371   3.891  13.038  1.0563  1.8774 -0.6453
 7013SOL     OW32500   2.283   2.142   6.389 -0.2053  0.5421  0.2089
 7013SOL    HW132501   2.271   2.061   6.340 -1.8938  1.6593 -1.2452
 7013SOL    HW232502   2.240   2.106   6.466  0.8134 -0.1660  0.4501
 7014SOL     OW32503   4.448   0.886   6.632  0.1513  0.3245 -0.2388
 7014SOL    HW132504   4.394   0.933   6.696 -0.7709  0.3616 -1.0420
 7014SOL    HW232505   4.521   0.856   6.686  1.1144  1.0192 -1.1613
 7015SOL     OW32506   4.130   1.360   9.662  0.2030 -0.3432 -0.6581
 7015SOL    HW132507   4.217   1.323   9.647  1.0386  1.1098  0.5891
 7015SOL    HW232508   4.131   1.444   9.616 -1.4745 -1.4531 -2.7497
 7016SOL     OW32509   4.406   1.045   8.969  0.3572  0.3172  0.2779
 7016SOL    HW132510   4.347   1.120   8.978 -0.5304 -0.2248 -0.9944
 7016SOL    HW232511   4.402   1.008   9.057 -0.7366  0.5210  0.3200
 7017SOL     OW32512   4.130   3.378   9.787  0.2488  0.1667 -0.0345
 7017SOL    HW132513   4.133   3.366   9.882 -1.6269  1.1518  0.1522
 7017SOL    HW232514   4.201   3.440   9.770  0.5117 -0.1282 -0.0256
 7018SOL     OW32515   0.104   2.337   8.170  0.1115  0.7782 -0.4736
 7018SOL    HW132516   0.066   2.369   8.251  0.3757  2.3069 -0.9518
 7018SOL    HW232517   0.043   2.264   8.165  1.0296  0.0482 -1.0593
 7019SOL     OW32518   0.115   0.933   1.879  0.2451 -0.4630  0.1134
 7019SOL    HW132519   0.181   0.873   1.914  0.3316  0.1645  1.0356
 7019SOL    HW232520   0.102   0.892   1.794  0.1224  0.9133 -0.5269
 7020SOL     OW32521   3.275   1.220   8.489  0.5170  0.0312  0.1487
 7020SOL    HW132522   3.197   1.210   8.434 -1.1925 -1.2615  2.7948
 7020SOL    HW232523   3.340   1.216   8.419  0.1032 -0.8345 -0.1952
 7021SOL     OW32524   2.189   1.697  17.125  0.1914  0.2889  0.3682
 7021SOL    HW132525   2.247   1.772  17.132  0.9099 -0.3166  0.9775
 7021SOL    HW232526   2.251   1.625  17.109  0.2703  0.4008  0.1817
 7022SOL     OW32527   0.947   0.790   2.047 -0.0099 -0.3570 -0.4226
 7022SOL    HW132528   0.988   0.847   1.983 -1.9491  1.8898  0.3257
 7022SOL    HW232529   0.893   0.745   1.982  0.3411 -1.3293 -0.0406
 7023SOL     OW32530   3.985   4.718   4.116  0.9769 -0.0543  0.1346
 7023SOL    HW132531   3.967   0.043   4.194  1.6691 -0.1478  0.3613
 7023SOL    HW232532   3.979   0.047   4.040  0.5013  1.3709  1.2557
 7024SOL     OW32533   1.949   2.192   6.644 -0.7501  0.2657  0.3071
 7024SOL    HW132534   1.859   2.169   6.623 -0.6555 -0.5289  0.7907
 7024SOL    HW232535   1.936   2.287   6.643 -0.0529  0.3241 -2.2878
 7025SOL     OW32536   4.128   1.121  16.178  0.9051  0.1866  0.0566
 7025SOL    HW132537   4.068   1.118  16.104  0.2525  0.0099  0.5862
 7025SOL    HW232538   4.206   1.145  16.129  0.7922 -0.3337 -0.3752
 7026SOL     OW32539   2.616   2.719   1.282  0.6410 -0.3841  0.7451
 7026SOL    HW132540   2.534   2.715   1.232  2.0966  0.9591 -1.7490
 7026SOL    HW232541   2.676   2.680   1.218 -3.1768 -1.6755 -2.0718
 7027SOL     OW32542   0.256   4.617   3.487 -0.4040  0.1363  0.1046
 7027SOL    HW132543   0.329   4.560   3.462 -0.3695 -0.1665  0.9042
 7027SOL    HW232544   0.195   4.566   3.434 -1.1742 -0.1940  1.3116
 7028SOL     OW32545   0.873   1.698   5.721 -0.3621  0.0251 -0.6142
 7028SOL    HW132546   0.862   1.787   5.754  1.7325 -0.4282  1.3734
 7028SOL    HW232547   0.964   1.678   5.701  0.2521  1.7556  0.4360
 7029SOL     OW32548   3.776   1.434   5.316  0.0602 -0.2209 -0.1736
 7029SOL    HW132549   3.863   1.454   5.280 -0.1813  0.7045 -0.2354
 7029SOL    HW232550   3.740   1.375   5.250 -1.0051  0.6545 -0.3618
 7030SOL     OW32551   3.680   3.683  11.648  0.2889 -0.5934 -0.1165
 7030SOL    HW132552   3.750   3.748  11.647 -1.1945  1.0078 -1.1510
 7030SOL    HW232553   3.711   3.623  11.716  1.4892  0.5707  0.3582
 7031SOL     OW32554   1.167   1.249  17.586  0.5688 -0.4465 -0.3041
 7031SOL    HW132555   1.101   1.185  17.559 -0.0768 -0.0483  0.3539
 7031SOL    HW232556   1.218   1.189  17.640 -0.0414 -0.7350 -0.0512
 7032SOL     OW32557   0.217   2.929   5.841 -0.1522  0.0862  0.0153
 7032SOL    HW132558   0.220   2.998   5.775 -0.2497  0.1826  0.1132
 7032SOL    HW232559   0.247   2.853   5.791 -1.0486  0.2856 -0.8233
 7033SOL     OW32560   1.725   0.785   0.476  0.0406  0.5343 -0.8598
 7033SOL    HW132561   1.682   0.801   0.392 -3.2175 -3.5450 -0.0065
 7033SOL    HW232562   1.742   0.690   0.474  1.1779  0.6721  2.0016
 7034SOL     OW32563   0.456   3.269   3.841  0.1479 -0.2874  0.6207
 7034SOL    HW132564   0.537   3.297   3.884  0.0010  1.1391 -0.0265
 7034SOL    HW232565   0.480   3.247   3.751 -3.4188 -0.5895 -0.2726
 7035SOL     OW32566   0.876   0.943   7.911  0.2715 -0.5768  0.5282
 7035SOL    HW132567   0.946   1.009   7.918 -0.0875  0.0416 -1.6769
 7035SOL    HW232568   0.811   0.986   7.857 -1.2820  0.2445  3.0409
 7036SOL     OW32569   2.004   3.928  14.497 -0.3633 -0.2075 -0.0409
 7036SOL    HW132570   2.085   3.904  14.453 -0.1125 -1.1476  0.9269
 7036SOL    HW232571   1.931   3.911  14.439  0.2040 -0.9027 -0.5527
 7037SOL     OW32572   3.616   3.482   5.141 -0.5364  0.5551 -0.3503
 7037SOL    HW132573   3.569   3.401   5.161 -0.5035 -0.3019 -3.7802
 7037SOL    HW232574   3.625   3.522   5.227  0.9968 -0.0129 -0.2563
 7038SOL     OW32575   0.970   1.366   1.356 -0.2308 -0.7022  0.5121
 7038SOL    HW132576   0.910   1.427   1.312 -0.5957 -1.1882  0.3448
 7038SOL    HW232577   1.049   1.383   1.303  0.1713  1.0790  1.6836
 7039SOL     OW32578   2.303   2.709   5.386  0.2613 -0.5480 -0.3907
 7039SOL    HW132579   2.366   2.777   5.363 -0.0104 -0.1172  0.1557
 7039SOL    HW232580   2.228   2.736   5.333  0.2374  4.0448  1.9533
 7040SOL     OW32581   3.362   0.659  14.204  0.1626 -0.3400 -0.4355
 7040SOL    HW132582   3.371   0.662  14.300  1.6781 -2.5850 -0.5263
 7040SOL    HW232583   3.328   0.571  14.189  2.6389 -1.3878  0.1285
 7041SOL     OW32584   3.211   0.419  14.796 -0.0975 -0.8398 -0.3001
 7041SOL    HW132585   3.207   0.495  14.738  0.6048  0.5443  1.4718
 7041SOL    HW232586   3.129   0.432  14.844  0.6211 -1.7143  1.1388
 7042SOL     OW32587   4.267   2.557   8.336  0.4060  0.4947 -0.2817
 7042SOL    HW132588   4.251   2.519   8.422  0.2187  0.8658 -0.1542
 7042SOL    HW232589   4.357   2.586   8.349  0.5339  0.9466 -2.1188
 7043SOL     OW32590   0.854   0.050   8.666 -0.0792  0.1672  0.0076
 7043SOL    HW132591   0.772   0.040   8.617 -0.1628  1.5424 -0.1292
 7043SOL    HW232592   0.853   0.145   8.681 -2.4145  0.1583 -0.0031
 7044SOL     OW32593   0.059   2.611  12.476  0.0713 -0.4103  0.6838
 7044SOL    HW132594   0.117   2.677  12.440 -1.4393  0.0672 -0.8980
 7044SOL    HW232595   0.065   2.619  12.571  0.5061  0.8875  0.5375
 7045SOL     OW32596   3.937   3.864   9.334 -0.1043 -0.7426 -0.7628
 7045SOL    HW132597   4.000   3.854   9.405  0.8421  0.9302 -1.3629
 7045SOL    HW232598   3.983   3.911   9.265  0.0131  0.1726 -0.0507
 7046SOL     OW32599   0.009   0.032   2.227 -0.2036 -0.0433  0.6509
 7046SOL    HW132600   4.675   0.102   2.209 -0.2063  0.3344  2.0985
 7046SOL    HW232601   4.694   4.727   2.305  0.4339  1.8484  1.8246
 7047SOL     OW32602   2.822   0.594  10.085 -0.2337  0.4060 -0.4797
 7047SOL    HW132603   2.871   0.528  10.134 -0.7654  0.2242 -0.1952
 7047SOL    HW232604   2.730   0.580  10.108  0.5912 -0.5550  2.1496
 7048SOL     OW32605   2.663   2.089  14.745 -0.3880 -0.1255 -0.1434
 7048SOL    HW132606   2.595   2.070  14.680  0.2684 -0.7751 -0.6409
 7048SOL    HW232607   2.708   2.153  14.691  1.1124 -1.8691 -0.9773
 7049SOL     OW32608   0.974   3.039   3.362 -0.2713  0.5660 -0.4017
 7049SOL    HW132609   0.919   3.114   3.340 -1.1257 -0.1294 -0.6263
 7049SOL    HW232610   0.902   2.977   3.369  1.4149 -1.4534 -0.7226
 7050SOL     OW32611   1.846   4.415  15.674 -0.1722  0.2993 -0.2125
 7050SOL    HW132612   1.861   4.453  15.588  0.6786  1.9995  0.6988
 7050SOL    HW232613   1.915   4.454  15.726  0.2566 -1.3462  0.4703
 7051SOL     OW32614   1.419   1.141  11.371 -0.0268  0.8968  0.0227
 7051SOL    HW132615   1.505   1.099  11.376 -0.4479  0.1512  0.8652
 7051SOL    HW232616   1.400   1.130  11.464  3.4098  0.2004  0.6468
 7052SOL     OW32617   2.377   0.908   6.285 -0.2765 -0.0645  0.5803
 7052SOL    HW132618   2.332   0.832   6.324  3.2192 -2.1047  0.6233
 7052SOL    HW232619   2.355   0.981   6.343  0.6199 -0.3493  1.2671
 7053SOL     OW32620   1.965   3.326  17.613  0.1622 -0.0505  0.5314
 7053SOL    HW132621   2.008   3.281  17.685  1.7374 -1.3454 -1.2325
 7053SOL    HW232622   1.976   3.416  17.642 -0.1872  0.4382 -0.8223
 7054SOL     OW32623   0.997   0.423   6.887 -0.0558  0.9372  0.0200
 7054SOL    HW132624   1.063   0.487   6.858 -1.6895  2.3665 -0.5070
 7054SOL    HW232625   1.003   0.430   6.983  1.6342  2.2557 -0.1895
 7055SOL     OW32626   2.188   2.434   5.307  0.5021 -0.0754  0.0051
 7055SOL    HW132627   2.254   2.467   5.245  0.5560  0.0852  0.1470
 7055SOL    HW232628   2.173   2.512   5.361 -1.1422 -0.3686 -0.0449
 7056SOL     OW32629   0.302   2.668   9.297  0.6366 -0.8324  0.2328
 7056SOL    HW132630   0.266   2.591   9.255 -1.3899  0.5882 -0.6176
 7056SOL    HW232631   0.219   2.716   9.295  1.0208 -0.0841  1.7542
 7057SOL     OW32632   2.403   4.106   1.858  0.3112  0.1473 -0.1351
 7057SOL    HW132633   2.455   4.095   1.778 -0.8241 -1.5049 -0.6437
 7057SOL    HW232634   2.374   4.016   1.873 -1.1759  0.5357 -0.7505
 7058SOL     OW32635   1.378   2.012   0.228  0.2694 -0.1522 -0.2196
 7058SOL    HW132636   1.367   1.938   0.168  1.5309 -1.4503  1.1213
 7058SOL    HW232637   1.430   1.976   0.300 -0.8481 -0.4668  0.4231
 7059SOL     OW32638   4.507   1.852   6.540 -0.7585  0.2015  0.2452
 7059SOL    HW132639   4.568   1.893   6.479 -0.1765 -0.7792  0.1530
 7059SOL    HW232640   4.485   1.934   6.584 -0.0325 -0.4713  1.8927
 7060SOL     OW32641   1.763   2.666   3.655  0.0152  0.3649 -0.3731
 7060SOL    HW132642   1.787   2.698   3.742  0.1433 -0.7330 -0.0088
 7060SOL    HW232643   1.738   2.575   3.669 -1.5360  0.4871 -2.2800
 7061SOL     OW32644   0.494   3.207   6.881 -0.2410  0.2802  0.1029
 7061SOL    HW132645   0.502   3.137   6.946 -0.0937  1.6430  1.5745
 7061SOL    HW232646   0.577   3.253   6.896 -0.1262 -0.1330  0.7336
 7062SOL     OW32647   2.105   2.671  13.821  0.0060  0.3487  0.3985
 7062SOL    HW132648   2.153   2.589  13.832 -2.9884 -1.1276  2.8180
 7062SOL    HW232649   2.129   2.724  13.897 -4.4830  1.8349  0.7976
 7063SOL     OW32650   0.036   4.481   2.906 -0.4095  0.6609  0.2049
 7063SOL    HW132651   4.707   4.466   2.831 -1.1449  1.8896  0.5253
 7063SOL    HW232652   0.063   4.390   2.914  1.8610  1.3550  0.3019
 7064SOL     OW32653   1.789   0.882  16.725  0.1893  0.7248 -0.5414
 7064SOL    HW132654   1.838   0.894  16.806 -0.5629  2.2355 -0.3021
 7064SOL    HW232655   1.726   0.813  16.742  0.2319  0.5854 -0.9428
 7065SOL     OW32656   4.293   2.957   8.026 -0.0011  0.0099 -0.3830
 7065SOL    HW132657   4.358   2.933   8.093  0.7945  0.1739 -1.1029
 7065SOL    HW232658   4.280   2.878   7.974  0.6743  0.8562 -1.8138
 7066SOL     OW32659   1.653   0.383   2.374  0.1387  0.0471 -0.0852
 7066SOL    HW132660   1.628   0.351   2.460  1.0395 -2.0364 -0.6008
 7066SOL    HW232661   1.610   0.323   2.313 -1.7548 -1.3416  2.6190
 7067SOL     OW32662   0.973   3.494  13.008 -0.0459  0.4628 -0.3273
 7067SOL    HW132663   1.015   3.558  12.950 -0.2962  1.6404  0.7835
 7067SOL    HW232664   1.038   3.425  13.022 -0.8984 -0.8238 -2.6912
 7068SOL     OW32665   0.877   4.650   8.117  0.3330 -0.4895  0.0137
 7068SOL    HW132666   0.800   4.614   8.160  0.5085  0.8633  1.4512
 7068SOL    HW232667   0.837   4.655   8.030 -0.8333  0.8360  0.6468
 7069SOL     OW32668   2.571   1.993   4.158  0.1227  0.2347  0.2205
 7069SOL    HW132669   2.571   1.974   4.064  0.4917 -1.9525  0.6694
 7069SOL    HW232670   2.505   1.934   4.194 -1.7495  0.3463 -2.9790
 7070SOL     OW32671   3.021   4.707   6.218 -0.7138  0.2582 -0.4684
 7070SOL    HW132672   3.052   4.671   6.301  0.7134  0.0826 -1.0760
 7070SOL    HW232673   3.056   0.067   6.228  0.5468 -0.9093  5.3864
 7071SOL     OW32674   2.265   4.333   8.094  0.5401  0.2179 -0.1543
 7071SOL    HW132675   2.264   4.362   8.185 -1.1551 -2.0023  0.5326
 7071SOL    HW232676   2.175   4.306   8.078  0.8158  0.8221 -2.6488
 7072SOL     OW32677   1.066   3.715   7.269 -0.0597  0.2514 -0.1765
 7072SOL    HW132678   1.157   3.737   7.289  0.5110 -0.1187 -2.3242
 7072SOL    HW232679   1.035   3.656   7.337  1.2700 -0.0398  0.1700
 7073SOL     OW32680   2.793   4.340  15.499 -0.2840 -0.2650 -0.3660
 7073SOL    HW132681   2.809   4.415  15.441 -1.2372 -0.7672 -1.2978
 7073SOL    HW232682   2.823   4.377  15.581 -0.8766 -0.3820 -0.0913
 7074SOL     OW32683   0.541   0.088   8.561 -0.3773  0.6968 -0.6293
 7074SOL    HW132684   0.448   0.110   8.554 -0.0897  2.0191 -0.1965
 7074SOL    HW232685   0.564   0.069   8.470  0.9395 -0.6209 -0.0131
 7075SOL     OW32686   3.313   2.532   4.467  0.3677  0.4141 -0.0489
 7075SOL    HW132687   3.297   2.600   4.401 -1.7802 -0.0269  0.0126
 7075SOL    HW232688   3.224   2.525   4.502 -0.6660 -0.1412 -2.7531
 7076SOL     OW32689   2.961   3.429   2.142  1.3259 -0.0128  0.2891
 7076SOL    HW132690   2.936   3.451   2.232  0.0333 -1.5742  0.2986
 7076SOL    HW232691   3.026   3.498   2.128 -0.2132  1.3881  0.0260
 7077SOL     OW32692   2.434   0.181   1.603 -0.4704 -0.5528  0.0589
 7077SOL    HW132693   2.341   0.183   1.622 -0.6370  0.5372 -0.8846
 7077SOL    HW232694   2.435   0.119   1.530  0.3996  0.9818 -1.2312
 7078SOL     OW32695   2.279   4.542   4.222 -0.3282  0.4060  0.0150
 7078SOL    HW132696   2.280   4.637   4.214  0.6386  0.5332  1.6624
 7078SOL    HW232697   2.367   4.535   4.257 -0.3233 -0.2517 -0.1178
 7079SOL     OW32698   1.422   0.776   9.040  0.4751  0.3364 -0.2227
 7079SOL    HW132699   1.501   0.763   8.987 -0.8176  2.8122 -2.7231
 7079SOL    HW232700   1.346   0.747   8.989  0.1588  1.8760 -0.6150
 7080SOL     OW32701   3.327   2.129   6.645 -0.7597  0.3276 -0.3789
 7080SOL    HW132702   3.328   2.184   6.567  1.5501  0.2231 -0.4213
 7080SOL    HW232703   3.237   2.096   6.650 -1.5299  2.1802 -1.9576
 7081SOL     OW32704   4.310   2.381   6.205 -0.0275  0.3369  0.0526
 7081SOL    HW132705   4.247   2.435   6.158 -0.1655  0.7352  0.7116
 7081SOL    HW232706   4.389   2.435   6.212 -0.0623  0.4125 -0.1355
 7082SOL     OW32707   2.332   0.277  14.512  0.1856  0.2060  0.2250
 7082SOL    HW132708   2.268   0.249  14.447  1.4325  0.7652 -1.2508
 7082SOL    HW232709   2.393   0.205  14.525  1.1386  1.1266  0.9114
 7083SOL     OW32710   4.340   1.129   3.072  0.5191  0.0535 -0.1509
 7083SOL    HW132711   4.334   1.044   3.029 -1.1040  0.8786 -1.5428
 7083SOL    HW232712   4.263   1.171   3.034  2.0257  1.5406 -1.5447
 7084SOL     OW32713   2.294   0.736   7.334  0.0858 -0.3066  0.0882
 7084SOL    HW132714   2.285   0.803   7.402 -0.5302  0.2446 -0.5311
 7084SOL    HW232715   2.318   0.659   7.385  0.0719  0.1650  0.8117
 7085SOL     OW32716   1.341   3.878   2.282  0.2924  0.2876 -0.6340
 7085SOL    HW132717   1.427   3.897   2.320 -1.0821  0.4835  2.2994
 7085SOL    HW232718   1.356   3.900   2.190 -1.4453  1.5298 -0.6132
 7086SOL     OW32719   4.704   4.231   3.156 -0.5534  0.4840 -0.4453
 7086SOL    HW132720   4.620   4.272   3.135 -1.3619 -0.6647  0.5483
 7086SOL    HW232721   0.015   4.196   3.076  1.2892  0.1090  0.6251
 7087SOL     OW32722   2.743   1.113  14.005  0.3168 -0.3394 -0.2884
 7087SOL    HW132723   2.781   1.058  13.936 -1.3813 -0.9422 -0.7344
 7087SOL    HW232724   2.702   1.188  13.961  1.0486  0.7728  0.8947
 7088SOL     OW32725   2.049   3.815   6.856 -0.0058 -0.6564 -0.0295
 7088SOL    HW132726   2.099   3.855   6.786  0.0402 -0.2831  0.2185
 7088SOL    HW232727   1.984   3.773   6.799 -1.5267  1.3486  0.2364
 7089SOL     OW32728   4.486   3.387   5.682 -0.1907  0.3354 -0.2717
 7089SOL    HW132729   4.495   3.476   5.717  1.0921 -1.2430  3.4153
 7089SOL    HW232730   4.578   3.362   5.682 -0.5117 -0.8697  0.9065
 7090SOL     OW32731   0.272   0.597  11.753 -0.1576  0.4420 -0.0968
 7090SOL    HW132732   0.236   0.685  11.758  0.4481  0.7367 -0.9251
 7090SOL    HW232733   0.205   0.543  11.711 -0.7703 -1.2264  3.0071
 7091SOL     OW32734   4.420   3.482  11.223  0.5168  0.6417  0.0446
 7091SOL    HW132735   4.376   3.553  11.177 -0.4106 -0.1026 -0.2018
 7091SOL    HW232736   4.501   3.484  11.172 -0.8118 -2.0855 -2.1332
 7092SOL     OW32737   1.562   2.061   2.272  0.1248 -0.0228 -0.8162
 7092SOL    HW132738   1.547   2.143   2.319  1.3834 -0.0040 -0.4411
 7092SOL    HW232739   1.492   2.073   2.208 -0.4607  0.5408 -0.0670
 7093SOL     OW32740   2.594   4.675   5.189  0.0935  0.0903 -0.5456
 7093SOL    HW132741   2.677   4.718   5.212 -0.8495  0.7443  1.6507
 7093SOL    HW232742   2.533   0.020   5.186  1.5919  1.3228 -0.6715
 7094SOL     OW32743   0.009   1.523   4.654 -0.1353  0.4453 -0.5503
 7094SOL    HW132744   4.682   1.535   4.578 -1.4734  0.0323  0.3557
 7094SOL    HW232745   0.096   1.534   4.616 -0.3836  2.7044 -0.4676
 7095SOL     OW32746   0.960   2.427   7.145  0.3497  0.5086  0.1958
 7095SOL    HW132747   1.012   2.393   7.073  1.8709  0.9091  1.1153
 7095SOL    HW232748   1.017   2.491   7.186  0.9220 -0.8926  1.5668
 7096SOL     OW32749   3.984   1.678  14.992  0.0772 -0.7409  0.0493
 7096SOL    HW132750   3.956   1.665  15.083 -0.7180 -0.8765 -0.2148
 7096SOL    HW232751   4.053   1.743  15.001 -0.2596 -0.6495  2.1766
 7097SOL     OW32752   3.214   2.908   6.277 -0.1612  0.7997  0.2375
 7097SOL    HW132753   3.256   2.822   6.270 -0.2351  0.6290  1.8781
 7097SOL    HW232754   3.128   2.896   6.237  0.8644 -0.7736 -1.4631
 7098SOL     OW32755   2.393   3.853  17.218 -0.2313  0.5924 -0.4430
 7098SOL    HW132756   2.332   3.853  17.144  0.3585 -1.3174 -0.9246
 7098SOL    HW232757   2.367   3.778  17.270 -0.2019  1.0617  0.2523
 7099SOL     OW32758   3.849   4.118   8.074 -0.4533 -0.5754  0.2265
 7099SOL    HW132759   3.770   4.154   8.115 -0.1108  1.2768 -0.7517
 7099SOL    HW232760   3.924   4.158   8.120 -0.6747  1.2591 -1.0246
 7100SOL     OW32761   1.289   2.161  11.124  0.2281  0.0368 -0.5207
 7100SOL    HW132762   1.245   2.173  11.040  0.0790  0.2087 -0.4161
 7100SOL    HW232763   1.231   2.225  11.164  0.1418 -0.4347  0.1065
 7101SOL     OW32764   3.638   1.803   0.256  0.1385 -0.2241 -0.6677
 7101SOL    HW132765   3.609   1.785   0.167 -0.4488 -0.4810 -0.4227
 7101SOL    HW232766   3.717   1.855   0.242 -1.2957  2.0157 -0.4702
 7102SOL     OW32767   0.289   1.581   8.589 -0.3807 -0.2163 -0.6079
 7102SOL    HW132768   0.277   1.673   8.563 -0.9668 -0.8064 -2.4014
 7102SOL    HW232769   0.383   1.573   8.574 -0.5604 -1.6412 -0.9240
 7103SOL     OW32770   3.729   2.622   9.812 -0.6446  0.3235  0.4078
 7103SOL    HW132771   3.801   2.574   9.854  1.3149  1.3431 -1.8143
 7103SOL    HW232772   3.775   2.701   9.783 -1.5970 -0.6881 -3.7886
 7104SOL     OW32773   0.665   1.166  16.386  0.2122 -0.0301 -0.5940
 7104SOL    HW132774   0.597   1.171  16.319  0.6073  1.8225 -0.8682
 7104SOL    HW232775   0.689   1.076  16.367 -0.0151  0.1079 -1.5141
 7105SOL     OW32776   4.406   0.122   6.930 -0.0676 -0.1528  0.2443
 7105SOL    HW132777   4.486   0.087   6.970  1.0664 -0.8068 -2.6083
 7105SOL    HW232778   4.434   0.140   6.840  0.7412  0.9067  0.7085
 7106SOL     OW32779   3.471   0.993   8.570 -0.1430  0.1408 -0.4818
 7106SOL    HW132780   3.404   1.051   8.606  1.3742  1.3663  0.3551
 7106SOL    HW232781   3.440   0.908   8.600  0.0691  0.7015  1.3135
 7107SOL     OW32782   2.953   2.233  15.452 -0.2975 -0.0975  0.7548
 7107SOL    HW132783   2.863   2.246  15.481 -1.1850 -0.5542 -1.8334
 7107SOL    HW232784   2.985   2.157  15.501  1.4018 -0.0408 -0.2861
 7108SOL     OW32785   4.254   2.645   7.422  0.7986 -0.1594 -0.4345
 7108SOL    HW132786   4.245   2.684   7.509 -1.4319  0.1829 -0.8363
 7108SOL    HW232787   4.200   2.703   7.367  0.1425 -0.9301 -0.5995
 7109SOL     OW32788   0.497   4.294  12.152  0.4936  0.5800 -0.5091
 7109SOL    HW132789   0.435   4.273  12.222  0.5528  1.5405 -0.1714
 7109SOL    HW232790   0.556   4.220  12.161  0.7731  1.0205  1.2340
 7110SOL     OW32791   0.145   2.906  16.283 -0.1739 -0.6140 -0.2103
 7110SOL    HW132792   0.102   2.992  16.289 -1.8016 -1.6306  2.9956
 7110SOL    HW232793   0.080   2.848  16.322 -0.1606 -0.3504  0.2123
 7111SOL     OW32794   2.616   0.728   3.724  0.6843 -0.3122  0.1425
 7111SOL    HW132795   2.580   0.816   3.733  0.0015 -0.3362 -2.4167
 7111SOL    HW232796   2.616   0.702   3.816 -2.3480  0.7331  0.4426
 7112SOL     OW32797   2.775   3.628   6.110 -0.0003  0.1111 -0.2493
 7112SOL    HW132798   2.799   3.649   6.200 -1.1262  1.1251 -0.1905
 7112SOL    HW232799   2.834   3.682   6.057  0.7247 -0.3740  0.0635
 7113SOL     OW32800   3.868   4.693   4.395  0.2148  0.8393  0.0974
 7113SOL    HW132801   3.791   4.637   4.389  1.9719 -1.3976 -1.2474
 7113SOL    HW232802   3.850   0.026   4.466 -3.6548 -1.8839  1.4497
 7114SOL     OW32803   2.935   4.016   5.347  0.2026  0.1062  0.3903
 7114SOL    HW132804   2.875   4.061   5.287 -0.4234 -0.2477  0.7539
 7114SOL    HW232805   2.911   4.056   5.431 -0.3300 -1.8680  1.1697
 7115SOL     OW32806   2.640   1.636   1.586 -0.4086  0.4536  0.1816
 7115SOL    HW132807   2.580   1.594   1.524 -0.3649  1.1409 -0.3334
 7115SOL    HW232808   2.628   1.730   1.570  0.6691  0.8505  1.6533
 7116SOL     OW32809   0.941   4.308  10.025  0.2046  0.1130  0.1106
 7116SOL    HW132810   0.854   4.321  10.062 -0.3247 -0.2257 -1.0311
 7116SOL    HW232811   0.932   4.339   9.935 -0.0302  0.0583  0.1167
 7117SOL     OW32812   2.448   3.451   1.954  0.0580 -0.0757 -0.2649
 7117SOL    HW132813   2.543   3.460   1.959 -0.0847  0.9191  0.6492
 7117SOL    HW232814   2.431   3.455   1.860  0.9456  0.0184 -0.4209
 7118SOL     OW32815   2.684   1.729   5.701  0.6165  0.3213 -0.1395
 7118SOL    HW132816   2.596   1.721   5.739  1.1428  0.5213  1.1152
 7118SOL    HW232817   2.719   1.654   5.750  0.1951  1.4174  1.8349
 7119SOL     OW32818   1.864   4.415   2.357 -0.0440  0.0318  0.5018
 7119SOL    HW132819   1.938   4.467   2.387  0.7018  0.3955 -1.9595
 7119SOL    HW232820   1.896   4.375   2.276  0.4330  1.7152 -0.1587
 7120SOL     OW32821   1.054   0.815   5.987 -0.5578 -0.4145  0.2454
 7120SOL    HW132822   1.053   0.720   5.987 -0.6760 -0.4170  0.6387
 7120SOL    HW232823   0.960   0.835   5.995 -0.2870 -0.1128  2.8592
 7121SOL     OW32824   3.281   2.905   2.914 -0.4950  0.0629  0.3869
 7121SOL    HW132825   3.315   2.963   2.982  0.5373 -1.7008  1.3644
 7121SOL    HW232826   3.343   2.832   2.909 -1.3732 -0.5802 -0.9205
 7122SOL     OW32827   2.698   1.181  14.917 -0.0838  0.3106  0.2935
 7122SOL    HW132828   2.781   1.142  14.945  0.6873  2.3560  0.8771
 7122SOL    HW232829   2.684   1.137  14.834 -1.4162 -0.4292  0.9141
 7123SOL     OW32830   0.303   3.471   9.534  0.1406 -0.0303 -0.2505
 7123SOL    HW132831   0.237   3.404   9.516  0.0788 -0.1207  0.2927
 7123SOL    HW232832   0.258   3.547   9.570  1.2273  0.3246  0.3357
 7124SOL     OW32833   4.025   1.391   3.910 -0.2323  0.6372 -0.0554
 7124SOL    HW132834   3.999   1.419   3.997  1.7793  3.0859 -0.2471
 7124SOL    HW232835   4.095   1.451   3.885  0.7582 -0.4710  0.0411
 7125SOL     OW32836   0.011   2.350  12.425  0.0048 -0.0835 -0.4720
 7125SOL    HW132837   0.086   2.352  12.485  0.2457 -1.0816 -0.7420
 7125SOL    HW232838   4.696   2.433  12.444  2.6738  0.6222  2.5002
 7126SOL     OW32839   0.051   3.828   0.759  0.4209  0.0756  0.3777
 7126SOL    HW132840   0.100   3.814   0.678 -1.4048  1.8777 -1.0472
 7126SOL    HW232841   0.077   3.746   0.801  0.2584  0.0042  0.3353
 7127SOL     OW32842   2.373   0.921   3.100 -0.2511  0.2047  0.3742
 7127SOL    HW132843   2.284   0.934   3.068  0.8575  0.8081 -2.4522
 7127SOL    HW232844   2.406   1.009   3.114 -0.1479  0.0650  1.0129
 7128SOL     OW32845   0.374   1.950   6.611 -0.1120  0.4072  0.1140
 7128SOL    HW132846   0.414   2.027   6.570  0.0103 -0.1581 -0.8180
 7128SOL    HW232847   0.427   1.933   6.688  0.2243 -1.4776 -0.5433
 7129SOL     OW32848   3.622   2.342   4.540  0.6107  0.2171  0.2524
 7129SOL    HW132849   3.625   2.437   4.548 -1.4600  0.5346 -2.6810
 7129SOL    HW232850   3.702   2.312   4.585 -0.9254 -1.7907  1.6405
 7130SOL     OW32851   3.371   0.247  11.391 -0.2154 -0.0797  0.1205
 7130SOL    HW132852   3.327   0.240  11.476  1.8047 -0.0443  1.1632
 7130SOL    HW232853   3.359   0.160  11.354 -0.3669  0.0888 -0.2319
 7131SOL     OW32854   2.435   2.773  10.802  0.0500 -0.1894  0.3966
 7131SOL    HW132855   2.438   2.855  10.752  1.1266  0.4259  1.4698
 7131SOL    HW232856   2.421   2.699  10.742  1.3507  0.6930 -0.9957
 7132SOL     OW32857   3.922   0.741   1.304 -0.0130 -0.1323  0.1444
 7132SOL    HW132858   3.829   0.758   1.287  0.5199  2.3822 -0.2091
 7132SOL    HW232859   3.946   0.693   1.225 -1.7021  0.7839 -0.9291
 7133SOL     OW32860   3.109   0.727   6.507 -0.6000  0.1889  0.4201
 7133SOL    HW132861   3.134   0.800   6.563 -2.2309  1.3786 -0.4221
 7133SOL    HW232862   3.108   0.773   6.423  1.5011 -0.5988 -0.0484
 7134SOL     OW32863   4.004   2.972   7.504  0.2939  0.2329  0.3558
 7134SOL    HW132864   4.049   3.056   7.500  0.2686  0.3078  1.7188
 7134SOL    HW232865   4.057   2.921   7.565 -0.7384  0.9195  1.8025
 7135SOL     OW32866   1.446   3.961   9.066  0.0571 -0.1952 -0.4197
 7135SOL    HW132867   1.537   3.937   9.081  0.5516  1.0773 -1.4570
 7135SOL    HW232868   1.418   3.992   9.153  0.4857 -0.6180 -0.1306
 7136SOL     OW32869   3.524   0.525  15.391  0.2596  0.4116  0.5611
 7136SOL    HW132870   3.537   0.586  15.318  1.1863 -2.4221 -1.6253
 7136SOL    HW232871   3.554   0.437  15.371 -0.8849  0.6058 -1.9780
 7137SOL     OW32872   1.053   1.941   8.453 -0.1551 -0.4674 -0.1229
 7137SOL    HW132873   1.095   2.024   8.427 -0.7971 -0.2009 -0.3055
 7137SOL    HW232874   1.116   1.912   8.519 -0.2711  1.9660  1.0771
 7138SOL     OW32875   1.133   2.386   2.014 -0.2236  0.5446  0.7070
 7138SOL    HW132876   1.045   2.381   1.979  0.0116  0.0070  0.1967
 7138SOL    HW232877   1.143   2.317   2.080 -0.6816  0.3371  0.5514
 7139SOL     OW32878   4.313   4.336   4.591  0.1393 -0.5311 -0.3848
 7139SOL    HW132879   4.301   4.271   4.521  0.6430 -1.5192  0.4449
 7139SOL    HW232880   4.382   4.295   4.643  0.2893  0.1991 -0.0137
 7140SOL     OW32881   2.515   0.361   4.518  0.0723  0.3043  0.1395
 7140SOL    HW132882   2.577   0.292   4.498  1.3066  1.9592 -1.6703
 7140SOL    HW232883   2.510   0.396   4.429  0.2424 -1.8108 -0.6902
 7141SOL     OW32884   1.716   3.009  14.981  0.2078  0.8189 -0.6707
 7141SOL    HW132885   1.777   2.957  15.034 -1.4193 -0.7421 -0.3359
 7141SOL    HW232886   1.767   3.088  14.964  1.0927  0.5776  0.8426
 7142SOL     OW32887   0.303   1.801  12.479 -0.0263  0.4752 -0.2109
 7142SOL    HW132888   0.392   1.830  12.459 -0.3615  1.3435 -0.4303
 7142SOL    HW232889   0.248   1.878  12.465  2.1130  2.1779  0.7964
 7143SOL     OW32890   1.503   4.691  13.377 -0.1388 -0.0938 -0.3468
 7143SOL    HW132891   1.425   4.644  13.406  0.3308 -1.3906 -1.1705
 7143SOL    HW232892   1.539   4.722  13.460 -0.9668 -0.7720  0.2689
 7144SOL     OW32893   2.261   1.593   1.778 -0.3721 -0.5065  0.0242
 7144SOL    HW132894   2.193   1.649   1.741  0.6536  0.2147 -0.7547
 7144SOL    HW232895   2.209   1.513   1.783  0.7344 -1.2671 -0.8775
 7145SOL     OW32896   2.123   3.660  11.404 -0.7918 -0.4870 -0.4020
 7145SOL    HW132897   2.171   3.738  11.432 -0.6834 -0.6687 -0.0820
 7145SOL    HW232898   2.194   3.598  11.386 -2.0532 -1.5269 -1.7930
 7146SOL     OW32899   2.900   2.121  15.736  0.4093  0.5952 -0.9797
 7146SOL    HW132900   2.863   2.036  15.759  1.3557 -0.3192 -2.7724
 7146SOL    HW232901   2.989   2.089  15.718  0.0825  0.0783 -1.6791
 7147SOL     OW32902   2.841   1.009   3.759  0.0286 -0.2118  0.0700
 7147SOL    HW132903   2.777   1.008   3.688 -2.7568  1.0569  2.5380
 7147SOL    HW232904   2.899   0.944   3.720 -2.0409 -1.3859 -1.0757
 7148SOL     OW32905   1.064   0.043   8.854 -0.3464  0.1922  0.1586
 7148SOL    HW132906   1.018   0.079   8.778  0.3336  1.2830  0.2607
 7148SOL    HW232907   1.155   0.047   8.824 -0.8027  1.1384 -1.0841
 7149SOL     OW32908   1.529   3.543   3.791 -0.4506  0.2497  0.2907
 7149SOL    HW132909   1.556   3.617   3.737  0.2108  0.5689  1.0659
 7149SOL    HW232910   1.581   3.563   3.869 -0.8026 -1.8222  1.0786
 7150SOL     OW32911   0.940   0.864  17.386  0.1606 -0.1062 -0.9470
 7150SOL    HW132912   0.976   0.859  17.298 -0.0373 -0.6129 -1.0051
 7150SOL    HW232913   0.913   0.773  17.401 -2.5353  0.5896 -1.5036
 7151SOL     OW32914   0.495   2.506   3.719 -0.4671 -0.0020 -0.2209
 7151SOL    HW132915   0.426   2.495   3.785 -0.4905 -0.2299 -0.2844
 7151SOL    HW232916   0.503   2.602   3.720  0.7393 -0.0996 -0.5709
 7152SOL     OW32917   0.567   3.848   7.261 -0.1468 -0.1969  0.4053
 7152SOL    HW132918   0.610   3.932   7.245 -1.1096 -0.0670 -1.4442
 7152SOL    HW232919   0.484   3.876   7.299 -0.9983 -0.6858 -1.1276
 7153SOL     OW32920   3.702   2.965  17.458 -0.6682  0.3428 -0.1817
 7153SOL    HW132921   3.657   2.937  17.538 -2.6267  1.3596 -0.9212
 7153SOL    HW232922   3.642   3.035  17.432 -2.8667 -0.9735  1.3164
 7154SOL     OW32923   1.189   1.333   3.357  0.1284 -0.2411 -0.3670
 7154SOL    HW132924   1.128   1.350   3.429  0.4172 -0.8291  0.0247
 7154SOL    HW232925   1.132   1.332   3.281 -0.9164 -2.2860  0.4241
 7155SOL     OW32926   2.033   0.987   1.510  0.0880  0.0098 -0.1115
 7155SOL    HW132927   2.013   0.931   1.584  2.3758  0.9963  1.2445
 7155SOL    HW232928   2.128   0.981   1.509  0.0668 -0.4771  2.1966
 7156SOL     OW32929   4.620   0.611   4.317  0.1077 -0.4539 -0.2207
 7156SOL    HW132930   4.708   0.596   4.352 -0.3474  1.6580  1.8093
 7156SOL    HW232931   4.628   0.609   4.222  2.1478 -0.8665 -0.0552
 7157SOL     OW32932   4.645   2.247   3.193  0.5085  0.1027 -0.8108
 7157SOL    HW132933   4.639   2.159   3.230 -3.9947  0.8004  0.2243
 7157SOL    HW232934   4.568   2.288   3.233 -0.2410 -2.3048  0.1893
 7158SOL     OW32935   4.013   0.846   7.797 -0.2058  0.4679  0.2700
 7158SOL    HW132936   3.919   0.845   7.777  0.0924  0.2667 -1.0760
 7158SOL    HW232937   4.032   0.753   7.803 -0.8265  0.2539 -1.0591
 7159SOL     OW32938   4.666   1.240  13.433 -0.1237 -1.0598  0.3521
 7159SOL    HW132939   4.630   1.303  13.370 -2.2601 -1.7800  0.8257
 7159SOL    HW232940   0.025   1.226  13.399 -0.4712 -0.8210 -0.6483
 7160SOL     OW32941   1.021   2.041   4.725 -0.1141 -0.0745 -0.5448
 7160SOL    HW132942   1.067   2.101   4.666 -0.5189 -2.1061 -2.8922
 7160SOL    HW232943   0.932   2.074   4.712  0.9131  3.0973  0.3409
 7161SOL     OW32944   2.010   3.759   4.690 -0.4314  0.9116  0.2913
 7161SOL    HW132945   2.101   3.787   4.677 -0.3227  0.7015  0.6023
 7161SOL    HW232946   2.019   3.681   4.744 -0.8817  0.2129 -0.6411
 7162SOL     OW32947   3.171   1.296   7.022 -0.0996  0.4124  0.1394
 7162SOL    HW132948   3.096   1.356   7.028 -0.2776  0.1734  0.2820
 7162SOL    HW232949   3.223   1.334   6.952  1.9165  0.2456  1.5503
 7163SOL     OW32950   3.814   3.434  14.453 -0.7502 -0.1784  0.4107
 7163SOL    HW132951   3.792   3.527  14.451  1.3054  0.3116  0.2746
 7163SOL    HW232952   3.863   3.425  14.534 -0.7474 -1.8454  0.2212
 7164SOL     OW32953   2.616   2.431   8.224 -0.3137 -0.3131 -0.7542
 7164SOL    HW132954   2.522   2.434   8.239 -0.1691  1.9194 -0.2750
 7164SOL    HW232955   2.623   2.384   8.141 -0.1831  1.3634 -1.7000
 7165SOL     OW32956   2.430   1.621  17.344  0.0844 -0.0905  0.2503
 7165SOL    HW132957   2.451   1.535  17.308 -0.9697 -0.6362  0.9186
 7165SOL    HW232958   2.424   1.679  17.269  2.2222 -0.4173 -0.1610
 7166SOL     OW32959   1.357   4.090  11.600  0.4960  0.0873 -0.1500
 7166SOL    HW132960   1.341   4.025  11.667  1.1428 -0.9819 -1.0305
 7166SOL    HW232961   1.270   4.118  11.572  0.2860 -0.7507 -0.3249
 7167SOL     OW32962   2.794   3.581   9.045  0.1022  0.1900  0.4898
 7167SOL    HW132963   2.809   3.490   9.017 -0.6147 -0.2195  1.4239
 7167SOL    HW232964   2.878   3.593   9.089  1.3303  0.8206 -2.0055
 7168SOL     OW32965   4.007   0.697   1.031 -0.4918 -0.0186  0.1419
 7168SOL    HW132966   3.931   0.749   1.005 -1.2774 -1.3561 -0.2422
 7168SOL    HW232967   3.979   0.614   0.993  0.7219  1.5472 -4.1648
 7169SOL     OW32968   1.034   2.299  14.018  0.2261 -0.3384 -0.0800
 7169SOL    HW132969   1.070   2.306  14.107 -1.1142 -1.3034  0.5518
 7169SOL    HW232970   1.110   2.264  13.971 -1.5855 -1.0727 -2.4477
 7170SOL     OW32971   1.737   1.934  14.406  0.1712 -0.8901  0.4216
 7170SOL    HW132972   1.814   1.887  14.438  0.2050 -0.1190  1.4560
 7170SOL    HW232973   1.757   2.027  14.416 -4.0910  0.2281 -1.1385
 7171SOL     OW32974   3.709   2.421   9.041  0.6156  0.1601  0.2754
 7171SOL    HW132975   3.655   2.345   9.062  0.9334 -0.1613 -0.0771
 7171SOL    HW232976   3.795   2.388   9.065  0.1777 -1.4111 -0.2849
 7172SOL     OW32977   4.177   2.891   5.432 -0.1677 -0.1765 -0.2616
 7172SOL    HW132978   4.147   2.807   5.397 -0.6992 -0.0225 -0.1818
 7172SOL    HW232979   4.106   2.893   5.497 -0.3207  2.0851 -0.4786
 7173SOL     OW32980   4.091   1.407   3.201  0.3898 -0.2978 -0.8595
 7173SOL    HW132981   4.007   1.437   3.167 -0.3106 -0.0271  1.0797
 7173SOL    HW232982   4.086   1.313   3.187  1.1174 -0.4035 -0.4229
 7174SOL     OW32983   2.742   2.914  15.897  0.5167  0.0191  0.5257
 7174SOL    HW132984   2.704   2.861  15.827  0.5170  1.6380 -0.7034
 7174SOL    HW232985   2.687   2.917  15.976 -1.2681 -1.2453 -0.6479
 7175SOL     OW32986   0.652   4.500   0.755  0.1467  0.2788 -0.0763
 7175SOL    HW132987   0.662   4.559   0.830  1.7993 -2.2702  1.7149
 7175SOL    HW232988   0.621   4.421   0.799  1.3173 -0.1868 -0.1170
 7176SOL     OW32989   0.694   3.589  16.499 -0.0453 -0.4356 -0.4266
 7176SOL    HW132990   0.699   3.508  16.551  1.0278 -0.0777  0.0203
 7176SOL    HW232991   0.762   3.577  16.433  0.7445 -1.3028  0.5403
 7177SOL     OW32992   0.403   1.995  11.061 -0.5193 -0.1138 -0.9774
 7177SOL    HW132993   0.482   1.958  11.024  1.8328  3.6827  0.2128
 7177SOL    HW232994   0.396   2.070  11.002 -0.2391  0.4357 -0.3184
 7178SOL     OW32995   2.264   3.251   5.106 -0.0163  0.1636 -0.2749
 7178SOL    HW132996   2.181   3.217   5.074  0.1025  1.0305 -1.5147
 7178SOL    HW232997   2.253   3.243   5.201 -3.3007 -3.7239 -1.0213
 7179SOL     OW32998   1.652   4.601   5.332  0.1036  0.1684  0.8068
 7179SOL    HW132999   1.577   4.544   5.344 -0.8134  0.7441 -2.1305
 7179SOL    HW233000   1.709   4.546   5.277  0.3813  1.5265 -0.2721
 7180SOL     OW33001   1.026   2.220  15.299  0.1627 -0.3587  0.4297
 7180SOL    HW133002   1.052   2.236  15.390  2.2444 -1.0535 -0.0307
 7180SOL    HW233003   1.107   2.186  15.259 -0.4395  0.2418 -1.2828
 7181SOL     OW33004   4.456   4.001   2.711 -0.6089 -0.3810 -0.0178
 7181SOL    HW133005   4.378   3.958   2.746 -0.0059  0.3648  2.2095
 7181SOL    HW233006   4.514   3.927   2.696 -0.2194 -0.3102  1.1759
 7182SOL     OW33007   3.553   3.099   6.910  0.3384  0.1163 -0.0638
 7182SOL    HW133008   3.641   3.117   6.876  1.2858  0.2700  2.4932
 7182SOL    HW233009   3.556   3.144   6.994  0.8145 -4.3046  2.3152
 7183SOL     OW33010   4.126   1.072   6.722  0.1544  0.3919 -0.0155
 7183SOL    HW133011   4.095   0.983   6.705 -0.3128  0.7985 -1.3161
 7183SOL    HW233012   4.182   1.058   6.798  2.2359 -0.5500 -1.7431
 7184SOL     OW33013   4.158   1.433   2.461  0.4929 -0.0132  0.9156
 7184SOL    HW133014   4.097   1.360   2.460 -1.4171  1.6087 -0.5891
 7184SOL    HW233015   4.125   1.485   2.388  2.1846  0.1821  0.2786
 7185SOL     OW33016   2.578   2.906   1.804  0.4083 -0.0330 -0.6544
 7185SOL    HW133017   2.499   2.932   1.852  1.1921  1.5438 -0.2107
 7185SOL    HW233018   2.550   2.947   1.723 -0.9622  1.4901  0.5815
 7186SOL     OW33019   3.412   3.909   0.275 -0.0484 -0.2933  0.5733
 7186SOL    HW133020   3.410   3.906   0.179 -0.8570 -0.2125  0.5944
 7186SOL    HW233021   3.465   3.830   0.290 -0.5112 -0.5367  0.9142
 7187SOL     OW33022   0.485   4.659  12.068  0.2416 -0.1269  0.5332
 7187SOL    HW133023   0.455   4.569  12.056 -0.1488 -0.1972  2.0820
 7187SOL    HW233024   0.574   4.650  12.100  0.9170 -0.2239 -1.3443
 7188SOL     OW33025   4.077   1.791   8.851 -0.1331  0.2999  0.0407
 7188SOL    HW133026   4.007   1.839   8.806 -1.1474 -1.4054 -0.1989
 7188SOL    HW233027   4.153   1.816   8.798  1.5206 -0.5810  2.0054
 7189SOL     OW33028   2.253   0.463   8.962  0.2866  0.2684  0.3219
 7189SOL    HW133029   2.240   0.368   8.970 -0.0843  0.2119 -0.9794
 7189SOL    HW233030   2.277   0.487   9.052  2.9057 -1.9229  0.2089
 7190SOL     OW33031   3.016   4.471   6.866  0.4647 -1.0977 -0.6222
 7190SOL    HW133032   3.037   4.406   6.800  0.2644 -1.1524 -0.6341
 7190SOL    HW233033   3.034   4.558   6.831  1.1057 -1.6495 -1.6304
 7191SOL     OW33034   1.105   1.448   5.278 -0.1236 -0.2311 -0.8488
 7191SOL    HW133035   1.015   1.424   5.303  0.2729  0.1281  0.9551
 7191SOL    HW233036   1.155   1.368   5.291 -1.4870 -0.4038  3.2883
 7192SOL     OW33037   3.041   1.199  10.746  0.3532  0.2103  0.1785
 7192SOL    HW133038   3.099   1.260  10.700 -1.1129  0.3831 -1.4223
 7192SOL    HW233039   3.078   1.114  10.724 -2.3926 -0.9038 -0.1705
 7193SOL     OW33040   3.047   2.540   4.517  0.4654 -0.1907 -0.4665
 7193SOL    HW133041   2.976   2.501   4.466  0.7052  0.3044 -1.1736
 7193SOL    HW233042   3.013   2.544   4.607  0.2897  1.5283 -0.6127
 7194SOL     OW33043   2.471   1.396   5.923 -0.5956 -0.2789 -0.1697
 7194SOL    HW133044   2.395   1.374   5.977 -0.2494  0.2332  0.5256
 7194SOL    HW233045   2.468   1.491   5.922  0.4319 -0.2524 -1.1597
 7195SOL     OW33046   3.656   4.065  16.588 -0.6135 -0.4416 -0.8651
 7195SOL    HW133047   3.646   3.973  16.612  1.8852 -0.7184 -0.8890
 7195SOL    HW233048   3.751   4.077  16.581 -0.2746 -2.4373  0.3430
 7196SOL     OW33049   3.945   3.682   8.326 -0.4646  0.1364 -0.0346
 7196SOL    HW133050   3.929   3.770   8.293 -0.9630 -0.4069 -1.2136
 7196SOL    HW233051   4.031   3.662   8.290 -0.0013  1.0499  0.5482
 7197SOL     OW33052   1.230   1.609   6.153  0.0826  0.0437  0.0617
 7197SOL    HW133053   1.152   1.659   6.127 -0.6533 -1.1714 -0.0886
 7197SOL    HW233054   1.288   1.683   6.171  0.5583 -0.5552  0.9733
 7198SOL     OW33055   3.678   2.817   0.762  0.3964  0.0406  0.1636
 7198SOL    HW133056   3.687   2.838   0.855  0.9063 -0.0723  0.1384
 7198SOL    HW233057   3.634   2.898   0.734  0.4254  0.0273  0.0778
 7199SOL     OW33058   4.561   4.104   7.254 -0.2469 -0.0546 -0.0958
 7199SOL    HW133059   4.480   4.087   7.302  0.2334 -0.1565  0.6875
 7199SOL    HW233060   4.633   4.081   7.313  0.8605  1.4530 -0.8616
 7200SOL     OW33061   2.952   0.467  17.092  0.9281  0.1168 -0.1756
 7200SOL    HW133062   3.047   0.465  17.093  0.9185 -0.9936 -1.7394
 7200SOL    HW233063   2.930   0.512  17.174 -0.0580 -0.8926  0.1114
 7201SOL     OW33064   4.240   3.996   5.288  0.2961 -0.2665 -0.4322
 7201SOL    HW133065   4.246   4.038   5.374 -2.2691 -0.0507 -0.3552
 7201SOL    HW233066   4.332   4.002   5.262  0.7143 -1.5300  0.7368
 7202SOL     OW33067   0.106   2.280   4.593  0.4450 -0.1789 -0.0001
 7202SOL    HW133068   0.198   2.286   4.620  0.7878  0.4927 -1.3206
 7202SOL    HW233069   0.066   2.312   4.673 -1.2025  0.1624 -0.9597
 7203SOL     OW33070   0.342   2.723   6.803  0.3170  0.3741 -0.1487
 7203SOL    HW133071   0.322   2.679   6.886 -1.3828 -0.3288 -0.9198
 7203SOL    HW233072   0.296   2.667   6.740  1.3501 -0.9048  0.2380
 7204SOL     OW33073   1.553   1.090   8.144  0.3283  0.0281  0.2151
 7204SOL    HW133074   1.622   1.075   8.208  0.1757 -0.3228  0.2968
 7204SOL    HW233075   1.508   1.165   8.185  0.0565 -0.4875  0.8569
 7205SOL     OW33076   1.809   1.902   7.142 -0.0877  0.2257  0.4289
 7205SOL    HW133077   1.805   1.968   7.211 -1.2017  1.0436 -0.4138
 7205SOL    HW233078   1.904   1.893   7.137  0.1279  2.8976 -0.2988
 7206SOL     OW33079   4.653   3.825  10.264 -0.3707  0.8655 -0.3319
 7206SOL    HW133080   4.716   3.776  10.211  0.0243  0.3938  0.5606
 7206SOL    HW233081   4.579   3.825  10.203 -1.0072  1.1242  0.4387
 7207SOL     OW33082   0.913   3.242   5.237  0.2234  0.2947 -0.2909
 7207SOL    HW133083   0.885   3.166   5.186 -2.2867  0.3109  1.0701
 7207SOL    HW233084   0.966   3.209   5.309  1.1448  0.6818 -0.7925
 7208SOL     OW33085   0.770   2.008   6.946  0.0677 -0.2701 -0.0279
 7208SOL    HW133086   0.788   2.014   7.040  3.0157  2.9253 -0.7917
 7208SOL    HW233087   0.843   2.055   6.905  1.3970 -0.9392  1.5881
 7209SOL     OW33088   3.377   1.113   7.495  0.0782 -0.2199 -0.6220
 7209SOL    HW133089   3.317   1.136   7.424  1.9336  0.2842 -2.0402
 7209SOL    HW233090   3.336   1.121   7.581 -1.1235  0.8923 -1.3047
 7210SOL     OW33091   3.318   3.482   4.551  0.2682  0.3733 -0.2335
 7210SOL    HW133092   3.395   3.533   4.574  0.1969  0.0086  0.7748
 7210SOL    HW233093   3.259   3.543   4.596 -2.0916 -1.4819 -0.7623
 7211SOL     OW33094   2.118   2.528   3.294  0.1863 -0.3450 -0.0112
 7211SOL    HW133095   2.062   2.592   3.249 -0.7221 -1.9686 -1.1804
 7211SOL    HW233096   2.069   2.515   3.375  1.9683 -0.4834  1.0459
 7212SOL     OW33097   2.424   3.269  16.691 -0.4934  0.0249 -0.6789
 7212SOL    HW133098   2.420   3.322  16.771  1.4084  0.2685 -0.7578
 7212SOL    HW233099   2.335   3.283  16.659 -1.1739 -0.5847  0.9519
 7213SOL     OW33100   1.865   0.796  11.531 -0.1982  0.0178  0.4618
 7213SOL    HW133101   1.960   0.808  11.532 -0.0435 -1.1448 -1.1947
 7213SOL    HW233102   1.846   0.828  11.619 -1.1371  0.2920  0.1516
 7214SOL     OW33103   2.900   2.824  11.140  0.0595  0.4631  0.1474
 7214SOL    HW133104   2.971   2.829  11.076  0.9849  1.0134  1.2364
 7214SOL    HW233105   2.954   2.829  11.218 -1.8256  2.2178  1.3203
 7215SOL     OW33106   0.446   4.028   9.991 -0.0480 -0.0021 -0.3654
 7215SOL    HW133107   0.462   3.946  10.037 -1.5921 -0.6719 -1.0396
 7215SOL    HW233108   0.356   4.048  10.015  0.1810  1.0786 -0.4038
 7216SOL     OW33109   1.242   3.035   1.006 -0.4475  0.3297  0.1374
 7216SOL    HW133110   1.246   2.960   1.065 -1.7234 -0.0045 -0.1981
 7216SOL    HW233111   1.327   3.016   0.966 -1.4174 -2.2812 -0.6634
 7217SOL     OW33112   2.294   3.806   5.446 -0.1523  0.0916  0.5709
 7217SOL    HW133113   2.387   3.789   5.459  0.1434 -0.5495 -2.2846
 7217SOL    HW233114   2.278   3.860   5.523  0.6740  1.8555 -0.4823
 7218SOL     OW33115   3.783   3.466   8.619 -0.1537  0.1979 -0.0917
 7218SOL    HW133116   3.746   3.502   8.537  0.1462  1.3257  0.2721
 7218SOL    HW233117   3.704   3.473   8.673  0.2706 -0.7242  0.6260
 7219SOL     OW33118   4.536   4.628  12.185  0.4670  0.0361 -0.0359
 7219SOL    HW133119   4.497   4.698  12.236 -0.8435 -0.3342 -0.5265
 7219SOL    HW233120   4.629   4.633  12.208  0.1624 -2.9173  1.8534
 7220SOL     OW33121   3.718   4.041   8.616 -0.3101 -0.5447 -0.3420
 7220SOL    HW133122   3.713   3.947   8.635  2.5584 -1.5718 -4.7104
 7220SOL    HW233123   3.806   4.050   8.578  0.3521 -2.6500  0.6870
 7221SOL     OW33124   1.984   1.894   2.456  0.2095 -0.2549  0.1752
 7221SOL    HW133125   2.069   1.910   2.415 -0.3269 -1.2326 -1.3429
 7221SOL    HW233126   1.938   1.848   2.385 -3.4916  1.0332  1.7060
 7222SOL     OW33127   0.531   3.274  15.071 -0.5498  0.7457  0.1473
 7222SOL    HW133128   0.606   3.215  15.076 -0.7450  0.3522 -1.6016
 7222SOL    HW233129   0.541   3.332  15.147  2.2326  0.1259  0.2447
 7223SOL     OW33130   3.342   2.934   8.912  0.2192  0.8037  0.0220
 7223SOL    HW133131   3.423   2.905   8.953 -1.2620 -1.8405  1.1297
 7223SOL    HW233132   3.352   2.882   8.832  2.1323 -0.0667  0.8247
 7224SOL     OW33133   4.353   3.255   0.732  0.0515  0.5657 -0.1332
 7224SOL    HW133134   4.369   3.297   0.816 -1.5936 -0.9790  0.9684
 7224SOL    HW233135   4.432   3.201   0.729 -0.7622 -0.5813 -1.1149
 7225SOL     OW33136   0.303   0.903  13.060 -0.3738 -0.9894 -0.0988
 7225SOL    HW133137   0.387   0.883  13.101 -1.7619  0.9337  3.6637
 7225SOL    HW233138   0.311   0.992  13.027  2.0265 -0.4392  1.9676
 7226SOL     OW33139   1.959   3.902   2.878  0.4119  0.4135  0.0408
 7226SOL    HW133140   1.902   3.828   2.903 -0.2196  0.7082 -0.5226
 7226SOL    HW233141   2.011   3.866   2.807 -0.4603  1.3716 -1.0695
 7227SOL     OW33142   1.767   3.109   0.629  0.5554 -0.1940 -0.5641
 7227SOL    HW133143   1.680   3.139   0.602  0.1781 -1.1355 -0.4028
 7227SOL    HW233144   1.804   3.197   0.625 -0.9066  0.4516  0.2499
 7228SOL     OW33145   4.474   2.251   7.724  0.2130  0.3284 -0.2745
 7228SOL    HW133146   4.534   2.325   7.715 -1.3359  1.3593 -2.0180
 7228SOL    HW233147   4.539   2.189   7.690 -0.4054 -0.7556  0.5218
 7229SOL     OW33148   4.268   4.018   1.229 -0.3074 -0.6421  0.4893
 7229SOL    HW133149   4.241   3.939   1.183 -0.6210 -0.3754  0.2157
 7229SOL    HW233150   4.295   4.070   1.153  0.9131  0.9995  2.0470
 7230SOL     OW33151   3.338   2.846   7.641 -0.2512  0.0304 -0.2049
 7230SOL    HW133152   3.403   2.849   7.571  0.4734 -4.8857  0.2875
 7230SOL    HW233153   3.322   2.752   7.652 -0.1078  0.0876  0.5016
 7231SOL     OW33154   3.491   3.546   3.339 -0.0407 -0.1660 -0.1579
 7231SOL    HW133155   3.472   3.620   3.397  1.0380  1.5324 -1.9704
 7231SOL    HW233156   3.454   3.476   3.392  0.8582  0.1548  0.9065
 7232SOL     OW33157   3.947   1.422   4.157  0.0708 -0.4897 -0.3095
 7232SOL    HW133158   3.878   1.364   4.124 -0.4833  0.2494 -0.4290
 7232SOL    HW233159   3.918   1.430   4.248  0.8271  0.5591 -0.1673
 7233SOL     OW33160   2.836   3.135   4.567 -0.2995 -1.2600  0.2623
 7233SOL    HW133161   2.786   3.216   4.555  2.1176  0.4889  1.8191
 7233SOL    HW233162   2.853   3.111   4.476 -1.4563 -1.3550  0.0711
 7234SOL     OW33163   3.885   0.083  11.887  0.4722  0.0642  0.6931
 7234SOL    HW133164   3.905   0.017  11.821 -1.3225  1.5998 -1.3508
 7234SOL    HW233165   3.835   0.036  11.955 -1.0211 -0.7676 -0.9982
 7235SOL     OW33166   1.945   4.071   3.531 -0.0336 -0.4223  0.2234
 7235SOL    HW133167   1.954   4.004   3.598 -1.5081 -0.1565  0.6719
 7235SOL    HW233168   1.881   4.028   3.475  0.0154 -0.1277 -0.0605
 7236SOL     OW33169   2.088   0.398  13.866  0.0916  0.3275  0.3438
 7236SOL    HW133170   2.143   0.475  13.850  0.2271  0.0894 -0.3148
 7236SOL    HW233171   2.120   0.353  13.944  1.6962 -0.1551 -0.6127
 7237SOL     OW33172   4.065   1.480   2.701 -0.0661  0.5532 -0.7761
 7237SOL    HW133173   3.987   1.433   2.672  0.6211 -0.0983 -1.6052
 7237SOL    HW233174   4.116   1.492   2.621  0.5115  0.2162 -0.4589
 7238SOL     OW33175   3.714   4.239   4.287 -0.0878  0.6503 -0.0071
 7238SOL    HW133176   3.764   4.158   4.274 -0.7908 -0.2499  2.8500
 7238SOL    HW233177   3.672   4.265   4.205 -0.1022  0.0905 -0.1765
 7239SOL     OW33178   0.361   0.628   9.852  0.3390  0.7765  0.4944
 7239SOL    HW133179   0.456   0.612   9.848  0.3298  0.9054 -0.3881
 7239SOL    HW233180   0.344   0.720   9.872  1.0091  1.4159 -1.8546
 7240SOL     OW33181   3.369   4.700   8.050  0.0615  0.0646  0.0114
 7240SOL    HW133182   3.407   4.667   7.968 -1.3705 -0.0315 -0.6100
 7240SOL    HW233183   3.439   0.028   8.084 -0.1055  0.2645  0.0230
 7241SOL     OW33184   1.530   1.354   7.526  0.1804  0.4839  0.0872
 7241SOL    HW133185   1.499   1.344   7.436  0.1632 -1.3588  0.3080
 7241SOL    HW233186   1.554   1.446   7.517 -0.2492  0.6915  1.0590
 7242SOL     OW33187   0.417   1.062   0.763 -1.0314  0.5243 -0.0135
 7242SOL    HW133188   0.412   1.033   0.854  0.2368 -1.9236 -0.6996
 7242SOL    HW233189   0.447   1.152   0.777 -0.5376  0.2286  0.8723
 7243SOL     OW33190   3.262   1.987   2.119  0.0856 -0.0284 -0.5961
 7243SOL    HW133191   3.290   1.928   2.048  2.4010 -0.0197  0.3084
 7243SOL    HW233192   3.314   2.063   2.094 -0.8236  0.9537  0.5099
 7244SOL     OW33193   3.493   0.466  14.615 -0.1899  0.6586  0.6113
 7244SOL    HW133194   3.420   0.452  14.555  0.3036  0.9304 -0.0538
 7244SOL    HW233195   3.497   0.385  14.665  1.7927  0.0833 -0.4659
 7245SOL     OW33196   2.534   2.754   0.499 -0.0779  0.0460  0.6755
 7245SOL    HW133197   2.533   2.675   0.553  1.6050  0.0223  0.6768
 7245SOL    HW233198   2.585   2.721   0.425 -1.7572 -0.8541 -0.0829
 7246SOL     OW33199   0.930   2.138   9.624 -0.1608  0.5262  0.1938
 7246SOL    HW133200   0.970   2.190   9.554 -1.1579 -1.2329 -1.6895
 7246SOL    HW233201   0.889   2.210   9.671 -1.3202 -0.6473  0.9994
 7247SOL     OW33202   1.034   0.736  10.267  0.1168 -0.3069  0.1895
 7247SOL    HW133203   1.047   0.772  10.355 -1.1977  1.0073 -0.1653
 7247SOL    HW233204   0.948   0.772  10.249  1.1680  2.1623  0.1417
 7248SOL     OW33205   2.283   4.172  13.486  0.3876 -0.3199  0.7856
 7248SOL    HW133206   2.250   4.251  13.443  0.7013 -1.7152 -1.9942
 7248SOL    HW233207   2.343   4.151  13.415 -1.6606  1.3674 -1.4398
 7249SOL     OW33208   3.658   1.273   4.769  0.0108  0.2102  0.2202
 7249SOL    HW133209   3.634   1.189   4.807 -0.7330  0.3662  0.0920
 7249SOL    HW233210   3.576   1.308   4.735 -0.6561 -1.3609  0.2370
 7250SOL     OW33211   1.601   2.263  12.589  0.3104  0.3415  0.5963
 7250SOL    HW133212   1.593   2.197  12.519 -2.6251 -0.1188  1.3491
 7250SOL    HW233213   1.686   2.239  12.626  0.6310  1.7535  0.7752
 7251SOL     OW33214   1.518   2.821   6.769 -0.0345 -0.6140  0.1291
 7251SOL    HW133215   1.444   2.795   6.714 -0.7742  0.6877  0.5208
 7251SOL    HW233216   1.473   2.884   6.825  2.1573  1.4844 -0.5029
 7252SOL     OW33217   0.327   2.782  14.194 -0.7078  0.5175 -0.6142
 7252SOL    HW133218   0.236   2.765  14.170 -1.5845  0.4588  2.7395
 7252SOL    HW233219   0.349   2.691  14.214  2.1649  1.1818 -0.7757
 7253SOL     OW33220   0.803   4.305   5.450 -0.0015  0.4631  0.0945
 7253SOL    HW133221   0.721   4.310   5.402  0.8468  3.0615 -1.1056
 7253SOL    HW233222   0.804   4.212   5.470 -0.5142  0.2927 -0.6668
 7254SOL     OW33223   3.930   4.593   5.727 -0.4921  0.5444  0.7935
 7254SOL    HW133224   3.868   4.551   5.667 -1.1655  0.6911  1.3871
 7254SOL    HW233225   3.885   4.589   5.811  1.0280 -0.1319  1.5821
 7255SOL     OW33226   4.479   2.715   6.945 -0.1771  0.0589  0.9617
 7255SOL    HW133227   4.532   2.755   7.014  0.3981  1.8950 -0.5548
 7255SOL    HW233228   4.554   2.684   6.893 -2.8484 -1.3922 -2.0404
 7256SOL     OW33229   0.292   3.187   2.793  0.3432 -0.3893 -0.0293
 7256SOL    HW133230   0.267   3.128   2.864 -0.2810  1.0035  0.9050
 7256SOL    HW233231   0.360   3.246   2.825 -0.1699  0.5975 -0.7509
 7257SOL     OW33232   0.504   2.123  14.794 -0.2191  0.5334 -1.0697
 7257SOL    HW133233   0.484   2.217  14.802  0.6216  0.6297  0.0305
 7257SOL    HW233234   0.591   2.105  14.829  0.0280 -0.7068 -2.3233
 7258SOL     OW33235   3.324   3.549   5.672  0.0479  0.0781 -0.3464
 7258SOL    HW133236   3.366   3.623   5.716  0.1324  0.5387 -1.1996
 7258SOL    HW233237   3.354   3.566   5.583  1.3999 -1.8704 -0.2653
 7259SOL     OW33238   0.094   2.848   9.311  0.1952 -0.1868  0.4253
 7259SOL    HW133239   0.006   2.848   9.274  0.5032  1.3171 -0.3090
 7259SOL    HW233240   0.110   2.942   9.320 -0.1627  0.0983 -1.9030
 7260SOL     OW33241   2.384   3.905  15.936  0.2119 -0.2796  0.3744
 7260SOL    HW133242   2.430   3.821  15.927  1.8927  0.7868 -1.0431
 7260SOL    HW233243   2.459   3.958  15.964  0.2897  0.3154 -0.9250
 7261SOL     OW33244   2.290   2.765   0.384 -0.1724  0.0797 -0.2877
 7261SOL    HW133245   2.257   2.836   0.438 -0.4102 -0.7622  0.6784
 7261SOL    HW233246   2.378   2.750   0.418 -0.2147 -2.2429 -1.1897
 7262SOL     OW33247   2.506   2.117  14.500 -0.4830 -0.6886 -0.2270
 7262SOL    HW133248   2.513   2.049  14.432 -2.1943  0.6622 -1.7709
 7262SOL    HW233249   2.426   2.159  14.466 -1.2168 -0.1923  2.1624
 7263SOL     OW33250   0.271   4.566  11.860 -0.0183  0.2147  0.0743
 7263SOL    HW133251   0.289   4.473  11.873 -4.0241 -0.3189  1.9832
 7263SOL    HW233252   0.183   4.579  11.895  0.0281 -2.7182  1.3171
 7264SOL     OW33253   3.631   4.459  14.922 -0.0806  0.2104  0.2555
 7264SOL    HW133254   3.625   4.459  14.827 -0.9703 -1.3378  0.3075
 7264SOL    HW233255   3.559   4.521  14.936 -0.9210 -0.9599  1.2119
 7265SOL     OW33256   1.644   1.089   8.606  0.0661  0.0769  0.2041
 7265SOL    HW133257   1.606   1.161   8.655 -1.5577 -1.5899  1.3769
 7265SOL    HW233258   1.607   1.013   8.650 -3.2556  1.3997 -0.3391
 7266SOL     OW33259   2.614   4.031   1.091 -0.5682  0.0450 -0.6106
 7266SOL    HW133260   2.598   3.947   1.134  0.5763  0.4979  0.7210
 7266SOL    HW233261   2.687   4.018   1.030 -0.1428  0.3683 -0.1721
 7267SOL     OW33262   1.756   2.347   2.445  0.3517  0.0334  0.1175
 7267SOL    HW133263   1.829   2.286   2.457 -1.0310 -2.1983 -2.8586
 7267SOL    HW233264   1.757   2.380   2.535 -0.2542  0.7451 -0.1330
 7268SOL     OW33265   1.482   0.009  16.902 -0.2931 -0.0604 -0.0022
 7268SOL    HW133266   1.445   4.678  16.837 -1.2366 -1.0021  1.3971
 7268SOL    HW233267   1.404   0.055  16.935 -0.1175 -0.1759  0.5751
 7269SOL     OW33268   1.110   3.212   5.434  0.0545  0.7590 -0.3416
 7269SOL    HW133269   1.100   3.243   5.524  0.5707 -2.5212  0.8718
 7269SOL    HW233270   1.203   3.230   5.417  0.4054  0.1837  0.8912
 7270SOL     OW33271   3.371   4.403  10.162  0.2051 -0.0245 -0.4139
 7270SOL    HW133272   3.321   4.422  10.082 -0.9378 -2.3308 -0.2310
 7270SOL    HW233273   3.432   4.341  10.122 -0.7773 -2.3796  1.7546
 7271SOL     OW33274   0.791   2.578   6.840 -0.9533  0.2227 -0.3667
 7271SOL    HW133275   0.727   2.529   6.890  0.2118  0.7110  1.5870
 7271SOL    HW233276   0.845   2.509   6.803 -0.2505  0.7231 -0.2757
 7272SOL     OW33277   3.985   3.834   6.332  0.4298 -0.2988 -0.0689
 7272SOL    HW133278   3.931   3.762   6.366  0.5336 -0.6991 -0.7454
 7272SOL    HW233279   4.064   3.783   6.351  0.7782  1.3465  2.7712
 7273SOL     OW33280   0.673   1.167   5.047 -0.2402 -0.5032 -0.6257
 7273SOL    HW133281   0.761   1.203   5.037  0.0922 -1.3022 -0.6291
 7273SOL    HW233282   0.624   1.212   4.978 -1.6132 -0.3455  0.4503
 7274SOL     OW33283   3.843   4.002   4.256  0.1203 -0.4028 -0.2707
 7274SOL    HW133284   3.796   3.925   4.226  0.5451 -0.4842 -0.7090
 7274SOL    HW233285   3.891   3.964   4.330  0.4916 -0.1172 -0.3626
 7275SOL     OW33286   2.921   3.163   5.107 -0.2985 -0.1570  0.0148
 7275SOL    HW133287   2.915   3.257   5.090 -0.1776 -0.2487 -0.5351
 7275SOL    HW233288   2.970   3.164   5.188 -1.2596 -2.6421  0.6310
 7276SOL     OW33289   0.922   3.985   3.796 -0.0254  0.4827 -0.4869
 7276SOL    HW133290   0.980   3.939   3.735 -0.0355 -0.6635  0.3728
 7276SOL    HW233291   0.979   4.062   3.798 -2.0799  1.9259  1.7041
 7277SOL     OW33292   4.056   1.159   0.245 -0.9423 -0.4525 -0.5191
 7277SOL    HW133293   3.989   1.098   0.278 -0.5621 -1.8266 -2.2642
 7277SOL    HW233294   3.992   1.230   0.251  1.4264  1.4095  2.6271
 7278SOL     OW33295   2.099   3.384   3.418 -0.0848  0.0465  0.0849
 7278SOL    HW133296   2.135   3.342   3.340 -1.1106  1.9699 -1.4232
 7278SOL    HW233297   2.011   3.358   3.392 -0.0150  0.3575 -0.4756
 7279SOL     OW33298   0.340   1.304   4.374  0.1768 -0.1953 -0.0463
 7279SOL    HW133299   0.390   1.222   4.374  2.0263  0.9552  2.0583
 7279SOL    HW233300   0.350   1.334   4.284  0.0876 -1.2122 -0.3995
 7280SOL     OW33301   1.039   4.636   1.738 -0.1339  0.0734 -0.5066
 7280SOL    HW133302   0.999   4.691   1.670 -1.4246  0.8231  0.8569
 7280SOL    HW233303   0.993   4.553   1.737 -0.6964  0.3788  0.0748
 7281SOL     OW33304   1.125   0.579   5.014 -0.5047 -0.4649  0.4056
 7281SOL    HW133305   1.135   0.672   4.991 -0.2328 -0.4857  0.4356
 7281SOL    HW233306   1.095   0.545   4.930 -0.9068 -0.9455  0.7496
 7282SOL     OW33307   2.796   2.015  14.122  0.1098  0.1421 -0.1689
 7282SOL    HW133308   2.891   2.027  14.116  0.0743  1.1846  1.4285
 7282SOL    HW233309   2.793   1.930  14.079  2.5944 -0.8698  1.6525
 7283SOL     OW33310   3.798   4.254   7.341  0.0448 -0.4163  0.1752
 7283SOL    HW133311   3.833   4.281   7.256 -1.1887 -0.1819 -0.2572
 7283SOL    HW233312   3.711   4.222   7.318  0.3722 -0.6223 -0.7778
 7284SOL     OW33313   1.523   4.456  15.195 -0.2451  0.4232 -0.3033
 7284SOL    HW133314   1.457   4.486  15.257  1.0166 -0.1495  1.2934
 7284SOL    HW233315   1.515   4.520  15.124 -2.3572 -0.8281 -1.2117
 7285SOL     OW33316   2.436   1.635   7.156 -0.1547 -0.0713  0.0976
 7285SOL    HW133317   2.503   1.673   7.098 -0.9106 -0.3743 -0.9848
 7285SOL    HW233318   2.482   1.551   7.165  0.5274  0.4497  1.4947
 7286SOL     OW33319   0.969   4.166   6.278 -0.2520 -0.1104 -0.1839
 7286SOL    HW133320   0.912   4.093   6.253 -0.0424 -1.3895  3.0377
 7286SOL    HW233321   1.032   4.123   6.336  1.0518 -1.9128 -2.9683
 7287SOL     OW33322   2.502   3.430   3.807  0.0416  0.4441  0.3368
 7287SOL    HW133323   2.592   3.458   3.822  1.1487 -2.1403 -1.4113
 7287SOL    HW233324   2.489   3.451   3.715 -0.6206 -0.6291  0.1780
 7288SOL     OW33325   1.124   2.126  17.663  0.5815 -0.2004 -0.1883
 7288SOL    HW133326   1.146   2.219  17.668  0.7490 -0.3010  0.9824
 7288SOL    HW233327   1.051   2.115   0.009  0.1276 -0.3779 -0.7631
 7289SOL     OW33328   2.005   2.803  14.994  0.0881  0.0430  0.1963
 7289SOL    HW133329   1.949   2.802  14.917  2.7234  1.5222 -1.7452
 7289SOL    HW233330   1.933   2.797  15.057  0.5034  0.1622  0.6848
 7290SOL     OW33331   3.654   4.395   9.386  0.2221  0.3306  0.2075
 7290SOL    HW133332   3.578   4.352   9.346  2.1568 -0.1173 -2.9970
 7290SOL    HW233333   3.613   4.455   9.447  0.7790  0.7312  0.1831
 7291SOL     OW33334   1.251   1.686  16.000 -0.2699  0.0052 -0.5252
 7291SOL    HW133335   1.208   1.684  15.915 -3.2407 -1.0363  0.9768
 7291SOL    HW233336   1.197   1.620  16.044  1.0234  0.0486  1.1416
 7292SOL     OW33337   2.213   1.650   5.044 -0.3757 -0.6975 -0.4230
 7292SOL    HW133338   2.167   1.621   5.123 -1.3706  0.0797 -0.7176
 7292SOL    HW233339   2.291   1.691   5.082 -0.8087  0.9446 -1.2841
 7293SOL     OW33340   2.748   4.432   6.762  0.0789 -0.0264 -0.5712
 7293SOL    HW133341   2.689   4.486   6.815 -0.4581 -1.7808  0.6213
 7293SOL    HW233342   2.834   4.452   6.798  0.1470 -0.4814 -0.4725
 7294SOL     OW33343   0.311   3.551   1.827 -0.0616 -0.0767 -0.5177
 7294SOL    HW133344   0.367   3.556   1.750 -1.0331  0.4050 -1.1942
 7294SOL    HW233345   0.369   3.537   1.902  1.7218 -0.0704 -1.9042
 7295SOL     OW33346   1.989   0.464   2.551 -0.9951 -0.0294 -0.1480
 7295SOL    HW133347   2.047   0.422   2.615  1.5486  0.3198 -2.1954
 7295SOL    HW233348   1.979   0.394   2.486  1.2555  0.8722 -1.4971
 7296SOL     OW33349   1.043   2.978   3.619  0.3701 -0.1354 -0.3114
 7296SOL    HW133350   1.005   2.997   3.532 -1.9056 -0.8405  0.5231
 7296SOL    HW233351   1.110   2.918   3.588  0.3609 -0.0024 -0.5923
 7297SOL     OW33352   4.543   2.439  11.058 -0.3474 -0.2041 -0.5399
 7297SOL    HW133353   4.482   2.380  11.014  0.7644 -2.4059  0.8313
 7297SOL    HW233354   4.483   2.495  11.106  0.8299  0.3876  0.2589
 7298SOL     OW33355   2.762   3.122   2.649  0.3363 -0.5554  0.3116
 7298SOL    HW133356   2.793   3.185   2.714 -0.3903  0.8561 -0.6896
 7298SOL    HW233357   2.809   3.144   2.568 -0.7187 -2.5747 -0.8571
 7299SOL     OW33358   2.801   3.237   0.946  0.2386  0.5334  0.8830
 7299SOL    HW133359   2.706   3.245   0.948  0.1308 -0.2751 -0.7811
 7299SOL    HW233360   2.807   3.183   1.025  3.6434  1.2190  1.0976
 7300SOL     OW33361   4.667   3.578   5.495 -0.2832  0.2717 -0.0195
 7300SOL    HW133362   4.665   3.492   5.455 -0.3771 -0.5884  1.8465
 7300SOL    HW233363   0.017   3.567   5.547  1.1034 -1.0027 -2.3785
 7301SOL     OW33364   3.946   4.724   8.876 -0.6085 -0.4418 -0.5341
 7301SOL    HW133365   4.006   4.695   8.946  0.9082 -1.4589 -2.2419
 7301SOL    HW233366   4.004   4.699   8.804  0.5369  3.5455 -1.0202
 7302SOL     OW33367   4.504   3.674   5.694 -0.5924  0.5125 -0.6765
 7302SOL    HW133368   4.566   3.659   5.622 -0.4329  0.8319 -0.6024
 7302SOL    HW233369   4.548   3.758   5.708  1.0874 -0.5034  0.1744
 7303SOL     OW33370   4.540   1.105  15.759  0.0687  0.0963 -0.2046
 7303SOL    HW133371   4.627   1.075  15.787 -0.0483  1.2802  1.4113
 7303SOL    HW233372   4.562   1.152  15.679  1.3430 -0.1170  0.0126
 7304SOL     OW33373   3.005   4.435   5.327 -0.0985  0.1224  0.9358
 7304SOL    HW133374   3.054   4.361   5.290 -1.3447  0.3644 -1.2064
 7304SOL    HW233375   2.939   4.382   5.373 -1.2289  0.7642  0.0501
 7305SOL     OW33376   3.273   1.873   3.040  0.2343  0.3470  0.5907
 7305SOL    HW133377   3.273   1.943   2.975  1.2146  1.9929  2.3559
 7305SOL    HW233378   3.312   1.800   2.994 -0.7035  0.5415 -0.5103
 7306SOL     OW33379   2.524   1.835   0.828 -0.1274  0.1536  0.2879
 7306SOL    HW133380   2.496   1.752   0.866 -1.4773  0.3564 -0.2649
 7306SOL    HW233381   2.451   1.893   0.807 -1.2236 -0.4348  2.5149
 7307SOL     OW33382   1.372   2.203   3.773  0.4300  0.3612  0.6582
 7307SOL    HW133383   1.376   2.262   3.848  0.8525  2.5808 -1.1374
 7307SOL    HW233384   1.397   2.126   3.824 -3.9135 -1.7971 -0.4389
 7308SOL     OW33385   2.564   2.309   8.000 -0.7979 -0.2233  0.0254
 7308SOL    HW133386   2.596   2.223   7.972  0.4072 -0.5685  2.4141
 7308SOL    HW233387   2.621   2.372   7.955  0.4016 -2.7343 -1.9373
 7309SOL     OW33388   4.728   4.034  11.786  0.1695 -0.4077 -0.3667
 7309SOL    HW133389   4.671   4.081  11.846  2.9430  2.1351  0.2664
 7309SOL    HW233390   0.050   4.107  11.752 -0.0932 -0.5362 -1.0358
 7310SOL     OW33391   0.012   1.939   6.041 -0.5154  0.5225 -0.2049
 7310SOL    HW133392   0.027   1.848   6.014 -0.7477  0.3117  0.3694
 7310SOL    HW233393   0.014   1.981   5.955 -4.3201 -0.3090 -0.6992
 7311SOL     OW33394   3.661   1.871  14.012 -0.4288  0.1961  0.5789
 7311SOL    HW133395   3.641   1.905  13.925  1.1865 -4.0072 -1.4399
 7311SOL    HW233396   3.756   1.870  14.024 -0.4817 -0.3707  0.9727
 7312SOL     OW33397   3.239   4.640  11.716 -0.0723 -0.5633  0.2506
 7312SOL    HW133398   3.299   4.566  11.723  1.0679  0.0420 -3.0914
 7312SOL    HW233399   3.164   4.600  11.672 -0.4788 -0.6642  1.0260
 7313SOL     OW33400   3.392   4.624   4.966  0.0530  0.2961  0.7694
 7313SOL    HW133401   3.484   4.647   4.955 -0.0039  1.0924  1.9346
 7313SOL    HW233402   3.350   4.711   4.970  0.8268  0.7714 -1.2223
 7314SOL     OW33403   4.615   1.501   8.106  0.0681  0.0454  0.9514
 7314SOL    HW133404   4.580   1.543   8.185 -4.1190 -0.6213 -0.5276
 7314SOL    HW233405   4.684   1.439   8.130 -0.4260 -0.4857  0.9962
 7315SOL     OW33406   2.483   2.466   1.945 -0.3387  0.0547 -0.1476
 7315SOL    HW133407   2.419   2.527   1.980 -0.6885 -1.2853  1.5096
 7315SOL    HW233408   2.433   2.432   1.871  2.7111  0.1090 -2.2590
 7316SOL     OW33409   1.171   1.822  10.739  0.3916  0.4604  0.5521
 7316SOL    HW133410   1.214   1.891  10.688 -0.6701  1.9920  1.7502
 7316SOL    HW233411   1.119   1.885  10.789  0.3131  0.1049  0.9239
 7317SOL     OW33412   1.981   0.224  10.132 -0.0364  0.0755  0.2093
 7317SOL    HW133413   1.945   0.136  10.144  0.2447  0.2396  2.3005
 7317SOL    HW233414   1.901   0.266  10.101  0.3321  0.5090 -0.1520
 7318SOL     OW33415   4.253   4.382   2.916 -0.0369 -0.0250  0.4989
 7318SOL    HW133416   4.335   4.335   2.902 -0.2029 -0.6431  1.6825
 7318SOL    HW233417   4.278   4.433   2.993 -0.2267 -1.6393  1.6060
 7319SOL     OW33418   1.233   0.037  16.176  0.1755 -0.2793  0.2792
 7319SOL    HW133419   1.159   0.070  16.126 -0.4261 -2.0399 -0.0139
 7319SOL    HW233420   1.253   4.687  16.124  0.6209  2.1078 -3.1408
 7320SOL     OW33421   3.064   2.208   5.290 -0.3643 -0.0283  0.2790
 7320SOL    HW133422   3.049   2.200   5.384 -1.1195 -1.7177  0.0221
 7320SOL    HW233423   3.058   2.119   5.255 -0.1950 -0.1210  0.4827
 7321SOL     OW33424   2.897   2.127   0.384  0.2179  0.6415 -0.2181
 7321SOL    HW133425   2.869   2.097   0.298  2.7181 -0.4647 -0.6347
 7321SOL    HW233426   2.939   2.046   0.414 -1.7337  0.1174  1.1237
 7322SOL     OW33427   0.915   3.479   3.404 -0.0689  0.2683 -0.3168
 7322SOL    HW133428   0.843   3.539   3.385 -1.1000 -1.2431 -1.2074
 7322SOL    HW233429   0.964   3.484   3.322 -0.1094  0.3402 -0.3366
 7323SOL     OW33430   2.818   2.174   1.548 -0.2553  0.3340  0.7310
 7323SOL    HW133431   2.839   2.160   1.456 -1.6922 -0.1716  0.4888
 7323SOL    HW233432   2.830   2.269   1.541  2.5523 -0.0592 -0.0572
 7324SOL     OW33433   3.444   1.756   6.127  0.5329 -0.0855  0.1255
 7324SOL    HW133434   3.525   1.705   6.125 -0.9574 -2.4515 -0.4126
 7324SOL    HW233435   3.480   1.844   6.140 -0.2267  0.3674 -0.8029
 7325SOL     OW33436   4.717   1.815  16.453 -0.0150  0.3027  0.5008
 7325SOL    HW133437   0.079   1.813  16.423 -0.5735 -2.5256 -0.9529
 7325SOL    HW233438   4.720   1.740  16.513  0.1055 -1.7389 -2.0787
 7326SOL     OW33439   0.906   2.488   1.375 -0.2240 -0.0016 -0.1260
 7326SOL    HW133440   0.959   2.417   1.338 -0.2131 -0.3406  0.5426
 7326SOL    HW233441   0.949   2.567   1.342 -0.5508  0.4878  0.6247
 7327SOL     OW33442   2.900   1.230   5.344  0.1697 -0.0363  0.0645
 7327SOL    HW133443   2.847   1.291   5.292 -0.4899 -2.4061 -2.0271
 7327SOL    HW233444   2.865   1.154   5.298 -1.3986  1.2150 -0.8185
 7328SOL     OW33445   0.570   3.066  10.094 -0.3017  0.5768  0.1495
 7328SOL    HW133446   0.629   3.053  10.168  0.0625  0.2219 -0.1990
 7328SOL    HW233447   0.609   3.143  10.052 -1.8629  1.7223  0.7791
 7329SOL     OW33448   2.198   2.089   9.560 -0.1482 -0.3690 -0.7325
 7329SOL    HW133449   2.151   2.132   9.631  2.6464  0.0406  0.8648
 7329SOL    HW233450   2.176   1.998   9.579  0.0741 -0.8269 -2.7246
 7330SOL     OW33451   1.059   1.929  14.136  0.0978 -0.4752 -0.4325
 7330SOL    HW133452   1.129   1.994  14.135  0.2757 -0.6343  2.9363
 7330SOL    HW233453   1.079   1.881  14.216 -0.0409  0.2230  0.0126
 7331SOL     OW33454   4.008   1.283  13.049  0.3650 -0.2829 -0.7050
 7331SOL    HW133455   4.058   1.243  12.978  1.8842  1.2595 -0.5114
 7331SOL    HW233456   3.921   1.247  13.029 -0.0383  1.2740 -1.7370
 7332SOL     OW33457   0.069   3.890  13.901 -0.1782  0.0546  0.1482
 7332SOL    HW133458   0.048   3.955  13.833  0.2030 -0.0731 -0.0911
 7332SOL    HW233459   0.161   3.870  13.886  0.1513  1.0285  0.8937
 7333SOL     OW33460   2.315   4.008   3.433  0.6174  0.2365 -0.1143
 7333SOL    HW133461   2.388   4.008   3.370  1.4320  1.3762  0.8250
 7333SOL    HW233462   2.271   3.927   3.407  0.0185  0.0530  1.5145
 7334SOL     OW33463   3.604   4.454   6.917 -0.0811  0.4833  0.1626
 7334SOL    HW133464   3.540   4.428   6.851  0.7128  1.3975 -0.9639
 7334SOL    HW233465   3.552   4.526   6.954  1.3266  0.9323  1.2778
 7335SOL     OW33466   1.499   4.077  10.773  0.4373  0.1060 -0.2585
 7335SOL    HW133467   1.536   4.125  10.847  1.5950  0.3147 -0.9729
 7335SOL    HW233468   1.434   4.031  10.826  1.4619 -0.1474  0.7891
 7336SOL     OW33469   0.175   1.146   6.402  0.4989 -0.1689  0.0695
 7336SOL    HW133470   0.249   1.101   6.361 -0.2427 -2.3511  1.0934
 7336SOL    HW233471   0.123   1.077   6.445 -1.9970  1.1270 -0.8856
 7337SOL     OW33472   1.010   4.129   5.922  0.3696 -0.3809 -0.4192
 7337SOL    HW133473   0.928   4.172   5.900  0.7325  1.3322  1.6003
 7337SOL    HW233474   1.063   4.204   5.948  0.8121 -0.4436 -1.1200
 7338SOL     OW33475   2.084   2.185   8.868  0.0052  0.1986  0.0137
 7338SOL    HW133476   2.067   2.274   8.836 -0.6512 -0.1190 -0.5021
 7338SOL    HW233477   2.099   2.201   8.961  0.1232  0.6120 -0.0746
 7339SOL     OW33478   0.373   3.939   6.272  1.3722 -0.1745  0.3339
 7339SOL    HW133479   0.303   3.982   6.321 -0.3704 -1.5144 -0.9333
 7339SOL    HW233480   0.362   3.983   6.187 -1.1686 -1.7956 -0.2023
 7340SOL     OW33481   4.531   3.713   0.487 -0.4528 -0.6617 -1.3647
 7340SOL    HW133482   4.608   3.665   0.517  0.5242  1.6181 -0.2818
 7340SOL    HW233483   4.547   3.805   0.507  3.2987 -1.7461  0.5068
 7341SOL     OW33484   1.366   4.192   5.839  0.2772  0.0330 -0.0555
 7341SOL    HW133485   1.355   4.097   5.830 -2.4799  0.2108  1.3662
 7341SOL    HW233486   1.286   4.218   5.794 -0.5329 -1.9087  0.2450
 7342SOL     OW33487   1.668   3.011   4.581  0.2453 -0.3387  0.7106
 7342SOL    HW133488   1.696   2.945   4.644 -0.3610 -2.3707 -1.1393
 7342SOL    HW233489   1.604   2.966   4.527 -0.7001 -1.0702  2.4662
 7343SOL     OW33490   2.184   4.379  16.224  0.1761 -0.1860  0.1363
 7343SOL    HW133491   2.203   4.471  16.210  0.2918 -0.3556 -0.8203
 7343SOL    HW233492   2.112   4.392  16.287 -1.2098  0.3459 -1.5620
 7344SOL     OW33493   1.902   2.509   2.983 -0.2263 -0.5035 -0.2486
 7344SOL    HW133494   1.920   2.571   3.054  2.9559 -0.3353 -1.2223
 7344SOL    HW233495   1.812   2.541   2.973  0.4074  0.9025 -1.4834
 7345SOL     OW33496   1.565   4.700  12.877 -0.1900 -0.4564 -0.7324
 7345SOL    HW133497   1.515   4.682  12.956 -0.1591  0.5349 -0.4846
 7345SOL    HW233498   1.538   0.063  12.868  0.9697 -0.1330 -0.9555
 7346SOL     OW33499   3.116   2.932   5.134 -0.0832  0.0977 -1.1488
 7346SOL    HW133500   3.181   2.880   5.182 -0.9430 -0.2511 -0.3750
 7346SOL    HW233501   3.087   2.995   5.200 -1.5466 -0.6217 -1.1177
 7347SOL     OW33502   2.516   3.754  10.091 -0.3547 -0.2919 -0.1658
 7347SOL    HW133503   2.589   3.721  10.143  0.0719 -0.0664 -0.6159
 7347SOL    HW233504   2.510   3.844  10.125 -0.1535 -0.3277 -0.0342
 7348SOL     OW33505   0.671   3.615   6.760  0.6509 -0.8135  0.3228
 7348SOL    HW133506   0.622   3.586   6.683  0.4240  2.5549 -0.7651
 7348SOL    HW233507   0.752   3.640   6.716  1.1485 -1.4533  0.8755
 7349SOL     OW33508   0.459   0.341   2.279  0.1529  0.1979  0.5722
 7349SOL    HW133509   0.500   0.384   2.354 -3.4526  2.3818  1.3035
 7349SOL    HW233510   0.537   0.303   2.240  0.0199 -1.4995  1.9943
 7350SOL     OW33511   4.459   1.427   6.301 -0.3956  0.5557  0.3815
 7350SOL    HW133512   4.522   1.497   6.282  0.7171 -1.5448 -3.7003
 7350SOL    HW233513   4.436   1.457   6.389 -0.0514 -2.6576  1.5655
 7351SOL     OW33514   3.017   3.005   4.896 -0.1744 -0.2324  0.4283
 7351SOL    HW133515   2.971   3.070   4.949 -1.7044 -0.0531 -1.1307
 7351SOL    HW233516   3.058   2.955   4.967 -0.7630 -2.6122 -0.8855
 7352SOL     OW33517   3.342   0.478   1.772  0.3806 -0.1406 -0.4140
 7352SOL    HW133518   3.366   0.547   1.834 -0.6944  0.6563 -0.8675
 7352SOL    HW233519   3.257   0.514   1.745  1.0611  1.4217 -0.4922
 7353SOL     OW33520   0.502   0.857  13.248  0.3045  0.7894  0.2293
 7353SOL    HW133521   0.532   0.946  13.230 -0.6531  1.3132  1.1717
 7353SOL    HW233522   0.432   0.875  13.312 -0.1404 -1.4273  0.3563
 7354SOL     OW33523   2.108   0.753   5.296 -0.1433  0.3886 -0.1685
 7354SOL    HW133524   2.044   0.689   5.327 -1.1364  1.2223 -0.5229
 7354SOL    HW233525   2.050   0.826   5.275 -0.8938  0.2271  1.3795
 7355SOL     OW33526   0.019   3.723   0.177 -0.0750 -0.0739  0.2064
 7355SOL    HW133527   4.685   3.756   0.113  0.0467  2.2347  1.2877
 7355SOL    HW233528   0.040   3.803   0.224  0.6124 -0.3208  0.3189
 7356SOL     OW33529   1.606   2.245   3.267  0.0041  0.1738  0.3431
 7356SOL    HW133530   1.701   2.248   3.268 -0.0498  2.6682 -0.7526
 7356SOL    HW233531   1.583   2.338   3.261  0.1658  0.2829  1.4983
 7357SOL     OW33532   2.015   3.051   2.228  0.3407  0.0275  0.0584
 7357SOL    HW133533   2.023   3.146   2.241 -1.3815  0.0264  1.0941
 7357SOL    HW233534   2.104   3.020   2.212  0.2063  0.2774 -1.2208
 7358SOL     OW33535   4.254   0.303   9.022  0.3555 -0.1033 -0.4711
 7358SOL    HW133536   4.328   0.349   8.982 -0.6278  0.1423 -2.0373
 7358SOL    HW233537   4.179   0.329   8.967 -0.7266  1.7990  1.9192
 7359SOL     OW33538   3.718   2.578  17.274  0.0475 -0.0782 -0.2128
 7359SOL    HW133539   3.642   2.592  17.218 -1.0035  1.9238  1.7316
 7359SOL    HW233540   3.688   2.505  17.327  1.2608 -0.9597 -0.7441
 7360SOL     OW33541   4.476   1.192   7.922 -0.0863 -0.8733  0.2686
 7360SOL    HW133542   4.449   1.173   8.012 -1.5978 -0.5491 -0.1165
 7360SOL    HW233543   4.568   1.218   7.936  0.2329 -1.5592 -0.5896
 7361SOL     OW33544   4.710   1.510   6.990 -0.1479  0.3569  0.1046
 7361SOL    HW133545   4.630   1.547   7.028  0.2564 -0.0396  1.3382
 7361SOL    HW233546   4.710   1.561   6.910 -0.5243  1.2535  0.6703
 7362SOL     OW33547   1.460   0.946   4.050 -0.0613  0.1647  0.1806
 7362SOL    HW133548   1.487   1.026   4.004 -1.5286  0.5336 -0.0402
 7362SOL    HW233549   1.432   0.891   3.976 -0.8594  0.2489  0.4186
 7363SOL     OW33550   4.144   3.228   8.785 -0.5898 -0.1615 -0.6304
 7363SOL    HW133551   4.130   3.139   8.817 -2.0131  0.2865 -0.0394
 7363SOL    HW233552   4.227   3.230   8.736 -0.7923 -1.4857 -1.0444
 7364SOL     OW33553   4.156   3.362   4.019  0.3744 -0.0531 -0.6245
 7364SOL    HW133554   4.161   3.285   3.962 -1.1085  1.8946 -3.3217
 7364SOL    HW233555   4.094   3.422   3.980  2.7037  1.2673 -2.2699
 7365SOL     OW33556   4.122   2.481   0.376 -0.7611 -0.1762  0.0183
 7365SOL    HW133557   4.091   2.391   0.388 -1.4874 -0.1996 -2.0441
 7365SOL    HW233558   4.210   2.468   0.412 -0.6598 -1.7660 -0.7781
 7366SOL     OW33559   2.002   3.263   5.476 -0.4161  0.0118 -0.2571
 7366SOL    HW133560   1.983   3.285   5.567 -0.2719  1.6925 -0.6271
 7366SOL    HW233561   2.094   3.291   5.473 -0.7333  1.1311  0.4109
 7367SOL     OW33562   3.753   3.092   8.870 -0.1103 -0.1012 -0.3713
 7367SOL    HW133563   3.783   3.109   8.781 -0.8324  0.4889 -0.5029
 7367SOL    HW233564   3.670   3.140   8.866 -1.0057 -1.5780  0.3998
 7368SOL     OW33565   2.795   0.717   6.377 -0.0021 -0.3694 -0.0358
 7368SOL    HW133566   2.720   0.691   6.324  0.8909  0.4173 -1.6993
 7368SOL    HW233567   2.866   0.724   6.313 -1.2834  3.2242 -1.0405
 7369SOL     OW33568   0.280   3.148  11.906 -0.2177  0.5817 -0.3395
 7369SOL    HW133569   0.358   3.102  11.875  1.3574  1.7584  1.9307
 7369SOL    HW233570   0.275   3.217  11.839 -1.8692  0.3144 -0.4981
 7370SOL     OW33571   0.624   2.685  14.356  0.1241  0.3852 -0.0033
 7370SOL    HW133572   0.688   2.619  14.328 -0.8459 -1.0950  1.2207
 7370SOL    HW233573   0.583   2.644  14.433 -3.5484 -0.4701 -2.4649
 7371SOL     OW33574   4.482   3.416   3.887 -0.6874  0.0953 -0.3324
 7371SOL    HW133575   4.520   3.393   3.802 -1.8864  1.2272 -1.1727
 7371SOL    HW233576   4.483   3.334   3.936 -2.6577  0.2539 -0.0281
 7372SOL     OW33577   3.689   0.340   8.327  0.6156 -0.2776  0.1876
 7372SOL    HW133578   3.635   0.398   8.273  0.5080 -1.5471 -1.0663
 7372SOL    HW233579   3.645   0.356   8.410  2.9444  1.7985  1.0127
 7373SOL     OW33580   1.422   2.758   1.949  0.2606 -0.0879  0.2901
 7373SOL    HW133581   1.407   2.684   2.008  1.0442 -0.1470  0.4075
 7373SOL    HW233582   1.517   2.747   1.949  0.3569  0.8760 -3.4352
 7374SOL     OW33583   2.311   3.606   3.372  0.1395  0.4342  0.0674
 7374SOL    HW133584   2.241   3.666   3.398  0.5452 -0.1485  2.5017
 7374SOL    HW233585   2.254   3.532   3.352 -1.8747  1.1929  3.0387
 7375SOL     OW33586   2.334   0.843   4.295  0.3231  0.2206 -0.0717
 7375SOL    HW133587   2.304   0.853   4.385  3.5663 -0.6025  1.0793
 7375SOL    HW233588   2.418   0.888   4.292 -0.1533  1.0452 -1.2574
 7376SOL     OW33589   1.629   4.407   4.625 -0.0371 -0.1597  1.0074
 7376SOL    HW133590   1.724   4.412   4.617  0.2080 -1.5910  2.9963
 7376SOL    HW233591   1.599   4.367   4.543  1.8852  1.0025 -0.2637
 7377SOL     OW33592   1.829   2.104   7.352  0.3690  0.0462  0.1149
 7377SOL    HW133593   1.806   2.153   7.273  1.5890  1.6549  0.7514
 7377SOL    HW233594   1.897   2.156   7.394  2.2520 -0.4118 -2.3470
 7378SOL     OW33595   0.355   0.997   8.938  0.3489 -0.1854  0.1338
 7378SOL    HW133596   0.306   1.074   8.908  2.5692  0.6791 -1.2881
 7378SOL    HW233597   0.419   1.026   9.003  0.7088  0.6922 -0.6101
 7379SOL     OW33598   4.638   3.516   9.639  0.2383 -0.3616  0.1081
 7379SOL    HW133599   4.722   3.470   9.641  0.3686 -0.1739 -0.8445
 7379SOL    HW233600   4.665   3.608   9.646  1.2429 -0.4333 -2.7349
 7380SOL     OW33601   4.033   1.121   3.906 -0.4690  0.0945 -0.2121
 7380SOL    HW133602   4.031   1.217   3.900 -0.2242  0.0573 -0.8812
 7380SOL    HW233603   4.074   1.121   3.993 -0.0486 -1.3398 -0.4251
 7381SOL     OW33604   3.652   2.264   1.956  0.0923  0.1640 -0.1325
 7381SOL    HW133605   3.672   2.331   2.022 -0.2498  1.0270 -0.9003
 7381SOL    HW233606   3.739   2.255   1.917 -0.4559  1.7220 -1.7055
 7382SOL     OW33607   1.607   1.290  12.866  0.0473  0.3632  0.1244
 7382SOL    HW133608   1.665   1.329  12.800  1.5112 -2.1584 -0.0910
 7382SOL    HW233609   1.535   1.353  12.863  0.2657  0.6365  0.6829
 7383SOL     OW33610   4.691   2.614   3.341 -0.2310 -0.1292 -0.0835
 7383SOL    HW133611   4.651   2.580   3.422  0.7190 -1.1118 -0.0332
 7383SOL    HW233612   4.611   2.649   3.302  1.2207  0.6362 -2.3253
 7384SOL     OW33613   4.033   0.190  15.707 -0.1360 -0.0236  0.2899
 7384SOL    HW133614   3.975   0.243  15.762 -0.6661 -1.4098  1.0796
 7384SOL    HW233615   4.116   0.237  15.716 -0.2846  0.0856  1.1747
 7385SOL     OW33616   0.614   1.716  16.619  0.0668  0.2441 -0.1545
 7385SOL    HW133617   0.663   1.756  16.548 -0.5607 -0.8224 -1.1966
 7385SOL    HW233618   0.641   1.624  16.621  1.1410  0.5723  0.0548
 7386SOL     OW33619   1.067   3.192   2.709  0.2469 -0.3758  0.0072
 7386SOL    HW133620   1.136   3.256   2.695  0.6122 -1.2471 -2.1637
 7386SOL    HW233621   1.075   3.140   2.629  0.4494 -0.3303 -0.0022
 7387SOL     OW33622   3.354   0.078   6.140  0.1458 -0.1588  0.0841
 7387SOL    HW133623   3.287   0.143   6.161  0.1819 -0.6243  1.5793
 7387SOL    HW233624   3.344   0.015   6.211  0.9155 -0.5317 -0.1332
 7388SOL     OW33625   0.067   3.566   7.529  0.4147 -0.1847 -0.0092
 7388SOL    HW133626   0.082   3.642   7.584  1.4568 -0.9994  0.8229
 7388SOL    HW233627   4.703   3.544   7.542  0.3397  0.5636  0.7052
 7389SOL     OW33628   1.135   4.602   8.127 -0.0305  0.9217 -0.0836
 7389SOL    HW133629   1.048   4.640   8.140 -0.4681 -0.4426  0.9617
 7389SOL    HW233630   1.191   4.669   8.167  0.9648  0.2800 -0.3887
 7390SOL     OW33631   2.089   3.859  17.409 -0.2278  0.2964  0.2580
 7390SOL    HW133632   1.998   3.856  17.438 -0.5160 -0.5364 -0.7174
 7390SOL    HW233633   2.086   3.829  17.318  1.1524  1.4080 -0.1623
 7391SOL     OW33634   1.320   0.085   0.547 -0.0811  0.3981  0.3976
 7391SOL    HW133635   1.284   0.029   0.615 -0.9414  1.3992  0.7544
 7391SOL    HW233636   1.286   0.172   0.566 -2.2326 -0.7557  1.7283
 7392SOL     OW33637   1.702   2.350  10.840  0.0121  0.1326 -0.2219
 7392SOL    HW133638   1.671   2.333  10.929  1.0386  1.0647  0.3083
 7392SOL    HW233639   1.636   2.418  10.822 -0.1233  0.0291 -0.1184
 7393SOL     OW33640   3.668   2.031   6.538 -0.0580 -0.5399  0.2295
 7393SOL    HW133641   3.673   2.023   6.443 -0.2271  0.3413  0.1495
 7393SOL    HW233642   3.747   2.073   6.572  0.2783 -0.0781 -1.1447
 7394SOL     OW33643   0.801   1.263   8.702 -0.1219  0.7683 -0.2536
 7394SOL    HW133644   0.881   1.246   8.753  0.0126 -0.5212 -0.8834
 7394SOL    HW233645   0.768   1.173   8.700  0.9786  0.3986 -1.4061
 7395SOL     OW33646   1.973   4.172   8.302  0.3245  0.1608 -0.1380
 7395SOL    HW133647   1.961   4.121   8.222 -0.3054 -1.2307  0.8408
 7395SOL    HW233648   2.045   4.125   8.345  0.3131  0.8030  0.5774
 7396SOL     OW33649   2.694   3.791   2.214 -0.3933 -0.4201 -0.3369
 7396SOL    HW133650   2.700   3.803   2.308  1.5046 -1.2730 -0.3555
 7396SOL    HW233651   2.610   3.746   2.204 -2.3994  3.4774 -1.1599
 7397SOL     OW33652   4.129   1.251   5.739  0.0778  0.7208  0.5433
 7397SOL    HW133653   4.104   1.311   5.809  0.6589 -1.5157  2.6731
 7397SOL    HW233654   4.046   1.206   5.725 -0.4128  2.0760 -0.8712
 7398SOL     OW33655   2.353   2.121  10.500 -0.2559 -0.4704  0.3141
 7398SOL    HW133656   2.298   2.063  10.447 -0.7679 -0.2782  0.6393
 7398SOL    HW233657   2.291   2.182  10.539  0.1029  0.5908 -0.7691
 7399SOL     OW33658   2.663   3.141   4.903 -0.4404 -0.0154  0.1003
 7399SOL    HW133659   2.571   3.165   4.892 -1.3028 -2.4874  1.7532
 7399SOL    HW233660   2.712   3.214   4.866 -1.7676  0.6206 -0.4122
 7400SOL     OW33661   1.648   3.399   1.086  0.0053 -0.4260 -0.0179
 7400SOL    HW133662   1.711   3.464   1.056  0.5270 -0.0666  1.8665
 7400SOL    HW233663   1.615   3.449   1.160 -0.2792  2.1067 -1.8616
 7401SOL     OW33664   0.714   1.004   1.055  0.9494  0.4210  0.7187
 7401SOL    HW133665   0.758   0.938   1.108 -0.7535 -0.0555  1.5186
 7401SOL    HW233666   0.778   1.074   1.070  2.1687 -0.3214 -1.0170
 7402SOL     OW33667   3.775   1.082  13.026 -0.1649 -0.3483  0.4757
 7402SOL    HW133668   3.767   1.068  13.121  0.2905 -1.2943  0.3772
 7402SOL    HW233669   3.699   1.038  12.989  0.2456 -0.1721 -0.5535
 7403SOL     OW33670   0.589   3.783   6.216 -0.1922  0.2260 -0.3065
 7403SOL    HW133671   0.514   3.842   6.222  0.7471  1.3510  0.1899
 7403SOL    HW233672   0.550   3.734   6.143 -0.2223  0.2647 -0.3164
 7404SOL     OW33673   2.345   3.978   0.025 -0.0356  0.0670 -0.2902
 7404SOL    HW133674   2.295   3.905  17.703 -0.1836  1.6382 -3.2000
 7404SOL    HW233675   2.335   4.041  17.667 -0.4126 -0.4527 -0.6849
 7405SOL     OW33676   1.492   2.591  10.683 -0.1350  0.3168  0.3951
 7405SOL    HW133677   1.528   2.676  10.708  0.4583 -0.5413  2.3776
 7405SOL    HW233678   1.502   2.597  10.588  1.2667  1.3114  0.6046
 7406SOL     OW33679   1.271   4.054  14.925  0.6624  0.6631  0.0421
 7406SOL    HW133680   1.202   3.990  14.905  1.0709 -0.2295  1.5523
 7406SOL    HW233681   1.280   4.046  15.020  1.2768  0.8163 -0.0032
 7407SOL     OW33682   4.344   3.995   5.626 -0.3609  0.0280 -0.2766
 7407SOL    HW133683   4.420   4.032   5.581 -0.4543  2.3959  1.4877
 7407SOL    HW233684   4.302   4.070   5.667  0.3919  0.3966 -0.1760
 7408SOL     OW33685   2.720   4.498   8.757 -0.0667 -0.3520  0.2182
 7408SOL    HW133686   2.693   4.485   8.848  0.7490 -0.5590  0.4317
 7408SOL    HW233687   2.649   4.561   8.743  1.1680  0.5907 -1.7780
 7409SOL     OW33688   3.984   3.481   7.416 -0.3946 -0.1548 -0.5945
 7409SOL    HW133689   3.918   3.479   7.485  2.3479 -0.1420  2.0433
 7409SOL    HW233690   3.927   3.529   7.356 -2.8468  1.7452  3.2783
 7410SOL     OW33691   0.863   4.445   1.767  0.2127  0.0540  0.3361
 7410SOL    HW133692   0.769   4.465   1.768 -0.1123 -1.4455  0.5603
 7410SOL    HW233693   0.867   4.352   1.744 -0.8182 -0.1954  1.1598
 7411SOL     OW33694   2.677   3.342  15.807  0.3617 -0.3998 -0.5977
 7411SOL    HW133695   2.723   3.418  15.771  2.6069 -1.1366  0.7142
 7411SOL    HW233696   2.605   3.330  15.745  0.3866  0.6998 -0.8345
 7412SOL     OW33697   2.800   2.702   8.550 -0.0173 -0.4415 -0.0398
 7412SOL    HW133698   2.763   2.695   8.638 -2.3143 -0.0527 -0.9779
 7412SOL    HW233699   2.868   2.635   8.540  1.5000  1.4251 -2.0795
 7413SOL     OW33700   1.922   1.322   5.277 -0.2136 -0.1250  0.0071
 7413SOL    HW133701   1.846   1.269   5.254  1.0915 -0.7968 -2.7164
 7413SOL    HW233702   1.983   1.252   5.300 -1.9440 -1.3679  0.8128
 7414SOL     OW33703   4.688   3.154   8.792  0.3827 -0.4041  0.1477
 7414SOL    HW133704   0.039   3.151   8.845 -0.3516 -2.3121  1.1281
 7414SOL    HW233705   4.720   3.221   8.732 -1.3858 -1.8704 -2.4108
 7415SOL     OW33706   2.324   1.328   6.700  0.1714  0.8098 -0.0301
 7415SOL    HW133707   2.390   1.368   6.643  1.7723 -0.9339  0.6178
 7415SOL    HW233708   2.378   1.264   6.745 -1.0177 -0.8025 -0.9230
 7416SOL     OW33709   1.861   2.510   2.026  0.0030 -0.3865  0.2258
 7416SOL    HW133710   1.792   2.448   2.002 -0.2630  0.3876 -1.0073
 7416SOL    HW233711   1.817   2.525   2.109 -1.9802  1.0768 -1.0913
 7417SOL     OW33712   0.266   0.812   7.050  0.1345  0.1487 -0.3606
 7417SOL    HW133713   0.202   0.880   7.025 -0.2913 -0.3427 -0.6107
 7417SOL    HW233714   0.324   0.858   7.111 -1.8686  1.5432  0.5359
 7418SOL     OW33715   1.963   3.656   8.647  0.7462 -0.6445  0.4915
 7418SOL    HW133716   1.876   3.653   8.687  1.5946 -0.0410  2.3458
 7418SOL    HW233717   2.020   3.689   8.717  1.3955 -1.2558  0.2481
 7419SOL     OW33718   1.358   1.680   2.071  0.3303  0.0875  0.3090
 7419SOL    HW133719   1.365   1.584   2.072  1.2451  0.1302 -1.3036
 7419SOL    HW233720   1.282   1.700   2.125 -0.1876  1.8317 -1.0712
 7420SOL     OW33721   1.869   3.695  11.457  0.6123 -0.1939  0.5037
 7420SOL    HW133722   1.894   3.760  11.391 -1.2833  0.9210  0.8881
 7420SOL    HW233723   1.935   3.627  11.442 -0.2870 -0.2850 -3.0936
 7421SOL     OW33724   1.680   0.009   8.092  0.7330 -0.1500  0.1576
 7421SOL    HW133725   1.681   0.076   8.160 -0.6528 -0.5457  0.5761
 7421SOL    HW233726   1.601   4.692   8.122  1.4813 -2.3472 -1.2505
 7422SOL     OW33727   2.127   0.347   3.485 -0.2229 -0.1401  0.2208
 7422SOL    HW133728   2.150   0.419   3.426  1.0159 -0.2361  0.5849
 7422SOL    HW233729   2.172   0.378   3.564 -2.1576  0.3616  1.1212
 7423SOL     OW33730   4.144   1.918   6.142  0.1187 -0.1770  0.3151
 7423SOL    HW133731   4.210   1.911   6.211 -0.0609 -1.3574  0.3663
 7423SOL    HW233732   4.054   1.914   6.175 -0.0615 -3.1317 -0.5777
 7424SOL     OW33733   0.652   1.905   9.720 -1.0374 -0.0123 -0.0191
 7424SOL    HW133734   0.612   1.988   9.748 -0.6622  0.5045 -1.0181
 7424SOL    HW233735   0.741   1.936   9.706 -0.8739 -1.4528 -2.1408
 7425SOL     OW33736   4.156   4.719   5.626  0.5382  0.1731  0.0723
 7425SOL    HW133737   4.130   0.071   5.582 -0.9818  0.5237  1.5862
 7425SOL    HW233738   4.070   4.680   5.641  1.0770 -0.8930  0.3832
 7426SOL     OW33739   1.518   1.545   8.678  0.4176  0.2220 -0.2178
 7426SOL    HW133740   1.528   1.596   8.759 -0.4021  0.1623 -0.0709
 7426SOL    HW233741   1.574   1.599   8.622 -0.0559  0.1979 -0.7148
 7427SOL     OW33742   3.114   2.212   1.946 -0.2507 -0.5019  0.1066
 7427SOL    HW133743   3.028   2.244   1.971 -0.0204 -1.1485  1.7325
 7427SOL    HW233744   3.141   2.166   2.025 -1.1658 -0.4356  0.4476
 7428SOL     OW33745   0.880   2.767  17.696 -0.3497  0.0163  0.0268
 7428SOL    HW133746   0.913   2.745  17.608  1.1782 -0.1069  0.6225
 7428SOL    HW233747   0.856   2.858  17.681  1.6786  0.7137  0.9006
 7429SOL     OW33748   1.152   2.197   3.429  0.2845  0.4027 -0.2346
 7429SOL    HW133749   1.173   2.275   3.379  0.4750  1.0956  0.9203
 7429SOL    HW233750   1.241   2.163   3.439 -0.5088 -1.5468  0.2499
 7430SOL     OW33751   4.388   0.176  12.735 -0.1557 -0.3772 -0.1933
 7430SOL    HW133752   4.451   0.215  12.796 -0.1926 -0.9093  0.1845
 7430SOL    HW233753   4.357   0.253  12.688  0.9274  1.8646  2.7493
 7431SOL     OW33754   3.414   1.577   9.426 -0.2763 -0.0162  0.5521
 7431SOL    HW133755   3.425   1.483   9.411 -0.5024  0.2425 -1.1328
 7431SOL    HW233756   3.322   1.574   9.451 -0.3336  0.3300  0.3769
 7432SOL     OW33757   2.609   2.948   2.485 -0.5161 -0.0605  0.0864
 7432SOL    HW133758   2.669   2.984   2.550 -0.3754  0.3617 -0.2765
 7432SOL    HW233759   2.666   2.952   2.408 -1.2070  3.5175 -0.2028
 7433SOL     OW33760   1.901   1.333   0.475  0.0245 -0.3306 -0.4674
 7433SOL    HW133761   1.901   1.250   0.523 -0.3418  0.6639  1.2193
 7433SOL    HW233762   1.915   1.294   0.389  1.3526  1.0078 -0.8529
 7434SOL     OW33763   3.583   2.666  10.045  0.4320 -0.2497  0.2138
 7434SOL    HW133764   3.614   2.619   9.967  1.8418 -2.1511  1.9197
 7434SOL    HW233765   3.659   2.723  10.054  0.3456 -0.0355 -0.4018
 7435SOL     OW33766   0.486   4.330   8.407  0.0315  0.8160  0.7416
 7435SOL    HW133767   0.493   4.363   8.496  0.8460  0.5742  0.7610
 7435SOL    HW233768   0.392   4.343   8.390 -0.0193 -1.0069 -0.4564
 7436SOL     OW33769   1.572   1.106   9.708 -0.1070 -0.0677 -0.0720
 7436SOL    HW133770   1.616   1.079   9.789  1.6572 -1.0060 -1.3371
 7436SOL    HW233771   1.557   1.021   9.667 -0.8306  0.5411 -1.0647
 7437SOL     OW33772   2.391   4.471   4.973 -0.0449 -0.1243  0.0906
 7437SOL    HW133773   2.374   4.483   5.066  0.2747 -1.0135  0.2633
 7437SOL    HW233774   2.312   4.506   4.932 -0.7345 -0.6236  0.9942
 7438SOL     OW33775   3.152   1.200   9.607 -0.1635 -0.0198 -0.1015
 7438SOL    HW133776   3.157   1.290   9.576  2.0439  1.0687  3.3732
 7438SOL    HW233777   3.089   1.211   9.679  0.9818 -0.7740  1.0249
 7439SOL     OW33778   0.787   3.908   4.229  0.2784 -0.1334 -0.2631
 7439SOL    HW133779   0.819   3.868   4.148  0.2566  0.2134 -0.4402
 7439SOL    HW233780   0.695   3.884   4.245  0.1396  0.3084 -0.4002
 7440SOL     OW33781   0.488   4.150   9.723 -0.0943 -0.3812 -0.0264
 7440SOL    HW133782   0.467   4.202   9.802  0.0111  0.4365 -0.5330
 7440SOL    HW233783   0.465   4.068   9.767 -3.7359 -0.9102 -2.9468
 7441SOL     OW33784   1.781   3.738   2.460 -0.1589 -0.4623 -0.0020
 7441SOL    HW133785   1.872   3.708   2.471  0.0678  0.4595  0.5694
 7441SOL    HW233786   1.735   3.678   2.519 -2.4515 -0.0486 -1.3827
 7442SOL     OW33787   4.055   2.355   7.800 -0.7224  0.4790 -0.0176
 7442SOL    HW133788   4.114   2.387   7.732  0.6136  0.5444  1.1737
 7442SOL    HW233789   4.093   2.390   7.881 -2.0025  0.9862  0.3704
 7443SOL     OW33790   2.481   1.186   4.108 -0.1901  0.4392 -0.1022
 7443SOL    HW133791   2.405   1.132   4.086 -0.6810  0.6342  1.1502
 7443SOL    HW233792   2.514   1.209   4.021  0.2688 -1.4105 -0.4365
 7444SOL     OW33793   3.123   2.160   8.054  0.4909  0.2365  0.1894
 7444SOL    HW133794   3.082   2.214   8.122  0.9361 -1.9584  2.2092
 7444SOL    HW233795   3.124   2.084   8.112  0.2453 -0.2001 -0.3788
 7445SOL     OW33796   3.116   1.663  13.783 -0.6527  0.2229  0.2804
 7445SOL    HW133797   3.092   1.571  13.781  2.9277 -0.7041 -0.8919
 7445SOL    HW233798   3.062   1.681  13.859  1.4129 -1.3397  2.1057
 7446SOL     OW33799   0.503   0.533   8.072  0.1800  0.0538 -0.0282
 7446SOL    HW133800   0.466   0.470   8.010 -0.8009  0.6571 -0.0584
 7446SOL    HW233801   0.494   0.618   8.029 -0.0591 -1.3083 -2.6685
 7447SOL     OW33802   1.185   3.784  10.949 -0.5888 -0.5035  0.2381
 7447SOL    HW133803   1.195   3.824  10.863 -1.8260 -1.8657 -0.5502
 7447SOL    HW233804   1.205   3.696  10.916  1.2907  0.2670 -0.7040
 7448SOL     OW33805   2.242   1.969   5.356  0.4894  0.4700  0.5990
 7448SOL    HW133806   2.272   1.891   5.403 -1.4777 -1.1932 -0.9445
 7448SOL    HW233807   2.186   2.012   5.421 -1.2662 -3.9596  2.0104
 7449SOL     OW33808   3.904   2.803  17.310 -0.4191 -0.1655 -0.1209
 7449SOL    HW133809   3.835   2.865  17.338 -0.5080 -0.0662 -0.5619
 7449SOL    HW233810   3.846   2.727  17.306  1.7922 -1.9215  1.2475
 7450SOL     OW33811   2.491   1.554   3.595 -0.0218  0.6152  0.4047
 7450SOL    HW133812   2.568   1.504   3.621 -0.5952  0.3248  1.5506
 7450SOL    HW233813   2.520   1.579   3.507 -0.4858  2.6173  0.8089
 7451SOL     OW33814   3.828   4.343   4.717 -0.1219  0.8898 -0.3340
 7451SOL    HW133815   3.876   4.275   4.763  0.4865  1.6770  0.1933
 7451SOL    HW233816   3.862   4.422   4.759  1.0897 -0.3152  0.9371
 7452SOL     OW33817   4.405   1.978  13.195 -0.2646  0.7661  0.2865
 7452SOL    HW133818   4.337   1.952  13.257 -0.5467  1.6637  0.3565
 7452SOL    HW233819   4.444   1.893  13.177  0.4684  1.5709 -1.8003
 7453SOL     OW33820   2.541   0.535   7.440  0.1011 -0.4304 -0.3003
 7453SOL    HW133821   2.513   0.481   7.514 -0.6024 -3.4619 -2.7347
 7453SOL    HW233822   2.604   0.475   7.399  1.2317  0.6086 -0.0861
 7454SOL     OW33823   2.436   4.364  12.309 -0.3176  0.8953  0.3355
 7454SOL    HW133824   2.424   4.302  12.381 -0.6626 -1.5436 -1.7808
 7454SOL    HW233825   2.346   4.396  12.298  0.0812  1.7016 -0.5727
 7455SOL     OW33826   4.197   2.104   5.651 -0.1938 -0.4826 -0.3176
 7455SOL    HW133827   4.114   2.150   5.634  0.8210  0.8551 -1.6975
 7455SOL    HW233828   4.223   2.155   5.728  0.6662 -2.3161  0.5953
 7456SOL     OW33829   0.950   3.526  10.783 -0.5645 -0.0641  0.3321
 7456SOL    HW133830   0.858   3.511  10.762 -1.1546  4.3390 -0.1972
 7456SOL    HW233831   0.958   3.621  10.772 -2.8695  0.1828  0.8865
 7457SOL     OW33832   0.063   4.286   5.729 -0.1210  0.2295  0.6221
 7457SOL    HW133833   0.081   4.345   5.656 -1.7465  0.9146  0.7716
 7457SOL    HW233834   0.009   4.217   5.690 -0.3088  0.3996  0.5803
 7458SOL     OW33835   0.797   2.841   8.155 -0.0348  0.4688 -0.0807
 7458SOL    HW133836   0.769   2.932   8.145 -2.7654 -0.3742  0.1088
 7458SOL    HW233837   0.891   2.847   8.136 -0.0021  0.4648  0.0756
 7459SOL     OW33838   0.433   3.406   9.787 -0.3592  0.1865 -0.0435
 7459SOL    HW133839   0.401   3.322   9.756 -0.0029 -0.3205  0.9438
 7459SOL    HW233840   0.410   3.457   9.709 -0.2118  1.3286  0.6494
 7460SOL     OW33841   1.112   2.054   3.988 -0.2526  0.0479  0.4499
 7460SOL    HW133842   1.061   1.980   4.020  0.8712 -0.7536  0.4057
 7460SOL    HW233843   1.193   2.016   3.954 -1.0953 -0.1436 -1.3097
 7461SOL     OW33844   0.855   4.716   4.707 -0.3606  0.1194  1.3303
 7461SOL    HW133845   0.783   0.021   4.654  0.0044 -2.2828 -0.7154
 7461SOL    HW233846   0.858   4.627   4.670 -0.4792  1.8120 -2.6679
 7462SOL     OW33847   4.176   4.373   3.260  0.0459 -0.2813  0.0489
 7462SOL    HW133848   4.109   4.428   3.220 -2.4281 -0.5927  3.7428
 7462SOL    HW233849   4.176   4.410   3.348  2.2723 -0.5058  0.1344
 7463SOL     OW33850   1.488   4.447  12.013  0.0820  0.0450 -0.0181
 7463SOL    HW133851   1.541   4.523  12.037  0.7743 -0.0147 -1.3391
 7463SOL    HW233852   1.542   4.379  12.054  0.4742 -1.2034 -2.5833
 7464SOL     OW33853   1.112   3.578  14.810  0.6246  0.3538  0.2933
 7464SOL    HW133854   1.149   3.574  14.722  1.6137  0.8915  0.6788
 7464SOL    HW233855   1.131   3.494  14.853  0.2685 -0.3574 -0.9456
 7465SOL     OW33856   1.638   0.990  12.711  0.0951 -0.1464  0.1314
 7465SOL    HW133857   1.729   0.993  12.682 -0.4475  1.8420 -1.3874
 7465SOL    HW233858   1.619   1.083  12.719  3.2692  0.4420  0.9277
 7466SOL     OW33859   0.005   3.260   5.670  0.1160 -0.6691 -0.7055
 7466SOL    HW133860   4.728   3.227   5.760 -0.4533  1.0719 -0.1177
 7466SOL    HW233861   0.084   3.218   5.636 -0.5469 -2.1499 -0.4592
 7467SOL     OW33862   4.016   1.252  16.395 -0.5890 -0.1156  0.4619
 7467SOL    HW133863   4.046   1.172  16.352 -0.0493  1.0711 -1.3953
 7467SOL    HW233864   4.081   1.310  16.355 -1.8349  0.6802 -0.4228
 7468SOL     OW33865   1.431   2.095   2.024 -0.3686 -0.5177 -0.0033
 7468SOL    HW133866   1.342   2.124   2.046  0.2435 -0.3543  2.2135
 7468SOL    HW233867   1.414   2.036   1.950 -1.3449 -0.4574  0.1752
 7469SOL     OW33868   2.931   1.833   5.780  0.0566  0.0119  0.0218
 7469SOL    HW133869   2.844   1.803   5.755  0.5174 -2.0284  0.8089
 7469SOL    HW233870   2.960   1.748   5.814  1.7341  0.2361 -0.8579
 7470SOL     OW33871   4.537   3.666   1.568 -0.0470 -0.0397 -0.7998
 7470SOL    HW133872   4.555   3.603   1.498  0.5850  0.0221 -0.6927
 7470SOL    HW233873   4.549   3.609   1.644  0.2191  1.3805  0.2343
 7471SOL     OW33874   3.472   0.062   9.749  0.2363 -0.2114  0.1742
 7471SOL    HW133875   3.564   0.060   9.775 -0.4416 -0.0274  2.6115
 7471SOL    HW233876   3.460   4.696   9.734 -1.0556  0.2035 -1.4423
 7472SOL     OW33877   0.520   2.736   4.791  0.4509  0.0686 -0.1459
 7472SOL    HW133878   0.561   2.775   4.713  0.9066 -0.2460 -0.0676
 7472SOL    HW233879   0.586   2.670   4.813 -1.0324 -0.4985  2.5243
 7473SOL     OW33880   4.119   4.495  15.206  0.2405  0.7434  0.2202
 7473SOL    HW133881   4.127   4.490  15.301 -1.3196  0.0518  0.3121
 7473SOL    HW233882   4.177   4.570  15.198  1.0019  0.2133  0.7984
 7474SOL     OW33883   2.054   2.503   5.724  0.1883 -0.5051 -0.4316
 7474SOL    HW133884   2.083   2.420   5.685 -1.4539 -1.2187 -0.0963
 7474SOL    HW233885   2.066   2.485   5.817 -0.9689  0.5633 -0.0747
 7475SOL     OW33886   3.881   0.173   8.246  0.4698 -0.1353 -0.1488
 7475SOL    HW133887   3.802   0.225   8.263  0.5575 -0.1807  0.4037
 7475SOL    HW233888   3.905   0.144   8.334  2.3440 -1.0724 -0.9682
 7476SOL     OW33889   1.507   3.092   4.244  0.3799 -0.1301 -0.4296
 7476SOL    HW133890   1.597   3.106   4.215  0.2732 -0.5538 -0.9526
 7476SOL    HW233891   1.468   3.115   4.160 -2.4439 -1.7120  0.4388
 7477SOL     OW33892   1.350   3.238  12.390 -0.3662 -0.0864  0.1179
 7477SOL    HW133893   1.327   3.147  12.407  0.4209 -0.0600  1.3086
 7477SOL    HW233894   1.364   3.236  12.295  0.1898  3.0641  0.1151
 7478SOL     OW33895   1.780   1.905   8.333  0.2059 -0.0437 -0.3910
 7478SOL    HW133896   1.875   1.913   8.327  0.2371  0.0470  0.1660
 7478SOL    HW233897   1.756   1.945   8.250  0.2817  0.8072 -0.0039
 7479SOL     OW33898   1.545   0.216   7.653  0.0621  0.5189  0.0489
 7479SOL    HW133899   1.508   0.283   7.710  1.8906  1.0659  0.6039
 7479SOL    HW233900   1.634   0.252   7.653  0.2434  0.0400  3.6150
 7480SOL     OW33901   2.406   4.434  14.160 -0.6819 -0.2242  0.4990
 7480SOL    HW133902   2.484   4.489  14.154 -1.0459  0.1716 -0.6585
 7480SOL    HW233903   2.418   4.374  14.085  0.2240  1.5450 -0.7636
 7481SOL     OW33904   0.588   1.103   5.766  0.0323  0.1870  0.2766
 7481SOL    HW133905   0.564   1.159   5.839 -1.0017 -0.2203  0.2627
 7481SOL    HW233906   0.515   1.116   5.705 -1.3096 -0.0891  1.8405
 7482SOL     OW33907   4.390   0.723  13.689  0.1619  0.6187  0.3932
 7482SOL    HW133908   4.479   0.711  13.723 -0.1694  0.5590  1.2573
 7482SOL    HW233909   4.354   0.635  13.703  0.4262  0.2250 -1.5173
 7483SOL     OW33910   4.405   1.784   3.820 -0.2853  0.8209 -0.1526
 7483SOL    HW133911   4.348   1.711   3.842  0.7153  0.6368  1.7992
 7483SOL    HW233912   4.449   1.806   3.902 -3.6958  1.4122  1.5444
 7484SOL     OW33913   3.235   2.653   2.482  0.6673  0.1903  0.1329
 7484SOL    HW133914   3.212   2.734   2.527 -1.3766 -1.0864  1.4271
 7484SOL    HW233915   3.163   2.596   2.508 -0.6990  1.0940 -1.6761
 7485SOL     OW33916   1.287   3.037   4.446 -0.4347  0.1851 -0.3485
 7485SOL    HW133917   1.284   3.113   4.505  0.9767 -0.3075  0.3568
 7485SOL    HW233918   1.289   3.076   4.359  2.2524  2.8008  0.9157
 7486SOL     OW33919   0.865   0.161   6.294 -0.0164  0.4551 -0.0405
 7486SOL    HW133920   0.787   0.111   6.318  0.5103 -0.4827 -0.3089
 7486SOL    HW233921   0.833   0.230   6.236 -0.3907 -0.7278 -1.2308
 7487SOL     OW33922   1.617   0.695  16.788 -0.1653  0.0247 -0.4830
 7487SOL    HW133923   1.647   0.617  16.835  0.2820  0.8650  0.6129
 7487SOL    HW233924   1.526   0.688  16.814 -0.4548  0.1071 -1.4488
 7488SOL     OW33925   3.753   1.714  15.625 -0.9330  0.6680  0.1696
 7488SOL    HW133926   3.757   1.809  15.633  0.9081  0.5724  0.2114
 7488SOL    HW233927   3.831   1.680  15.668  0.1248  2.7842 -0.1048
 7489SOL     OW33928   0.809   1.491   0.953  0.0313  0.0980 -0.1383
 7489SOL    HW133929   0.721   1.528   0.962  0.0110  0.4367 -1.7159
 7489SOL    HW233930   0.857   1.544   1.016  0.8734  0.4899 -1.0992
 7490SOL     OW33931   1.202   0.007   1.923 -0.3680  0.0193  0.2238
 7490SOL    HW133932   1.124   4.726   1.976 -0.9743 -0.2214 -0.7169
 7490SOL    HW233933   1.175   4.699   1.839 -0.3704 -0.9420  0.6500
 7491SOL     OW33934   1.583   2.209  11.386  0.2397 -0.0109 -0.7097
 7491SOL    HW133935   1.500   2.239  11.423  0.3305  0.4725 -0.8954
 7491SOL    HW233936   1.616   2.287  11.341  0.0973 -0.1971 -1.1324
 7492SOL     OW33937   3.804   3.897   6.674 -0.2025 -0.3088 -0.0388
 7492SOL    HW133938   3.843   3.855   6.751  0.1692 -0.2096 -0.1716
 7492SOL    HW233939   3.877   3.933   6.624 -0.1482 -0.5621 -0.1420
 7493SOL     OW33940   3.762   3.357   0.687  0.2974  0.4568 -0.3574
 7493SOL    HW133941   3.685   3.308   0.655  0.7117 -0.0101 -0.6433
 7493SOL    HW233942   3.822   3.286   0.711  1.8628  1.7338 -0.5153
 7494SOL     OW33943   4.632   2.057  14.706  0.2018 -0.8186 -0.1122
 7494SOL    HW133944   4.707   2.117  14.711  2.2636 -3.3517 -0.3587
 7494SOL    HW233945   4.561   2.115  14.731 -0.2076 -0.2352 -2.6547
 7495SOL     OW33946   4.073   4.044   0.775  0.1890  0.3385 -0.0629
 7495SOL    HW133947   4.123   4.072   0.698  0.8809 -0.9827 -0.0844
 7495SOL    HW233948   4.062   3.951   0.755 -4.6318  0.8915 -0.0987
 7496SOL     OW33949   0.725   4.034   5.463  0.8066 -0.3123  0.2237
 7496SOL    HW133950   0.714   3.977   5.387  1.9977 -0.2219 -0.0227
 7496SOL    HW233951   0.759   3.975   5.531  1.4013  0.8239  0.9271
 7497SOL     OW33952   3.660   1.866   3.544  0.4126  0.5029 -0.1477
 7497SOL    HW133953   3.707   1.846   3.463 -0.6568 -0.8765 -0.4229
 7497SOL    HW233954   3.674   1.787   3.595  0.1665  0.8331  0.4302
 7498SOL     OW33955   2.337   0.375  16.192 -0.3493 -0.2401  0.0662
 7498SOL    HW133956   2.250   0.393  16.157  0.0629  0.0832 -0.7736
 7498SOL    HW233957   2.362   0.307  16.129 -0.1373  1.0715 -1.2322
 7499SOL     OW33958   3.477   4.136   4.994 -0.3815  0.2588  0.0319
 7499SOL    HW133959   3.454   4.224   5.025  1.0980  1.4662 -2.2864
 7499SOL    HW233960   3.500   4.160   4.904  0.1351 -1.4727 -0.2812
 7500SOL     OW33961   0.364   1.780   5.408 -0.0570  0.0344  0.4635
 7500SOL    HW133962   0.280   1.781   5.364 -0.5948  3.1619  1.5822
 7500SOL    HW233963   0.415   1.729   5.345 -0.8777  0.7008 -0.7268
 7501SOL     OW33964   1.864   4.707   3.356 -0.6496  0.2160 -0.0506
 7501SOL    HW133965   1.894   4.654   3.282  1.9645  0.5584  0.7978
 7501SOL    HW233966   1.938   0.039   3.356  0.2149 -0.8446  0.5941
 7502SOL     OW33967   2.941   3.540   8.773  0.1808  0.2493 -0.0346
 7502SOL    HW133968   2.963   3.544   8.866  1.0839 -2.4629 -0.1358
 7502SOL    HW233969   2.864   3.597   8.773  0.6875  0.9398  0.2681
 7503SOL     OW33970   0.575   0.886   3.647 -0.3991  0.2898  0.4084
 7503SOL    HW133971   0.653   0.832   3.640 -0.3217  0.5984 -1.1618
 7503SOL    HW233972   0.605   0.974   3.623  2.8312 -1.3473 -1.4835
 7504SOL     OW33973   2.055   4.533   7.827  0.1752 -0.7550 -0.3845
 7504SOL    HW133974   2.091   4.453   7.866  0.8816 -0.6343 -0.7875
 7504SOL    HW233975   1.962   4.511   7.830 -0.0393  0.2224  0.2313
 7505SOL     OW33976   0.063   0.883   5.477 -0.0656 -0.1290 -0.2207
 7505SOL    HW133977   0.057   0.798   5.433 -1.7053 -1.3856  2.4589
 7505SOL    HW233978   4.716   0.879   5.536 -1.8088  1.1591 -2.3766
 7506SOL     OW33979   0.115   2.174   7.079 -0.1521 -0.8652  0.7316
 7506SOL    HW133980   0.150   2.217   7.157  0.8256 -2.4441  1.1626
 7506SOL    HW233981   0.187   2.186   7.018 -0.4576 -0.7061  0.4010
 7507SOL     OW33982   3.270   2.129   7.624  0.0297  0.2966 -0.0662
 7507SOL    HW133983   3.232   2.081   7.550 -0.8497 -0.6837  1.0148
 7507SOL    HW233984   3.309   2.207   7.586  0.0872  0.1653 -0.2780
 7508SOL     OW33985   0.947   1.197   3.713 -0.1663  0.3718 -0.5356
 7508SOL    HW133986   0.887   1.236   3.777 -0.6415 -0.4365 -0.4828
 7508SOL    HW233987   0.985   1.281   3.688  0.1607  0.0460 -1.1176
 7509SOL     OW33988   4.365   0.893   9.499  0.0674  0.1371 -0.0359
 7509SOL    HW133989   4.297   0.932   9.554  1.0240  1.4829  0.1935
 7509SOL    HW233990   4.422   0.857   9.567  0.6126 -1.6649 -1.4604
 7510SOL     OW33991   0.715   3.746   3.327 -0.2812 -0.4767  0.5097
 7510SOL    HW133992   0.761   3.779   3.250 -0.5289  0.4458  0.7498
 7510SOL    HW233993   0.624   3.752   3.298 -0.0609 -2.3198 -0.5664
 7511SOL     OW33994   0.860   1.568   6.236 -0.0318  0.4151  0.7575
 7511SOL    HW133995   0.861   1.548   6.142  3.1235  0.7431  0.7232
 7511SOL    HW233996   0.934   1.512   6.260  1.5712  2.2752  0.1666
 7512SOL     OW33997   1.755   0.955  15.484 -0.5006  0.8782  0.3508
 7512SOL    HW133998   1.733   1.048  15.478  1.7365  1.2488 -1.9862
 7512SOL    HW233999   1.727   0.934  15.395 -0.9232 -2.1322  1.1768
 7513SOL     OW34000   3.204   3.762  15.311  0.2252 -0.0037 -0.1314
 7513SOL    HW134001   3.190   3.848  15.352  0.9177  0.9344 -1.8444
 7513SOL    HW234002   3.145   3.770  15.236 -0.9859 -0.6464  0.7566
 7514SOL     OW34003   2.242   2.909   6.342  0.5990 -0.2660 -0.2086
 7514SOL    HW134004   2.244   2.874   6.253  0.8658 -1.0494  0.1049
 7514SOL    HW234005   2.229   2.829   6.392 -4.2781 -0.1419 -1.3252
 7515SOL     OW34006   3.241   3.131   4.305  0.0406 -0.0215 -0.5432
 7515SOL    HW134007   3.286   3.047   4.317 -1.9984 -1.0356  0.1225
 7515SOL    HW234008   3.160   3.118   4.355 -0.7428 -1.2747 -2.1187
 7516SOL     OW34009   3.595   1.368  11.618  0.1539  0.0288 -0.5063
 7516SOL    HW134010   3.565   1.279  11.599 -0.3648  0.4264 -1.5319
 7516SOL    HW234011   3.617   1.389  11.527 -2.0777  1.7474 -0.6465
 7517SOL     OW34012   4.709   0.448   8.161 -0.3709  0.4511 -0.0440
 7517SOL    HW134013   4.668   0.517   8.214 -2.2399 -0.4476 -0.3108
 7517SOL    HW234014   4.686   0.370   8.211 -0.8560  0.2653 -0.5629
 7518SOL     OW34015   1.909   2.192   1.039  0.2211 -0.3317  0.7401
 7518SOL    HW134016   1.866   2.163   1.119 -0.5617  0.9197  0.7867
 7518SOL    HW234017   1.998   2.175   1.068  0.4848 -0.0281  0.1089
 7519SOL     OW34018   0.394   3.202   7.698  0.0360 -0.0840  0.5839
 7519SOL    HW134019   0.316   3.253   7.718 -0.8075 -1.0860 -0.1453
 7519SOL    HW234020   0.368   3.118   7.736 -0.5258  0.3270  1.1043
 7520SOL     OW34021   4.202   3.750   9.789  0.4729  0.1289  0.2334
 7520SOL    HW134022   4.266   3.817   9.765 -0.0117  1.7898  3.6170
 7520SOL    HW234023   4.247   3.670   9.815  0.0678 -0.6333 -1.3927
 7521SOL     OW34024   0.961   4.578   8.994 -0.1275  0.1179  0.1021
 7521SOL    HW134025   0.994   4.628   8.919  1.2361 -0.4661  0.3004
 7521SOL    HW234026   1.024   4.608   9.060 -0.7757  3.5968 -0.8255
 7522SOL     OW34027   4.293   3.625   5.250  0.6711 -0.4168  0.0424
 7522SOL    HW134028   4.295   3.688   5.178  1.2418 -1.1194 -0.5551
 7522SOL    HW234029   4.375   3.661   5.285 -0.1134  2.1682 -0.7866
 7523SOL     OW34030   1.059   1.220   1.602  0.1758 -0.1536  0.2521
 7523SOL    HW134031   1.043   1.284   1.532  0.7788 -0.0756  0.1839
 7523SOL    HW234032   1.096   1.276   1.669  0.7818 -0.0878 -0.1344
 7524SOL     OW34033   0.515   2.979   9.832  0.4045 -0.1874  0.6194
 7524SOL    HW134034   0.452   2.908   9.846 -0.6189  0.8491  1.2631
 7524SOL    HW234035   0.545   2.993   9.922  1.2821  2.2733 -0.0482
 7525SOL     OW34036   0.964   1.069   1.306  0.2051  0.0404  0.0978
 7525SOL    HW134037   0.945   1.163   1.303 -0.1686 -0.1048 -2.0878
 7525SOL    HW234038   1.055   1.068   1.277 -0.8854  0.1482 -3.2791
 7526SOL     OW34039   4.468   4.635   5.220 -0.4041 -0.3763 -0.6884
 7526SOL    HW134040   4.400   4.638   5.153 -1.5194 -2.3741  0.3349
 7526SOL    HW234041   4.419   4.633   5.303 -1.1609  0.5409 -1.1079
 7527SOL     OW34042   0.248   1.820   2.874  0.2528 -0.5097  0.1278
 7527SOL    HW134043   0.200   1.903   2.882  1.1933  0.2488 -2.0768
 7527SOL    HW234044   0.228   1.798   2.783 -0.3414 -1.0475  0.3934
 7528SOL     OW34045   1.925   1.107   8.593 -0.3112  0.6132 -0.0114
 7528SOL    HW134046   1.834   1.078   8.588 -0.2474  0.3922  0.1032
 7528SOL    HW234047   1.906   1.197   8.620 -0.0215  0.0626  2.0511
 7529SOL     OW34048   3.995   0.477   9.631  0.0653 -0.0103  0.1243
 7529SOL    HW134049   4.020   0.566   9.656  3.3965 -0.8024 -0.4249
 7529SOL    HW234050   4.063   0.462   9.566  2.0869  1.0845  1.9742
 7530SOL     OW34051   3.122   1.356   4.535  0.2229 -0.0876  0.0327
 7530SOL    HW134052   3.190   1.293   4.511 -0.0217 -0.6841  0.9088
 7530SOL    HW234053   3.164   1.439   4.511 -0.5672  0.0018 -1.0552
 7531SOL     OW34054   4.657   0.788   6.783  0.2932 -0.1448 -0.0146
 7531SOL    HW134055   4.627   0.796   6.873 -0.1251 -0.4032 -0.1285
 7531SOL    HW234056   0.013   0.832   6.789  0.5968 -0.5770 -1.0873
 7532SOL     OW34057   0.373   0.034   7.597 -0.2720 -0.0124  0.2057
 7532SOL    HW134058   0.371   0.013   7.690  0.9752 -1.1433 -0.0177
 7532SOL    HW234059   0.452   4.716   7.569 -0.8913 -1.5775  1.0677
 7533SOL     OW34060   4.059   2.832  11.889  0.3465  0.7008 -0.2938
 7533SOL    HW134061   4.123   2.902  11.876 -0.4287  1.5152  0.2902
 7533SOL    HW234062   4.109   2.750  11.882  2.5203  1.9390  0.7527
 7534SOL     OW34063   3.484   3.538   0.164 -0.1109  0.2446  0.2252
 7534SOL    HW134064   3.519   3.613   0.213 -0.1316 -0.3641  1.1691
 7534SOL    HW234065   3.502   3.465   0.223 -0.3990 -0.9627 -1.1831
 7535SOL     OW34066   4.280   2.324   3.401  0.0891 -0.4042  0.7070
 7535SOL    HW134067   4.221   2.398   3.417  0.6603  0.1767  0.1369
 7535SOL    HW234068   4.325   2.369   3.329  0.7611 -0.8754  0.8376
 7536SOL     OW34069   2.231   4.286   1.696 -0.3407 -0.0560  0.2152
 7536SOL    HW134070   2.304   4.238   1.736  0.7208  1.6032  0.2858
 7536SOL    HW234071   2.170   4.217   1.671 -0.1582 -0.3675  0.6237
 7537SOL     OW34072   2.585   2.412   4.973 -0.0719 -0.5848  0.0352
 7537SOL    HW134073   2.578   2.347   5.043 -2.8242  1.7806  1.9642
 7537SOL    HW234074   2.572   2.351   4.900  1.6049 -0.0895 -0.6979
 7538SOL     OW34075   3.001   0.658   7.321 -0.1969 -0.1585 -0.0668
 7538SOL    HW134076   3.085   0.611   7.330 -0.1614 -0.2350 -0.8672
 7538SOL    HW234077   2.952   0.588   7.278  1.0119 -0.2301 -1.3308
 7539SOL     OW34078   2.948   4.312   6.360  0.0992  0.5707 -0.0987
 7539SOL    HW134079   2.896   4.370   6.304 -0.9830  0.6548  0.9937
 7539SOL    HW234080   2.965   4.250   6.289 -0.7637 -0.9234  0.9912
 7540SOL     OW34081   3.729   2.568   7.514  0.7895 -0.0003 -0.2132
 7540SOL    HW134082   3.736   2.475   7.491  0.6026  0.4822 -2.2257
 7540SOL    HW234083   3.758   2.560   7.605 -0.3696 -1.0700  0.0719
 7541SOL     OW34084   0.567   2.447   9.785  0.7049  0.1688  0.2202
 7541SOL    HW134085   0.641   2.494   9.747 -0.5885  0.6987 -1.6370
 7541SOL    HW234086   0.489   2.500   9.770  0.8297 -0.1037 -1.3724
 7542SOL     OW34087   3.717   1.396   5.039 -0.1463 -0.3951 -0.5039
 7542SOL    HW134088   3.708   1.491   5.049  3.7575  0.1290 -2.0603
 7542SOL    HW234089   3.710   1.384   4.944 -0.1037 -2.4959 -0.2250
 7543SOL     OW34090   1.089   0.734   2.280  0.4152 -0.5367  0.4434
 7543SOL    HW134091   1.025   0.769   2.218  0.3564 -1.3978  0.0187
 7543SOL    HW234092   1.151   0.683   2.229  0.7010 -1.7219  1.9855
 7544SOL     OW34093   0.458   1.562   1.917 -0.0842  0.1562  0.0588
 7544SOL    HW134094   0.504   1.503   1.977  0.1074  0.6879  0.4287
 7544SOL    HW234095   0.371   1.555   1.956 -0.5588 -0.8309 -1.1615
 7545SOL     OW34096   3.165   3.135   5.676 -0.3241  0.2479 -0.4207
 7545SOL    HW134097   3.221   3.173   5.745 -0.4744  0.1621 -0.2501
 7545SOL    HW234098   3.212   3.175   5.603  0.1721 -0.2948 -0.4007
 7546SOL     OW34099   1.625   4.100  11.572  0.2838 -0.2484 -0.5318
 7546SOL    HW134100   1.659   4.026  11.622  2.4196  0.2197 -1.2956
 7546SOL    HW234101   1.532   4.101  11.597 -0.3356  0.2535 -2.8361
 7547SOL     OW34102   0.044   4.581   7.174  0.4271  0.4607  0.0737
 7547SOL    HW134103   0.134   4.589   7.143  0.0236 -0.7988 -1.4551
 7547SOL    HW234104   0.034   4.486   7.176  1.2653  0.4381  3.0992
 7548SOL     OW34105   1.502   3.524   5.769  0.3957  0.4415 -0.1387
 7548SOL    HW134106   1.560   3.600   5.761  0.2365  0.4795 -0.9585
 7548SOL    HW234107   1.569   3.458   5.788 -0.0952  0.5587  2.0398
 7549SOL     OW34108   2.533   3.091   4.403 -0.3874 -0.7580  0.3302
 7549SOL    HW134109   2.520   3.165   4.463  2.6716 -0.7866  1.0528
 7549SOL    HW234110   2.476   3.108   4.329  0.7047 -1.7559 -0.7566
 7550SOL     OW34111   4.556   3.518  10.852  0.2719 -0.8130  0.2012
 7550SOL    HW134112   4.468   3.490  10.878 -0.1510  0.9035  0.6341
 7550SOL    HW234113   4.603   3.491  10.931 -0.7957  0.9599  1.4483
 7551SOL     OW34114   2.346   2.129   3.734  0.0391 -0.4091 -0.3662
 7551SOL    HW134115   2.324   2.064   3.668  0.7297  0.7738 -1.7634
 7551SOL    HW234116   2.278   2.123   3.801  2.1161 -1.9716  1.5659
 7552SOL     OW34117   2.948   2.128   1.076  0.1387  0.2273 -0.3561
 7552SOL    HW134118   3.032   2.173   1.077  1.0202 -1.3968 -0.8258
 7552SOL    HW234119   2.976   2.042   1.046  0.2612 -0.3319  1.3232
 7553SOL     OW34120   0.815   1.508   7.455  0.2888  0.6635 -0.3097
 7553SOL    HW134121   0.860   1.474   7.532  1.9729  0.4502 -1.3795
 7553SOL    HW234122   0.875   1.578   7.428  1.4291 -0.4420 -0.6311
 7554SOL     OW34123   2.594   2.935   6.920  0.0712 -0.3873  0.3543
 7554SOL    HW134124   2.637   3.014   6.886 -0.2747 -1.1510 -1.8725
 7554SOL    HW234125   2.662   2.868   6.911 -0.2397 -0.8674  1.5955
 7555SOL     OW34126   2.686   2.165   6.781  0.3789  0.0343  0.2902
 7555SOL    HW134127   2.630   2.169   6.858  1.0558 -0.0580  0.7877
 7555SOL    HW234128   2.644   2.232   6.727  0.8045  0.6423  0.7091
 7556SOL     OW34129   2.622   2.359  17.323 -0.5632  0.2999  0.4556
 7556SOL    HW134130   2.667   2.374  17.240  0.4326 -1.5926  0.6515
 7556SOL    HW234131   2.541   2.410  17.322  0.6541  2.2350  1.5058
 7557SOL     OW34132   3.503   1.065   1.688  0.1639 -0.3437  0.1697
 7557SOL    HW134133   3.520   1.135   1.626 -4.4142  0.4160 -0.2372
 7557SOL    HW234134   3.408   1.066   1.674  0.1705 -1.5787  0.0007
 7558SOL     OW34135   1.263   1.677   7.215  0.3107  0.0347 -0.8463
 7558SOL    HW134136   1.259   1.766   7.250 -1.3582  0.5917 -2.4489
 7558SOL    HW234137   1.347   1.649   7.250  0.1809 -0.5717 -1.0332
 7559SOL     OW34138   2.906   1.207  13.670 -0.3644  0.0035 -0.3724
 7559SOL    HW134139   2.956   1.125  13.670 -1.5451 -0.7292  0.3080
 7559SOL    HW234140   2.813   1.185  13.662 -0.6401  0.5039  1.3555
 7560SOL     OW34141   2.566   2.075   6.051  0.8829 -0.0811 -0.0784
 7560SOL    HW134142   2.561   2.012   6.122  0.9199  0.7798  0.6910
 7560SOL    HW234143   2.589   2.154   6.099 -1.9149  1.5920 -1.4560
 7561SOL     OW34144   3.235   1.177   7.717  0.0084  0.0428 -0.0938
 7561SOL    HW134145   3.183   1.219   7.648 -1.1505 -2.7257 -0.8928
 7561SOL    HW234146   3.180   1.203   7.790  0.5570 -0.5242  0.5167
 7562SOL     OW34147   3.444   0.734  12.343 -0.2198 -0.2830  0.2265
 7562SOL    HW134148   3.422   0.805  12.404 -0.3649 -0.2575  0.1464
 7562SOL    HW234149   3.362   0.685  12.350 -0.6571  0.3484 -0.4237
 7563SOL     OW34150   0.891   0.829   6.904  0.6616  0.0657  0.0879
 7563SOL    HW134151   0.873   0.743   6.866 -0.1285  0.7216 -1.0107
 7563SOL    HW234152   0.890   0.802   6.997 -0.1894 -0.7667 -0.1576
 7564SOL     OW34153   4.248   4.210   3.949 -0.1896 -0.4646 -0.0436
 7564SOL    HW134154   4.341   4.218   3.973 -0.4280  1.1986  0.3746
 7564SOL    HW234155   4.211   4.258   4.023  0.3710  0.7693 -0.5530
 7565SOL     OW34156   1.245   2.773   4.532  0.2624 -0.4648  0.2011
 7565SOL    HW134157   1.276   2.856   4.495 -2.3521 -0.2677 -1.5575
 7565SOL    HW234158   1.177   2.803   4.591  0.9360  0.8557  0.2998
 7566SOL     OW34159   1.741   2.178  14.144  0.6564  0.6986  0.4990
 7566SOL    HW134160   1.785   2.217  14.219  1.4826 -0.9537  0.8813
 7566SOL    HW234161   1.792   2.222  14.076  0.8456  0.9339  0.7926
 7567SOL     OW34162   3.703   1.381   5.560  0.7086 -0.2672 -0.7281
 7567SOL    HW134163   3.727   1.420   5.476 -0.8558 -3.2598 -2.5647
 7567SOL    HW234164   3.620   1.340   5.535  0.4195 -0.2750  0.2151
 7568SOL     OW34165   2.839   2.684   2.486 -0.1793  0.9097 -0.1004
 7568SOL    HW134166   2.771   2.745   2.456 -0.0204 -0.3828 -3.0585
 7568SOL    HW234167   2.818   2.610   2.430 -0.2880  0.7031  0.2118
 7569SOL     OW34168   1.085   2.661   4.321  0.1781  0.1404 -0.0226
 7569SOL    HW134169   1.132   2.694   4.398  1.3760  0.5679 -0.9155
 7569SOL    HW234170   1.124   2.712   4.249  0.6873  2.0378  1.5904
 7570SOL     OW34171   1.629   3.913  10.606  0.9207 -0.6556 -0.1578
 7570SOL    HW134172   1.549   3.870  10.635  1.1458 -0.9815 -0.0097
 7570SOL    HW234173   1.606   3.987  10.662 -1.5161 -1.8073  0.3449
 7571SOL     OW34174   4.540   2.700  16.780 -0.2721  0.0855  0.1964
 7571SOL    HW134175   4.507   2.768  16.839 -2.0685 -0.5583 -0.0776
 7571SOL    HW234176   4.561   2.626  16.837  2.1409 -0.9442 -2.0364
 7572SOL     OW34177   2.463   0.079   6.768  0.1854 -0.5002 -0.6824
 7572SOL    HW134178   2.527   0.017   6.803  0.3691 -0.4920 -1.0019
 7572SOL    HW234179   2.466   0.155   6.826  1.0117 -1.4350  0.4907
 7573SOL     OW34180   2.670   0.851  13.741 -0.1604  0.0530  0.2064
 7573SOL    HW134181   2.648   0.888  13.656  0.8710  0.3547  0.0717
 7573SOL    HW234182   2.756   0.885  13.768 -0.8053  1.6172  0.2990
 7574SOL     OW34183   0.328   0.308   1.876  0.3866  0.6947 -1.1050
 7574SOL    HW134184   0.423   0.294   1.882  0.1520  0.2295  1.6281
 7574SOL    HW234185   0.305   0.286   1.966  2.0574  2.4070 -0.2595
 7575SOL     OW34186   2.739   4.372   9.022  0.5288  0.1864  0.1316
 7575SOL    HW134187   2.800   4.307   8.988 -0.1185  0.5380 -1.6774
 7575SOL    HW234188   2.657   4.330   8.997  2.5804 -3.5860 -0.2656
 7576SOL     OW34189   3.581   3.156   8.456  0.2540 -0.2945  0.0044
 7576SOL    HW134190   3.515   3.092   8.432 -0.3954  0.9703 -1.5851
 7576SOL    HW234191   3.542   3.213   8.522 -0.1187  0.8326 -1.1981
 7577SOL     OW34192   1.126   1.150  15.360  0.0039  0.0216  0.2826
 7577SOL    HW134193   1.096   1.187  15.277  0.9174 -0.6587 -0.3594
 7577SOL    HW234194   1.061   1.179  15.424 -1.8482 -0.7871 -1.2287
 7578SOL     OW34195   4.445   4.062   8.864 -0.2900  0.9626 -0.3847
 7578SOL    HW134196   4.441   4.057   8.769 -0.2088 -0.0067 -0.3386
 7578SOL    HW234197   4.376   3.997   8.882  0.2663  0.1807 -1.0621
 7579SOL     OW34198   3.844   0.118  10.348  0.2587  0.1366  0.1916
 7579SOL    HW134199   3.833   0.090  10.257 -1.6641 -0.1752  0.5091
 7579SOL    HW234200   3.775   0.060  10.381 -2.1028  2.9280  0.2279
 7580SOL     OW34201   4.355   0.805   3.801 -0.8186  0.1161 -0.7710
 7580SOL    HW134202   4.338   0.884   3.750 -0.3762  0.0338 -1.0473
 7580SOL    HW234203   4.353   0.735   3.735 -0.6704 -0.6356  0.0224
 7581SOL     OW34204   1.613   0.390  11.771 -0.5565  0.0278 -0.2019
 7581SOL    HW134205   1.682   0.393  11.704  0.2179 -0.8767  0.5525
 7581SOL    HW234206   1.539   0.363  11.717  0.5100 -0.4969 -1.3973
 7582SOL     OW34207   4.536   0.023   1.836  0.3143 -0.0560  0.1435
 7582SOL    HW134208   4.554   0.096   1.895  1.0439 -1.6605  1.9277
 7582SOL    HW234209   4.549   0.060   1.749 -0.2005 -1.5055 -0.5568
 7583SOL     OW34210   4.369   4.364   9.236  0.2431  0.4149  0.3371
 7583SOL    HW134211   4.463   4.359   9.256  0.5755  2.1275 -0.8009
 7583SOL    HW234212   4.339   4.359   9.327 -1.1056  0.2047 -0.1187
 7584SOL     OW34213   4.470   1.853   7.923 -0.0245  0.0998 -0.5564
 7584SOL    HW134214   4.427   1.777   7.961  1.2369 -0.2484  0.1723
 7584SOL    HW234215   4.555   1.810   7.914 -0.7320 -1.2388 -0.7561
 7585SOL     OW34216   4.026   3.312   8.539 -0.7317  0.6938 -0.3462
 7585SOL    HW134217   4.030   3.240   8.602  0.4083 -0.0021 -1.2206
 7585SOL    HW234218   3.949   3.358   8.573  0.7704  1.3000  2.3006
 7586SOL     OW34219   1.632   0.509   8.268 -0.1323 -0.1913 -0.1138
 7586SOL    HW134220   1.723   0.480   8.261 -0.4891 -1.2059 -0.6263
 7586SOL    HW234221   1.582   0.429   8.252 -1.5063  0.4732  0.8564
 7587SOL     OW34222   2.741   2.381  17.075  0.7689  0.1018  0.0216
 7587SOL    HW134223   2.778   2.293  17.081 -0.5916 -0.3095  2.2773
 7587SOL    HW234224   2.711   2.383  16.984 -1.1179 -0.5529  0.6442
 7588SOL     OW34225   1.972   0.446   0.942 -0.1635 -0.0326 -0.1540
 7588SOL    HW134226   1.955   0.488   0.858  3.7193  0.0336 -0.9178
 7588SOL    HW234227   1.914   0.370   0.941 -1.1757  0.7371 -0.1533
 7589SOL     OW34228   0.164   4.597   5.883  0.4758  0.1736 -0.0555
 7589SOL    HW134229   0.219   4.544   5.824 -2.5490 -1.4278 -1.4049
 7589SOL    HW234230   0.217   4.593   5.963  0.1026 -0.3568  0.1584
 7590SOL     OW34231   2.420   1.085   5.139  0.6326 -0.1848  0.1595
 7590SOL    HW134232   2.369   1.028   5.082 -2.3741  1.8446  0.8052
 7590SOL    HW234233   2.420   1.036   5.221  0.3244  0.6144  0.6416
 7591SOL     OW34234   0.005   0.462   8.879  0.5797  0.6091  0.5867
 7591SOL    HW134235   0.012   0.555   8.899 -0.5108  0.6227  0.9250
 7591SOL    HW234236   0.068   0.432   8.944  0.4512 -0.2603  0.3146
 7592SOL     OW34237   0.898   2.282  14.815  0.4897 -0.0137  0.5798
 7592SOL    HW134238   0.940   2.290  14.901  1.0139  1.9498  0.1520
 7592SOL    HW234239   0.817   2.235  14.834  0.2577 -0.4001 -1.3555
 7593SOL     OW34240   4.389   1.439   5.782 -0.2891 -0.0170 -0.1936
 7593SOL    HW134241   4.472   1.398   5.807 -0.6911 -0.4131  0.4784
 7593SOL    HW234242   4.365   1.392   5.702 -1.9342 -0.9402  0.8336
 7594SOL     OW34243   1.478   1.580   6.567 -0.5645  0.0627 -0.9525
 7594SOL    HW134244   1.397   1.624   6.595 -1.1767 -2.0220  0.5284
 7594SOL    HW234245   1.534   1.565   6.643 -0.9258 -0.2961 -0.7589
 7595SOL     OW34246   3.856   3.571   2.533 -0.0484 -0.1025  0.1861
 7595SOL    HW134247   3.914   3.570   2.609  0.4086  3.2230 -0.1213
 7595SOL    HW234248   3.830   3.663   2.537  0.8891  0.1784 -0.4098
 7596SOL     OW34249   1.394   4.294   3.806 -0.1501 -0.0160 -0.2663
 7596SOL    HW134250   1.421   4.384   3.823  0.2961 -0.5412  1.8902
 7596SOL    HW234251   1.475   4.246   3.822 -0.8785 -0.8123  1.0921
 7597SOL     OW34252   1.860   3.453   6.784  0.4146 -0.3614 -0.1899
 7597SOL    HW134253   1.775   3.425   6.750  0.2363 -0.9021  0.6964
 7597SOL    HW234254   1.907   3.411   6.712 -0.4961 -0.8385 -0.5141
 7598SOL     OW34255   2.522   3.342  17.166 -0.0678 -0.3672 -0.1575
 7598SOL    HW134256   2.556   3.257  17.140 -0.6064 -0.4454 -0.5882
 7598SOL    HW234257   2.430   3.322  17.183 -0.1691  1.1019  1.0260
 7599SOL     OW34258   4.420   0.521   1.703 -0.4008  0.2322 -0.1586
 7599SOL    HW134259   4.495   0.579   1.719  1.9054 -2.4713 -1.0404
 7599SOL    HW234260   4.369   0.585   1.653  1.3069  1.0251 -0.9089
 7600SOL     OW34261   4.153   0.590   6.317 -0.3302  0.0156  0.5183
 7600SOL    HW134262   4.155   0.652   6.243 -0.9892  1.3903  1.6629
 7600SOL    HW234263   4.077   0.623   6.364 -0.3319  0.9776 -0.1480
 7601SOL     OW34264   3.344   4.107   7.793 -0.4779 -0.6210  0.6290
 7601SOL    HW134265   3.411   4.090   7.859 -0.1646 -0.6054  0.3178
 7601SOL    HW234266   3.385   4.158   7.723  1.1422 -0.0658  2.0086
 7602SOL     OW34267   2.234   2.746   2.755 -0.7712  0.2740  0.4128
 7602SOL    HW134268   2.187   2.664   2.765  1.3284 -1.1282 -1.1187
 7602SOL    HW234269   2.313   2.728   2.704 -0.4486 -0.9911  1.3472
 7603SOL     OW34270   1.811   0.156   2.631  0.4275  0.0594 -0.8371
 7603SOL    HW134271   1.897   0.187   2.601  0.6307  0.0352 -0.2917
 7603SOL    HW234272   1.836   0.095   2.701 -0.3019 -1.1780 -1.6472
 7604SOL     OW34273   2.069   0.664   8.108 -0.3965  0.4401 -0.3883
 7604SOL    HW134274   2.003   0.665   8.039 -0.8880  1.8028  0.1062
 7604SOL    HW234275   2.122   0.588   8.083  1.1794  2.1131 -2.1286
 7605SOL     OW34276   1.359   0.547  17.664  0.5868  0.0411 -0.2598
 7605SOL    HW134277   1.355   0.544   0.045  0.4008  1.2815 -0.2195
 7605SOL    HW234278   1.432   0.489  17.645 -1.1469 -1.7842 -1.3545
 7606SOL     OW34279   0.699   2.207   8.918  0.3632 -0.1487 -0.0947
 7606SOL    HW134280   0.629   2.273   8.922 -0.7642 -1.2435 -1.6879
 7606SOL    HW234281   0.709   2.189   9.011  0.5542 -1.7992 -0.4372
 7607SOL     OW34282   1.905   3.304  11.174  0.4340  0.3947  0.9017
 7607SOL    HW134283   1.967   3.309  11.246  1.6736  1.1775 -0.2281
 7607SOL    HW234284   1.837   3.366  11.203 -0.5115 -0.4811  0.5638
 7608SOL     OW34285   1.417   2.144   3.505 -0.3414 -0.4881 -0.5458
 7608SOL    HW134286   1.500   2.190   3.493 -1.7060  1.6566 -1.5965
 7608SOL    HW234287   1.398   2.166   3.596  0.1727 -2.3915  0.0331
 7609SOL     OW34288   0.347   2.816   8.414  0.4806 -0.7147 -0.2614
 7609SOL    HW134289   0.347   2.909   8.395  0.4675 -0.7227 -0.2994
 7609SOL    HW234290   0.317   2.779   8.331  0.3841  0.4815 -0.7475
 7610SOL     OW34291   2.985   1.713   3.363  0.1814 -0.0558 -0.2776
 7610SOL    HW134292   2.924   1.757   3.422  2.0305  0.1749  1.4889
 7610SOL    HW234293   2.992   1.779   3.294  0.2888  1.3792  1.1190
 7611SOL     OW34294   1.563   1.106  17.408 -0.1489  0.6937  0.0849
 7611SOL    HW134295   1.599   1.104  17.497 -2.2012  2.2843  0.9701
 7611SOL    HW234296   1.643   1.090  17.358 -0.5656 -1.0286 -0.0078
 7612SOL     OW34297   3.977   3.604   1.082  0.4039 -0.3690 -0.0321
 7612SOL    HW134298   3.944   3.685   1.121 -0.3993 -0.3704 -0.7014
 7612SOL    HW234299   3.934   3.621   0.998  2.7029 -3.7162 -1.9253
 7613SOL     OW34300   4.173   1.222   4.625  0.6474  0.0924 -0.6391
 7613SOL    HW134301   4.088   1.241   4.664  0.9762 -2.0519  1.1053
 7613SOL    HW234302   4.190   1.298   4.569  2.2424 -1.8706 -2.8303
 7614SOL     OW34303   1.627   4.612   7.825  0.5954 -0.0772  0.5741
 7614SOL    HW134304   1.664   4.670   7.893 -0.0550  1.5799 -0.4952
 7614SOL    HW234305   1.553   4.578   7.875  0.1422  1.0552  0.6625
 7615SOL     OW34306   2.115   4.207   3.377 -0.5589 -0.1026 -0.1680
 7615SOL    HW134307   2.051   4.192   3.447  0.8878 -1.6020  0.8256
 7615SOL    HW234308   2.181   4.141   3.399  0.0473 -0.0056 -1.6576
 7616SOL     OW34309   2.267   3.533  16.225  0.4922  0.3211 -0.0922
 7616SOL    HW134310   2.210   3.603  16.194 -1.3604 -0.8998  0.5626
 7616SOL    HW234311   2.212   3.478  16.282 -0.0103  0.5670 -0.3396
 7617SOL     OW34312   2.263   3.507   3.891 -0.2230 -0.0285 -0.0294
 7617SOL    HW134313   2.249   3.483   3.983 -0.1854  1.3462  0.3321
 7617SOL    HW234314   2.355   3.483   3.877 -0.4537 -1.5718  1.1568
 7618SOL     OW34315   4.217   3.224   8.168 -0.4915 -0.1399 -0.0963
 7618SOL    HW134316   4.124   3.235   8.186 -0.8751 -1.2665 -1.3130
 7618SOL    HW234317   4.213   3.134   8.133 -0.3277 -0.7240  1.4010
 7619SOL     OW34318   4.099   0.036  13.263  0.5327  0.0426 -0.1217
 7619SOL    HW134319   4.112   0.128  13.238 -1.5812  0.4186  0.1855
 7619SOL    HW234320   4.097   4.722  13.177  0.0715 -0.7776  0.2994
 7620SOL     OW34321   0.605   0.433   5.254 -0.3208  0.1212 -0.7542
 7620SOL    HW134322   0.640   0.345   5.239 -2.8603 -0.7775 -1.3468
 7620SOL    HW234323   0.687   0.479   5.235  1.0525 -1.0226  2.4577
 7621SOL     OW34324   3.005   4.077   1.348  0.5786  0.3708  0.0865
 7621SOL    HW134325   3.058   4.002   1.319  1.5199  0.2380  2.1382
 7621SOL    HW234326   3.065   4.151   1.347 -1.8483  2.3269 -1.6444
 7622SOL     OW34327   2.440   3.131  11.756  0.5646  0.5130 -0.3922
 7622SOL    HW134328   2.435   3.036  11.750 -0.8553  0.8170 -3.7524
 7622SOL    HW234329   2.404   3.149  11.669  0.0756  0.0545 -0.2881
 7623SOL     OW34330   0.565   4.212   4.269 -0.0889 -0.2992  0.3035
 7623SOL    HW134331   0.635   4.172   4.218 -1.3562 -0.5595 -1.2150
 7623SOL    HW234332   0.587   4.302   4.247  0.0778  0.1310  2.1714
 7624SOL     OW34333   3.911   2.485   0.203 -0.0712  0.5397 -0.3413
 7624SOL    HW134334   3.994   2.484   0.250 -0.9895 -1.6450  1.2512
 7624SOL    HW234335   3.912   2.395   0.170  1.2199 -0.1827  1.6342
 7625SOL     OW34336   4.375   0.139   7.648  0.2543 -0.0092 -0.1607
 7625SOL    HW134337   4.285   0.166   7.632  0.2022 -0.4435 -0.5729
 7625SOL    HW234338   4.377   0.061   7.593 -0.2014 -0.3405  0.2959
 7626SOL     OW34339   2.994   2.886   7.889 -0.3244 -0.1558  0.1016
 7626SOL    HW134340   3.039   2.823   7.945 -1.0334 -1.5835 -0.9380
 7626SOL    HW234341   2.953   2.838   7.817 -3.6347 -0.3241  2.0931
 7627SOL     OW34342   4.612   3.319   6.147 -0.1849 -0.0908 -0.4440
 7627SOL    HW134343   4.642   3.271   6.070 -0.7385 -0.1230 -0.6336
 7627SOL    HW234344   4.566   3.254   6.199  0.1226 -0.3438 -0.4854
 7628SOL     OW34345   0.511   1.243   3.061  0.5232 -0.3531 -0.6794
 7628SOL    HW134346   0.416   1.255   3.065  0.8257  1.7003  0.4160
 7628SOL    HW234347   0.535   1.270   3.150  1.3083 -0.6871 -0.7902
 7629SOL     OW34348   1.200   3.946   2.623 -1.1544 -0.0256 -0.3784
 7629SOL    HW134349   1.188   3.888   2.698 -0.3911 -2.4755 -2.1584
 7629SOL    HW234350   1.285   3.986   2.642  0.1761 -2.3565 -1.4793
 7630SOL     OW34351   0.485   2.478   4.980 -0.8241 -0.1468 -0.2238
 7630SOL    HW134352   0.490   2.429   5.062  0.0171 -0.2714 -0.3478
 7630SOL    HW234353   0.405   2.440   4.943 -0.5743  0.0857 -1.0056
 7631SOL     OW34354   2.837   1.193   5.947  0.0839 -0.2937 -0.4544
 7631SOL    HW134355   2.851   1.106   5.984 -0.1422 -0.1813 -0.1032
 7631SOL    HW234356   2.747   1.207   5.977  0.1463  1.0664 -0.8903
 7632SOL     OW34357   4.093   0.475  10.902 -0.2712 -0.2077 -0.3800
 7632SOL    HW134358   4.036   0.415  10.951  1.4033 -1.7751 -0.3505
 7632SOL    HW234359   4.107   0.407  10.835 -1.9168 -1.1269  0.1830
 7633SOL     OW34360   0.647   1.675   5.854 -0.1641  0.6190  0.5601
 7633SOL    HW134361   0.737   1.665   5.825 -0.6073 -0.4603 -0.4713
 7633SOL    HW234362   0.604   1.722   5.782 -2.9263 -3.8865 -0.7683
 7634SOL     OW34363   0.251   2.810  11.826  0.0080 -0.3974  0.0160
 7634SOL    HW134364   0.163   2.797  11.789  0.4138  2.5118 -2.0398
 7634SOL    HW234365   0.293   2.856  11.754 -0.7436 -0.4617 -0.4649
 7635SOL     OW34366   3.643   2.346   4.046  0.2474 -0.1998  0.0675
 7635SOL    HW134367   3.723   2.394   4.069  0.5366 -0.6110 -0.0736
 7635SOL    HW234368   3.599   2.339   4.130 -0.1938  0.3241 -0.1207
 7636SOL     OW34369   4.348   1.617   2.680  0.0160  0.2043  0.0628
 7636SOL    HW134370   4.333   1.620   2.586  0.4507 -0.1050 -0.0157
 7636SOL    HW234371   4.264   1.656   2.707  0.1557 -0.5733  1.5877
 7637SOL     OW34372   1.407   1.491  16.603  0.1875  0.0181 -0.2393
 7637SOL    HW134373   1.459   1.507  16.682  0.2023 -2.4136  0.2381
 7637SOL    HW234374   1.317   1.513  16.628  1.6572  1.5406  3.6488
 7638SOL     OW34375   0.279   3.986   9.628  0.0620 -0.5817 -0.1945
 7638SOL    HW134376   0.206   4.000   9.688  0.1591 -0.8292 -0.0202
 7638SOL    HW234377   0.316   4.075   9.638  1.2661 -1.1724  0.6242
 7639SOL     OW34378   1.696   2.116   7.640 -0.6778  0.4735 -0.2206
 7639SOL    HW134379   1.734   2.138   7.554 -0.0256 -0.1978 -0.1016
 7639SOL    HW234380   1.610   2.083   7.616 -1.2922  0.6674  1.7377
 7640SOL     OW34381   0.074   2.975   4.537 -0.0718  0.2496 -0.7883
 7640SOL    HW134382   0.084   3.069   4.553  0.7263  0.0168  0.1405
 7640SOL    HW234383   0.168   2.961   4.523  0.0647  1.3631 -0.9899
 7641SOL     OW34384   2.433   2.532   5.567 -0.6698 -0.0827  0.3071
 7641SOL    HW134385   2.389   2.539   5.483  0.7636 -2.5557 -0.6545
 7641SOL    HW234386   2.425   2.621   5.600  1.9801  0.5213 -0.6493
 7642SOL     OW34387   2.426   1.049  14.679  0.6149 -0.4517 -0.4374
 7642SOL    HW134388   2.410   1.063  14.772 -0.3695  0.1730 -0.7001
 7642SOL    HW234389   2.340   1.018  14.650  0.1939 -2.1815  2.6891
 7643SOL     OW34390   4.539   4.439   8.477 -0.5344  0.0024  0.0017
 7643SOL    HW134391   4.629   4.440   8.446 -0.6019  4.7961  0.0167
 7643SOL    HW234392   4.542   4.476   8.565 -1.7377  0.1408 -0.0102
 7644SOL     OW34393   1.627   1.662   7.818  0.6241 -0.1231  0.5851
 7644SOL    HW134394   1.672   1.745   7.835  1.6725 -1.1762  3.0445
 7644SOL    HW234395   1.537   1.693   7.823  0.3922 -0.9217  1.4044
 7645SOL     OW34396   3.313   2.537  15.618 -0.7032 -0.0286 -0.5077
 7645SOL    HW134397   3.405   2.541  15.590 -0.7726 -0.7717 -0.8185
 7645SOL    HW234398   3.275   2.574  15.538  0.5763  1.3617 -0.4943
 7646SOL     OW34399   3.699   4.269   8.789 -0.1323 -0.5750  0.0886
 7646SOL    HW134400   3.722   4.215   8.713  1.6766 -0.6524  0.6745
 7646SOL    HW234401   3.723   4.214   8.863 -1.1180 -0.9383  0.1320
 7647SOL     OW34402   0.174   1.126   5.480  0.4449 -0.5019  0.3348
 7647SOL    HW134403   0.204   1.138   5.571 -0.6835 -2.0580  0.9104
 7647SOL    HW234404   0.126   1.044   5.487 -1.1746  0.3918 -0.5168
 7648SOL     OW34405   0.401   3.856   7.893  0.4122 -0.2467  0.4056
 7648SOL    HW134406   0.464   3.813   7.835 -2.2728 -0.1629 -2.6100
 7648SOL    HW234407   0.435   3.837   7.980  0.6206  3.1309  1.0480
 7649SOL     OW34408   3.597   1.227  15.803 -0.5446 -0.0907 -0.0090
 7649SOL    HW134409   3.620   1.314  15.771  1.7609 -0.2898  1.1184
 7649SOL    HW234410   3.582   1.182  15.720  1.0880 -0.0066 -0.3374
 7650SOL     OW34411   2.409   0.320   5.878  0.0736  0.0003 -0.6016
 7650SOL    HW134412   2.344   0.274   5.931 -1.7183  2.5853 -0.5402
 7650SOL    HW234413   2.475   0.353   5.939  0.6580 -0.4285 -1.0039
 7651SOL     OW34414   1.026   2.131   1.054  0.1398  0.1834  0.0239
 7651SOL    HW134415   1.114   2.123   1.017 -0.5080  2.5578 -1.9985
 7651SOL    HW234416   0.994   2.195   0.991 -3.1043 -1.4899 -0.0400
 7652SOL     OW34417   1.985   2.000  16.187  0.1031  0.0145 -0.5693
 7652SOL    HW134418   1.998   1.906  16.177 -1.8897 -0.4827  1.5101
 7652SOL    HW234419   2.073   2.032  16.207 -1.3018  2.3477  1.9749
 7653SOL     OW34420   1.790   1.641  11.340  0.0078  0.5539 -0.2245
 7653SOL    HW134421   1.780   1.677  11.428  1.6094 -0.2913  0.2975
 7653SOL    HW234422   1.811   1.722  11.293  3.7555  0.3287  1.0459
 7654SOL     OW34423   4.064   1.745  10.498 -0.2755 -0.1780 -0.5225
 7654SOL    HW134424   4.105   1.698  10.426 -0.1673 -2.8259  1.2768
 7654SOL    HW234425   3.983   1.758  10.448 -1.9675  0.5875  2.4138
 7655SOL     OW34426   3.753   4.422   5.599 -0.0062  0.6200  0.3449
 7655SOL    HW134427   3.673   4.472   5.582  2.1303  3.7934 -0.4154
 7655SOL    HW234428   3.705   4.340   5.611 -1.3824  1.3922  0.1390
 7656SOL     OW34429   0.677   1.524  12.037 -0.0507  0.4323 -0.0373
 7656SOL    HW134430   0.726   1.446  12.064  0.2251  0.1735 -1.2984
 7656SOL    HW234431   0.636   1.488  11.958 -0.0021 -0.9793  0.5882
 7657SOL     OW34432   3.925   2.705  16.037 -0.7225 -0.3868 -0.4824
 7657SOL    HW134433   3.944   2.666  15.952  0.2805 -0.2110 -0.3446
 7657SOL    HW234434   3.900   2.796  16.018 -0.5719  0.0881  1.4906
 7658SOL     OW34435   0.516   3.807   4.197  0.2842 -0.4121 -0.2396
 7658SOL    HW134436   0.478   3.806   4.109  0.1688  0.7224 -0.2111
 7658SOL    HW234437   0.546   3.716   4.195  1.7659  0.0331  1.3889
 7659SOL     OW34438   1.194   0.365   8.559 -0.1652 -0.1937 -0.2540
 7659SOL    HW134439   1.134   0.339   8.489 -0.9573  1.5900 -0.2538
 7659SOL    HW234440   1.221   0.450   8.523  0.7025 -0.9864 -1.4701
 7660SOL     OW34441   2.693   2.184   3.438 -0.0771  0.1569 -0.1942
 7660SOL    HW134442   2.778   2.147   3.413  0.6022  1.3132  0.3984
 7660SOL    HW234443   2.656   2.209   3.354  0.6796  0.5113 -0.4271
 7661SOL     OW34444   3.563   2.224   0.798 -0.3546 -0.1422  0.1361
 7661SOL    HW134445   3.650   2.186   0.781 -0.2807 -0.7212  1.8007
 7661SOL    HW234446   3.583   2.271   0.878 -0.7981 -2.0084  1.3506
 7662SOL     OW34447   2.608   3.680   7.939 -0.5267  0.2891 -0.2017
 7662SOL    HW134448   2.611   3.584   7.941 -4.6172  0.1518  0.0110
 7662SOL    HW234449   2.531   3.699   7.993 -1.0278  1.5965 -1.3954
 7663SOL     OW34450   2.917   2.047   3.348 -0.2430 -0.7157  0.2372
 7663SOL    HW134451   2.973   2.023   3.423 -1.9688 -1.3439  1.3347
 7663SOL    HW234452   2.957   1.998   3.276 -0.1150  0.6048 -0.5819
 7664SOL     OW34453   3.778   4.726   7.290 -0.1574  0.1070  0.0914
 7664SOL    HW134454   3.806   0.053   7.217 -1.3648  2.9791  1.8097
 7664SOL    HW234455   3.863   4.686   7.307 -0.7635 -0.7016  1.2064
 7665SOL     OW34456   3.325   3.926   1.418 -0.1072 -0.2206  0.0824
 7665SOL    HW134457   3.348   3.889   1.504 -1.1118 -0.9098  0.0533
 7665SOL    HW234458   3.291   4.006   1.457  0.5669  0.2136 -0.2217
 7666SOL     OW34459   0.798   0.832   8.225  0.0856  0.6066 -0.4482
 7666SOL    HW134460   0.839   0.811   8.141 -0.6617  0.2424 -0.7251
 7666SOL    HW234461   0.864   0.878   8.277  1.2989  1.1313 -2.4557
 7667SOL     OW34462   3.572   0.571   3.318 -0.4188  0.6206 -0.3423
 7667SOL    HW134463   3.640   0.607   3.260  0.6977 -2.1227 -0.7522
 7667SOL    HW234464   3.615   0.564   3.403 -1.7896 -0.4598  0.2577
 7668SOL     OW34465   3.474   3.240   3.944  0.5877 -0.3976 -0.4643
 7668SOL    HW134466   3.540   3.309   3.943  0.3441 -0.1555 -0.0572
 7668SOL    HW234467   3.518   3.170   3.895 -1.4201 -0.0818 -2.7211
 7669SOL     OW34468   1.890   0.640  14.593  0.3084  0.6515  0.2910
 7669SOL    HW134469   1.819   0.696  14.564 -0.5579  0.2381  1.6499
 7669SOL    HW234470   1.950   0.675  14.526 -1.9251 -0.9612 -2.5602
 7670SOL     OW34471   2.383   3.886   8.019 -0.0947  0.5992 -0.4789
 7670SOL    HW134472   2.372   3.872   7.925  1.9331  0.1738 -0.6448
 7670SOL    HW234473   2.446   3.958   8.011  1.3505 -0.4928  1.4228
 7671SOL     OW34474   2.272   3.107   5.344 -0.3621 -0.1382 -0.0632
 7671SOL    HW134475   2.226   3.055   5.410 -1.9273  0.8410 -0.3845
 7671SOL    HW234476   2.340   3.045   5.316 -1.2727 -1.1542 -0.0220
 7672SOL     OW34477   2.193   0.402   8.093 -0.2130 -0.0072 -0.7174
 7672SOL    HW134478   2.175   0.316   8.056  2.9138 -1.6629  1.6440
 7672SOL    HW234479   2.288   0.393   8.090 -0.2875 -0.8426 -0.4639
 7673SOL     OW34480   2.609   2.222  16.878 -0.1130  0.3075  0.2705
 7673SOL    HW134481   2.622   2.147  16.936  0.5912  1.4018  1.5228
 7673SOL    HW234482   2.589   2.181  16.795 -3.3643  2.7151 -0.1460
 7674SOL     OW34483   3.654   3.609  11.950  0.6116  0.3676 -0.1763
 7674SOL    HW134484   3.709   3.646  12.019  0.5232 -2.0456  1.1884
 7674SOL    HW234485   3.646   3.518  11.979  0.6543  0.8188  1.2223
 7675SOL     OW34486   1.869   2.283   1.761  0.0658  0.3456  0.1408
 7675SOL    HW134487   1.921   2.362   1.749  1.8440 -0.7225  0.8657
 7675SOL    HW234488   1.944   2.237   1.799 -0.5952  0.0225  1.0543
 7676SOL     OW34489   2.471   0.429   8.121 -0.1744 -0.3672 -0.1487
 7676SOL    HW134490   2.442   0.510   8.163  0.2161 -0.6681  0.6972
 7676SOL    HW234491   2.524   0.400   8.196 -2.1935  0.1902  1.5112
 7677SOL     OW34492   2.419   0.953   4.739  0.1177  0.4253 -0.0507
 7677SOL    HW134493   2.387   0.966   4.828  2.4590  0.9360  0.7141
 7677SOL    HW234494   2.459   1.037   4.718 -2.4199  2.1071  1.8576
 7678SOL     OW34495   2.504   2.976   0.648 -0.0964  0.1094 -0.1736
 7678SOL    HW134496   2.491   2.910   0.580  2.5127 -1.0813  0.5074
 7678SOL    HW234497   2.599   2.987   0.646 -0.1923  1.4415  2.2416
 7679SOL     OW34498   2.746   2.447   2.348  0.1133  0.1729 -0.3297
 7679SOL    HW134499   2.785   2.362   2.366 -2.3178 -0.3711  2.4076
 7679SOL    HW234500   2.662   2.423   2.309 -0.0516 -0.1394  0.2109
 7680SOL     OW34501   0.583   4.038   3.263  0.3045 -0.3190  0.3993
 7680SOL    HW134502   0.569   4.020   3.356 -0.6137  0.4306  0.4156
 7680SOL    HW234503   0.671   4.002   3.263  0.6215  0.4466 -0.1096
 7681SOL     OW34504   0.780   0.187  10.953  0.3957  0.8530 -0.2733
 7681SOL    HW134505   0.867   0.225  10.954  0.3801  0.8895 -0.3482
 7681SOL    HW234506   0.728   0.266  10.967 -2.1558 -1.1604  1.7284
 7682SOL     OW34507   1.447   0.103   7.068 -0.4230 -0.3258  0.2319
 7682SOL    HW134508   1.502   0.121   6.992 -1.5061 -0.8982 -0.6922
 7682SOL    HW234509   1.444   0.190   7.107 -0.4536 -0.1056 -0.2731
 7683SOL     OW34510   1.351   0.586   4.535  0.2613 -0.5368  0.0422
 7683SOL    HW134511   1.275   0.616   4.485  0.8684 -2.3507 -2.0085
 7683SOL    HW234512   1.340   0.493   4.557 -1.4899 -0.5479 -0.9061
 7684SOL     OW34513   1.310   0.920   2.273 -0.4060 -0.0465  0.0233
 7684SOL    HW134514   1.237   0.873   2.232  1.4585 -2.8948 -0.0570
 7684SOL    HW234515   1.365   0.859   2.322  0.7169 -1.1403 -2.6097
 7685SOL     OW34516   3.026   1.497   0.213  0.4075  0.0887 -0.1238
 7685SOL    HW134517   3.108   1.465   0.176  0.5069  1.5603 -1.1401
 7685SOL    HW234518   3.048   1.514   0.305  1.3297 -1.7628 -0.0004
 7686SOL     OW34519   1.649   2.935  11.980 -0.4008  0.1600  0.8571
 7686SOL    HW134520   1.620   2.923  12.071 -0.5350  0.5823  0.8697
 7686SOL    HW234521   1.664   3.029  11.975  1.6840 -0.1597  0.9419
 7687SOL     OW34522   4.720   1.650   3.652 -0.4098  0.2079 -0.0125
 7687SOL    HW134523   4.637   1.636   3.697  0.6888 -0.5746  1.7677
 7687SOL    HW234524   4.689   1.685   3.568 -0.4878  1.2136  0.4388
 7688SOL     OW34525   2.950   1.111  14.953 -0.1897  0.0001  0.3030
 7688SOL    HW134526   2.990   1.061  15.024 -1.6452 -4.6000 -2.0578
 7688SOL    HW234527   3.014   1.094  14.883 -1.3046  0.8749 -0.9314
 7689SOL     OW34528   3.930   3.003  15.981 -0.4428 -0.2525  0.3857
 7689SOL    HW134529   3.880   3.001  15.899 -1.3341  0.5429  0.8988
 7689SOL    HW234530   3.952   3.096  15.987 -0.3107 -0.1219 -1.9388
 7690SOL     OW34531   3.717   0.250   1.924 -0.1801  0.4831 -0.5102
 7690SOL    HW134532   3.652   0.297   1.873  1.1821  2.4387 -0.4555
 7690SOL    HW234533   3.792   0.257   1.865 -0.6977  1.7525 -1.0062
 7691SOL     OW34534   2.748   1.678   3.142  0.3833 -0.2376 -0.5543
 7691SOL    HW134535   2.742   1.769   3.172 -1.9950 -0.0544 -1.5475
 7691SOL    HW234536   2.756   1.698   3.049  1.5158 -0.3020 -0.4658
 7692SOL     OW34537   1.592   3.947   5.069  0.7355 -0.9809 -0.0833
 7692SOL    HW134538   1.504   3.910   5.078  0.6140 -0.8351 -0.6745
 7692SOL    HW234539   1.600   3.950   4.973 -1.5771  1.0658 -0.1935
 7693SOL     OW34540   0.251   2.324   2.098  0.2370 -0.4120 -0.0158
 7693SOL    HW134541   0.171   2.296   2.141 -0.1363 -0.6864 -0.8778
 7693SOL    HW234542   0.295   2.372   2.168 -1.3219  0.9439  0.0363
 7694SOL     OW34543   2.216   3.186  16.075 -0.1967 -0.1486  0.2107
 7694SOL    HW134544   2.168   3.268  16.090 -0.2796 -0.1625  0.0218
 7694SOL    HW234545   2.231   3.194  15.981  0.9222 -0.2954  0.3829
 7695SOL     OW34546   3.343   3.594  13.395 -0.7688 -0.2328 -0.1282
 7695SOL    HW134547   3.352   3.542  13.474  1.5009  0.4366  0.0822
 7695SOL    HW234548   3.412   3.566  13.335  1.1381 -0.0380  1.9499
 7696SOL     OW34549   1.879   0.711   4.266 -0.1507 -0.0026  0.0784
 7696SOL    HW134550   1.830   0.644   4.313 -0.4492 -0.8180 -1.3797
 7696SOL    HW234551   1.971   0.695   4.287  0.0581  0.0135 -0.8235
 7697SOL     OW34552   0.190   3.618   5.236 -0.0030  0.1654  0.0171
 7697SOL    HW134553   0.124   3.649   5.174  1.1150  0.1548 -1.1685
 7697SOL    HW234554   0.135   3.575   5.302 -0.6362  0.5930 -0.2327
 7698SOL     OW34555   3.948   4.510  14.645  0.4460 -0.1452 -0.3617
 7698SOL    HW134556   3.985   4.496  14.558 -0.7944  1.7844 -1.2047
 7698SOL    HW234557   3.857   4.511  14.613  0.4061 -3.6518 -0.3122
 7699SOL     OW34558   0.568   4.665   9.239  0.1676  0.0639  0.0219
 7699SOL    HW134559   0.660   4.639   9.237  0.1126 -0.0449 -0.9210
 7699SOL    HW234560   0.569   0.031   9.223  1.3161 -0.1409 -1.1157
 7700SOL     OW34561   1.034   3.366   3.619  0.6593  0.2468  0.0232
 7700SOL    HW134562   1.120   3.407   3.620  1.5625 -1.5973 -0.6912
 7700SOL    HW234563   1.009   3.385   3.529 -0.5025 -3.7477 -0.5334
 7701SOL     OW34564   4.337   0.391  12.553  0.1766 -0.3545  0.1893
 7701SOL    HW134565   4.380   0.469  12.590 -0.0231  0.3727 -1.0937
 7701SOL    HW234566   4.350   0.415  12.461 -0.4211 -2.8999 -0.5416
 7702SOL     OW34567   4.506   4.421   9.546  0.2672 -0.1585 -0.1772
 7702SOL    HW134568   4.582   4.464   9.506  0.0976 -0.9830 -1.3763
 7702SOL    HW234569   4.545   4.336   9.566 -1.9403 -1.3269 -0.8194
 7703SOL     OW34570   3.548   3.223  14.915 -0.2069 -0.1053  0.2516
 7703SOL    HW134571   3.537   3.163  14.989  0.7410  0.5686  0.9340
 7703SOL    HW234572   3.484   3.286  14.947  1.3749  1.4360  0.3434
 7704SOL     OW34573   1.914   2.809   5.415  0.0193  0.0415 -0.1859
 7704SOL    HW134574   1.981   2.776   5.475 -0.0247 -1.2375 -0.8424
 7704SOL    HW234575   1.975   2.793   5.343  0.8128 -0.1811  0.5377
 7705SOL     OW34576   1.279   1.056   0.069  0.2764 -0.8366 -0.4465
 7705SOL    HW134577   1.339   0.988   0.039  0.2031 -1.2139  0.2843
 7705SOL    HW234578   1.226   1.003   0.129 -2.5272  1.0427 -1.2503
 7706SOL     OW34579   3.986   4.114   8.452 -0.4352  0.3073  0.3140
 7706SOL    HW134580   3.934   4.041   8.417 -0.4235  0.4655 -0.0304
 7706SOL    HW234581   3.968   4.176   8.382  0.3848 -0.9999 -1.0513
 7707SOL     OW34582   0.701   1.550   9.218  0.1488  0.6474 -0.3262
 7707SOL    HW134583   0.610   1.530   9.196  0.0372  2.1831 -1.2891
 7707SOL    HW234584   0.712   1.642   9.194  1.8477  0.6164  0.3153
 7708SOL     OW34585   1.726   3.002   3.450 -0.2139  0.1640  0.8107
 7708SOL    HW134586   1.668   3.075   3.470 -0.9983  0.4014 -2.2849
 7708SOL    HW234587   1.744   3.016   3.357 -1.8035  1.4219  0.6868
 7709SOL     OW34588   0.508   4.669   1.022  0.0729 -0.3998 -0.4476
 7709SOL    HW134589   0.535   4.726   0.951 -0.7984  1.0951  0.4228
 7709SOL    HW234590   0.591   4.635   1.057  1.2571  2.5247 -0.4856
 7710SOL     OW34591   4.117   1.149   4.171  0.0380 -0.0660 -0.4089
 7710SOL    HW134592   4.092   1.077   4.230  1.8058 -0.7110 -0.4687
 7710SOL    HW234593   4.039   1.206   4.176  0.8387  0.8816  1.3884
 7711SOL     OW34594   2.591   3.484   1.365 -0.2238  0.3919  0.1032
 7711SOL    HW134595   2.634   3.512   1.285 -0.0925  0.3142  0.1463
 7711SOL    HW234596   2.503   3.506   1.334  0.3855 -1.9858 -3.3443
 7712SOL     OW34597   0.157   0.954   6.794 -0.5665  0.0583  0.3412
 7712SOL    HW134598   0.229   0.892   6.790 -1.5975 -0.8156 -4.4077
 7712SOL    HW234599   0.201   1.039   6.782 -1.1665  0.4691  1.0324
 7713SOL     OW34600   0.400   3.484   5.335  0.9272 -0.1927 -0.1131
 7713SOL    HW134601   0.363   3.407   5.293 -2.0443  1.0353  0.2324
 7713SOL    HW234602   0.341   3.548   5.295 -0.9373 -1.3885  0.7246
 7714SOL     OW34603   2.461   3.225  14.547  0.4679 -0.2693  0.1875
 7714SOL    HW134604   2.417   3.256  14.626 -1.1433  1.3280 -1.3297
 7714SOL    HW234605   2.474   3.303  14.494  0.3281 -0.3934 -0.0266
 7715SOL     OW34606   3.571   4.271   4.764 -0.5752 -0.6656 -0.3975
 7715SOL    HW134607   3.588   4.227   4.680  1.5467 -0.6058 -0.0052
 7715SOL    HW234608   3.658   4.309   4.774 -0.8705  0.0073 -0.4110
 7716SOL     OW34609   4.129   1.124   9.974 -0.3425 -0.4613  0.0665
 7716SOL    HW134610   4.209   1.173   9.990 -1.3576  0.8507  1.0363
 7716SOL    HW234611   4.163   1.046  10.019  0.2181  0.7707  1.7578
 7717SOL     OW34612   0.964   1.421  12.020 -0.3683  0.1027  0.3929
 7717SOL    HW134613   0.982   1.515  12.026  1.9017 -0.2177 -1.5587
 7717SOL    HW234614   0.958   1.408  11.925 -0.4567  1.8456  0.1518
 7718SOL     OW34615   2.388   1.013   9.822 -0.2522 -0.4877  0.1179
 7718SOL    HW134616   2.347   0.989   9.905 -0.9366 -0.1944 -0.1395
 7718SOL    HW234617   2.313   1.011   9.762  0.4200  1.0658 -0.7671
 7719SOL     OW34618   1.585   1.176   6.445  0.2236  0.1162 -0.0484
 7719SOL    HW134619   1.522   1.110   6.414 -0.1855  0.9989 -1.0779
 7719SOL    HW234620   1.668   1.130   6.454  0.7953  1.1536 -0.1529
 7720SOL     OW34621   3.674   1.469   8.882  0.2170  0.1330  0.0913
 7720SOL    HW134622   3.676   1.388   8.832  1.4364 -0.1005  0.5100
 7720SOL    HW234623   3.703   1.438   8.967  1.9114  1.3764 -0.0230
 7721SOL     OW34624   1.471   0.047   6.347 -0.2128  0.8743 -0.0088
 7721SOL    HW134625   1.555   0.085   6.372  1.7541 -2.9569 -0.7347
 7721SOL    HW234626   1.495   0.020   6.258  1.5366  1.6058  0.2581
 7722SOL     OW34627   0.111   2.698   5.355 -0.4396 -0.0258  0.4157
 7722SOL    HW134628   0.030   2.677   5.309 -0.9759  1.0555  0.8460
 7722SOL    HW234629   0.091   2.784   5.392  2.0734 -0.2133  2.1955
 7723SOL     OW34630   2.864   1.180   9.424 -0.0979 -0.5407  0.4591
 7723SOL    HW134631   2.956   1.173   9.397  0.5544  1.1037  2.2571
 7723SOL    HW234632   2.827   1.239   9.359 -1.0721 -1.0036  0.5937
 7724SOL     OW34633   0.507   3.648   7.717 -0.2376 -0.1738  0.5161
 7724SOL    HW134634   0.602   3.644   7.711 -0.2137  0.9927  0.1496
 7724SOL    HW234635   0.484   3.611   7.632  0.6186 -1.3590  0.8128
 7725SOL     OW34636   4.725   2.951  13.976 -0.6695 -0.0194 -0.3714
 7725SOL    HW134637   4.719   3.042  14.008  2.4080 -0.5754  1.7365
 7725SOL    HW234638   0.087   2.950  13.948 -1.3834  0.4072 -2.7025
 7726SOL     OW34639   3.041   1.502  10.429  0.0663 -0.2441  0.1776
 7726SOL    HW134640   3.037   1.407  10.427 -0.8857 -0.2070  0.4566
 7726SOL    HW234641   3.078   1.524  10.515  0.3769 -1.6458  0.3912
 7727SOL     OW34642   4.433   1.334  12.880 -0.0793 -0.2968 -0.3963
 7727SOL    HW134643   4.488   1.349  12.803  0.2208  0.6298 -0.0009
 7727SOL    HW234644   4.497   1.283  12.929 -1.3101 -0.0699  1.4182
 7728SOL     OW34645   3.523   4.384   3.325 -0.4044  0.0438  0.7562
 7728SOL    HW134646   3.448   4.442   3.310  0.3471  0.6777 -0.5941
 7728SOL    HW234647   3.511   4.340   3.409  2.1001  1.9682  2.1305
 7729SOL     OW34648   4.485   0.248   6.690  0.0773  0.2063 -0.0266
 7729SOL    HW134649   4.500   0.290   6.605  0.9164  0.3104  0.1734
 7729SOL    HW234650   4.487   0.329   6.742  0.9837 -0.5215  1.0684
 7730SOL     OW34651   1.550   2.947   3.954 -0.1661 -0.3898 -0.3461
 7730SOL    HW134652   1.605   2.899   4.016 -0.5871 -2.9259 -1.9344
 7730SOL    HW234653   1.621   2.985   3.904 -0.8690  1.8795  0.3794
 7731SOL     OW34654   4.369   0.602  10.934  0.0554 -0.5522 -0.7618
 7731SOL    HW134655   4.288   0.554  10.915 -0.3963 -0.1243  0.0481
 7731SOL    HW234656   4.342   0.671  10.994  2.8573 -1.0354  1.0538
 7732SOL     OW34657   2.633   4.110   7.251  0.2853  0.7720 -0.4373
 7732SOL    HW134658   2.608   4.126   7.342  0.8889  0.4887 -0.2281
 7732SOL    HW234659   2.629   4.015   7.251  0.0649  0.7985  3.7262
 7733SOL     OW34660   0.343   1.815   2.231  0.8796  0.0791  0.5406
 7733SOL    HW134661   0.323   1.874   2.303 -1.1741 -1.0460  0.8838
 7733SOL    HW234662   0.261   1.809   2.182  0.4301  1.3392  1.1488
 7734SOL     OW34663   2.571   4.227   7.526 -0.3992  0.3034 -0.1380
 7734SOL    HW134664   2.636   4.285   7.487  1.7083 -1.2667  1.1003
 7734SOL    HW234665   2.486   4.265   7.503 -0.0419 -0.0394 -1.9556
 7735SOL     OW34666   3.883   3.311   8.995 -0.6207 -0.1688 -0.6520
 7735SOL    HW134667   3.977   3.292   8.990 -0.7820 -0.6922 -1.6614
 7735SOL    HW234668   3.836   3.230   8.975 -2.6520  1.1164 -1.0365
 7736SOL     OW34669   4.156   1.178   7.790  0.1837 -0.3842  0.2277
 7736SOL    HW134670   4.069   1.159   7.823 -0.6958  1.7869 -0.8389
 7736SOL    HW234671   4.184   1.255   7.838 -1.9619 -1.0075  2.4536
 7737SOL     OW34672   3.928   3.567  17.497 -0.7217 -0.0930 -0.2744
 7737SOL    HW134673   3.981   3.493  17.465 -0.5746  0.5450 -1.4992
 7737SOL    HW234674   3.993   3.609  17.553 -0.0692 -0.8125 -0.4836
 7738SOL     OW34675   1.703   3.195   2.708 -0.1193  0.7275 -0.6282
 7738SOL    HW134676   1.753   3.114   2.700 -0.6042  0.1726  1.9280
 7738SOL    HW234677   1.656   3.200   2.625 -1.0071  2.6167 -0.0068
 7739SOL     OW34678   1.059   3.944   2.385  0.3168  0.3296  0.2632
 7739SOL    HW134679   1.084   3.929   2.476  1.0017 -0.4654 -0.0538
 7739SOL    HW234680   1.133   3.914   2.333 -0.7389 -0.9893 -0.4680
 7740SOL     OW34681   1.047   2.741  12.468 -0.0193  0.0506  0.5571
 7740SOL    HW134682   1.081   2.692  12.393 -0.0243  2.0353 -0.7437
 7740SOL    HW234683   1.050   2.677  12.539 -0.6250  0.0551  0.5851
 7741SOL     OW34684   0.488   1.382   6.167 -0.0916  0.7014  0.9230
 7741SOL    HW134685   0.492   1.469   6.128 -0.9614 -0.8792 -2.6687
 7741SOL    HW234686   0.539   1.395   6.247  1.0895 -0.8321  0.4121
 7742SOL     OW34687   0.684   0.253   4.066  0.6667  0.3229 -0.1263
 7742SOL    HW134688   0.691   0.287   3.977 -1.2617  1.2615  0.0746
 7742SOL    HW234689   0.774   0.220   4.069  0.9010  0.8527 -1.7268
 7743SOL     OW34690   3.465   2.469   7.894  0.4637  0.9352  0.3704
 7743SOL    HW134691   3.469   2.471   7.798  1.5262 -0.9691  0.3702
 7743SOL    HW234692   3.521   2.544   7.912  0.4430  1.1777 -0.5638
 7744SOL     OW34693   2.675   4.442   2.945 -0.7209  0.0856  0.0605
 7744SOL    HW134694   2.645   4.416   3.032  0.1733  1.3739  0.7552
 7744SOL    HW234695   2.770   4.450   2.950 -0.7182 -0.8884  1.5827
 7745SOL     OW34696   4.598   2.896  11.495 -0.3381 -0.2037  0.3702
 7745SOL    HW134697   4.585   2.931  11.583  1.4245 -0.3465  0.6853
 7745SOL    HW234698   4.668   2.832  11.511  0.6966  0.7958 -0.1446
 7746SOL     OW34699   3.762   2.583  13.295 -0.5662 -0.4340  0.7302
 7746SOL    HW134700   3.704   2.594  13.371  0.4525  3.3142  0.9459
 7746SOL    HW234701   3.694   2.578  13.228  0.3552  2.5812 -0.3938
 7747SOL     OW34702   2.082   2.991  17.395 -1.0565 -0.1010 -0.3345
 7747SOL    HW134703   2.057   3.039  17.316 -0.9728 -0.2226 -0.4343
 7747SOL    HW234704   2.008   3.004  17.454 -1.6502  1.0728 -1.3188
 7748SOL     OW34705   3.908   2.256   6.126 -0.2386  0.9301 -0.1101
 7748SOL    HW134706   3.966   2.221   6.059  1.1407  0.9751  1.0693
 7748SOL    HW234707   3.871   2.335   6.085 -1.7550  0.5207  0.4506
 7749SOL     OW34708   1.220   4.044   5.211 -0.0064  0.6678  0.2239
 7749SOL    HW134709   1.176   4.126   5.189  0.4405  0.8881  0.1463
 7749SOL    HW234710   1.139   4.001   5.237  0.1422 -0.3493 -0.9746
 7750SOL     OW34711   0.783   0.704   5.031 -0.1305  0.8348  0.5058
 7750SOL    HW134712   0.817   0.792   5.017  3.9460 -0.9820 -0.9483
 7750SOL    HW234713   0.700   0.719   4.987  0.6405  0.5356 -1.0242
 7751SOL     OW34714   1.861   3.387   4.921  0.1734  0.1057  0.3955
 7751SOL    HW134715   1.914   3.322   4.875  0.2685  0.5055 -0.0727
 7751SOL    HW234716   1.819   3.331   4.985  0.7529 -1.1913 -0.3597
 7752SOL     OW34717   1.269   4.316   6.659  0.1534  0.3455  0.5904
 7752SOL    HW134718   1.219   4.325   6.578  1.7333  1.4594 -0.2678
 7752SOL    HW234719   1.204   4.337   6.726 -1.1009 -0.8690 -0.2452
 7753SOL     OW34720   0.794   1.388  17.034  0.1197 -0.4422  0.0679
 7753SOL    HW134721   0.799   1.482  17.052  0.9360 -0.9508  2.4812
 7753SOL    HW234722   0.777   1.346  17.119  0.6915 -0.7492  0.0360
 7754SOL     OW34723   0.575   2.869  14.164 -0.0775  0.1729  0.1116
 7754SOL    HW134724   0.606   2.805  14.228 -0.9401  1.6564  2.0165
 7754SOL    HW234725   0.481   2.858  14.175 -0.0106  0.0965  0.6153
 7755SOL     OW34726   4.592   1.846   4.030 -0.2311  0.0597  0.7378
 7755SOL    HW134727   4.667   1.832   3.973 -1.0339  0.6602 -0.4804
 7755SOL    HW234728   4.574   1.940   4.029 -2.3787 -0.3639 -0.7889
 7756SOL     OW34729   4.249   1.997   7.626  0.3164 -0.1635  0.3129
 7756SOL    HW134730   4.204   2.041   7.698 -0.3942 -2.0173  1.0037
 7756SOL    HW234731   4.261   2.066   7.560 -0.8861 -2.4748 -2.3339
 7757SOL     OW34732   0.955   2.664   5.684 -0.0958  0.5400 -0.3051
 7757SOL    HW134733   1.028   2.710   5.727 -2.0667  1.5925  1.8726
 7757SOL    HW234734   0.992   2.693   5.600 -0.4181 -0.6734 -0.8557
 7758SOL     OW34735   1.738   2.717  12.887 -0.0482 -0.0749 -0.1346
 7758SOL    HW134736   1.720   2.635  12.933 -1.0789 -0.8745 -1.9718
 7758SOL    HW234737   1.718   2.697  12.795  0.6275  1.4131 -0.6216
 7759SOL     OW34738   0.471   2.267   1.949 -0.1172 -0.2343  0.0532
 7759SOL    HW134739   0.462   2.175   1.976 -1.1283 -0.3632 -0.7253
 7759SOL    HW234740   0.393   2.291   1.998  0.2249 -0.9461  0.9471
 7760SOL     OW34741   2.970   1.188   7.317  0.0238  0.2681 -0.5284
 7760SOL    HW134742   2.946   1.111   7.266  0.3392 -0.9661  1.2205
 7760SOL    HW234743   2.890   1.189   7.370  0.2248 -0.5253 -0.2218
 7761SOL     OW34744   0.288   2.806   6.074  0.8953  0.4221  0.5040
 7761SOL    HW134745   0.248   2.857   6.003 -0.4530 -0.9159  0.2911
 7761SOL    HW234746   0.218   2.806   6.138  0.4034  0.1403 -0.0305
 7762SOL     OW34747   0.661   3.516   4.767  0.1928  0.3290  0.2523
 7762SOL    HW134748   0.581   3.555   4.733  0.3859  1.4440  1.0559
 7762SOL    HW234749   0.643   3.520   4.861  0.6400  2.4620  0.2431
 7763SOL     OW34750   3.064   1.446   5.274 -0.1093 -0.3144  0.1305
 7763SOL    HW134751   3.089   1.437   5.182  1.4895  1.9889  0.3357
 7763SOL    HW234752   3.019   1.364   5.293  1.1869 -1.2115 -0.6537
 7764SOL     OW34753   2.822   3.884   3.820 -0.0323  0.3313  0.3777
 7764SOL    HW134754   2.809   3.969   3.862  3.4912  1.3675 -0.6872
 7764SOL    HW234755   2.884   3.914   3.754  1.1135 -0.7712  0.9466
 7765SOL     OW34756   4.234   0.898  16.020  0.0228  0.2512 -0.4643
 7765SOL    HW134757   4.269   0.820  15.975  2.4737  0.3028  1.3419
 7765SOL    HW234758   4.294   0.970  16.002  0.6655 -0.6596 -2.0205
 7766SOL     OW34759   1.020   3.627   4.317  0.2155  0.2843 -0.4130
 7766SOL    HW134760   1.104   3.614   4.361 -0.1305 -1.4042 -0.2471
 7766SOL    HW234761   0.975   3.697   4.363 -1.6331  0.3282 -2.2965
 7767SOL     OW34762   0.243   4.081   6.538  0.7263  0.3406 -0.5003
 7767SOL    HW134763   0.188   4.006   6.518 -0.9820  1.8053 -1.3305
 7767SOL    HW234764   0.227   4.093   6.632 -1.4194  0.8599 -0.9287
 7768SOL     OW34765   0.578   0.450  13.215  0.2971  0.1417  0.1389
 7768SOL    HW134766   0.600   0.522  13.274 -1.6139  0.0249  0.9904
 7768SOL    HW234767   0.633   0.472  13.140  1.1686 -0.9515  0.4640
 7769SOL     OW34768   2.735   1.308   8.507 -0.0442 -0.8000 -0.3203
 7769SOL    HW134769   2.644   1.326   8.485  0.0126 -0.8081 -0.5569
 7769SOL    HW234770   2.733   1.212   8.498  0.1497 -0.7889 -0.4897
 7770SOL     OW34771   2.982   2.234   0.626 -0.2013  0.3240 -0.0101
 7770SOL    HW134772   3.027   2.278   0.554  1.1483 -0.6507  0.2398
 7770SOL    HW234773   2.941   2.164   0.575  1.2767 -0.4228 -0.1734
 7771SOL     OW34774   3.772   2.577   4.664  0.1686 -0.5995  0.4222
 7771SOL    HW134775   3.849   2.520   4.663  1.1671  0.7593 -0.6606
 7771SOL    HW234776   3.816   2.662   4.665  0.2582 -0.6492  0.7469
 7772SOL     OW34777   3.287   4.487   2.995  0.7280  0.4866 -0.4235
 7772SOL    HW134778   3.342   4.412   2.973 -1.9382 -1.6111  0.0583
 7772SOL    HW234779   3.349   4.557   2.974  1.0538  0.0333 -0.9703
 7773SOL     OW34780   1.269   3.646   4.826  0.3217 -0.8174  0.0153
 7773SOL    HW134781   1.232   3.694   4.900  0.9796  0.5113 -0.5177
 7773SOL    HW234782   1.189   3.643   4.773 -0.1352 -0.1327  0.6726
 7774SOL     OW34783   0.123   0.496   3.102  0.7620 -0.1969 -0.5504
 7774SOL    HW134784   0.172   0.564   3.056  0.3587 -0.2053 -0.9915
 7774SOL    HW234785   0.152   0.517   3.191 -0.1228  2.8306 -0.9753
 7775SOL     OW34786   0.248   1.111   3.937  0.4171 -0.3690 -0.3590
 7775SOL    HW134787   0.327   1.062   3.917  1.4400  1.2827 -0.4057
 7775SOL    HW234788   0.182   1.067   3.884 -2.0065  3.0186 -0.1996
 7776SOL     OW34789   2.281   4.639  16.216 -0.2410  0.5725  0.5400
 7776SOL    HW134790   2.332   4.679  16.146 -1.4583  0.9674 -0.1069
 7776SOL    HW234791   2.203   4.694  16.213 -0.9161 -0.3080  1.9018
 7777SOL     OW34792   4.140   3.300   6.045  0.2475  0.1600 -0.1014
 7777SOL    HW134793   4.158   3.342   6.129  0.8357 -0.9051  0.3103
 7777SOL    HW234794   4.178   3.212   6.053  0.8095  0.3874 -0.2447
 7778SOL     OW34795   4.080   3.070   7.888 -0.0786 -0.8504 -0.2631
 7778SOL    HW134796   4.142   3.142   7.875  0.4049 -1.5099 -1.5685
 7778SOL    HW234797   4.140   2.997   7.899  0.6133 -0.2924 -0.3276
 7779SOL     OW34798   2.052   0.722  14.404  0.5430  0.1449 -0.2001
 7779SOL    HW134799   2.123   0.758  14.351  0.7341  0.0875  0.0177
 7779SOL    HW234800   2.071   0.628  14.394  0.7652  0.4264 -2.4388
 7780SOL     OW34801   2.048   4.341   2.172 -0.3991 -0.5707  0.1141
 7780SOL    HW134802   2.102   4.262   2.180 -1.4171 -1.1301  1.4895
 7780SOL    HW234803   2.107   4.408   2.139  0.8723 -1.1070  1.2842
 7781SOL     OW34804   1.744   3.602  16.355 -0.2600 -0.4290  0.5298
 7781SOL    HW134805   1.725   3.693  16.377 -1.2612 -0.6231  0.4545
 7781SOL    HW234806   1.663   3.559  16.383  0.8425 -1.7540  1.6908
 7782SOL     OW34807   1.630   0.737   6.830 -1.0496  0.5298 -0.7737
 7782SOL    HW134808   1.623   0.778   6.916 -2.7137 -1.2410 -0.0462
 7782SOL    HW234809   1.725   0.724   6.829 -1.6761 -4.5121  0.9658
 7783SOL     OW34810   3.990   4.150   2.838  0.5574  0.0690  0.5531
 7783SOL    HW134811   4.066   4.163   2.782 -0.0855  2.3493  0.2416
 7783SOL    HW234812   3.921   4.194   2.789  0.9465  0.3342  0.2467
 7784SOL     OW34813   3.936   1.448  10.577 -0.1371  0.4831 -0.4686
 7784SOL    HW134814   3.980   1.376  10.533  0.4422  1.7906 -2.0482
 7784SOL    HW234815   4.015   1.495  10.605  1.3026 -2.6261  0.6375
 7785SOL     OW34816   2.930   1.731   4.920  0.3214  0.4717  0.0924
 7785SOL    HW134817   2.837   1.755   4.928  0.2094 -0.3077  1.1831
 7785SOL    HW234818   2.925   1.657   4.981 -0.3364  0.1440 -0.3497
 7786SOL     OW34819   1.716   1.389  11.929 -0.2045  0.2687  0.1825
 7786SOL    HW134820   1.710   1.474  11.885 -2.2666  0.1344  0.2145
 7786SOL    HW234821   1.699   1.335  11.853  0.8484 -1.0167  0.8712
 7787SOL     OW34822   3.923   3.403   6.886  0.1831  0.1910 -0.6193
 7787SOL    HW134823   3.855   3.414   6.952 -0.0759  0.5611 -0.9465
 7787SOL    HW234824   4.001   3.385   6.938 -0.5221  2.8383  1.3522
 7788SOL     OW34825   3.028   0.516   3.268  0.0710  0.3249 -0.5346
 7788SOL    HW134826   3.070   0.602   3.280 -1.2641  1.1294 -1.5926
 7788SOL    HW234827   2.973   0.532   3.191 -1.3900  0.5534  0.5643
 7789SOL     OW34828   4.572   4.169  15.289  1.2330 -0.1279 -0.0111
 7789SOL    HW134829   4.611   4.129  15.367 -1.1914 -0.0196  1.2561
 7789SOL    HW234830   4.599   4.260  15.296 -3.0068  1.1237  0.1574
 7790SOL     OW34831   1.251   0.189   9.142  0.4207  0.0288  0.0482
 7790SOL    HW134832   1.175   0.230   9.100  0.1271 -0.6573 -0.1016
 7790SOL    HW234833   1.318   0.252   9.117  0.7370 -0.2314  0.2459
 7791SOL     OW34834   1.839   3.762   9.767  0.0970 -0.6134  0.6378
 7791SOL    HW134835   1.886   3.846   9.761 -1.8004  0.3274 -1.1146
 7791SOL    HW234836   1.907   3.701   9.738  1.6285  1.3521  0.0408
 7792SOL     OW34837   3.126   1.968   8.246  0.4330 -0.6849 -0.3104
 7792SOL    HW134838   3.156   1.984   8.336  2.0149  2.2912 -1.3751
 7792SOL    HW234839   3.104   1.875   8.251 -1.5888 -0.1392  0.6725
 7793SOL     OW34840   0.598   4.046   9.024 -0.0478 -0.0133  0.4498
 7793SOL    HW134841   0.625   3.968   8.975 -0.3976  0.4934 -0.5526
 7793SOL    HW234842   0.548   4.011   9.097  1.4243  0.4429  1.6865
 7794SOL     OW34843   1.747   3.134   0.067 -0.2828  0.4161  0.0548
 7794SOL    HW134844   1.741   3.228   0.053 -0.2276  0.2129 -1.3253
 7794SOL    HW234845   1.832   3.128   0.111  0.3003 -0.9724 -1.2825
 7795SOL     OW34846   2.759   0.604   0.815 -0.1920  0.3117 -0.1003
 7795SOL    HW134847   2.808   0.653   0.881 -0.7560  0.2487  0.3686
 7795SOL    HW234848   2.831   0.547   0.786  0.6922  1.2011  0.3459
 7796SOL     OW34849   3.941   0.765   6.378  0.2166 -0.5499 -0.1784
 7796SOL    HW134850   3.968   0.818   6.454 -0.0583 -1.0214  0.2482
 7796SOL    HW234851   3.921   0.831   6.312  0.6493 -1.6620 -1.4060
 7797SOL     OW34852   2.909   0.337   8.028 -0.2316  0.3069  0.0642
 7797SOL    HW134853   2.991   0.301   7.993  0.5812  1.1587  1.0894
 7797SOL    HW234854   2.935   0.366   8.115 -2.5981  0.9261  0.5545
 7798SOL     OW34855   0.943   2.140   6.289  0.5850 -0.6497  0.5941
 7798SOL    HW134856   0.926   2.132   6.195 -1.5883  1.3992  0.8148
 7798SOL    HW234857   1.037   2.150   6.304  0.2671  1.6765  0.9364
 7799SOL     OW34858   3.708   0.840   9.353 -0.9662  0.0563  0.6202
 7799SOL    HW134859   3.671   0.751   9.355  3.2462 -1.6592  1.7772
 7799SOL    HW234860   3.658   0.887   9.286 -1.0588  2.3677  2.3423
 7800SOL     OW34861   1.641   0.863   2.188  0.0368 -0.4406 -0.0410
 7800SOL    HW134862   1.623   0.775   2.222 -1.3821 -0.8898 -1.9825
 7800SOL    HW234863   1.580   0.868   2.115 -1.9167  0.0554  1.6216
 7801SOL     OW34864   4.267   0.998   4.738 -0.0234  0.4044 -0.5161
 7801SOL    HW134865   4.219   1.019   4.818  0.5121 -2.6467  0.6169
 7801SOL    HW234866   4.251   1.077   4.686 -0.6677  0.2995 -0.4806
 7802SOL     OW34867   4.443   4.342   8.950  0.4713 -0.2270 -0.1012
 7802SOL    HW134868   4.467   4.251   8.932  2.2578  0.1773  0.2321
 7802SOL    HW234869   4.424   4.338   9.044 -0.0427  2.5105 -0.1185
 7803SOL     OW34870   2.102   1.736   7.706  0.2850  0.2181 -0.2988
 7803SOL    HW134871   2.087   1.742   7.800 -2.2276  0.5853 -0.7179
 7803SOL    HW234872   2.122   1.827   7.683  3.0598 -1.2060 -3.5305
 7804SOL     OW34873   1.411   2.306  10.554  0.1195  0.0680 -0.1052
 7804SOL    HW134874   1.341   2.291  10.618 -0.1392 -1.6364 -0.7852
 7804SOL    HW234875   1.459   2.377  10.597  0.0716  1.6198 -2.6338
 7805SOL     OW34876   0.766   3.381   1.853 -0.1764 -0.3500  0.0985
 7805SOL    HW134877   0.678   3.417   1.859 -0.0559  0.0137 -0.3542
 7805SOL    HW234878   0.817   3.459   1.875 -0.5697  0.1291 -0.7408
 7806SOL     OW34879   0.890   0.977   6.205 -0.4710  0.0102 -0.1102
 7806SOL    HW134880   0.816   1.013   6.254 -1.0236 -1.6945  0.3154
 7806SOL    HW234881   0.876   0.889   6.241 -0.0465  0.4604  1.1672
 7807SOL     OW34882   0.785   2.203   2.356 -0.7380 -0.3404 -0.3853
 7807SOL    HW134883   0.813   2.112   2.344  1.9387  0.3888  0.2656
 7807SOL    HW234884   0.728   2.200   2.433  0.3661  1.8499  0.5157
 7808SOL     OW34885   3.884   2.519   6.411 -0.4255 -0.3476  0.3564
 7808SOL    HW134886   3.908   2.461   6.484  0.1823 -0.2239  0.2564
 7808SOL    HW234887   3.952   2.587   6.411 -0.0174 -0.7683 -1.2369
 7809SOL     OW34888   1.246   2.087   0.890 -1.0514  0.0675  0.7339
 7809SOL    HW134889   1.307   2.038   0.835  0.5745 -1.2831  3.7654
 7809SOL    HW234890   1.166   2.051   0.852 -0.2101  0.3380 -1.2624
 7810SOL     OW34891   2.231   0.622  13.859  0.4422  0.4862 -0.3373
 7810SOL    HW134892   2.210   0.656  13.772 -2.3022  0.6475  0.3683
 7810SOL    HW234893   2.313   0.667  13.879 -0.3844  1.1388  1.5777
 7811SOL     OW34894   4.355   4.165  15.095  0.1785 -0.0245  0.3918
 7811SOL    HW134895   4.321   4.080  15.122  0.6413 -1.2576 -2.8758
 7811SOL    HW234896   4.423   4.174  15.161 -1.6845  1.4582  2.1133
 7812SOL     OW34897   0.238   0.073   4.452  0.5127 -0.5834  0.1591
 7812SOL    HW134898   0.234   4.712   4.484 -1.0593 -0.5666  0.0123
 7812SOL    HW234899   0.190   0.053   4.371 -0.4850 -1.4943  0.9815
 7813SOL     OW34900   2.196   2.678   0.754 -0.5154 -0.0385  0.2615
 7813SOL    HW134901   2.284   2.692   0.791 -1.2898  1.0522  1.6689
 7813SOL    HW234902   2.170   2.760   0.712 -1.8349  0.9251  2.9598
 7814SOL     OW34903   4.092   1.851   6.721  0.3317  0.0657 -0.3274
 7814SOL    HW134904   4.071   1.771   6.769  1.7689 -0.6953 -0.9968
 7814SOL    HW234905   4.125   1.794   6.652 -1.4739 -1.7842  0.3159
 7815SOL     OW34906   1.783   3.099  16.181  0.0761 -0.1936  0.5072
 7815SOL    HW134907   1.736   3.160  16.123 -0.6624 -1.8493 -0.6442
 7815SOL    HW234908   1.832   3.046  16.117 -0.1601  0.7783 -0.4792
 7816SOL     OW34909   1.337   3.762   7.425 -0.0217  0.1189 -0.2027
 7816SOL    HW134910   1.409   3.824   7.416 -0.0615  0.2477  0.3555
 7816SOL    HW234911   1.380   3.710   7.493 -2.7870 -0.9137  0.7833
 7817SOL     OW34912   4.121   2.212  13.226  0.0209  0.3145 -0.3035
 7817SOL    HW134913   4.033   2.243  13.243  0.8107  0.8297  2.8892
 7817SOL    HW234914   4.119   2.124  13.263  0.4553 -0.6216 -2.5421
 7818SOL     OW34915   4.381   0.607   9.770 -0.2994 -0.1668 -0.3182
 7818SOL    HW134916   4.416   0.679   9.823 -0.5105 -0.4875  0.2584
 7818SOL    HW234917   4.307   0.644   9.722 -0.4524 -0.1910 -0.0986
 7819SOL     OW34918   3.308   1.728   1.626  0.3668 -0.5641 -0.0692
 7819SOL    HW134919   3.309   1.632   1.633  0.2257 -0.6421 -1.0320
 7819SOL    HW234920   3.281   1.746   1.535  0.8003  0.2682 -0.0331
 7820SOL     OW34921   0.780   3.658   7.771  0.3662  0.5296  0.3979
 7820SOL    HW134922   0.750   3.569   7.790 -2.1968  0.7691 -2.6139
 7820SOL    HW234923   0.862   3.670   7.820  0.2093  1.3249  0.4630
 7821SOL     OW34924   2.125   4.717   1.403  0.8063 -0.5673 -0.2569
 7821SOL    HW134925   2.119   0.025   1.491  2.4533  0.8392 -0.7243
 7821SOL    HW234926   2.067   4.642   1.409  1.9712 -1.3640  1.0438
 7822SOL     OW34927   2.318   3.040   2.754 -0.4939 -0.2153  0.3091
 7822SOL    HW134928   2.363   3.050   2.671  1.1248 -3.2832  0.7904
 7822SOL    HW234929   2.284   2.951   2.743 -0.8917  0.2479 -2.1324
 7823SOL     OW34930   0.511   1.328   8.821  0.7657  0.0610 -0.2204
 7823SOL    HW134931   0.427   1.285   8.803  0.6075  0.3076 -0.0677
 7823SOL    HW234932   0.547   1.359   8.737 -1.2571  0.5544 -0.9136
 7824SOL     OW34933   0.775   2.876   3.249 -0.1697 -0.0377  0.5992
 7824SOL    HW134934   0.749   2.808   3.312  1.4929 -2.4252 -1.3345
 7824SOL    HW234935   0.836   2.831   3.192 -0.1387 -0.7335  1.1769
 7825SOL     OW34936   0.607   4.709   4.066  0.2507  0.2142 -0.4549
 7825SOL    HW134937   0.676   4.688   4.003  0.7989  0.3246  0.1103
 7825SOL    HW234938   0.611   0.076   4.064 -1.5240  0.2679 -1.5160
 7826SOL     OW34939   1.775   0.615   2.482 -0.3373 -0.0463  0.1675
 7826SOL    HW134940   1.846   0.558   2.514 -0.7009 -1.0837 -0.8611
 7826SOL    HW234941   1.714   0.548   2.450 -0.2683  0.5734 -1.2507
 7827SOL     OW34942   2.238   0.646   5.059 -0.2288  0.2924  0.5739
 7827SOL    HW134943   2.187   0.680   5.133  0.6761  2.5018  0.1776
 7827SOL    HW234944   2.191   0.564   5.042 -1.4023  0.6803  1.9541
 7828SOL     OW34945   3.131   3.421  16.352 -0.2950  0.3614 -0.2873
 7828SOL    HW134946   3.163   3.493  16.297  0.8155 -0.3694 -0.6013
 7828SOL    HW234947   3.040   3.443  16.370 -1.0044 -2.0700 -0.9264
 7829SOL     OW34948   3.383   0.995   4.895 -0.3587  0.6025  0.2880
 7829SOL    HW134949   3.366   0.970   4.804  0.4059 -0.5413  0.4586
 7829SOL    HW234950   3.329   0.933   4.943 -0.0139 -0.9779 -1.3880
 7830SOL     OW34951   3.161   4.024   9.822 -0.1104 -0.8104  0.0569
 7830SOL    HW134952   3.253   4.034   9.801  0.5574 -1.8838  2.4652
 7830SOL    HW234953   3.154   3.929   9.835  1.7882 -0.7579  1.4325
 7831SOL     OW34954   0.574   0.438   2.529 -0.3302 -0.5515  0.1113
 7831SOL    HW134955   0.533   0.495   2.594  1.5043  2.7186 -1.6270
 7831SOL    HW234956   0.664   0.470   2.520 -1.6127  2.4881 -1.9043
 7832SOL     OW34957   0.692   1.045   8.924  0.7655  0.5271 -0.2774
 7832SOL    HW134958   0.752   0.986   8.969 -1.5975 -2.3267 -0.9146
 7832SOL    HW234959   0.671   0.992   8.847 -1.6233  0.7338  0.2146
 7833SOL     OW34960   0.262   1.576   7.624  0.4911  0.3695  0.1363
 7833SOL    HW134961   0.289   1.582   7.716 -0.2513 -3.1972  0.6005
 7833SOL    HW234962   0.214   1.657   7.609  0.9374  0.4773 -0.7170
 7834SOL     OW34963   4.682   2.863   7.099  0.0547 -0.0442  0.3514
 7834SOL    HW134964   4.658   2.915   7.176  0.0756  2.2577 -1.1793
 7834SOL    HW234965   0.046   2.887   7.090  0.7446 -2.6333  0.5994
 7835SOL     OW34966   1.041   0.702  15.784 -0.2434  0.6880 -0.1960
 7835SOL    HW134967   1.080   0.646  15.851  2.1453  2.6238  0.0214
 7835SOL    HW234968   1.120   0.742  15.748 -0.2856  1.2629  0.3518
 7836SOL     OW34969   3.060   1.138   8.358 -0.3715 -0.3632 -0.0391
 7836SOL    HW134970   2.991   1.181   8.307  0.0663  0.6106  0.1937
 7836SOL    HW234971   3.103   1.086   8.290  0.5797  0.7065 -0.2514
 7837SOL     OW34972   0.794   4.041   4.688  0.2775 -0.4226  0.2516
 7837SOL    HW134973   0.785   4.136   4.696  1.7313 -0.1476 -1.3867
 7837SOL    HW234974   0.849   4.031   4.610 -2.2306  2.3178 -1.8468
 7838SOL     OW34975   1.759   1.408   3.587 -0.1682  0.0825 -0.5347
 7838SOL    HW134976   1.792   1.489   3.626 -0.7657 -0.0679  0.2792
 7838SOL    HW234977   1.754   1.354   3.666  1.6842  0.7107  0.0207
 7839SOL     OW34978   0.144   2.622  10.610 -0.8401  0.0637 -0.7760
 7839SOL    HW134979   0.091   2.647  10.535 -0.6002  1.3891 -0.5047
 7839SOL    HW234980   0.080   2.590  10.673 -0.1948 -1.6158 -0.9678
 7840SOL     OW34981   1.592   3.836   4.481 -0.0803 -0.3098  0.7304
 7840SOL    HW134982   1.536   3.824   4.557 -0.4260  0.5073  0.5944
 7840SOL    HW234983   1.653   3.762   4.486 -0.6339 -0.6326  2.5281
 7841SOL     OW34984   2.084   3.827   5.292 -0.0001  0.4883  0.5398
 7841SOL    HW134985   2.080   3.914   5.332  1.3100  1.6029 -1.7469
 7841SOL    HW234986   2.158   3.786   5.337  0.6303  0.5171 -0.4731
 7842SOL     OW34987   4.113   1.011   2.743  0.7010 -0.4781 -0.2340
 7842SOL    HW134988   4.148   1.074   2.807  0.5409  1.0504 -1.6529
 7842SOL    HW234989   4.022   1.040   2.747  1.0795  0.5783  1.0850
 7843SOL     OW34990   2.165   3.170   0.599 -0.0465  0.1748  0.1350
 7843SOL    HW134991   2.249   3.216   0.603 -0.4410  0.8147  0.7881
 7843SOL    HW234992   2.097   3.236   0.607 -0.0423  0.2108 -0.1216
 7844SOL     OW34993   4.015   3.120   2.673  0.4061  0.1665 -0.5832
 7844SOL    HW134994   4.101   3.162   2.665  0.1414  1.1940  2.1145
 7844SOL    HW234995   4.004   3.138   2.766 -0.4145  0.3750 -0.7235
 7845SOL     OW34996   1.183   4.545  17.002  0.7722 -0.1059  0.3490
 7845SOL    HW134997   1.120   4.612  16.975  0.4348 -0.3448  0.5460
 7845SOL    HW234998   1.166   4.525  17.094  3.2586  0.1829  0.8625
 7846SOL     OW34999   1.160   3.939   4.579  0.1423  0.9061  0.2228
 7846SOL    HW135000   1.191   3.954   4.490  0.3352  2.8306  0.6125
 7846SOL    HW235001   1.076   3.898   4.559  0.6550 -0.1632  0.2563
 7847SOL     OW35002   1.216   3.330   1.961  0.5010  0.0233  0.5555
 7847SOL    HW135003   1.277   3.363   1.895  0.8247 -1.3551  0.1624
 7847SOL    HW235004   1.170   3.266   1.906 -0.1331  3.6645 -3.1694
 7848SOL     OW35005   3.821   1.610   8.703  0.1092 -0.1946 -0.1439
 7848SOL    HW135006   3.747   1.587   8.759  0.0759  1.1148  0.3601
 7848SOL    HW235007   3.841   1.697   8.738  2.4593 -0.3727 -1.0399
 7849SOL     OW35008   0.494   1.738  13.259  0.8708  0.0772  0.0467
 7849SOL    HW135009   0.476   1.766  13.169 -3.5130 -1.1717  0.5105
 7849SOL    HW235010   0.584   1.707  13.265  0.1653 -1.4464  2.8324
 7850SOL     OW35011   1.038   2.850   7.662 -0.8957 -0.0900  0.1144
 7850SOL    HW135012   0.955   2.848   7.615  0.2990 -0.1365 -2.0549
 7850SOL    HW235013   1.099   2.803   7.604 -1.8989 -0.3582 -0.7154
 7851SOL     OW35014   3.062   1.233  10.447 -0.2626  0.2341  0.5545
 7851SOL    HW135015   3.140   1.178  10.451  0.3892  1.1721  0.6520
 7851SOL    HW235016   3.000   1.168  10.412  2.4751 -1.6930 -0.7519
 7852SOL     OW35017   2.148   4.606  12.777  0.1131  0.1276  0.3489
 7852SOL    HW135018   2.151   4.552  12.857 -2.9949 -1.9524 -0.9350
 7852SOL    HW235019   2.196   4.551  12.715 -4.1515 -2.3381 -0.7541
 7853SOL     OW35020   2.130   4.384  12.980 -0.3237 -0.4209 -0.4073
 7853SOL    HW135021   2.210   4.330  12.971  0.3983  0.0678  3.2383
 7853SOL    HW235022   2.066   4.326  12.938  0.1038 -2.0399  1.1627
 7854SOL     OW35023   3.992   3.086   9.365 -0.1724 -0.6813 -0.2767
 7854SOL    HW135024   3.982   3.048   9.277 -3.3069  0.0402 -0.2170
 7854SOL    HW235025   3.906   3.124   9.378 -0.1470 -0.6200 -0.2859
 7855SOL     OW35026   0.455   4.716  16.772 -0.1316  0.5938 -0.6858
 7855SOL    HW135027   0.437   0.060  16.712 -0.3966  1.9807  1.0699
 7855SOL    HW235028   0.373   4.668  16.766  0.3485 -0.0815 -1.9084
 7856SOL     OW35029   1.589   3.771   0.821 -0.4447 -0.2174 -0.1945
 7856SOL    HW135030   1.515   3.784   0.880 -1.3183 -1.0086 -1.1057
 7856SOL    HW235031   1.542   3.745   0.741 -1.0321  0.2151  0.0122
 7857SOL     OW35032   1.077   2.210   5.347 -0.2279  0.0424  0.0952
 7857SOL    HW135033   1.159   2.180   5.387  1.1410  1.2257 -1.8697
 7857SOL    HW235034   1.104   2.290   5.303 -0.8670  0.4510  0.4435
 7858SOL     OW35035   1.126   1.277   0.798 -0.2229 -0.4856  0.1167
 7858SOL    HW135036   1.117   1.188   0.834 -0.1849 -0.7778 -0.6034
 7858SOL    HW235037   1.043   1.316   0.825  1.3226  1.4603  2.0390
 7859SOL     OW35038   2.556   4.517   3.467 -0.3412  0.5209 -0.1529
 7859SOL    HW135039   2.513   4.475   3.542  0.1876 -0.4007 -0.3577
 7859SOL    HW235040   2.604   4.582   3.518 -0.0306  0.3151 -0.1814
 7860SOL     OW35041   2.786   2.398  15.187 -0.5105  0.3121  0.3175
 7860SOL    HW135042   2.798   2.475  15.132 -0.7988 -0.3098 -0.6195
 7860SOL    HW235043   2.745   2.333  15.130 -0.9846  0.0161  0.9850
 7861SOL     OW35044   4.129   4.533   5.305  0.4479 -0.3752 -0.1915
 7861SOL    HW135045   4.151   4.455   5.356 -0.3566 -0.7587 -0.4335
 7861SOL    HW235046   4.176   4.605   5.348 -1.2848 -0.2979  1.5458
 7862SOL     OW35047   2.912   2.432   8.579  0.3845 -0.5374  0.7077
 7862SOL    HW135048   2.886   2.345   8.608 -2.1610  0.3433  0.9936
 7862SOL    HW235049   3.008   2.424   8.581  0.4278 -0.1131  0.2769
 7863SOL     OW35050   3.910   0.021   0.405 -0.2439 -0.2136 -0.2275
 7863SOL    HW135051   3.936   0.035   0.496 -1.7487  0.7168  0.0618
 7863SOL    HW235052   3.816   0.038   0.403 -0.3599 -0.9679 -1.1694
 7864SOL     OW35053   1.739   1.366   3.023  0.4013 -0.3095 -0.4077
 7864SOL    HW135054   1.804   1.387   2.956  0.2414 -2.1410 -1.1483
 7864SOL    HW235055   1.665   1.396   2.971  0.9169  1.7238  0.0324
 7865SOL     OW35056   2.039   1.075  14.179 -0.0210  0.1124  0.2846
 7865SOL    HW135057   2.017   0.983  14.164 -1.4526  0.2052  1.7397
 7865SOL    HW235058   2.127   1.068  14.142 -0.2611  0.3791 -0.3379
 7866SOL     OW35059   1.382   2.802   5.166 -0.4246 -0.4633  0.2603
 7866SOL    HW135060   1.290   2.828   5.164 -0.2676 -0.0095 -0.6981
 7866SOL    HW235061   1.378   2.709   5.189 -0.8847 -0.0524  1.8371
 7867SOL     OW35062   3.052   2.730  15.708  0.1654  0.1876  0.2785
 7867SOL    HW135063   3.076   2.644  15.743 -1.6151 -0.8748 -1.1394
 7867SOL    HW235064   3.037   2.782  15.787 -1.8444  0.1792 -0.0963
 7868SOL     OW35065   1.681   3.674   6.444  0.4475  0.4202  0.6898
 7868SOL    HW135066   1.647   3.702   6.359 -0.4906  3.6765  2.1305
 7868SOL    HW235067   1.695   3.757   6.490 -2.6917  0.9074  0.8047
 7869SOL     OW35068   3.690   2.168   8.475 -0.4203  0.2342  0.1367
 7869SOL    HW135069   3.615   2.108   8.475 -0.5624  0.4292  1.7300
 7869SOL    HW235070   3.656   2.254   8.501 -1.6008 -0.2847  0.3271
 7870SOL     OW35071   3.800   0.357   5.011 -0.1727 -0.0397  0.3376
 7870SOL    HW135072   3.726   0.387   4.957 -0.8902  1.1118  1.9578
 7870SOL    HW235073   3.822   0.426   5.074  0.5558  1.1913 -1.2513
 7871SOL     OW35074   0.883   0.495   6.318 -0.5022  0.1188 -0.0890
 7871SOL    HW135075   0.855   0.585   6.300 -0.5500  0.1085 -0.0688
 7871SOL    HW235076   0.816   0.446   6.270 -1.6601 -0.6696  2.3406
 7872SOL     OW35077   1.980   4.288   4.170 -0.2018  0.0667  0.1301
 7872SOL    HW135078   1.896   4.329   4.190  0.2926  0.3535  1.6698
 7872SOL    HW235079   2.035   4.315   4.244 -3.9007  2.9335  1.8374
 7873SOL     OW35080   3.226   3.850  13.420 -0.5671 -0.3053 -0.0105
 7873SOL    HW135081   3.270   3.765  13.416  2.3006  1.1916 -0.2435
 7873SOL    HW235082   3.272   3.868  13.502  0.0612 -3.3678  0.3261
 7874SOL     OW35083   0.409   2.925   6.962  0.3680  0.2074 -0.1614
 7874SOL    HW135084   0.405   2.865   6.888 -0.3409  1.2585 -0.9802
 7874SOL    HW235085   0.326   2.903   7.004  0.7779 -0.0802  0.5014
 7875SOL     OW35086   1.619   4.155   0.813 -0.3235  0.6260 -0.4682
 7875SOL    HW135087   1.611   4.230   0.754 -1.4235 -1.0759 -2.5052
 7875SOL    HW235088   1.531   4.118   0.808  0.1772 -0.6705  0.3757
 7876SOL     OW35089   3.916   2.803   4.702 -0.1431  0.1205 -0.2093
 7876SOL    HW135090   4.007   2.783   4.727 -0.3534 -1.6601 -0.9212
 7876SOL    HW235091   3.892   2.878   4.756  2.0104  0.9819 -0.4234
 7877SOL     OW35092   1.238   2.837   6.369 -0.3660 -0.2715 -0.2571
 7877SOL    HW135093   1.202   2.807   6.286 -0.6243 -1.8406  0.4366
 7877SOL    HW235094   1.250   2.932   6.360 -1.0877 -0.2384 -0.8954
 7878SOL     OW35095   3.453   2.144   3.257  0.0576 -0.2204  0.3554
 7878SOL    HW135096   3.468   2.214   3.193  1.9300 -1.3819 -0.4749
 7878SOL    HW235097   3.542   2.124   3.287  0.4587  1.7280  0.4784
 7879SOL     OW35098   1.960   4.015   4.733  0.8356  0.3537  0.9978
 7879SOL    HW135099   1.893   4.021   4.665  1.9595 -0.3742 -0.1626
 7879SOL    HW235100   1.963   3.920   4.743 -0.8203 -0.0785 -2.4912
 7880SOL     OW35101   3.120   1.853  10.483 -0.0888  0.6763 -0.1289
 7880SOL    HW135102   3.174   1.916  10.435  1.7696  0.1016  1.1828
 7880SOL    HW235103   3.109   1.791  10.411 -1.3850  1.8610 -0.9561
 7881SOL     OW35104   2.396   2.476   7.230  0.2632 -0.7232 -0.3873
 7881SOL    HW135105   2.420   2.493   7.139 -0.4736  2.1346 -0.0481
 7881SOL    HW235106   2.301   2.462   7.227 -0.2117  2.2728 -0.0121
 7882SOL     OW35107   2.070   2.430   0.790 -0.7681  0.0168 -0.2626
 7882SOL    HW135108   2.150   2.378   0.790 -0.4954  0.4306 -0.1872
 7882SOL    HW235109   2.106   2.514   0.760  1.6488  0.1637  2.9699
 7883SOL     OW35110   1.127   4.371   6.872 -0.3100  0.4766  0.1396
 7883SOL    HW135111   1.042   4.399   6.905 -0.5641 -1.5718  1.2524
 7883SOL    HW235112   1.145   4.292   6.924  1.3576 -0.1204 -1.3633
 7884SOL     OW35113   1.805   1.973  13.209 -0.0566  0.0397  0.5515
 7884SOL    HW135114   1.882   1.932  13.246 -1.2142 -1.7281  1.0033
 7884SOL    HW235115   1.794   2.048  13.268  1.8043  0.0398  0.8887
 7885SOL     OW35116   0.103   3.641   5.942 -0.0372 -0.2188  0.4131
 7885SOL    HW135117   0.071   3.609   5.857 -0.9725  2.3464 -0.2100
 7885SOL    HW235118   0.194   3.668   5.932 -0.3545  0.7040 -0.0225
 7886SOL     OW35119   3.040   3.970  13.745 -0.3131 -0.3086 -0.2215
 7886SOL    HW135120   3.103   3.993  13.677  0.4130  0.6161  0.7762
 7886SOL    HW235121   2.968   3.944  13.688 -0.1806 -0.6663 -0.2325
 7887SOL     OW35122   3.704   4.598   5.946  0.2294 -0.0680 -0.1024
 7887SOL    HW135123   3.713   4.663   6.016  0.0072  1.4979 -1.5110
 7887SOL    HW235124   3.664   4.656   5.880  0.9419 -0.1877 -0.6367
 7888SOL     OW35125   0.266   0.250   6.542  0.5792 -0.5293 -0.4250
 7888SOL    HW135126   0.244   0.281   6.630 -0.8866  0.2365 -1.0715
 7888SOL    HW235127   0.345   0.299   6.519  1.1490 -0.9263  0.6968
 7889SOL     OW35128   0.318   4.554   5.636 -0.1991  0.3359 -0.0881
 7889SOL    HW135129   0.350   4.603   5.560 -1.1177 -0.8063 -1.2081
 7889SOL    HW235130   0.274   4.478   5.598  1.9889  0.4343 -2.7544
 7890SOL     OW35131   3.259   4.094   2.526 -0.1989 -0.2760  0.4070
 7890SOL    HW135132   3.346   4.079   2.489 -0.7626  0.6657 -1.2943
 7890SOL    HW235133   3.217   4.010   2.507  0.0889 -0.5995  1.1710
 7891SOL     OW35134   4.596   1.079   1.906 -0.1247 -0.0043 -0.2144
 7891SOL    HW135135   4.684   1.051   1.878 -0.7065 -2.4281  0.4037
 7891SOL    HW235136   4.573   1.003   1.958  0.0857 -0.6310 -1.0290
 7892SOL     OW35137   3.836   0.652  11.381 -0.2034 -0.6057 -0.3638
 7892SOL    HW135138   3.753   0.655  11.428 -0.1704  1.2777 -0.4200
 7892SOL    HW235139   3.874   0.732  11.418 -2.1505  0.0482  0.2234
 7893SOL     OW35140   4.293   4.604   4.260  0.6668 -0.1111 -0.1147
 7893SOL    HW135141   4.307   4.672   4.193 -1.3648  0.6594  0.2358
 7893SOL    HW235142   4.236   4.542   4.214 -0.4805  0.3688  0.6491
 7894SOL     OW35143   0.294   4.652   2.380  0.0236 -0.6084 -0.5855
 7894SOL    HW135144   0.287   4.592   2.455  2.4646  1.2175  1.1371
 7894SOL    HW235145   0.387   4.647   2.358 -0.0643 -2.1621 -0.6389
 7895SOL     OW35146   0.435   3.370  10.300  0.7889 -0.3115  0.0749
 7895SOL    HW135147   0.526   3.396  10.314  0.7638 -1.0807  1.7682
 7895SOL    HW235148   0.400   3.373  10.389 -0.0051 -1.8223 -0.1808
 7896SOL     OW35149   4.160   1.468   8.217 -0.4154 -0.8219  0.1483
 7896SOL    HW135150   4.158   1.373   8.207  1.3164 -0.7438 -1.0213
 7896SOL    HW235151   4.153   1.471   8.313  0.1290  1.1340  0.1357
 7897SOL     OW35152   3.995   2.816   9.973 -0.0133  0.3832 -0.0830
 7897SOL    HW135153   4.019   2.733  10.014 -0.6631 -0.2889 -1.0828
 7897SOL    HW235154   3.903   2.815  10.000 -0.2212  1.9528 -0.7589
 7898SOL     OW35155   1.403   0.001   6.608 -0.0160  0.0297 -0.1694
 7898SOL    HW135156   1.314   0.023   6.635  0.0093  0.9918 -0.8602
 7898SOL    HW235157   1.405   4.719   6.513 -1.9325  1.1895 -0.3437
 7899SOL     OW35158   0.602   2.047   0.960  0.0965 -0.2306  0.0335
 7899SOL    HW135159   0.590   2.127   1.012 -0.3064 -1.5794  2.0407
 7899SOL    HW235160   0.655   2.081   0.888 -0.1278 -4.3788 -2.0853
 7900SOL     OW35161   1.305   2.875   3.532  0.1714 -0.0434 -0.1836
 7900SOL    HW135162   1.352   2.958   3.541  0.6271 -0.4903  1.4362
 7900SOL    HW235163   1.341   2.820   3.601 -1.7083  0.8269  1.4931
 7901SOL     OW35164   3.050   4.668   5.166 -0.1784 -0.0386 -0.2645
 7901SOL    HW135165   3.035   4.595   5.225 -0.8417  0.7361  0.5233
 7901SOL    HW235166   3.132   4.693   5.209  1.3331 -0.5946 -2.8223
 7902SOL     OW35167   1.252   2.413   4.048 -0.3525  0.4431 -0.1242
 7902SOL    HW135168   1.234   2.505   4.029  1.9524  0.8333 -0.3821
 7902SOL    HW235169   1.163   2.388   4.073 -0.0316 -0.7222 -0.1322
 7903SOL     OW35170   0.046   0.490   5.995 -0.3498 -0.1478  0.0162
 7903SOL    HW135171   0.013   0.425   5.933 -0.5570  0.0803 -0.1134
 7903SOL    HW235172   0.056   0.563   5.933 -0.5229  0.7861  1.0960
 7904SOL     OW35173   2.024   1.695   3.699 -0.9128  0.3051 -0.3510
 7904SOL    HW135174   2.079   1.619   3.679  1.0545  0.8070  2.9888
 7904SOL    HW235175   2.012   1.717   3.607  0.3878  1.5561 -0.2247
 7905SOL     OW35176   1.994   4.191  17.137  0.0967 -0.4902  0.4563
 7905SOL    HW135177   1.953   4.262  17.087  3.2482 -0.5018 -2.1997
 7905SOL    HW235178   2.080   4.190  17.094 -0.3383  1.4602 -0.4629
 7906SOL     OW35179   3.713   3.598   5.358 -0.3718 -0.2528  0.5847
 7906SOL    HW135180   3.742   3.689   5.362 -1.2176 -0.0194  1.2410
 7906SOL    HW235181   3.717   3.576   5.451  4.4729 -0.7974  0.2132
 7907SOL     OW35182   2.477   1.254  15.088  0.1021 -0.3556  0.3613
 7907SOL    HW135183   2.479   1.348  15.072  0.0414 -0.7683 -2.0183
 7907SOL    HW235184   2.552   1.223  15.039 -0.2935 -0.9896  0.1591
 7908SOL     OW35185   1.810   3.682   4.489 -0.3028 -0.2657  0.2375
 7908SOL    HW135186   1.804   3.598   4.533 -1.1881 -0.3461 -0.0347
 7908SOL    HW235187   1.878   3.719   4.546  0.8587 -0.7927 -0.8151
 7909SOL     OW35188   3.070   2.217  14.327  0.7129 -0.4130  0.0377
 7909SOL    HW135189   3.153   2.182  14.362  1.4944  1.7605  0.3343
 7909SOL    HW235190   3.053   2.147  14.264 -0.2626 -0.1883  0.0518
 7910SOL     OW35191   0.937   1.872   4.110 -0.3994  0.1056 -0.4707
 7910SOL    HW135192   0.843   1.877   4.128  0.1024  2.6454  1.3512
 7910SOL    HW235193   0.964   1.875   4.202 -1.8125 -1.8275  0.0186
 7911SOL     OW35194   3.451   2.674   3.432  0.8478 -0.2045 -0.5769
 7911SOL    HW135195   3.465   2.579   3.428 -0.2529 -0.2743 -2.6794
 7911SOL    HW235196   3.417   2.698   3.346  4.4351 -1.0145 -2.2213
 7912SOL     OW35197   0.251   4.144   2.005  0.0322  0.0396 -0.3744
 7912SOL    HW135198   0.345   4.128   2.007 -0.0824 -0.8527 -1.9374
 7912SOL    HW235199   0.252   4.218   1.943  0.6222  0.9739  0.7652
 7913SOL     OW35200   2.276   0.609   3.625  0.2869 -0.0257 -0.3840
 7913SOL    HW135201   2.263   0.599   3.719  0.9122  0.1966 -0.2696
 7913SOL    HW235202   2.244   0.696   3.601 -0.4239 -0.3547 -0.6007
 7914SOL     OW35203   2.351   1.043  16.001 -0.3462 -0.4328  0.6514
 7914SOL    HW135204   2.274   1.096  16.017 -1.3890 -2.1054  1.2153
 7914SOL    HW235205   2.314   0.964  15.961 -0.1475 -0.7967  1.1865
 7915SOL     OW35206   3.015   4.288  16.172  0.3291  0.1770 -0.3387
 7915SOL    HW135207   3.105   4.260  16.186 -0.3526 -1.8104  0.1646
 7915SOL    HW235208   3.038   4.379  16.151 -0.0153  0.4498  0.4580
 7916SOL     OW35209   1.437   3.458  11.941 -0.4044 -0.1756 -0.3876
 7916SOL    HW135210   1.481   3.454  12.026 -0.7354 -0.5818 -0.2374
 7916SOL    HW235211   1.361   3.400  11.950  1.3720 -2.4153  0.2698
 7917SOL     OW35212   0.308   4.431   9.398  0.2429 -0.4662  0.2190
 7917SOL    HW135213   0.235   4.422   9.459  1.9433  0.8646  2.4680
 7917SOL    HW235214   0.320   4.339   9.376  0.4413 -0.7737  1.5970
 7918SOL     OW35215   1.721   1.123   4.243 -0.0236  0.1089  1.0637
 7918SOL    HW135216   1.797   1.176   4.265  0.4588 -0.6538  1.2517
 7918SOL    HW235217   1.686   1.166   4.165  1.0182 -0.1999  0.4124
 7919SOL     OW35218   2.000   4.434   6.620  0.3639  0.1762 -0.8294
 7919SOL    HW135219   1.967   4.463   6.705  2.1044 -0.2740 -0.0222
 7919SOL    HW235220   1.985   4.340   6.630  2.0358  0.0734  0.5842
 7920SOL     OW35221   1.575   1.323   3.412 -0.2721  0.1432  0.6985
 7920SOL    HW135222   1.625   1.376   3.350 -1.4294  2.5637  1.8407
 7920SOL    HW235223   1.642   1.312   3.479  0.0214 -1.8871  0.0554
 7921SOL     OW35224   3.141   3.418   3.019  0.2361  0.3355  0.0046
 7921SOL    HW135225   3.230   3.451   3.013  1.3256 -1.9094  3.6935
 7921SOL    HW235226   3.158   3.339   3.071 -0.5377  0.4231  0.3959
 7922SOL     OW35227   0.709   0.065   8.959 -0.3160 -0.6735  0.3087
 7922SOL    HW135228   0.752   0.036   8.879 -0.3796 -0.2096  0.1084
 7922SOL    HW235229   0.704   4.715   9.014  0.0724 -1.0628 -0.2143
 7923SOL     OW35230   0.095   1.995   7.833  0.0550  0.0186 -0.0683
 7923SOL    HW135231   0.100   2.086   7.861 -0.2644  0.0558 -0.1375
 7923SOL    HW235232   0.189   1.985   7.816 -0.0732  0.1229 -0.8529
 7924SOL     OW35233   4.500   3.568  11.526  0.4549 -0.2511  0.5043
 7924SOL    HW135234   4.431   3.596  11.586  0.1462 -1.1415  0.5685
 7924SOL    HW235235   4.457   3.549  11.442 -0.2520  2.2618  0.2899
 7925SOL     OW35236   4.055   4.357   5.607  0.1843  0.5976  0.0324
 7925SOL    HW135237   3.962   4.347   5.587  0.4773  0.6761 -1.3437
 7925SOL    HW235238   4.049   4.442   5.651 -0.2752  0.5393  0.0890
 7926SOL     OW35239   0.187   2.602   7.303 -0.4436  0.3465  0.0172
 7926SOL    HW135240   0.178   2.544   7.378 -0.7813  2.0908  1.3019
 7926SOL    HW235241   0.107   2.578   7.257 -0.2287  4.8813 -2.7168
 7927SOL     OW35242   1.977   3.483  14.974 -0.1697  0.2848  0.8777
 7927SOL    HW135243   2.005   3.564  15.016 -2.1952  1.2975  0.2396
 7927SOL    HW235244   1.995   3.502  14.882 -3.1256 -2.4982 -0.2702
 7928SOL     OW35245   3.334   3.528   7.745 -0.2252 -0.3553 -0.6836
 7928SOL    HW135246   3.337   3.537   7.840 -1.4603  1.8272 -0.8624
 7928SOL    HW235247   3.295   3.613   7.726  0.6026 -0.1444 -1.4250
 7929SOL     OW35248   3.628   0.262   9.222 -0.1943  0.0531  0.0981
 7929SOL    HW135249   3.670   0.179   9.202 -0.1344  0.7308 -2.5551
 7929SOL    HW235250   3.631   0.245   9.316 -0.8671 -1.1151 -0.1043
 7930SOL     OW35251   2.567   2.154  13.955 -0.0674 -0.2672  0.1978
 7930SOL    HW135252   2.587   2.237  13.913  1.5763 -0.6975  0.1138
 7930SOL    HW235253   2.649   2.138  14.002  0.2495 -0.9629 -0.5835
 7931SOL     OW35254   0.446   3.851   8.508  0.8372 -0.0927 -0.8837
 7931SOL    HW135255   0.503   3.869   8.583 -2.1619  1.5771  1.0159
 7931SOL    HW235256   0.472   3.927   8.457  0.1216 -0.2552 -1.4965
 7932SOL     OW35257   0.796   3.481   0.593  0.1278  0.2293 -0.0015
 7932SOL    HW135258   0.779   3.574   0.578 -2.5602 -0.2789 -0.1826
 7932SOL    HW235259   0.756   3.463   0.678 -2.1586  0.7258 -0.9701
 7933SOL     OW35260   1.262   2.029   2.650  0.1340 -0.9427 -0.3972
 7933SOL    HW135261   1.301   2.021   2.737 -1.2585  0.2477  0.3349
 7933SOL    HW235262   1.293   2.117   2.629  1.9743 -1.3288  0.7015
 7934SOL     OW35263   3.161   0.873   6.275  0.5952 -0.7370 -0.0278
 7934SOL    HW135264   3.241   0.916   6.245 -0.0103 -0.3937 -1.1300
 7934SOL    HW235265   3.158   0.802   6.211  2.1356 -3.8022  3.2676
 7935SOL     OW35266   3.345   1.747   8.419  0.5309 -0.4338  0.7233
 7935SOL    HW135267   3.353   1.812   8.489  0.6298  0.3437 -0.0108
 7935SOL    HW235268   3.348   1.661   8.461  0.2094 -1.3678 -1.1565
 7936SOL     OW35269   4.623   1.595   5.615 -0.2960 -0.4635  0.3605
 7936SOL    HW135270   4.586   1.520   5.568  0.7145 -1.0540  0.5060
 7936SOL    HW235271   4.557   1.661   5.596 -0.7193 -1.1902 -0.7090
 7937SOL     OW35272   0.633   3.377   8.840  0.0203 -0.0723  0.2586
 7937SOL    HW135273   0.666   3.290   8.817  0.8950 -0.1559  1.8639
 7937SOL    HW235274   0.708   3.437   8.842 -0.7638  0.9816 -1.7145
 7938SOL     OW35275   4.041   1.058   6.458  0.5199 -0.1329 -0.2156
 7938SOL    HW135276   4.067   1.119   6.527 -2.1073  0.1294  0.5357
 7938SOL    HW235277   4.117   1.082   6.405 -0.4287  0.2373 -1.4061
 7939SOL     OW35278   4.018   3.246   5.540 -0.2044  0.3253  0.3213
 7939SOL    HW135279   4.071   3.232   5.461  1.1074 -0.6891  1.3633
 7939SOL    HW235280   4.088   3.251   5.605  0.2919 -0.8195 -0.1148
 7940SOL     OW35281   3.473   1.495   8.481  1.0538 -0.0152 -0.1667
 7940SOL    HW135282   3.462   1.400   8.481  0.6638  0.0287  2.5026
 7940SOL    HW235283   3.569   1.498   8.477  0.9357  2.3829 -0.9363
 7941SOL     OW35284   2.702   3.209   1.623  0.5815  0.1264 -0.0767
 7941SOL    HW135285   2.628   3.149   1.629  0.8365 -0.3307 -1.5922
 7941SOL    HW235286   2.652   3.290   1.613 -0.2984 -0.4789 -0.5285
 7942SOL     OW35287   4.516   0.014   4.120  0.2768  0.0461  0.2221
 7942SOL    HW135288   4.537   4.650   4.114 -0.8185 -0.0426 -2.0562
 7942SOL    HW235289   4.571   0.037   4.195 -1.2420  2.4094  0.6198
 7943SOL     OW35290   1.855   1.100   3.137  0.2702 -0.3737  0.1019
 7943SOL    HW135291   1.810   1.036   3.082 -0.0171 -0.1012  0.0266
 7943SOL    HW235292   1.806   1.174   3.103  1.9844  1.5121  1.7311
 7944SOL     OW35293   0.766   1.738   6.422  0.1612  0.2772  0.0607
 7944SOL    HW135294   0.674   1.763   6.409  0.0980 -0.7719 -1.4281
 7944SOL    HW235295   0.790   1.688   6.344  2.8619 -0.9889  1.7127
 7945SOL     OW35296   0.388   1.466  14.066 -0.4946  0.0643  0.3975
 7945SOL    HW135297   0.470   1.424  14.043  0.1762  0.6653  1.6756
 7945SOL    HW235298   0.415   1.496  14.153 -0.6030 -0.8856  0.7504
 7946SOL     OW35299   2.153   2.871   8.306  0.2025 -0.4035 -0.1872
 7946SOL    HW135300   2.122   2.838   8.222  0.2704  0.9974 -0.7700
 7946SOL    HW235301   2.141   2.965   8.292  0.9077 -0.2820  0.0012
 7947SOL     OW35302   4.367   3.253   8.631 -0.2948  0.1158 -0.1350
 7947SOL    HW135303   4.397   3.191   8.565 -1.6225 -0.4327 -0.2071
 7947SOL    HW235304   4.307   3.309   8.581 -2.1218  0.7759  2.7954
 7948SOL     OW35305   0.914   3.742   8.060 -0.2970  0.2568  0.4186
 7948SOL    HW135306   0.894   3.825   8.016  0.8990  0.0062 -0.5877
 7948SOL    HW235307   0.982   3.771   8.120 -0.5422 -0.2966  0.9653
 7949SOL     OW35308   2.095   4.534   2.485  0.1606  0.2637  0.1973
 7949SOL    HW135309   2.096   4.616   2.436 -0.5783 -0.8756 -1.6799
 7949SOL    HW235310   2.190   4.527   2.491  0.0169 -1.7116  0.1753
 7950SOL     OW35311   3.212   2.892   2.625  0.2103 -0.1905  0.2059
 7950SOL    HW135312   3.267   2.958   2.583 -0.4621 -0.8305 -1.6484
 7950SOL    HW235313   3.203   2.919   2.717 -1.0204  3.7004 -1.0748
 7951SOL     OW35314   1.212   0.007   7.679  0.0366  0.3446 -0.4166
 7951SOL    HW135315   1.217   0.047   7.592  1.1443 -0.4956 -0.7407
 7951SOL    HW235316   1.210   4.645   7.647 -2.3325  0.1390  0.3028
 7952SOL     OW35317   3.389   0.844  15.174  0.1474 -0.4861 -0.8331
 7952SOL    HW135318   3.476   0.806  15.189  0.7378  0.8146 -0.9371
 7952SOL    HW235319   3.391   0.840  15.078  0.4610 -0.6789 -0.8212
 7953SOL     OW35320   2.822   2.083   7.941 -0.1640  0.0609 -0.0218
 7953SOL    HW135321   2.916   2.099   7.952  0.1413 -1.2318 -0.7040
 7953SOL    HW235322   2.795   2.085   8.032 -2.2586 -0.3398 -0.6229
 7954SOL     OW35323   3.735   2.109   3.295 -0.0009 -0.2676 -0.1830
 7954SOL    HW135324   3.739   2.047   3.223 -0.4859  1.0167 -1.3234
 7954SOL    HW235325   3.810   2.084   3.348 -0.3811 -0.4276  0.2868
 7955SOL     OW35326   4.704   1.637   8.668 -0.2494 -0.5728 -0.3281
 7955SOL    HW135327   4.616   1.674   8.675 -0.4495 -1.2442  0.5563
 7955SOL    HW235328   0.014   1.722   8.692  0.3980 -1.6462  2.3951
 7956SOL     OW35329   3.644   1.862   5.337  0.2172 -0.2073 -0.3702
 7956SOL    HW135330   3.676   1.933   5.281 -1.2075  1.1959  0.5828
 7956SOL    HW235331   3.640   1.787   5.278  1.1605  0.2059 -0.9625
 7957SOL     OW35332   0.072   4.120   9.295  0.8610  0.0139 -0.1331
 7957SOL    HW135333   0.163   4.104   9.269  0.6551 -0.1240 -0.7626
 7957SOL    HW235334   0.032   4.033   9.295 -0.4936  0.6461 -0.9427
 7958SOL     OW35335   1.376   3.220   2.735 -0.4535 -0.0770  0.0081
 7958SOL    HW135336   1.346   3.232   2.645 -0.8452  1.5802  0.3635
 7958SOL    HW235337   1.408   3.310   2.744  0.9984 -0.6498  0.6178
 7959SOL     OW35338   4.187   3.885  10.327  0.5628 -0.2238  0.2725
 7959SOL    HW135339   4.271   3.864  10.368  0.9812 -0.0150 -0.4729
 7959SOL    HW235340   4.213   3.907  10.238  0.2887  2.1113  0.7612
 7960SOL     OW35341   1.464   1.952   7.623  0.2812  0.7218 -0.5902
 7960SOL    HW135342   1.445   1.863   7.593  0.5779  0.2252  0.6821
 7960SOL    HW235343   1.371   1.975   7.621  0.6788  2.2490 -1.0297
 7961SOL     OW35344   2.457   1.295  13.664  0.0347 -0.0109  0.5028
 7961SOL    HW135345   2.462   1.319  13.572 -0.1525  1.3694  0.8489
 7961SOL    HW235346   2.522   1.360  13.692 -1.0421  1.1963  0.1884
 7962SOL     OW35347   2.418   0.186   7.084 -0.3646  0.4412  0.3448
 7962SOL    HW135348   2.396   0.245   7.156  1.1034 -0.7533  1.7880
 7962SOL    HW235349   2.348   0.210   7.025  1.4092  1.2057 -1.4465
 7963SOL     OW35350   1.793   3.891   5.600 -0.1183  0.5653 -0.3303
 7963SOL    HW135351   1.866   3.928   5.551 -0.1351 -0.8349 -1.4246
 7963SOL    HW235352   1.745   3.967   5.632  0.2427  0.4504  0.4762
 7964SOL     OW35353   4.597   2.236   5.896  0.0744  0.1336 -0.0457
 7964SOL    HW135354   4.664   2.181   5.857  2.1114  3.4266 -1.1770
 7964SOL    HW235355   4.647   2.302   5.944  2.4380 -0.8723 -1.1667
 7965SOL     OW35356   3.527   1.190   6.930 -0.1743 -0.3298  0.6521
 7965SOL    HW135357   3.460   1.192   6.862  0.0761  0.6146  0.4294
 7965SOL    HW235358   3.553   1.099   6.917 -1.7997 -0.7415  0.2454
 7966SOL     OW35359   3.179   0.747  17.170  0.0222 -0.0261  0.4598
 7966SOL    HW135360   3.121   0.819  17.194 -2.2162 -2.1837  1.4699
 7966SOL    HW235361   3.260   0.787  17.203 -0.2710  0.2972  0.7806
 7967SOL     OW35362   3.384   2.782   3.168  0.4048  0.1651  0.0018
 7967SOL    HW135363   3.385   2.728   3.089  2.5514  1.6757 -1.0104
 7967SOL    HW235364   3.293   2.769   3.194 -0.7024  0.6925 -3.6635
 7968SOL     OW35365   3.975   1.674  15.865  0.6988 -0.5299  0.2040
 7968SOL    HW135366   3.966   1.756  15.913  1.3593  0.7716 -1.8844
 7968SOL    HW235367   4.070   1.677  15.869  0.6371  0.9787  0.7227
 7969SOL     OW35368   3.186   1.893   6.788  0.1669  0.0853  0.9784
 7969SOL    HW135369   3.280   1.878   6.782  0.2681  1.1351  0.0023
 7969SOL    HW235370   3.170   1.889   6.882  0.5628  0.2638  1.0545
 7970SOL     OW35371   4.210   1.588   7.078 -0.2031  0.2333  0.2727
 7970SOL    HW135372   4.151   1.612   7.007  0.6772  0.7353 -0.2836
 7970SOL    HW235373   4.137   1.555   7.130 -0.6264  0.8191  0.0495
 7971SOL     OW35374   4.171   1.491   4.492 -0.2286  0.4120 -0.0724
 7971SOL    HW135375   4.224   1.518   4.567  0.8278 -0.6023 -0.4506
 7971SOL    HW235376   4.107   1.562   4.490  2.0244  2.4630  0.0390
 7972SOL     OW35377   4.044   2.956   8.870 -0.0206 -0.7757 -0.2795
 7972SOL    HW135378   3.985   2.968   8.795 -0.9031 -1.3376  0.3244
 7972SOL    HW235379   4.130   2.927   8.839  0.2126  1.3161 -1.6097
 7973SOL     OW35380   3.468   2.373  11.664 -0.7152  0.1561 -0.6384
 7973SOL    HW135381   3.414   2.321  11.724 -0.7010  1.5298  0.5494
 7973SOL    HW235382   3.429   2.460  11.667 -1.2135 -0.0373 -1.4734
 7974SOL     OW35383   0.084   3.886   7.751 -0.1094  0.3304  0.1652
 7974SOL    HW135384   0.101   3.891   7.845 -1.5456  1.0905  0.3694
 7974SOL    HW235385   0.002   3.934   7.752 -0.1337  0.3402 -1.4987
 7975SOL     OW35386   1.998   4.564   3.540  0.7244 -0.5554  0.6336
 7975SOL    HW135387   2.061   4.540   3.472 -0.8993  2.0182 -1.7579
 7975SOL    HW235388   1.955   4.634   3.491 -1.0867 -0.2473  2.6704
 7976SOL     OW35389   3.456   4.074   1.715 -0.1787  0.2672  0.0820
 7976SOL    HW135390   3.416   4.154   1.681 -0.2942  1.0821  2.1342
 7976SOL    HW235391   3.458   4.089   1.809  1.3319  0.4066  0.0374
 7977SOL     OW35392   1.065   0.113  15.993  0.3283  0.2272  0.3082
 7977SOL    HW135393   1.037   0.059  15.920  1.6382  0.1005 -0.1091
 7977SOL    HW235394   0.997   0.179  16.003  0.9248  0.9598 -0.5658
 7978SOL     OW35395   4.274   1.899  10.717 -0.3274 -0.1328  0.2047
 7978SOL    HW135396   4.325   1.949  10.781 -0.8432 -0.7610  1.1034
 7978SOL    HW235397   4.347   1.878  10.659 -0.7698  1.4489 -0.9354
 7979SOL     OW35398   1.145   4.641   9.180  0.0589  0.1280 -0.6208
 7979SOL    HW135399   1.207   4.573   9.208  1.0479  1.2877 -0.0406
 7979SOL    HW235400   1.200   4.717   9.166 -1.0962  1.0835  0.0708
 7980SOL     OW35401   4.059   2.086   5.929 -0.4180 -0.0025 -0.7631
 7980SOL    HW135402   4.084   1.998   5.959  0.9887  1.0843  1.3040
 7980SOL    HW235403   4.142   2.133   5.929  0.4538 -1.5359  0.4291
 7981SOL     OW35404   3.656   0.953   4.677 -0.7333 -0.6147 -0.0883
 7981SOL    HW135405   3.655   0.972   4.771  2.1935  1.6693 -0.5297
 7981SOL    HW235406   3.729   0.894   4.660  0.4948  0.1189  2.4916
 7982SOL     OW35407   2.636   1.841   7.886 -0.3613 -0.1749  0.1683
 7982SOL    HW135408   2.613   1.844   7.793 -0.0811 -0.3101  0.0951
 7982SOL    HW235409   2.680   1.925   7.903 -0.0187 -0.7308  2.0854
 7983SOL     OW35410   4.614   1.728  11.065  1.2761  0.1758 -0.4639
 7983SOL    HW135411   4.613   1.693  11.154  1.1258 -1.1947 -1.0178
 7983SOL    HW235412   4.539   1.788  11.068  0.4597 -0.9021  0.4996
 7984SOL     OW35413   2.101   2.640   3.764  0.2435  0.2530  0.1713
 7984SOL    HW135414   2.114   2.576   3.834 -0.1847  0.3285  0.3168
 7984SOL    HW235415   2.177   2.634   3.705  0.0568 -1.8423  0.1462
 7985SOL     OW35416   4.198   2.821   7.647 -0.7907  0.3431  0.0286
 7985SOL    HW135417   4.224   2.780   7.730 -2.5261  0.2578  0.5308
 7985SOL    HW235418   4.276   2.869   7.620  1.4733 -2.7214  1.1028
 7986SOL     OW35419   0.314   4.334  16.731 -0.6647  0.4055  0.6110
 7986SOL    HW135420   0.287   4.376  16.650 -1.5147  0.1774  0.7748
 7986SOL    HW235421   0.387   4.277  16.707 -0.5604  0.2047  1.3989
 7987SOL     OW35422   1.623   1.609   7.527 -0.6275  0.0068 -0.2343
 7987SOL    HW135423   1.714   1.581   7.520 -0.3268  0.4841  1.8131
 7987SOL    HW235424   1.611   1.603   7.622 -1.0484 -1.2471 -0.3625
 7988SOL     OW35425   4.483   0.075  17.296  0.0791 -0.0367  0.7237
 7988SOL    HW135426   4.417   0.127  17.251  1.5847  1.9165  0.7738
 7988SOL    HW235427   4.519   0.016  17.229 -0.6810 -0.6830  0.8848
 7989SOL     OW35428   1.167   2.818   1.860 -0.9498 -0.0221 -0.3351
 7989SOL    HW135429   1.252   2.816   1.905  0.0485 -0.4898 -2.2713
 7989SOL    HW235430   1.182   2.758   1.787  1.5382  1.9232 -1.4059
 7990SOL     OW35431   1.048   4.462   8.376  0.0513  0.5521 -0.3243
 7990SOL    HW135432   1.083   4.457   8.287  0.0100 -1.0917 -0.2545
 7990SOL    HW235433   0.963   4.419   8.364  0.9442 -1.5884  1.0168
 7991SOL     OW35434   0.468   1.731   2.577  0.2422 -0.0076 -0.0753
 7991SOL    HW135435   0.564   1.733   2.578  0.1734  1.6523  2.0241
 7991SOL    HW235436   0.452   1.662   2.640 -2.2161 -0.4574 -1.1945
 7992SOL     OW35437   2.040   2.309  10.864 -0.0114 -0.4220  0.0561
 7992SOL    HW135438   2.022   2.302  10.771  0.8743  0.7513 -0.2129
 7992SOL    HW235439   2.032   2.404  10.875  1.6184 -0.3522  0.7600
 7993SOL     OW35440   2.224   3.337   6.889  0.4207  0.1725 -0.1477
 7993SOL    HW135441   2.230   3.433   6.884  0.0187  0.1639 -0.8039
 7993SOL    HW235442   2.168   3.319   6.813  0.5800 -0.2154 -0.1723
 7994SOL     OW35443   2.043   0.205   7.718 -0.2045 -0.1241 -0.8532
 7994SOL    HW135444   1.949   0.213   7.733  0.0054  2.2502 -0.8019
 7994SOL    HW235445   2.066   0.117   7.748 -1.6000 -0.9997 -2.3467
 7995SOL     OW35446   0.236   2.200  11.717  0.2303  0.3740 -0.1327
 7995SOL    HW135447   0.276   2.134  11.660  0.4821 -0.2036  0.7082
 7995SOL    HW235448   0.142   2.183  11.707  0.7342 -2.0612 -0.7727
 7996SOL     OW35449   1.069   0.595   3.381  0.0817  0.1044 -0.6005
 7996SOL    HW135450   1.134   0.564   3.318 -0.8600  0.8160 -1.9084
 7996SOL    HW235451   1.109   0.662   3.436 -2.9856  1.3443  0.1100
 7997SOL     OW35452   4.492   1.426   0.416  0.6355  0.0744  0.1792
 7997SOL    HW135453   4.527   1.509   0.383  0.9616 -0.7101 -1.4565
 7997SOL    HW235454   4.440   1.458   0.490  0.1521  0.7563 -0.4588
 7998SOL     OW35455   3.712   0.744   8.646 -0.6384  0.5725  0.1728
 7998SOL    HW135456   3.665   0.665   8.671 -0.1567 -0.0975 -1.0762
 7998SOL    HW235457   3.755   0.720   8.564  2.5457 -0.6112  2.1804
 7999SOL     OW35458   3.454   3.367  11.728  0.3389 -0.1338 -0.0548
 7999SOL    HW135459   3.431   3.364  11.821 -2.6337  0.3487 -0.7464
 7999SOL    HW235460   3.532   3.312  11.730 -0.2648 -0.9709  0.3236
 8000SOL     OW35461   3.879   1.135   5.105  0.0093 -0.4910  0.2051
 8000SOL    HW135462   3.952   1.127   5.044 -1.5365  0.1872 -1.7675
 8000SOL    HW235463   3.805   1.131   5.044  1.4694 -1.0575 -1.5299
 8001SOL     OW35464   4.245   0.827   0.991 -0.3124 -0.4893 -0.0788
 8001SOL    HW135465   4.202   0.905   1.026  0.3456 -0.5719  0.9008
 8001SOL    HW235466   4.181   0.761   1.018  1.5833 -2.0509  0.6604
 8002SOL     OW35467   4.658   2.443   4.316 -0.1447  0.4519  0.1910
 8002SOL    HW135468   4.695   2.386   4.249  0.6337  3.0142 -1.5428
 8002SOL    HW235469   4.610   2.507   4.264  1.5764  0.4023 -1.4363
 8003SOL     OW35470   4.464   3.482   4.643  0.4320  0.0799  0.2069
 8003SOL    HW135471   4.548   3.529   4.644  0.8452 -0.6726  1.3161
 8003SOL    HW235472   4.486   3.395   4.675 -2.1440 -1.3437 -1.9852
 8004SOL     OW35473   3.686   3.794   4.173 -0.6008  0.2786 -1.0170
 8004SOL    HW135474   3.689   3.701   4.149 -1.0479 -0.3296  1.3351
 8004SOL    HW235475   3.628   3.800   4.249 -2.1688  0.2569 -2.2119
 8005SOL     OW35476   1.395   2.465  12.625 -0.2152  0.1658  0.2048
 8005SOL    HW135477   1.460   2.394  12.633  0.0752  0.6582  2.2629
 8005SOL    HW235478   1.392   2.459  12.529  0.1795 -0.0493  0.2038
 8006SOL     OW35479   1.092   2.560   8.897 -0.0660 -0.4616  0.0152
 8006SOL    HW135480   1.032   2.610   8.953  0.5349  1.4994 -1.0910
 8006SOL    HW235481   1.170   2.615   8.901 -1.0994  0.9698  0.3461
 8007SOL     OW35482   2.163   4.255   2.806 -0.7602  0.2444  0.1629
 8007SOL    HW135483   2.091   4.251   2.869  0.7276 -0.2081  1.8119
 8007SOL    HW235484   2.226   4.284   2.871 -2.3460  1.4323  1.1751
 8008SOL     OW35485   2.849   4.336   5.568 -0.4278 -0.2333  0.3255
 8008SOL    HW135486   2.789   4.382   5.509  0.4311 -0.3203 -0.6203
 8008SOL    HW235487   2.783   4.287   5.616 -0.8693  1.4469  1.4445
 8009SOL     OW35488   3.880   0.603   5.202  0.0503 -0.1663  0.0137
 8009SOL    HW135489   3.933   0.678   5.176 -0.0438 -0.7119 -1.7217
 8009SOL    HW235490   3.803   0.648   5.237 -0.3523  0.0474 -1.1283
 8010SOL     OW35491   1.120   1.152   6.215 -0.0295  0.6745  0.2543
 8010SOL    HW135492   1.054   1.089   6.245  0.1406 -0.1594 -1.1277
 8010SOL    HW235493   1.106   1.148   6.120  1.3779  0.0682  0.0642
 8011SOL     OW35494   1.356   4.184   7.602 -0.1999  0.1225 -0.0560
 8011SOL    HW135495   1.302   4.160   7.527 -0.2649  2.3232 -0.6950
 8011SOL    HW235496   1.440   4.182   7.556 -1.4623  0.5520 -2.3592
 8012SOL     OW35497   0.622   1.703   7.171 -0.2743  0.2348  0.5370
 8012SOL    HW135498   0.696   1.661   7.215  0.7771  2.1820  0.6355
 8012SOL    HW235499   0.589   1.762   7.239 -1.2817  0.7538 -0.3964
 8013SOL     OW35500   3.712   1.034   3.095  0.0962  0.2979 -0.4395
 8013SOL    HW135501   3.724   1.016   3.002  0.2794 -2.4740  0.1170
 8013SOL    HW235502   3.804   1.026   3.122 -0.2127 -2.0583 -0.0873
 8014SOL     OW35503   4.340   2.039  16.747  0.3784  0.5920 -0.3242
 8014SOL    HW135504   4.423   2.012  16.706  0.6851  0.0729  0.6233
 8014SOL    HW235505   4.314   1.956  16.788  0.6367  1.8393  2.3590
 8015SOL     OW35506   0.634   1.798  12.122  0.0378  0.1236  0.4762
 8015SOL    HW135507   0.625   1.708  12.088  3.4983  0.4324 -1.1542
 8015SOL    HW235508   0.714   1.788  12.172  1.1714 -0.5822 -1.4731
 8016SOL     OW35509   1.317   1.137  12.346 -0.1709 -0.5674 -0.2033
 8016SOL    HW135510   1.242   1.196  12.351  0.3839  0.1997 -0.9727
 8016SOL    HW235511   1.330   1.133  12.441 -3.0181 -1.4575  0.1622
 8017SOL     OW35512   3.385   3.281  13.165 -0.2433 -0.0205  0.4207
 8017SOL    HW135513   3.410   3.257  13.254 -0.3579 -1.5186  0.0363
 8017SOL    HW235514   3.291   3.293  13.180  0.0422  0.0271  2.1635
 8018SOL     OW35515   3.571   1.168   7.218 -0.0344 -0.0814  0.0149
 8018SOL    HW135516   3.517   1.194   7.143  2.0026 -0.0594 -1.4543
 8018SOL    HW235517   3.661   1.195   7.198 -0.6008  0.2103 -2.1726
 8019SOL     OW35518   1.679   1.289   2.317 -0.1695 -0.5850 -0.1134
 8019SOL    HW135519   1.657   1.371   2.273  0.8382 -0.5139 -0.4809
 8019SOL    HW235520   1.597   1.242   2.302 -0.5902  0.2847 -0.5444
 8020SOL     OW35521   3.357   2.172  16.736 -0.2719 -0.0077 -0.3388
 8020SOL    HW135522   3.367   2.178  16.831 -1.1968  1.1691 -0.3161
 8020SOL    HW235523   3.445   2.144  16.710 -1.0776 -2.0719 -0.8354
 8021SOL     OW35524   0.922   2.444  12.147  0.3754 -0.0903 -0.0996
 8021SOL    HW135525   0.853   2.418  12.086  0.7724  0.0168 -0.6050
 8021SOL    HW235526   0.998   2.395  12.116 -0.3620 -0.0366 -2.0085
 8022SOL     OW35527   0.770   2.191   3.003 -0.0206 -0.4352  0.1995
 8022SOL    HW135528   0.787   2.273   2.957  0.6953  0.1425  1.4790
 8022SOL    HW235529   0.712   2.154   2.936  0.5059 -0.3187 -0.3142
 8023SOL     OW35530   0.625   0.058   5.822 -0.0993  0.1942 -0.2381
 8023SOL    HW135531   0.621   0.060   5.918  0.4721  4.0275 -0.3035
 8023SOL    HW235532   0.639   4.692   5.814  1.5742  0.4070  0.2666
 8024SOL     OW35533   1.875   2.051   4.176 -0.1416  0.2764 -0.6202
 8024SOL    HW135534   1.900   2.119   4.114  0.5334  0.1827 -0.4482
 8024SOL    HW235535   1.953   2.001   4.201 -1.8788 -0.3857  3.6602
 8025SOL     OW35536   1.402   2.345   5.589  0.4419 -0.1231 -0.3293
 8025SOL    HW135537   1.309   2.363   5.603 -0.2741 -0.6344 -4.5067
 8025SOL    HW235538   1.437   2.432   5.566  1.4329 -0.6209 -0.7345
 8026SOL     OW35539   2.143   4.316   0.723 -0.3546 -0.3909 -0.2092
 8026SOL    HW135540   2.124   4.337   0.632 -1.7764 -1.0661 -0.0653
 8026SOL    HW235541   2.091   4.237   0.736 -0.0396 -0.8383 -1.7108
 8027SOL     OW35542   3.056   0.841   2.434 -0.2726 -0.6816 -0.1300
 8027SOL    HW135543   3.091   0.863   2.348 -0.5794 -0.6884 -0.2567
 8027SOL    HW235544   3.009   0.759   2.419  0.2752 -0.6757 -1.8703
 8028SOL     OW35545   1.082   3.736   3.450  0.5191 -0.2769  0.0989
 8028SOL    HW135546   0.992   3.742   3.483 -0.6307 -2.6672 -2.5687
 8028SOL    HW235547   1.122   3.792   3.517  1.6955  1.3396 -1.9828
 8029SOL     OW35548   3.225   2.162   3.427  1.0249  0.0291 -0.4152
 8029SOL    HW135549   3.309   2.147   3.383  0.3792 -3.3269 -0.5220
 8029SOL    HW235550   3.170   2.200   3.359  0.1971  0.5461  0.5512
 8030SOL     OW35551   1.492   0.699   8.117 -0.9574  0.2604 -0.1947
 8030SOL    HW135552   1.550   0.635   8.158  0.2002  2.1612  1.1836
 8030SOL    HW235553   1.457   0.750   8.191  1.2751  1.5964 -0.0403
 8031SOL     OW35554   3.331   0.369   6.839  0.1473  0.2528 -0.0484
 8031SOL    HW135555   3.274   0.417   6.778  1.2515  0.2401 -1.0788
 8031SOL    HW235556   3.419   0.397   6.813  0.5620 -0.2781  0.8100
 8032SOL     OW35557   0.921   4.480   4.571  0.1183  0.1054  0.0815
 8032SOL    HW135558   0.903   4.420   4.643 -1.0070 -0.2823 -0.5166
 8032SOL    HW235559   0.896   4.445   4.485 -0.4196 -0.8951  0.6427
 8033SOL     OW35560   4.553   4.591   7.896  0.0674 -0.0358 -0.1777
 8033SOL    HW135561   4.542   4.502   7.931 -2.3131  0.5348  0.5001
 8033SOL    HW235562   4.638   4.580   7.852  0.6756  0.8918  0.7570
 8034SOL     OW35563   0.364   3.613  11.658  0.3523 -0.5673  0.4032
 8034SOL    HW135564   0.284   3.601  11.709  0.1656  1.2462  0.5073
 8034SOL    HW235565   0.419   3.552  11.707  1.2537 -0.6006 -0.6477
 8035SOL     OW35566   2.919   4.174   8.964 -0.2983 -0.3810  0.3933
 8035SOL    HW135567   3.011   4.164   8.989 -0.0400  0.0929 -0.3548
 8035SOL    HW235568   2.869   4.128   9.032 -1.5979  2.8832  1.6926
 8036SOL     OW35569   1.928   0.528   3.942 -0.2995 -0.1898 -0.2703
 8036SOL    HW135570   1.881   0.523   3.859 -0.6103  0.6375 -0.1370
 8036SOL    HW235571   1.961   0.438   3.933 -1.5504 -0.9461  2.7002
 8037SOL     OW35572   4.062   2.351   5.407  0.3036  0.2994  0.4782
 8037SOL    HW135573   3.968   2.335   5.405  0.6236 -1.8277  1.6602
 8037SOL    HW235574   4.080   2.311   5.321  0.1094  1.6217 -0.1766
 8038SOL     OW35575   2.831   1.394   9.238  0.2904  0.1005 -0.0178
 8038SOL    HW135576   2.879   1.466   9.279  3.9604 -1.2548 -1.9236
 8038SOL    HW235577   2.879   1.385   9.156  0.2778 -0.2036  0.0082
 8039SOL     OW35578   1.919   2.414   5.227 -0.3007  0.2643 -0.1459
 8039SOL    HW135579   2.011   2.423   5.250 -0.1397 -3.5890  0.6635
 8039SOL    HW235580   1.917   2.340   5.167 -0.6980 -0.4200  0.7119
 8040SOL     OW35581   3.111   4.512   3.199 -0.3469 -0.6298  0.0510
 8040SOL    HW135582   3.185   4.525   3.140  1.4705 -1.1750  2.2011
 8040SOL    HW235583   3.150   4.446   3.257 -0.2829 -0.3881  0.2825
 8041SOL     OW35584   1.254   1.903   4.535 -0.3027  0.4140 -0.2405
 8041SOL    HW135585   1.341   1.925   4.501  0.0952  1.7229  1.6366
 8041SOL    HW235586   1.221   1.991   4.553  0.9010  1.5804 -3.6187
 8042SOL     OW35587   3.272   4.521   5.863  0.4884 -0.1590  0.2447
 8042SOL    HW135588   3.228   4.452   5.813  0.4590 -0.0848  0.1692
 8042SOL    HW235589   3.199   4.555   5.915  0.4102 -0.2675  0.2061
 8043SOL     OW35590   3.911   3.913   2.907 -0.1908 -0.5600 -0.2474
 8043SOL    HW135591   3.957   3.858   2.844 -0.8810 -2.1184  0.6061
 8043SOL    HW235592   3.952   3.995   2.878  0.4271 -0.1714  1.7131
 8044SOL     OW35593   4.437   1.988  11.572 -0.2811  0.6201 -0.0164
 8044SOL    HW135594   4.474   1.914  11.621 -1.1463 -0.0219 -0.3222
 8044SOL    HW235595   4.369   1.942  11.523  1.7513 -1.6215 -0.7243
 8045SOL     OW35596   1.275   1.497   2.419 -0.1182  0.7102 -0.3416
 8045SOL    HW135597   1.313   1.422   2.465 -0.7671 -0.8216 -2.3133
 8045SOL    HW235598   1.213   1.450   2.363  0.5439  0.1286 -0.5888
 8046SOL     OW35599   3.119   2.764   7.172  0.0996 -0.1532 -0.2583
 8046SOL    HW135600   3.087   2.713   7.247 -1.6151  0.0447 -0.8516
 8046SOL    HW235601   3.042   2.817   7.151  0.1784 -0.1299 -0.4877
 8047SOL     OW35602   3.387   0.697   3.703  0.5051 -0.3401  0.3424
 8047SOL    HW135603   3.302   0.670   3.737  0.1276 -0.4078 -0.6741
 8047SOL    HW235604   3.439   0.623   3.737 -1.2729 -3.1605 -3.1211
 8048SOL     OW35605   1.419   1.969   0.734 -0.2949 -0.4044 -0.5232
 8048SOL    HW135606   1.474   2.041   0.765 -0.5336  0.1670 -1.4046
 8048SOL    HW235607   1.447   1.962   0.643  2.4162 -0.7332  0.3552
 8049SOL     OW35608   4.369   3.072   5.872  0.0367  0.3282  0.1793
 8049SOL    HW135609   4.450   3.121   5.856  0.8118 -0.4354  1.8288
 8049SOL    HW235610   4.361   3.076   5.967 -1.5092 -2.1917  0.1423
 8050SOL     OW35611   3.064   1.674  10.232 -1.0461 -0.2887 -0.2481
 8050SOL    HW135612   3.043   1.615  10.304 -0.6446  0.0713  0.1622
 8050SOL    HW235613   3.081   1.600  10.174 -0.1420 -0.0880 -0.2489
 8051SOL     OW35614   0.678   4.094   3.906  0.2656  0.0470 -0.0192
 8051SOL    HW135615   0.606   4.031   3.909 -1.8949  2.6302  2.3433
 8051SOL    HW235616   0.754   4.037   3.893  0.5746  0.1623  1.2538
 8052SOL     OW35617   1.235   3.504   6.489  0.5676  0.7013  0.0718
 8052SOL    HW135618   1.246   3.580   6.547 -1.2155  1.0795 -0.0702
 8052SOL    HW235619   1.237   3.552   6.406  0.6402 -1.4800 -1.1716
 8053SOL     OW35620   3.332   3.919   4.576  0.1801 -0.0932 -0.3023
 8053SOL    HW135621   3.260   3.928   4.639 -0.2398 -0.2394 -0.7553
 8053SOL    HW235622   3.409   3.928   4.633 -0.2335 -0.3416  0.3016
 8054SOL     OW35623   1.618   1.789  14.724 -0.7520  0.2556 -0.7086
 8054SOL    HW135624   1.582   1.803  14.636 -2.7454 -1.9075 -0.2427
 8054SOL    HW235625   1.592   1.700  14.747  0.9515  0.0260  0.2829
 8055SOL     OW35626   4.524   4.163   1.748  1.1549  0.0419 -0.1831
 8055SOL    HW135627   4.613   4.146   1.716  2.4707 -0.4147  3.7631
 8055SOL    HW235628   4.528   4.258   1.751 -0.5162  0.0952  0.2651
 8056SOL     OW35629   1.292   0.859  10.619  0.0322 -0.6511 -0.3269
 8056SOL    HW135630   1.345   0.779  10.609  1.6339  0.4518 -0.6637
 8056SOL    HW235631   1.331   0.892  10.700 -2.3867 -1.9381  1.3662
 8057SOL     OW35632   4.378   2.481   0.485 -0.7100  0.0881 -0.2524
 8057SOL    HW135633   4.433   2.558   0.471  0.5705 -0.3887  2.1497
 8057SOL    HW235634   4.359   2.504   0.576 -0.6135  1.5031 -0.5958
 8058SOL     OW35635   4.571   4.360   5.874  0.2043  0.3908 -0.4825
 8058SOL    HW135636   4.516   4.282   5.862 -1.1169  1.1888  0.3508
 8058SOL    HW235637   4.660   4.326   5.879 -0.0313  0.2759  2.8512
 8059SOL     OW35638   0.230   1.067   5.753 -0.1049 -0.3742  0.4833
 8059SOL    HW135639   0.298   1.114   5.802  0.3330 -0.7601  0.2471
 8059SOL    HW235640   0.167   1.050   5.823 -0.2754 -1.0728  0.1566
 8060SOL     OW35641   3.267   2.302   4.208  0.2969 -0.6152  0.1038
 8060SOL    HW135642   3.286   2.277   4.118  0.0239 -2.2418  0.5020
 8060SOL    HW235643   3.233   2.389   4.185  2.0058  0.1861  0.6185
 8061SOL     OW35644   2.919   0.500   4.160 -0.0213  0.2381  0.1588
 8061SOL    HW135645   2.993   0.528   4.105  0.4915 -2.3464 -0.4764
 8061SOL    HW235646   2.922   0.570   4.225  0.4730  0.1623  0.2209
 8062SOL     OW35647   2.595   2.092  15.269  0.0679  0.4442  0.1946
 8062SOL    HW135648   2.652   2.114  15.343  1.0179  1.0895 -0.7260
 8062SOL    HW235649   2.634   2.136  15.194 -0.4857 -2.4798 -1.8036
 8063SOL     OW35650   3.603   3.950   3.952 -0.4832 -0.4040 -0.0917
 8063SOL    HW135651   3.555   4.001   4.017 -0.7785  1.2280 -1.5944
 8063SOL    HW235652   3.645   3.877   3.997  2.7757  1.8661  0.5960
 8064SOL     OW35653   0.282   4.391   7.649  0.0215  0.3252 -0.0408
 8064SOL    HW135654   0.244   4.319   7.699 -0.7125 -0.2792 -1.4576
 8064SOL    HW235655   0.203   4.446   7.643  0.8508  1.3428 -1.8258
 8065SOL     OW35656   3.534   1.908   7.653  0.3775  0.9628 -0.3450
 8065SOL    HW135657   3.463   1.879   7.711 -2.5951  4.7154 -2.1000
 8065SOL    HW235658   3.529   2.002   7.669 -2.4075  1.0449 -1.7139
 8066SOL     OW35659   3.123   4.298   8.190 -0.4362 -0.3292 -0.1913
 8066SOL    HW135660   3.191   4.258   8.244  0.9508  0.3692 -1.4156
 8066SOL    HW235661   3.172   4.311   8.109  0.8190  0.9963  0.7822
 8067SOL     OW35662   2.955   0.029   3.275 -0.0570  0.2653  0.1514
 8067SOL    HW135663   2.997   0.104   3.319  0.8168 -1.0351  1.5417
 8067SOL    HW235664   2.991   4.682   3.321 -1.7284 -0.5892  0.0559
 8068SOL     OW35665   1.092   4.079   6.902  0.4360 -0.3052  0.3850
 8068SOL    HW135666   1.068   4.060   6.993 -0.6162 -2.8775 -0.4181
 8068SOL    HW235667   1.015   4.120   6.863  1.2646 -1.1533 -2.1575
 8069SOL     OW35668   1.298   2.977  16.020 -0.2517 -0.6383 -0.1641
 8069SOL    HW135669   1.370   2.981  16.082 -1.7363  3.4409  1.3315
 8069SOL    HW235670   1.313   3.056  15.968 -0.7106 -0.3949  0.0761
 8070SOL     OW35671   4.388   3.023   3.823 -0.9476  0.1294  0.0983
 8070SOL    HW135672   4.393   2.931   3.795 -1.3559  0.5396 -1.3261
 8070SOL    HW235673   4.442   3.030   3.902 -0.2470  3.6434 -0.7183
 8071SOL     OW35674   3.536   4.611  10.148 -0.3126 -0.1623 -0.4628
 8071SOL    HW135675   3.486   4.531  10.160  0.6544 -0.8309 -0.8242
 8071SOL    HW235676   3.545   4.636  10.240 -1.7997  1.0970 -0.6720
 8072SOL     OW35677   1.490   1.318   5.796 -0.6323  0.0118 -0.1855
 8072SOL    HW135678   1.455   1.352   5.714  2.8714  0.9339 -1.2604
 8072SOL    HW235679   1.418   1.325   5.860 -2.1876 -0.6674 -1.8555
 8073SOL     OW35680   0.851   3.156   3.712 -0.6006 -0.5113  0.3490
 8073SOL    HW135681   0.897   3.232   3.676 -1.0481 -0.0503  0.7559
 8073SOL    HW235682   0.917   3.087   3.712  0.2508  0.2856  0.5639
 8074SOL     OW35683   4.598   3.794   8.827 -0.4155 -0.0395  0.0779
 8074SOL    HW135684   4.549   3.733   8.883 -0.4946 -0.0018  0.0501
 8074SOL    HW235685   4.527   3.834   8.777 -2.6041  0.2843  3.4116
 8075SOL     OW35686   0.883   3.086   2.192  0.5098  0.0059  0.1235
 8075SOL    HW135687   0.921   3.001   2.168  1.9999  0.7665 -0.1934
 8075SOL    HW235688   0.950   3.127   2.246  0.6548  0.2603 -0.2460
 8076SOL     OW35689   4.515   4.634   9.127  0.5288 -0.1929  0.2407
 8076SOL    HW135690   4.511   4.699   9.057 -1.9302  0.9490  1.4524
 8076SOL    HW235691   4.572   4.572   9.082 -0.1789 -1.0790  0.5542
 8077SOL     OW35692   2.367   4.040   7.400  0.3880 -0.0721 -0.3238
 8077SOL    HW135693   2.348   3.971   7.336  0.0406 -1.7458  1.5486
 8077SOL    HW235694   2.294   4.098   7.382  0.3088 -0.0153  0.1700
 8078SOL     OW35695   3.127   0.316  16.910 -0.1226 -0.7666  0.1908
 8078SOL    HW135696   3.167   0.401  16.924 -0.2152 -0.4521 -1.3964
 8078SOL    HW235697   3.196   0.280  16.854  0.2451 -1.1194  0.8807
 8079SOL     OW35698   0.237   2.044   7.460  0.2039 -0.0202 -0.8989
 8079SOL    HW135699   0.151   2.062   7.424 -0.2499 -2.1522 -0.8417
 8079SOL    HW235700   0.222   1.965   7.512 -2.4406  0.9822 -0.1517
 8080SOL     OW35701   2.436   3.015   9.507  0.3528  0.4248 -0.6681
 8080SOL    HW135702   2.496   3.031   9.435 -1.6750  2.7274 -1.8547
 8080SOL    HW235703   2.397   2.934   9.474  0.6188  1.4018 -3.3553
 8081SOL     OW35704   3.847   3.947  12.055 -0.0234 -0.3449  0.3082
 8081SOL    HW135705   3.820   3.979  12.141 -1.8057 -0.3985 -0.2249
 8081SOL    HW235706   3.828   3.854  12.068 -0.9940  0.2192  2.9454
 8082SOL     OW35707   4.541   0.993   4.779  0.2340 -0.4419  0.0045
 8082SOL    HW135708   4.460   0.973   4.732  1.3929 -2.0292 -1.3150
 8082SOL    HW235709   4.521   1.082   4.807 -1.5806 -0.4125 -1.4202
 8083SOL     OW35710   0.251   3.109   0.255  0.6355 -0.1028 -0.4417
 8083SOL    HW135711   0.345   3.114   0.276  0.4803 -1.1171  0.5696
 8083SOL    HW235712   0.235   3.187   0.203  1.3116 -0.7279 -1.5952
 8084SOL     OW35713   0.259   1.513   3.434  0.7718 -0.0144  0.0513
 8084SOL    HW135714   0.207   1.467   3.499 -1.2916  0.2560 -1.4180
 8084SOL    HW235715   0.182   1.548   3.390 -0.0520 -1.9097  0.0013
 8085SOL     OW35716   2.919   2.137   6.930 -0.0984  0.4748  0.3441
 8085SOL    HW135717   2.837   2.138   6.882 -1.2383 -0.6662  2.2738
 8085SOL    HW235718   2.914   2.045   6.956 -2.7947  0.5848  0.1487
 8086SOL     OW35719   3.948   2.834   8.578  0.1303 -0.3673  0.5690
 8086SOL    HW135720   3.980   2.759   8.628  1.1589 -0.2206  0.1491
 8086SOL    HW235721   3.929   2.793   8.494 -1.9900  1.0935  0.3471
 8087SOL     OW35722   2.690   2.063   0.876 -0.2919 -0.1803  0.1416
 8087SOL    HW135723   2.656   1.975   0.860 -2.1738  0.1503  2.2819
 8087SOL    HW235724   2.785   2.063   0.875 -0.2264  3.0750  3.7544
 8088SOL     OW35725   2.477   3.926   7.610 -0.4633  0.0732 -0.5233
 8088SOL    HW135726   2.450   3.979   7.535  1.1172 -0.2802 -1.3556
 8088SOL    HW235727   2.505   3.845   7.567 -3.0017 -1.1318  0.1048
 8089SOL     OW35728   2.300   2.087   7.171  0.3452  0.1279  0.0874
 8089SOL    HW135729   2.300   2.075   7.266  1.6014 -0.7468 -0.0310
 8089SOL    HW235730   2.374   2.147   7.166 -0.1510  0.5886 -1.8742
 8090SOL     OW35731   2.183   3.987   6.678  0.3492  0.1715 -0.0609
 8090SOL    HW135732   2.272   3.970   6.711  0.4603 -0.5293 -0.7183
 8090SOL    HW235733   2.204   3.990   6.585 -1.1411 -0.6423 -0.4091
 8091SOL     OW35734   1.217   2.274  14.839 -0.5044  0.3777 -0.3833
 8091SOL    HW135735   1.279   2.346  14.851 -0.7843  0.2705  1.6909
 8091SOL    HW235736   1.163   2.283  14.918  0.7684 -1.0504  0.6584
 8092SOL     OW35737   1.047   2.632   2.485 -0.0283  0.2882  0.2436
 8092SOL    HW135738   1.091   2.708   2.447 -0.3408 -0.5673 -1.7908
 8092SOL    HW235739   1.085   2.566   2.428  0.5756  0.8241  0.0227
 8093SOL     OW35740   3.151   3.279   8.514  0.3466 -0.0267  0.6322
 8093SOL    HW135741   3.079   3.282   8.577 -0.2407  0.3736 -0.0761
 8093SOL    HW235742   3.126   3.353   8.460 -2.5700 -2.2847 -1.1238
 8094SOL     OW35743   3.544   0.185   4.600 -0.3064  0.0189 -0.4850
 8094SOL    HW135744   3.490   0.258   4.568  1.2947  1.9856  1.3229
 8094SOL    HW235745   3.480   0.115   4.593  1.1470 -1.3208 -0.3699
 8095SOL     OW35746   2.284   1.510   4.791 -0.1875 -0.0693 -0.0149
 8095SOL    HW135747   2.211   1.448   4.797 -0.8130  0.6209 -0.3534
 8095SOL    HW235748   2.265   1.562   4.869 -2.3652 -0.6588 -0.1301
 8096SOL     OW35749   1.915   2.668   4.890  0.0068  0.5017  0.1760
 8096SOL    HW135750   1.997   2.709   4.864 -0.5596 -0.2071 -2.7042
 8096SOL    HW235751   1.934   2.582   4.853  1.7949  1.0102 -0.0907
 8097SOL     OW35752   3.505   4.354   7.419  0.4232 -0.2881  0.4604
 8097SOL    HW135753   3.427   4.397   7.454  1.1317  0.6302  0.9485
 8097SOL    HW235754   3.563   4.429   7.431 -1.2407  1.2675 -1.1886
 8098SOL     OW35755   3.879   2.591  12.256 -0.0257 -0.1444 -0.2186
 8098SOL    HW135756   3.922   2.539  12.189  0.2355  2.3958 -2.0108
 8098SOL    HW235757   3.909   2.679  12.232 -0.2139  0.2723  1.0441
 8099SOL     OW35758   1.263   2.775   1.099  0.1644  0.1158  0.1546
 8099SOL    HW135759   1.319   2.773   1.177  2.7840  1.3096 -1.6898
 8099SOL    HW235760   1.313   2.723   1.036 -0.2587 -1.6731  1.2925
 8100SOL     OW35761   4.443   0.378   7.126 -0.3154 -0.1824  0.0057
 8100SOL    HW135762   4.451   0.304   7.066  0.7733  0.2992 -0.4434
 8100SOL    HW235763   4.533   0.394   7.153 -0.3521 -0.6802  0.4009
 8101SOL     OW35764   0.960   3.130  14.065 -0.0855  0.3597 -0.2362
 8101SOL    HW135765   1.030   3.065  14.058 -0.9853 -0.4632 -1.5527
 8101SOL    HW235766   0.910   3.100  14.141  1.3939  0.8529  0.9296
 8102SOL     OW35767   0.970   4.557  11.163 -0.5789 -0.1987  0.3491
 8102SOL    HW135768   0.921   4.552  11.244 -2.4113 -3.8448 -0.9941
 8102SOL    HW235769   0.999   4.646  11.183  0.1106  0.1081 -1.9275
 8103SOL     OW35770   1.822   4.251  10.561 -0.1110 -0.4097 -0.4370
 8103SOL    HW135771   1.780   4.273  10.645 -0.5104 -0.1934 -0.6919
 8103SOL    HW235772   1.849   4.340  10.538 -1.5763  0.2569  0.3921
 8104SOL     OW35773   0.895   3.004   5.103  0.3363  0.3652 -0.2938
 8104SOL    HW135774   0.965   3.026   5.041 -0.5290 -0.3022 -1.5039
 8104SOL    HW235775   0.825   2.975   5.045  0.1500 -1.7480  0.9691
 8105SOL     OW35776   0.781   3.713   7.411  0.3881  0.1279  0.2813
 8105SOL    HW135777   0.705   3.740   7.360  0.7714  0.4108 -0.1323
 8105SOL    HW235778   0.837   3.788   7.393 -0.3335  0.5709 -0.0934
 8106SOL     OW35779   1.547   1.702  10.830  0.2301  0.1652 -0.0884
 8106SOL    HW135780   1.507   1.742  10.753 -2.9119  0.2658  1.5730
 8106SOL    HW235781   1.584   1.619  10.799  0.4868  0.7377 -1.3263
 8107SOL     OW35782   2.181   4.011   4.365 -0.1651  0.7369  0.6160
 8107SOL    HW135783   2.207   4.076   4.430  2.4639 -0.1918  0.4858
 8107SOL    HW235784   2.225   4.051   4.290  1.0634  0.5884  1.2624
 8108SOL     OW35785   2.839   2.710   3.188  0.2213  0.0164  0.0215
 8108SOL    HW135786   2.747   2.694   3.209  0.6253 -1.1134  0.9098
 8108SOL    HW235787   2.850   2.675   3.099 -0.4006  0.8671 -0.3926
 8109SOL     OW35788   3.151   2.036  15.648 -0.2944  0.3460  0.4927
 8109SOL    HW135789   3.230   1.989  15.620 -1.6677 -0.9993 -1.0981
 8109SOL    HW235790   3.199   2.114  15.678 -1.1605  1.5453 -1.2168
 8110SOL     OW35791   1.525   3.171   0.556  0.0212 -0.2580 -0.3411
 8110SOL    HW135792   1.483   3.242   0.508 -1.6061 -0.2290  1.1136
 8110SOL    HW235793   1.487   3.096   0.511 -1.7450 -0.8565  2.1341
 8111SOL     OW35794   1.741   1.080   5.287 -0.4647 -0.0156 -0.0598
 8111SOL    HW135795   1.784   1.046   5.366 -2.3583 -1.1370  0.5036
 8111SOL    HW235796   1.736   1.002   5.231 -1.6049  1.5605 -2.1215
 8112SOL     OW35797   4.003   4.554   7.798 -0.2348 -0.0758 -0.0342
 8112SOL    HW135798   4.093   4.527   7.815  0.3355  1.4118 -0.6869
 8112SOL    HW235799   3.972   4.571   7.887 -0.0261 -0.2150  0.0630
 8113SOL     OW35800   4.011   0.700   2.088 -0.3528 -0.9593 -0.4502
 8113SOL    HW135801   3.921   0.671   2.099  0.2686 -2.0969  1.6778
 8113SOL    HW235802   3.999   0.765   2.019 -2.2176 -1.1463 -0.2982
 8114SOL     OW35803   0.621   4.182   9.495  0.4226  0.6896  0.1330
 8114SOL    HW135804   0.685   4.110   9.497  0.5877  0.9212  2.4982
 8114SOL    HW235805   0.565   4.166   9.570 -0.1209  0.7003 -0.2695
 8115SOL     OW35806   3.288   0.143  13.832  0.1513  0.2366 -0.2219
 8115SOL    HW135807   3.293   0.206  13.761 -1.3600  0.9944  0.3526
 8115SOL    HW235808   3.270   0.207  13.900 -1.3019  0.1094 -0.4936
 8116SOL     OW35809   1.006   0.804   7.504  0.2115  0.0969  0.0926
 8116SOL    HW135810   0.931   0.856   7.534  0.5311  0.2488  0.6298
 8116SOL    HW235811   1.014   0.746   7.580 -1.2678 -1.6921 -1.1119
 8117SOL     OW35812   4.586   3.210  16.879  0.3319 -0.1903 -0.4546
 8117SOL    HW135813   4.573   3.305  16.872 -0.1995 -0.1646  0.9703
 8117SOL    HW235814   4.539   3.170  16.805 -2.0379  0.9511  0.4088
 8118SOL     OW35815   3.881   3.098   2.434 -0.3638 -0.8970  0.1137
 8118SOL    HW135816   3.916   3.162   2.372 -3.0135  1.7466  1.3568
 8118SOL    HW235817   3.912   3.120   2.522 -0.6496  2.3886 -0.5912
 8119SOL     OW35818   0.752   0.295   3.429 -0.1676  0.5138 -0.2520
 8119SOL    HW135819   0.830   0.256   3.389 -1.2420 -1.4138 -0.4572
 8119SOL    HW235820   0.786   0.370   3.478 -1.6489  1.0903 -0.1040
 8120SOL     OW35821   3.296   2.917   1.963  0.2175  0.0702  0.5344
 8120SOL    HW135822   3.231   2.934   2.032 -0.5612  1.3099 -0.5179
 8120SOL    HW235823   3.315   2.824   1.972 -3.1734 -0.7844 -1.2362
 8121SOL     OW35824   0.925   2.562   6.356 -0.2059  0.2227 -0.4328
 8121SOL    HW135825   0.921   2.607   6.440 -1.2251  1.7404 -1.2902
 8121SOL    HW235826   0.867   2.628   6.317  1.4155  1.5762 -0.6130
 8122SOL     OW35827   1.264   3.865   8.653 -0.5143 -0.2096 -0.0501
 8122SOL    HW135828   1.171   3.881   8.634 -0.3781  1.9344  1.0098
 8122SOL    HW235829   1.264   3.784   8.704  4.0282 -0.0329  0.2129
 8123SOL     OW35830   2.116   1.930   3.942  0.6963  0.1605 -0.4693
 8123SOL    HW135831   2.169   1.852   3.932 -0.8409 -0.9307 -0.0987
 8123SOL    HW235832   2.031   1.887   3.933  0.6093  0.3125 -0.3877
 8124SOL     OW35833   4.179   4.453   8.659 -0.2040  0.4967 -0.2945
 8124SOL    HW135834   4.183   4.438   8.753 -1.5139 -1.8370 -0.6115
 8124SOL    HW235835   4.117   4.526   8.657  0.1759  0.8619  1.6254
 8125SOL     OW35836   1.891   3.450   1.575  0.1994 -0.1991  0.2891
 8125SOL    HW135837   1.894   3.536   1.616  0.0588  0.9987 -2.2320
 8125SOL    HW235838   1.818   3.456   1.514  0.7267 -2.4531 -0.5950
 8126SOL     OW35839   2.714   4.698   5.793 -0.0804 -0.3823 -0.2742
 8126SOL    HW135840   2.651   4.686   5.865  0.0792 -1.2202 -0.2657
 8126SOL    HW235841   2.753   0.055   5.811 -0.8836 -0.4560  1.8599
 8127SOL     OW35842   0.011   1.878   4.783  0.0669 -0.2208 -0.4566
 8127SOL    HW135843   0.060   1.822   4.842 -1.2250 -1.5810 -0.6672
 8127SOL    HW235844   0.019   1.847   4.693  3.4690  0.0609 -0.2608
 8128SOL     OW35845   3.213   2.934   5.468  0.1665  0.3791  0.2430
 8128SOL    HW135846   3.161   3.012   5.449 -3.9733 -1.9304  2.0032
 8128SOL    HW235847   3.231   2.952   5.560  0.2181 -0.5230  0.4133
 8129SOL     OW35848   2.711   0.809  14.820  0.6265  0.1158 -0.1930
 8129SOL    HW135849   2.666   0.774  14.744  0.5630 -0.8712  0.2929
 8129SOL    HW235850   2.717   0.902  14.799  1.1790  0.3578  1.0092
 8130SOL     OW35851   2.803   3.617   7.294  0.3836  0.2328  0.4789
 8130SOL    HW135852   2.717   3.619   7.334  1.2099 -0.2568  2.2973
 8130SOL    HW235853   2.838   3.534   7.326  0.9474  0.2778 -0.0161
 8131SOL     OW35854   0.486   4.556   8.034 -0.2795 -0.4759  0.2596
 8131SOL    HW135855   0.409   4.551   8.090 -0.5441  0.6909 -0.0111
 8131SOL    HW235856   0.529   4.638   8.057 -1.4489  0.6978 -1.6933
 8132SOL     OW35857   1.428   1.013  13.776 -0.2364 -0.1261  0.0028
 8132SOL    HW135858   1.369   1.088  13.787  1.8476  1.5476 -0.3020
 8132SOL    HW235859   1.382   0.940  13.819  0.7569 -2.9610 -3.7489
 8133SOL     OW35860   2.563   3.458   2.362 -0.5604  0.2126  0.5169
 8133SOL    HW135861   2.516   3.378   2.337  0.2654 -0.5114  1.2707
 8133SOL    HW235862   2.516   3.467   2.445 -1.3305  0.8679  0.0010
 8134SOL     OW35863   1.465   0.396   7.114 -0.0843 -0.2179  0.2614
 8134SOL    HW135864   1.434   0.486   7.122 -0.6544 -0.3452 -0.5002
 8134SOL    HW235865   1.542   0.417   7.167  0.7928 -0.9206 -0.7552
 8135SOL     OW35866   0.973   2.914   0.898 -0.3400 -0.3348 -0.1070
 8135SOL    HW135867   1.021   2.848   0.848  0.4502  0.2325 -0.0938
 8135SOL    HW235868   1.040   2.977   0.923 -0.2114 -0.7010  0.4474
 8136SOL     OW35869   3.134   0.948   8.173 -0.0897 -0.0310  0.1599
 8136SOL    HW135870   3.132   0.894   8.094 -2.1861  0.7281 -0.3053
 8136SOL    HW235871   3.167   0.884   8.236  0.5309 -1.9343 -2.0988
 8137SOL     OW35872   4.578   3.262   6.489  0.2521 -0.0280  0.8099
 8137SOL    HW135873   4.581   3.254   6.584 -0.4050 -0.5077  0.7909
 8137SOL    HW235874   4.523   3.341   6.486 -0.0451 -0.2677 -0.0881
 8138SOL     OW35875   1.763   0.583   4.523  0.8862 -0.0885  0.0041
 8138SOL    HW135876   1.855   0.589   4.547  0.9097  1.9132 -0.6411
 8138SOL    HW235877   1.755   0.500   4.476  0.5142 -0.1072  0.1012
 8139SOL     OW35878   0.216   1.269  13.346  0.1432 -0.4648 -0.1760
 8139SOL    HW135879   0.275   1.334  13.308  0.0983  0.8534  1.9978
 8139SOL    HW235880   0.279   1.236  13.409  0.6747  1.3794  0.2575
 8140SOL     OW35881   2.612   1.673   6.572  0.5751 -0.5010 -0.3828
 8140SOL    HW135882   2.641   1.720   6.651 -2.5304 -0.9832  1.0200
 8140SOL    HW235883   2.535   1.729   6.560  1.6392  0.6889 -1.7186
 8141SOL     OW35884   0.757   4.659  14.915 -0.0970 -0.2666 -0.4740
 8141SOL    HW135885   0.817   4.588  14.895 -0.2644 -1.1093  2.0686
 8141SOL    HW235886   0.695   4.669  14.842 -0.9845  0.1529  0.3279
 8142SOL     OW35887   1.637   3.766   8.490 -0.0504 -0.2084  0.1877
 8142SOL    HW135888   1.619   3.860   8.496  1.1852  0.1700 -2.0790
 8142SOL    HW235889   1.572   3.739   8.426 -0.2308 -1.5440  0.9365
 8143SOL     OW35890   2.134   2.525   0.418  0.0285  0.3402  0.0551
 8143SOL    HW135891   2.054   2.578   0.411 -0.2285  0.0545  0.8645
 8143SOL    HW235892   2.204   2.590   0.427 -0.4667  1.0892 -1.4581
 8144SOL     OW35893   3.668   3.937   9.679  0.2720  0.4842  0.0419
 8144SOL    HW135894   3.741   3.937   9.616 -2.1969 -0.7089 -2.7936
 8144SOL    HW235895   3.697   3.878   9.749 -1.8283  1.9094  2.1030
 8145SOL     OW35896   1.464   1.043   5.939  0.0354  0.2479  0.3424
 8145SOL    HW135897   1.413   1.080   5.866 -1.8244  1.6175  2.3234
 8145SOL    HW235898   1.513   1.120   5.968  1.8958 -0.5072 -0.8367
 8146SOL     OW35899   1.232   0.652   5.257 -0.5680  0.5853  0.2678
 8146SOL    HW135900   1.211   0.622   5.168 -0.5380  0.6233  0.2474
 8146SOL    HW235901   1.162   0.628   5.317 -0.7678  0.9516  0.1786
 8147SOL     OW35902   4.024   3.561   5.646  1.0350 -0.0133  0.0796
 8147SOL    HW135903   4.092   3.628   5.644  1.0357 -0.0958 -3.2293
 8147SOL    HW235904   4.043   3.524   5.560 -0.4243  0.2506 -0.3693
 8148SOL     OW35905   0.415   4.543   6.406  0.3549  0.1772  0.1806
 8148SOL    HW135906   0.423   4.543   6.501 -2.4166  1.0829  0.4161
 8148SOL    HW235907   0.320   4.534   6.402  0.1375  2.1218  0.8690
 8149SOL     OW35908   3.022   3.640  16.682 -0.8678  0.2089 -0.5452
 8149SOL    HW135909   2.931   3.612  16.687 -0.7317 -0.7603 -3.8327
 8149SOL    HW235910   3.055   3.566  16.733  2.1617  0.9339 -1.4380
 8150SOL     OW35911   2.089   3.987  15.041 -0.0235  0.2502 -0.0187
 8150SOL    HW135912   2.023   3.998  14.972  0.4992 -1.1113 -0.7369
 8150SOL    HW235913   2.085   4.070  15.090 -1.6604  1.2917 -1.9137
 8151SOL     OW35914   4.304   0.819   7.607  0.0489  0.0417 -0.0488
 8151SOL    HW135915   4.326   0.909   7.583  2.4237 -1.0246 -1.8952
 8151SOL    HW235916   4.215   0.823   7.574  0.3069  1.8035 -0.5247
 8152SOL     OW35917   3.170   1.083   9.349 -0.3356  0.2049 -0.1573
 8152SOL    HW135918   3.129   1.059   9.432 -1.7552  0.2131 -0.8384
 8152SOL    HW235919   3.236   1.015   9.345 -0.7078 -0.1177 -0.9381
 8153SOL     OW35920   0.820   0.062   1.817 -0.6683  0.4843  0.0437
 8153SOL    HW135921   0.835   0.060   1.722  1.4128 -1.4228  0.4200
 8153SOL    HW235922   0.901   0.052   1.866 -1.8416 -1.7570  1.5281
 8154SOL     OW35923   4.465   0.286  10.491 -0.4454 -0.1538  0.3443
 8154SOL    HW135924   4.414   0.314  10.415  0.3908  1.0421  0.2237
 8154SOL    HW235925   4.406   0.220  10.526 -0.0195 -0.8758 -0.3057
 8155SOL     OW35926   1.569   2.019  11.186 -0.3464  0.2751  0.0115
 8155SOL    HW135927   1.610   2.051  11.266 -1.6420  0.7600  0.4709
 8155SOL    HW235928   1.506   1.962  11.229 -0.3499  0.8383  0.7553
 8156SOL     OW35929   4.083   0.833  13.067 -0.2043  0.2583 -0.4539
 8156SOL    HW135930   4.149   0.894  13.100 -1.5385  0.9584  0.8870
 8156SOL    HW235931   4.060   0.873  12.983  0.3606  1.2876 -0.1143
 8157SOL     OW35932   3.037   3.412   6.736 -0.4510  0.3434 -0.1847
 8157SOL    HW135933   2.987   3.468   6.796  1.6903 -0.9323  2.7786
 8157SOL    HW235934   3.007   3.324   6.758  0.0226  0.1489 -0.3203
 8158SOL     OW35935   0.208   2.259   3.953 -0.0058 -0.4409  0.9002
 8158SOL    HW135936   0.114   2.264   3.970  0.4398  3.3906  2.4185
 8158SOL    HW235937   0.213   2.205   3.874  1.3760 -1.0294  1.3771
 8159SOL     OW35938   0.054   3.674  11.183 -0.4302  0.2184  0.4988
 8159SOL    HW135939   0.035   3.669  11.276 -0.8617  0.3606  0.4176
 8159SOL    HW235940   0.015   3.591  11.156  2.7988 -0.9158 -0.7717
 8160SOL     OW35941   4.566   1.920  16.669 -0.1931  0.1557 -0.4534
 8160SOL    HW135942   4.630   1.922  16.740 -0.1037 -2.0574 -0.4914
 8160SOL    HW235943   4.622   1.892  16.598  2.7940 -0.9779  2.3392
 8161SOL     OW35944   4.172   2.904   4.571 -0.2624  0.2625 -0.0112
 8161SOL    HW135945   4.186   2.949   4.487 -1.9418 -1.0448 -0.9837
 8161SOL    HW235946   4.121   2.827   4.548  0.9225 -0.7826  0.8611
 8162SOL     OW35947   0.383   3.435   7.129 -0.2214  0.1667  0.2264
 8162SOL    HW135948   0.328   3.476   7.196 -0.3042  1.7549 -0.7964
 8162SOL    HW235949   0.415   3.515   7.087 -0.3768 -0.0463 -0.3039
 8163SOL     OW35950   3.385   0.251   7.880  0.2917 -0.0155  0.2865
 8163SOL    HW135951   3.413   0.242   7.789  1.3673 -0.1168  0.6262
 8163SOL    HW235952   3.295   0.220   7.891 -0.1948  1.0004 -0.8191
 8164SOL     OW35953   3.662   3.901   8.922  0.4631 -0.0777  0.4206
 8164SOL    HW135954   3.692   3.866   8.838  1.3885 -2.7065  1.8656
 8164SOL    HW235955   3.741   3.949   8.946 -0.2914  1.4784 -0.1801
 8165SOL     OW35956   2.633   1.245   5.480 -0.0179 -0.5858  0.4262
 8165SOL    HW135957   2.621   1.245   5.575  2.0987 -1.2775  0.7104
 8165SOL    HW235958   2.669   1.157   5.470  1.9491 -0.1481  3.4379
 8166SOL     OW35959   3.227   4.709   9.025  0.1998 -0.0236 -0.0595
 8166SOL    HW135960   3.165   4.636   9.017  0.6140 -0.1610 -2.2496
 8166SOL    HW235961   3.303   4.664   9.062  1.8054  1.2175 -1.8649
 8167SOL     OW35962   2.489   3.328   4.592 -0.5959  0.6051  0.0030
 8167SOL    HW135963   2.432   3.399   4.563  0.1355  0.1455 -2.6460
 8167SOL    HW235964   2.454   3.323   4.681  1.0533 -0.4489  0.5828
 8168SOL     OW35965   3.989   2.843   6.273 -0.0002  0.2291 -0.0124
 8168SOL    HW135966   3.925   2.913   6.259 -0.2766  0.2931  1.5773
 8168SOL    HW235967   3.982   2.823   6.366 -1.3636  0.4718 -0.0707
 8169SOL     OW35968   2.570   0.930  15.800 -0.1671 -0.7312 -0.9042
 8169SOL    HW135969   2.646   0.907  15.746  0.3582 -0.1527 -0.4102
 8169SOL    HW235970   2.580   0.855  15.858 -0.4953  0.7320  1.0410
 8170SOL     OW35971   3.788   1.803   1.835 -0.3778  0.0477 -0.1403
 8170SOL    HW135972   3.720   1.869   1.825 -0.7392 -0.6334 -2.2881
 8170SOL    HW235973   3.871   1.842   1.808  0.3338 -2.8276 -2.1575
 8171SOL     OW35974   3.822   3.104   4.368  0.6522  0.3875 -0.0940
 8171SOL    HW135975   3.792   3.086   4.457  1.8792  0.0999  0.2604
 8171SOL    HW235976   3.917   3.095   4.376  0.6585 -0.5531 -1.3626
 8172SOL     OW35977   2.705   1.018   9.580 -0.7670 -0.2346 -0.6277
 8172SOL    HW135978   2.699   1.052   9.669 -0.8254  0.8558 -1.0497
 8172SOL    HW235979   2.777   1.068   9.542 -0.3843 -1.6858 -1.8223
 8173SOL     OW35980   3.933   3.181   0.798  0.5423 -0.3743 -0.1208
 8173SOL    HW135981   3.928   3.175   0.894 -1.0201 -0.0497 -0.1791
 8173SOL    HW235982   4.009   3.127   0.774  2.0751  2.4915 -1.6576
 8174SOL     OW35983   4.279   0.987   0.590 -0.1389 -0.0552 -0.3889
 8174SOL    HW135984   4.203   0.933   0.612 -0.6723  1.1222  0.6539
 8174SOL    HW235985   4.253   1.066   0.637 -0.4887 -0.3538 -0.0744
 8175SOL     OW35986   0.562   4.279  10.029 -0.2556 -0.4491  0.9542
 8175SOL    HW135987   0.542   4.189  10.005 -1.5041  0.3295 -0.9465
 8175SOL    HW235988   0.609   4.263  10.111  1.0471  2.6749  0.8384
 8176SOL     OW35989   1.130   1.369   1.076  0.4405 -0.6776 -0.0478
 8176SOL    HW135990   1.193   1.297   1.068  2.4794  0.9449  1.4498
 8176SOL    HW235991   1.176   1.430   1.019  0.1246  0.2238  0.6586
 8177SOL     OW35992   4.182   4.127   2.655  0.0750 -0.6342 -0.8007
 8177SOL    HW135993   4.189   4.180   2.576  1.2040 -2.8175 -2.1799
 8177SOL    HW235994   4.275   4.121   2.678 -0.0384  1.4429  0.1354
 8178SOL     OW35995   1.150   0.913   8.067 -0.0736 -0.5800 -0.0065
 8178SOL    HW135996   1.146   1.006   8.047 -0.1438  0.0473  3.0790
 8178SOL    HW235997   1.110   0.916   8.153 -1.2887  3.7773 -0.7221
 8179SOL     OW35998   0.737   2.075   8.304 -0.0162  0.0687  0.6016
 8179SOL    HW135999   0.735   2.093   8.398  2.2760  1.0548  0.4645
 8179SOL    HW236000   0.648   2.044   8.288  0.1693  0.2475 -0.7558
 8180SOL     OW36001   1.616   2.847  10.711 -0.4599 -0.1822  0.1506
 8180SOL    HW136002   1.704   2.867  10.680  0.0090 -1.8413  0.3940
 8180SOL    HW236003   1.561   2.917  10.676  1.1941  0.4054 -1.2330
 8181SOL     OW36004   1.329   3.874  11.772 -0.2879 -0.0318 -0.1722
 8181SOL    HW136005   1.280   3.839  11.846  0.7765  0.2143  0.6574
 8181SOL    HW236006   1.412   3.878  11.820 -0.7653  2.6505  0.4776
 8182SOL     OW36007   0.818   2.135   3.860  0.1518 -0.1211  0.7118
 8182SOL    HW136008   0.901   2.114   3.902  0.3793 -1.2724 -0.3035
 8182SOL    HW236009   0.839   2.217   3.815 -0.8008 -1.0742 -1.4786
 8183SOL     OW36010   1.106   2.314  14.602  0.2737 -0.0390 -0.2448
 8183SOL    HW136011   1.025   2.338  14.646 -0.7456 -0.3167 -1.9450
 8183SOL    HW236012   1.160   2.303  14.680 -0.0356 -2.4479 -0.3606
 8184SOL     OW36013   2.541   3.666   7.407  0.2195 -0.4663  0.0072
 8184SOL    HW136014   2.521   3.609   7.481 -0.3490 -2.0675 -1.3631
 8184SOL    HW236015   2.466   3.656   7.348 -1.3741  0.7262  1.8271
 8185SOL     OW36016   1.945   2.166   2.485  0.1415 -0.2602  0.2203
 8185SOL    HW136017   1.967   2.075   2.464 -0.8516  0.0200 -2.0008
 8185SOL    HW236018   2.031   2.207   2.501  0.0061  0.8185 -1.8689
 8186SOL     OW36019   0.064   2.751  11.626  0.5705 -0.0599 -0.3075
 8186SOL    HW136020   0.034   2.665  11.655 -2.9662  0.7341 -1.6450
 8186SOL    HW236021   0.141   2.730  11.574  0.9753 -2.7824  1.3917
 8187SOL     OW36022   1.581   4.601   4.163 -0.0148  0.7247 -0.0216
 8187SOL    HW136023   1.546   4.629   4.247  1.9165 -0.3191  1.1479
 8187SOL    HW236024   1.654   4.663   4.158 -0.0802  0.7604 -0.5881
 8188SOL     OW36025   3.581   2.569   0.716 -0.0375  0.6152 -0.1696
 8188SOL    HW136026   3.630   2.651   0.704  0.3094  0.2218 -1.3690
 8188SOL    HW236027   3.648   2.519   0.764 -2.0629 -3.3257 -1.4712
 8189SOL     OW36028   4.340   4.351   2.562 -0.1286  0.2270 -0.4864
 8189SOL    HW136029   4.287   4.319   2.490 -1.8454  0.4653  0.6842
 8189SOL    HW236030   4.272   4.388   2.618  0.8682 -1.6902  1.9930
 8190SOL     OW36031   4.471   3.566  13.048 -0.2303  0.2344  0.0505
 8190SOL    HW136032   4.410   3.633  13.078  0.7548  0.1588  2.2684
 8190SOL    HW236033   4.554   3.615  13.042 -1.1732  1.5201 -2.4726
 8191SOL     OW36034   3.643   0.087   3.596  0.3108  0.8361 -0.2678
 8191SOL    HW136035   3.653   0.007   3.543 -0.7437  0.4878  0.0622
 8191SOL    HW236036   3.654   0.055   3.685  0.8791  0.6602 -0.3983
 8192SOL     OW36037   3.057   4.116   5.003  0.0415 -0.1711 -0.2548
 8192SOL    HW136038   2.983   4.175   5.015 -0.1104 -0.5222  0.5147
 8192SOL    HW236039   3.011   4.032   5.006  2.3430 -1.4393 -0.3561
 8193SOL     OW36040   4.220   2.784  16.094  0.2307  0.3928 -0.5264
 8193SOL    HW136041   4.237   2.777  16.000 -0.6876  0.5114 -0.6996
 8193SOL    HW236042   4.128   2.760  16.082  0.5030  0.0475 -1.9385
 8194SOL     OW36043   1.885   3.173  12.157  0.2727  0.1593  0.4816
 8194SOL    HW136044   1.850   3.141  12.241 -1.4444 -1.5205 -0.8808
 8194SOL    HW236045   1.810   3.209  12.109  0.2530  0.5240  0.7850
 8195SOL     OW36046   3.750   1.562  13.011 -0.3050  0.3135  0.7817
 8195SOL    HW136047   3.843   1.562  13.036 -0.0054  3.8679 -0.2411
 8195SOL    HW236048   3.739   1.641  12.957 -0.9353 -1.0799 -1.1363
 8196SOL     OW36049   3.127   4.055   2.215  0.2665  0.0068 -0.6224
 8196SOL    HW136050   3.048   4.091   2.256  0.5258  0.0050 -0.1204
 8196SOL    HW236051   3.130   3.972   2.262  0.4537 -0.3349 -1.2372
 8197SOL     OW36052   2.180   2.178  11.556 -0.2250 -0.0043 -0.4936
 8197SOL    HW136053   2.111   2.202  11.494 -2.5263 -1.2708  1.5814
 8197SOL    HW236054   2.234   2.258  11.557 -1.2405  0.7010 -3.2261
 8198SOL     OW36055   1.727   1.696   0.581  0.1623  0.6039  0.1453
 8198SOL    HW136056   1.752   1.786   0.602  0.0798  0.5357  0.5460
 8198SOL    HW236057   1.649   1.683   0.635  0.8077 -1.0238  0.7076
 8199SOL     OW36058   2.120   3.359   7.325  0.2597 -0.3291  0.0886
 8199SOL    HW136059   2.035   3.318   7.340 -0.5960  0.0496 -3.7528
 8199SOL    HW236060   2.174   3.349   7.403 -0.5761 -2.1484  0.4267
 8200SOL     OW36061   2.478   3.566  12.230 -0.7498  0.1216  0.3112
 8200SOL    HW136062   2.518   3.497  12.282  1.7839  0.8671 -0.6357
 8200SOL    HW236063   2.387   3.542  12.247 -0.2328 -0.7232  1.8069
 8201SOL     OW36064   1.172   2.128   4.266  0.4438  0.5425  0.3079
 8201SOL    HW136065   1.098   2.147   4.208 -1.9902  0.5619  3.4039
 8201SOL    HW236066   1.244   2.173   4.223 -0.6351 -1.4015 -3.5625
 8202SOL     OW36067   0.317   0.596   9.421 -0.2327  0.1249  0.2920
 8202SOL    HW136068   0.242   0.577   9.364  1.0438 -0.8648 -1.0547
 8202SOL    HW236069   0.275   0.654   9.484 -2.3137 -1.0799  0.0001
 8203SOL     OW36070   0.723   0.654  11.236  0.5827 -0.8568 -0.1111
 8203SOL    HW136071   0.671   0.730  11.211 -0.5458 -1.3754  0.6921
 8203SOL    HW236072   0.788   0.690  11.296  0.0684 -0.0010 -0.0787
 8204SOL     OW36073   1.400   2.225   6.730 -0.4138 -0.0953  0.0644
 8204SOL    HW136074   1.339   2.160   6.696 -0.0951 -1.2453  1.6802
 8204SOL    HW236075   1.422   2.282   6.657  1.4775 -0.5159  0.3015
 8205SOL     OW36076   0.095   1.425  11.541 -0.2036 -0.2989 -0.0196
 8205SOL    HW136077   0.105   1.330  11.533 -0.2445 -0.2711 -0.3881
 8205SOL    HW236078   0.112   1.451  11.450 -1.9711 -0.1155 -0.3012
 8206SOL     OW36079   4.126   2.622   1.244  0.2976 -0.2437 -0.4535
 8206SOL    HW136080   4.198   2.680   1.219 -1.3705  2.0488  0.0493
 8206SOL    HW236081   4.157   2.591   1.328  0.6476 -1.5173 -1.0553
 8207SOL     OW36082   1.233   0.244   3.471  0.2260 -0.0673 -0.8728
 8207SOL    HW136083   1.246   0.338   3.484 -2.5693  0.0863  0.9122
 8207SOL    HW236084   1.254   0.248   3.378 -1.4677  1.0185 -1.2305
 8208SOL     OW36085   0.600   3.048   8.850  0.1935  0.0512 -0.0544
 8208SOL    HW136086   0.671   3.110   8.869  0.4364  0.0282 -0.8922
 8208SOL    HW236087   0.624   3.009   8.766  0.8889  1.8233 -0.6764
 8209SOL     OW36088   3.992   1.288   3.473  0.2596 -0.4980 -0.2809
 8209SOL    HW136089   3.907   1.286   3.430  0.1292  3.4537 -0.2088
 8209SOL    HW236090   4.046   1.227   3.421  2.2121  0.2326  0.8633
 8210SOL     OW36091   0.635   3.100   2.936 -0.1348  0.6674  0.4750
 8210SOL    HW136092   0.719   3.113   2.893 -1.6348  0.7682 -2.3868
 8210SOL    HW236093   0.591   3.183   2.918  0.5802  0.6855 -1.1425
 8211SOL     OW36094   1.552   1.889   1.186  0.2854  0.1130 -0.1876
 8211SOL    HW136095   1.479   1.929   1.232 -0.2493 -1.9916  0.8181
 8211SOL    HW236096   1.512   1.883   1.099 -2.2503  1.0418  0.9358
 8212SOL     OW36097   2.480   2.756   3.045  0.4004  0.5477  0.3670
 8212SOL    HW136098   2.501   2.698   2.972 -0.4762  1.8885 -0.9495
 8212SOL    HW236099   2.506   2.697   3.116 -2.1655 -0.0102  0.8426
 8213SOL     OW36100   3.596   4.322   4.077 -0.1994  0.3964 -0.6701
 8213SOL    HW136101   3.586   4.330   3.982 -1.3731 -0.4725 -0.6286
 8213SOL    HW236102   3.538   4.246   4.084  0.3737  0.0074 -0.1544
 8214SOL     OW36103   1.152   3.828   7.758  0.1823  0.1800  0.1000
 8214SOL    HW136104   1.077   3.863   7.806 -0.6882 -0.7289 -0.5874
 8214SOL    HW236105   1.154   3.881   7.678 -1.2887 -0.3805 -0.3218
 8215SOL     OW36106   1.738   0.841   5.129  0.2267  0.3066  0.0222
 8215SOL    HW136107   1.649   0.819   5.156  0.4374 -1.4819 -0.7559
 8215SOL    HW236108   1.761   0.775   5.064 -0.2267 -0.3915  0.5733
 8216SOL     OW36109   2.418   0.621   7.884  0.5626  0.0418  0.0859
 8216SOL    HW136110   2.479   0.594   7.952  0.7256 -1.1155 -0.5089
 8216SOL    HW236111   2.427   0.552   7.818  0.2287 -0.9846  1.1148
 8217SOL     OW36112   1.999   4.373   5.262  0.1869  0.0078 -0.3996
 8217SOL    HW136113   2.032   4.441   5.320 -2.1783 -0.6148  1.7252
 8217SOL    HW236114   2.061   4.374   5.190 -0.5565  0.3911 -1.0302
 8218SOL     OW36115   3.313   3.213   6.409  0.2909  0.3140  0.1416
 8218SOL    HW136116   3.227   3.175   6.429  1.8792 -3.2216  0.4131
 8218SOL    HW236117   3.350   3.210   6.498  0.5030  1.2778  0.0853
 8219SOL     OW36118   2.725   2.603   1.951 -0.2993 -0.0380  0.1764
 8219SOL    HW136119   2.643   2.554   1.946  1.0565 -2.3134 -0.1468
 8219SOL    HW236120   2.725   2.648   2.035  2.2226 -1.2632  0.8541
 8220SOL     OW36121   2.168   1.604   7.160 -0.1141 -0.8141  0.1483
 8220SOL    HW136122   2.146   1.645   7.077  0.8088  3.1157  1.8306
 8220SOL    HW236123   2.262   1.620   7.160 -0.6611  2.4605 -0.2311
 8221SOL     OW36124   3.970   0.640   2.702 -0.1363 -0.0959 -0.7950
 8221SOL    HW136125   3.978   0.680   2.789 -3.6564 -2.2112  0.4914
 8221SOL    HW236126   4.058   0.641   2.665  0.2845 -0.3598  0.1959
 8222SOL     OW36127   1.665   1.317  12.269 -0.4719  0.0635  0.1300
 8222SOL    HW136128   1.746   1.338  12.315  0.2119  0.8802 -1.4272
 8222SOL    HW236129   1.704   1.285  12.187  0.2659 -0.0054  0.5067
 8223SOL     OW36130   0.449   2.538   5.757 -0.2327 -0.1237 -0.2336
 8223SOL    HW136131   0.541   2.530   5.732 -0.0178 -0.2265  0.5871
 8223SOL    HW236132   0.459   2.578   5.843 -0.9969  1.1662 -0.7477
 8224SOL     OW36133   2.448   2.155   8.668  0.0548 -0.0996 -0.1663
 8224SOL    HW136134   2.405   2.095   8.607 -1.2206  0.2968  0.3402
 8224SOL    HW236135   2.523   2.195   8.625  0.2983  0.1165  0.4534
 8225SOL     OW36136   3.834   3.804   1.215  0.2890 -0.5071  0.7195
 8225SOL    HW136137   3.747   3.829   1.246 -0.7870  0.3862 -2.9855
 8225SOL    HW236138   3.879   3.807   1.299 -1.5916 -0.9600  1.7266
 8226SOL     OW36139   0.669   4.414   3.541 -0.2042 -0.3847 -0.5766
 8226SOL    HW136140   0.723   4.414   3.462  0.6705  0.9473  0.0306
 8226SOL    HW236141   0.647   4.321   3.553 -0.0063 -0.3137  0.3305
 8227SOL     OW36142   4.352   0.068   0.075  0.0256 -0.1055 -0.1989
 8227SOL    HW136143   4.373   0.128   0.004  0.1399  1.6925  1.3489
 8227SOL    HW236144   4.296   0.004   0.032  0.8988 -0.3691 -0.9342
 8228SOL     OW36145   2.039   2.933   0.147 -0.4329  0.0308  0.4555
 8228SOL    HW136146   2.068   3.022   0.128  0.0815 -0.2539 -0.0946
 8228SOL    HW236147   1.983   2.955   0.222 -2.2218 -0.2876 -0.7928
 8229SOL     OW36148   3.935   0.152   3.914 -1.0908 -0.2607 -0.1802
 8229SOL    HW136149   3.858   0.115   3.871 -2.0101  0.6789  0.7018
 8229SOL    HW236150   3.898   0.239   3.930  0.4125  0.2835  0.3408
 8230SOL     OW36151   0.560   1.792  15.758  0.4945 -0.4520 -0.4021
 8230SOL    HW136152   0.578   1.829  15.844 -3.9876 -1.0707  0.7973
 8230SOL    HW236153   0.620   1.834  15.697 -0.2362  0.5406 -0.4472
 8231SOL     OW36154   2.231   3.167   1.729  0.2379 -0.0821  0.4269
 8231SOL    HW136155   2.136   3.169   1.740  0.2777 -0.2859  0.7916
 8231SOL    HW236156   2.245   3.253   1.689 -0.8641 -1.2822 -2.5131
 8232SOL     OW36157   2.665   3.812   6.784  0.4426 -0.2749 -0.3841
 8232SOL    HW136158   2.740   3.871   6.776 -1.1093  1.4816 -2.0649
 8232SOL    HW236159   2.587   3.866   6.774 -0.8453 -1.8290  1.2734
 8233SOL     OW36160   0.803   2.628  13.937 -0.0686  0.1223 -0.1945
 8233SOL    HW136161   0.855   2.649  14.015  0.6860  2.0441 -1.2083
 8233SOL    HW236162   0.853   2.557  13.897  0.8726  1.0086 -0.6105
 8234SOL     OW36163   3.808   2.090   7.036 -0.3834 -0.0559  0.4438
 8234SOL    HW136164   3.727   2.119   7.078 -0.1623  3.1208 -1.3091
 8234SOL    HW236165   3.856   2.044   7.104 -2.6336 -0.6719  1.5804
 8235SOL     OW36166   0.425   2.734   5.103 -0.0943  0.7487  0.3318
 8235SOL    HW136167   0.495   2.733   5.168 -2.0402  0.2637  2.3824
 8235SOL    HW236168   0.436   2.648   5.062 -0.2063 -0.2062  2.3214
 8236SOL     OW36169   0.060   1.811  17.624 -0.4849 -0.0472 -0.5844
 8236SOL    HW136170   0.009   1.735  17.594 -1.1331 -0.9679  2.8505
 8236SOL    HW236171   0.147   1.777  17.605 -1.3691 -1.7913 -1.5809
 8237SOL     OW36172   2.381   0.492  16.570 -0.1620  0.2266 -0.4503
 8237SOL    HW136173   2.317   0.561  16.554 -0.1497  1.0538  3.2238
 8237SOL    HW236174   2.319   0.419  16.573 -0.3762  0.3676 -1.3896
 8238SOL     OW36175   0.555   2.150  12.445 -0.5656  0.4266  1.3480
 8238SOL    HW136176   0.641   2.113  12.465  0.6446  2.5494  0.1696
 8238SOL    HW236177   0.572   2.157  12.351 -1.1066  0.0620  1.2224
 8239SOL     OW36178   4.703   0.477   5.089  0.2899 -0.1505  0.6211
 8239SOL    HW136179   4.618   0.468   5.044 -0.2970  0.4680  1.6169
 8239SOL    HW236180   4.700   0.568   5.119  1.4296 -0.1743  0.7772
 8240SOL     OW36181   2.407   4.444   8.601  0.0243 -0.5208  0.0455
 8240SOL    HW136182   2.453   4.480   8.525 -0.4600 -1.1646 -0.5501
 8240SOL    HW236183   2.458   4.497   8.662 -1.5827  1.2611 -0.1758
 8241SOL     OW36184   3.646   2.600   1.860  0.2308 -0.2872  0.3036
 8241SOL    HW136185   3.682   2.668   1.918  0.0985  1.6610 -1.8773
 8241SOL    HW236186   3.713   2.532   1.859 -0.0097 -0.5208  0.1307
 8242SOL     OW36187   2.412   2.212   4.130  0.5785 -0.4019 -0.0182
 8242SOL    HW136188   2.441   2.122   4.146  0.9343 -0.1562  0.7235
 8242SOL    HW236189   2.454   2.240   4.049 -0.4187 -0.9464 -0.7314
 8243SOL     OW36190   1.757   0.371   7.903  0.4291  0.3757  0.3327
 8243SOL    HW136191   1.811   0.449   7.914  1.5995 -0.0120 -2.6196
 8243SOL    HW236192   1.765   0.357   7.809 -1.2705  1.1852  0.0812
 8244SOL     OW36193   3.624   2.826   6.890  0.3056  0.5481  0.2865
 8244SOL    HW136194   3.709   2.862   6.913  0.6724  1.4097 -2.4539
 8244SOL    HW236195   3.618   2.766   6.964  2.0147 -1.1496 -0.9564
 8245SOL     OW36196   3.425   2.691   0.942  0.3968  0.1234  0.5447
 8245SOL    HW136197   3.486   2.653   0.879  3.1725  0.9364  2.7601
 8245SOL    HW236198   3.342   2.644   0.942 -0.0614  0.9423  3.1196
 8246SOL     OW36199   2.664   1.602   2.233 -0.1472 -0.2470 -0.0253
 8246SOL    HW136200   2.604   1.635   2.299 -0.6311  0.9878 -1.0771
 8246SOL    HW236201   2.646   1.653   2.154 -0.9403 -1.7168 -0.8043
 8247SOL     OW36202   3.706   1.266   4.105 -0.2570  0.5009 -0.4535
 8247SOL    HW136203   3.744   1.178   4.109 -0.0800  0.5734 -0.5793
 8247SOL    HW236204   3.686   1.278   4.013  1.3781 -0.5136 -0.9353
 8248SOL     OW36205   3.946   1.534  10.012 -0.0661  0.1012 -0.1160
 8248SOL    HW136206   3.912   1.594   9.946  2.3489  0.7700 -0.7589
 8248SOL    HW236207   3.955   1.455   9.959 -2.9198 -0.2771 -0.0415
 8249SOL     OW36208   3.362   0.578   6.166 -0.3390 -0.3439  0.0689
 8249SOL    HW136209   3.409   0.643   6.113  1.0614 -1.3852  0.0210
 8249SOL    HW236210   3.440   0.534   6.202  0.3857  0.1286 -0.9063
 8250SOL     OW36211   0.272   2.426   5.413  0.1609 -0.4587  0.2241
 8250SOL    HW136212   0.211   2.367   5.368 -0.0991 -1.9168  2.4852
 8250SOL    HW236213   0.250   2.513   5.379  1.9997 -0.6587 -1.4652
 8251SOL     OW36214   3.325   1.022   3.796  0.2763 -0.2868 -0.0329
 8251SOL    HW136215   3.395   0.958   3.809  0.8831  0.7642  1.8118
 8251SOL    HW236216   3.320   1.020   3.700 -0.6835 -0.2813  0.0201
 8252SOL     OW36217   4.470   0.374   4.093  0.0933 -0.6861  0.1024
 8252SOL    HW136218   4.544   0.382   4.034 -0.8135 -1.1514 -1.1033
 8252SOL    HW236219   4.518   0.343   4.170 -0.8552  0.7991  1.2915
 8253SOL     OW36220   4.194   1.522   3.553  0.1656  0.1718 -0.3378
 8253SOL    HW136221   4.133   1.579   3.600  0.6191 -0.4802  1.0561
 8253SOL    HW236222   4.133   1.463   3.509  0.2197  0.5155 -0.8633
 8254SOL     OW36223   2.355   4.299   6.216  0.8505  0.3186  0.2076
 8254SOL    HW136224   2.443   4.336   6.213  0.3868  1.3652 -0.6073
 8254SOL    HW236225   2.303   4.370   6.253  0.1320 -0.5758  0.9224
 8255SOL     OW36226   0.597   2.461   1.791 -0.3382 -0.0411 -0.0089
 8255SOL    HW136227   0.606   2.521   1.866  0.5110  1.0327 -0.9690
 8255SOL    HW236228   0.545   2.390   1.830 -0.3222  0.6875  1.3620
 8256SOL     OW36229   1.326   2.259  11.530 -0.2359 -0.5038  0.6940
 8256SOL    HW136230   1.230   2.259  11.532 -0.2333 -0.1687  0.8154
 8256SOL    HW236231   1.351   2.192  11.593  0.4406 -1.2757 -0.3984
 8257SOL     OW36232   3.264   2.901   3.470  0.1615 -0.6094  0.3443
 8257SOL    HW136233   3.204   2.857   3.410  1.1265  0.0652 -1.1140
 8257SOL    HW236234   3.330   2.835   3.491 -1.9967 -2.3467  1.6976
 8258SOL     OW36235   0.756   0.309   6.894  0.3562  0.3481  0.5737
 8258SOL    HW136236   0.794   0.221   6.895 -0.4572 -0.0085 -0.7122
 8258SOL    HW236237   0.838   0.358   6.886  1.3327 -1.2796  0.5104
 8259SOL     OW36238   0.350   1.617   9.496  0.3240  0.2761  0.1035
 8259SOL    HW136239   0.378   1.525   9.498 -0.6038 -0.0067 -0.1075
 8259SOL    HW236240   0.272   1.617   9.551  0.0691 -0.8901 -0.2661
 8260SOL     OW36241   2.116   0.420   6.384  0.6279  0.1327 -0.0748
 8260SOL    HW136242   2.148   0.449   6.470 -0.6492  2.6601 -0.4336
 8260SOL    HW236243   2.021   0.431   6.382  0.4199 -1.6669  0.6533
 8261SOL     OW36244   2.859   1.505   5.517 -0.2970 -0.3400  0.0169
 8261SOL    HW136245   2.775   1.542   5.546  1.2063  1.4381  2.1008
 8261SOL    HW236246   2.855   1.409   5.521  0.5345 -0.4399 -1.5638
 8262SOL     OW36247   2.756   1.996   6.547  0.6655 -0.6892  0.2927
 8262SOL    HW136248   2.829   2.057   6.533 -0.2593  0.2109 -0.5928
 8262SOL    HW236249   2.746   2.007   6.641 -1.5890 -1.2995  0.1324
 8263SOL     OW36250   4.350   2.097   7.945  0.0676 -0.5753  0.0038
 8263SOL    HW136251   4.413   2.036   7.908 -0.7713 -0.8687 -0.9474
 8263SOL    HW236252   4.342   2.165   7.877  0.3458  0.1292  0.6763
 8264SOL     OW36253   1.120   4.382   6.012 -0.5346  0.4091 -0.0974
 8264SOL    HW136254   1.145   4.412   6.100  1.7471 -0.8433 -0.3293
 8264SOL    HW236255   1.154   4.454   5.960 -1.1547 -1.6594 -3.3545
 8265SOL     OW36256   2.037   0.528   6.649  0.2761 -0.7174 -0.4396
 8265SOL    HW136257   2.061   0.620   6.655  2.7282 -1.3320 -0.6731
 8265SOL    HW236258   1.967   0.518   6.714  0.4574  0.6299 -0.0508
 8266SOL     OW36259   0.950   2.660   3.159 -0.2624 -0.3386 -0.1152
 8266SOL    HW136260   0.959   2.694   3.070 -0.7327 -2.6113 -1.0383
 8266SOL    HW236261   0.982   2.570   3.145 -1.2294 -0.5310 -1.1016
 8267SOL     OW36262   0.977   0.107  11.186  0.2928  0.1755  0.1461
 8267SOL    HW136263   0.983   0.143  11.097 -1.1281  0.3651  0.1293
 8267SOL    HW236264   0.888   0.131  11.211  0.7887  0.8249  1.3032
 8268SOL     OW36265   3.527   2.469  14.649  0.3596 -0.0073 -0.1819
 8268SOL    HW136266   3.605   2.520  14.669 -0.2547  0.8798 -0.0643
 8268SOL    HW236267   3.462   2.514  14.704  0.2444  0.6158 -0.8345
 8269SOL     OW36268   0.603   3.223   4.769 -0.5065 -0.6314 -0.2354
 8269SOL    HW136269   0.516   3.246   4.802  0.4719  0.2860  1.6549
 8269SOL    HW236270   0.635   3.313   4.774  1.1048 -1.2010 -0.3493
 8270SOL     OW36271   0.520   0.427   7.549 -0.0126  0.1088 -0.4105
 8270SOL    HW136272   0.495   0.512   7.514  0.4701  0.3912 -0.0760
 8270SOL    HW236273   0.432   0.396   7.571 -0.3608  1.2536 -0.2040
 8271SOL     OW36274   0.983   3.543   7.499  0.6400  0.4249  0.2258
 8271SOL    HW136275   0.901   3.586   7.472  0.1709  0.7616  2.2133
 8271SOL    HW236276   0.978   3.538   7.594  0.2499 -0.8509  0.1351
 8272SOL     OW36277   1.815   4.229   5.807  0.5349  0.1610  0.3308
 8272SOL    HW136278   1.763   4.236   5.887  2.8497  0.5411  1.8102
 8272SOL    HW236279   1.760   4.261   5.736 -1.0352 -2.2784  0.4653
 8273SOL     OW36280   0.854   2.778   4.220 -0.2582 -0.0588  0.0430
 8273SOL    HW136281   0.865   2.808   4.310 -1.8222  0.1464  0.1656
 8273SOL    HW236282   0.919   2.708   4.215  0.9061  0.9114  1.5127
 8274SOL     OW36283   4.585   2.499   8.027  0.7886 -0.1004  0.0666
 8274SOL    HW136284   4.495   2.529   8.018  1.3309  1.0088 -1.6803
 8274SOL    HW236285   4.577   2.431   8.094 -2.9198  0.7132  0.3985
 8275SOL     OW36286   1.678   3.106   8.788  0.0831  0.0054  0.1334
 8275SOL    HW136287   1.700   3.188   8.744 -0.3590  0.0184 -0.0590
 8275SOL    HW236288   1.764   3.067   8.799  0.5049  1.1200  0.8203
 8276SOL     OW36289   1.219   3.144   1.519 -0.6968 -0.5800  0.1052
 8276SOL    HW136290   1.160   3.088   1.570 -2.8736  1.2342 -0.4294
 8276SOL    HW236291   1.301   3.118   1.562 -0.9054  0.4855  1.1448
 8277SOL     OW36292   4.334   0.549   7.478 -0.5642 -0.0919 -0.2128
 8277SOL    HW136293   4.335   0.493   7.556  0.9492 -0.2685 -0.3650
 8277SOL    HW236294   4.287   0.627   7.508  0.5836  0.1831  0.8585
 8278SOL     OW36295   3.457   3.329  13.453  0.2668 -0.2400  0.0464
 8278SOL    HW136296   3.449   3.371  13.538 -0.4283 -0.5041  0.1169
 8278SOL    HW236297   3.367   3.295  13.451  0.2253 -0.0779 -0.7844
 8279SOL     OW36298   1.296   4.291  13.356 -0.0884 -0.4140 -0.1413
 8279SOL    HW136299   1.266   4.276  13.446  0.4710 -4.8634 -0.6914
 8279SOL    HW236300   1.224   4.246  13.313  1.1192 -1.2004 -1.3169
 8280SOL     OW36301   2.746   3.837   8.742 -0.4245 -0.5115  0.2991
 8280SOL    HW136302   2.776   3.911   8.689  2.0492 -0.3961  1.9003
 8280SOL    HW236303   2.763   3.773   8.672  2.9991  0.1242  0.6049
 8281SOL     OW36304   0.978   2.323   0.855  0.4702 -0.2737 -0.3966
 8281SOL    HW136305   1.000   2.364   0.938 -1.9390 -0.5749  0.4057
 8281SOL    HW236306   1.025   2.380   0.794 -0.6275  1.6174  0.5263
 8282SOL     OW36307   3.557   3.722   3.073 -0.1232  0.2960 -0.8600
 8282SOL    HW136308   3.616   3.759   3.008 -0.0285  0.8645 -0.4510
 8282SOL    HW236309   3.621   3.688   3.136 -0.9217 -1.4158 -0.9477
 8283SOL     OW36310   2.402   3.179   3.939 -0.1617 -0.5993  0.2903
 8283SOL    HW136311   2.328   3.122   3.919 -0.3914 -0.2234  0.0590
 8283SOL    HW236312   2.395   3.239   3.865  3.6250 -1.9078 -1.1493
 8284SOL     OW36313   3.198   4.076   3.870 -0.1919 -0.3960  0.0191
 8284SOL    HW136314   3.209   4.067   3.964  0.4604  0.7862  0.0662
 8284SOL    HW236315   3.281   4.042   3.835 -0.1321  0.4985 -0.7122
 8285SOL     OW36316   2.174   3.234  12.253  0.4537  0.4587  0.0605
 8285SOL    HW136317   2.097   3.205  12.203 -0.0890 -0.2292  1.2862
 8285SOL    HW236318   2.169   3.173  12.327  0.0546  2.0053  1.2950
 8286SOL     OW36319   2.025   2.051   8.646 -0.3100 -0.3669 -0.0348
 8286SOL    HW136320   2.051   2.110   8.716 -1.0530  0.4775 -0.4677
 8286SOL    HW236321   2.071   2.084   8.569 -3.0106 -0.1029 -1.5549
 8287SOL     OW36322   3.612   3.302   5.540 -0.2382 -0.1766 -0.1190
 8287SOL    HW136323   3.645   3.387   5.568 -0.1943 -0.7348  1.5351
 8287SOL    HW236324   3.614   3.262   5.627 -0.4250  0.2048  0.0582
 8288SOL     OW36325   0.230   1.878   9.052 -0.4890  0.1265 -0.3316
 8288SOL    HW136326   0.276   1.892   9.135 -1.1649 -0.1275  0.0911
 8288SOL    HW236327   0.294   1.918   8.994 -1.6687  0.7773 -1.1861
 8289SOL     OW36328   1.506   3.239   7.843 -0.0418 -0.4683 -0.0618
 8289SOL    HW136329   1.491   3.328   7.811 -1.1056 -1.2602 -1.7961
 8289SOL    HW236330   1.457   3.245   7.925  0.0888 -1.7890  0.1198
 8290SOL     OW36331   4.456   2.317   0.246  0.4160 -0.6545  0.2205
 8290SOL    HW136332   4.537   2.353   0.209  0.5738 -1.7233 -0.4687
 8290SOL    HW236333   4.446   2.355   0.334  0.8641 -0.7453  0.3113
 8291SOL     OW36334   0.511   3.139   6.583 -0.2612  0.4935 -0.2092
 8291SOL    HW136335   0.487   3.046   6.583 -1.1059  0.7090  1.4716
 8291SOL    HW236336   0.514   3.162   6.676  2.0125 -0.9563  0.0779
 8292SOL     OW36337   3.757   0.539   3.095 -0.2750 -0.3641  0.1491
 8292SOL    HW136338   3.684   0.576   3.046 -0.6901  3.1465  3.3810
 8292SOL    HW236339   3.774   0.461   3.043 -0.9678  0.3074 -1.0740
 8293SOL     OW36340   0.222   4.715   7.823 -0.0268 -0.4443  0.3608
 8293SOL    HW136341   0.157   0.017   7.887  0.1540 -0.4119  0.5301
 8293SOL    HW236342   0.297   4.694   7.879  0.1669 -0.1866  0.1980
 8294SOL     OW36343   2.734   2.710   4.482 -0.0645 -0.0805  0.0635
 8294SOL    HW136344   2.739   2.630   4.429  0.5969  0.8303 -1.2645
 8294SOL    HW236345   2.825   2.739   4.472  0.2553 -0.4075  1.9717
 8295SOL     OW36346   4.194   4.003   9.454  0.4844  0.3235 -0.1705
 8295SOL    HW136347   4.151   4.084   9.480  1.1408  0.6017  0.0627
 8295SOL    HW236348   4.273   3.997   9.508  0.0620 -2.2005  0.2045
 8296SOL     OW36349   3.701   2.685   2.288 -0.2932  0.2446 -0.1412
 8296SOL    HW136350   3.691   2.753   2.354 -1.2042  1.9446 -2.0226
 8296SOL    HW236351   3.607   2.664   2.289  0.0110 -1.0051  1.9189
 8297SOL     OW36352   1.714   3.159   7.666  0.5987 -0.6581 -0.0755
 8297SOL    HW136353   1.797   3.181   7.707  0.1877  0.5229  0.1321
 8297SOL    HW236354   1.645   3.198   7.721  0.6078  0.1022 -0.6068
 8298SOL     OW36355   2.964   0.731   3.879  1.0182  0.2554 -0.0783
 8298SOL    HW136356   3.016   0.653   3.862 -0.1559  0.1350 -3.0538
 8298SOL    HW236357   2.961   0.756   3.787 -0.1777 -0.4236 -0.2143
 8299SOL     OW36358   3.570   4.237   7.676  0.0673  0.8461  0.0830
 8299SOL    HW136359   3.665   4.251   7.668  0.1661 -1.0638 -1.9563
 8299SOL    HW236360   3.543   4.235   7.585 -0.1037  0.3069  0.1471
 8300SOL     OW36361   1.058   3.841  14.870  0.3158 -0.0233  0.0559
 8300SOL    HW136362   1.060   3.746  14.874 -2.6411 -0.0014  1.8479
 8300SOL    HW236363   1.038   3.860  14.962  1.7040  0.9844  0.1503
 8301SOL     OW36364   0.513   3.393   8.012 -0.2373  0.0489 -0.2072
 8301SOL    HW136365   0.531   3.487   8.001  0.0481 -0.2309 -2.1759
 8301SOL    HW236366   0.433   3.404   8.063 -0.0194  1.0980 -0.0778
 8302SOL     OW36367   3.194   2.702   3.817 -0.0358 -0.3578  0.4039
 8302SOL    HW136368   3.232   2.697   3.729  1.9215 -0.2079  1.2400
 8302SOL    HW236369   3.271   2.680   3.870  2.2068 -1.4134 -3.3004
 8303SOL     OW36370   1.396   3.805  10.692 -0.2429  0.1473  0.1075
 8303SOL    HW136371   1.322   3.865  10.694  0.4434  1.0120 -0.3950
 8303SOL    HW236372   1.355   3.718  10.685 -0.5747  0.3045  0.0988
 8304SOL     OW36373   3.276   1.882   8.640  0.5580 -0.2064  0.5841
 8304SOL    HW136374   3.188   1.853   8.616  0.1831  1.7491 -0.3244
 8304SOL    HW236375   3.275   1.850   8.731  0.4387  0.1003  0.6916
 8305SOL     OW36376   1.092   3.991   6.472 -0.0598 -0.3016 -0.1106
 8305SOL    HW136377   1.156   3.986   6.543  0.3816  2.2007 -0.3269
 8305SOL    HW236378   1.141   3.932   6.415 -0.6535 -0.0158 -0.9145
 8306SOL     OW36379   0.253   4.400   3.957 -0.0235 -0.1609 -0.3187
 8306SOL    HW136380   0.207   4.457   3.895 -0.6852  0.0931  0.3983
 8306SOL    HW236381   0.328   4.371   3.905  0.1833  0.3970 -0.3250
 8307SOL     OW36382   1.587   2.412   5.289 -0.1626  0.0030  0.3809
 8307SOL    HW136383   1.612   2.340   5.347 -0.4875 -0.2046  0.2609
 8307SOL    HW236384   1.614   2.393   5.199  1.4406 -0.1336  0.8812
 8308SOL     OW36385   3.302   0.530   5.589  0.0607 -0.0412 -0.1325
 8308SOL    HW136386   3.364   0.458   5.599 -0.2495 -0.4090 -0.8571
 8308SOL    HW236387   3.368   0.580   5.542  0.0559 -1.1040 -1.2704
 8309SOL     OW36388   2.782   1.415   3.948  0.1560  0.2029 -0.1371
 8309SOL    HW136389   2.696   1.378   3.927  0.8965 -1.4664 -0.2553
 8309SOL    HW236390   2.834   1.353   3.895  0.8824  1.1993 -0.5972
 8310SOL     OW36391   4.497   4.637   2.072 -0.5474  0.1522  0.1019
 8310SOL    HW136392   4.589   4.615   2.088 -0.3116  0.9575 -0.1866
 8310SOL    HW236393   4.513   4.692   1.996 -0.4499 -1.7785 -1.2574
 8311SOL     OW36394   4.237   1.453   4.245  0.2083  0.6635  0.5145
 8311SOL    HW136395   4.214   1.469   4.336  3.6059 -0.4578  1.5764
 8311SOL    HW236396   4.190   1.369   4.240 -0.2186  0.7950  2.3373
 8312SOL     OW36397   1.349   0.630  13.827  0.0136 -0.1528 -0.2116
 8312SOL    HW136398   1.444   0.639  13.819  0.0401  0.3816  0.6572
 8312SOL    HW236399   1.337   0.566  13.757  0.9156  0.7146 -1.1605
 8313SOL     OW36400   1.933   1.897   0.266 -0.7793 -0.3942  0.8242
 8313SOL    HW136401   2.023   1.886   0.297 -0.2287  0.3145 -0.4868
 8313SOL    HW236402   1.943   1.992   0.269  0.8099 -0.4308 -2.1216
 8314SOL     OW36403   3.307   1.689   4.014  0.1763 -0.0150 -0.4163
 8314SOL    HW136404   3.344   1.768   4.052 -0.4924  0.1271 -0.0531
 8314SOL    HW236405   3.378   1.626   3.997 -1.1114 -1.6165  0.0721
 8315SOL     OW36406   3.559   1.621   7.848 -0.0507  0.6745 -0.0979
 8315SOL    HW136407   3.606   1.667   7.918 -0.6059  0.7897  0.2036
 8315SOL    HW236408   3.515   1.551   7.896  0.8267  0.3029  0.1479
 8316SOL     OW36409   0.085   2.334   8.991  0.1241 -0.9536  0.6493
 8316SOL    HW136410   0.145   2.337   8.916 -0.3636 -0.0440  0.2912
 8316SOL    HW236411   0.044   2.420   8.982 -0.8847 -1.4167  0.8583
 8317SOL     OW36412   1.271   4.525   5.184  0.5468 -0.2646  0.2385
 8317SOL    HW136413   1.259   4.473   5.263 -0.5840 -0.0666  0.1902
 8317SOL    HW236414   1.357   4.493   5.156  0.8827 -0.8072  1.9052
 8318SOL     OW36415   0.474   3.581   1.351  0.2969  0.2476 -0.2831
 8318SOL    HW136416   0.560   3.547   1.327 -0.4495 -1.7061 -0.1808
 8318SOL    HW236417   0.418   3.544   1.283  2.1154 -0.0930 -1.6077
 8319SOL     OW36418   0.849   3.231  10.577  0.5061  0.5329 -0.3151
 8319SOL    HW136419   0.857   3.153  10.633 -1.1633  1.6763  1.5180
 8319SOL    HW236420   0.758   3.255  10.595  0.4657 -0.5489  1.0033
 8320SOL     OW36421   4.373   1.517   6.850  0.0022  0.4337 -0.8376
 8320SOL    HW136422   4.331   1.519   6.936 -0.3283 -1.2735 -0.9648
 8320SOL    HW236423   4.431   1.593   6.862  0.2894  0.0266  0.3021
 8321SOL     OW36424   2.701   3.361   3.335  0.2053 -0.1176 -0.3388
 8321SOL    HW136425   2.717   3.410   3.255  1.8265  0.4930  0.3617
 8321SOL    HW236426   2.774   3.299   3.339 -0.0252 -0.4073 -0.6203
 8322SOL     OW36427   2.622   3.082  16.863  0.1439 -0.5100  0.2478
 8322SOL    HW136428   2.665   3.001  16.891  1.1800 -0.3111 -0.7770
 8322SOL    HW236429   2.631   3.075  16.768  1.5658 -0.2912  0.3674
 8323SOL     OW36430   4.423   1.052  15.409  0.4180  0.4722  0.1547
 8323SOL    HW136431   4.518   1.063  15.399  0.7532 -0.2364  2.4439
 8323SOL    HW236432   4.388   1.129  15.365 -0.0488  0.7219  0.9552
 8324SOL     OW36433   0.871   3.922  12.301 -0.2632 -0.2444  0.0609
 8324SOL    HW136434   0.949   3.870  12.324  1.0931  1.9571  0.4324
 8324SOL    HW236435   0.806   3.887  12.361  0.2779 -0.7993  0.3340
 8325SOL     OW36436   0.539   4.400   2.522 -0.3421  0.0350  0.1615
 8325SOL    HW136437   0.579   4.375   2.439  1.4712  1.2620  0.6712
 8325SOL    HW236438   0.551   4.494   2.530 -0.8006  0.2129 -1.2979
 8326SOL     OW36439   1.320   0.054   8.696  0.6224  0.1619  0.1081
 8326SOL    HW136440   1.339   0.088   8.608 -1.0295  1.1973  0.1525
 8326SOL    HW236441   1.390   0.097   8.746 -0.2781  2.4203 -0.5774
 8327SOL     OW36442   3.622   2.840   4.444 -0.0269 -0.1192  0.2773
 8327SOL    HW136443   3.601   2.844   4.537  2.2433 -1.0715  0.8450
 8327SOL    HW236444   3.711   2.875   4.444  0.2702 -0.8594 -0.4236
 8328SOL     OW36445   4.102   3.096   7.140 -0.3311  0.2060 -0.6521
 8328SOL    HW136446   4.077   3.004   7.126  0.7562 -0.1524 -0.2805
 8328SOL    HW236447   4.018   3.126   7.174 -0.4612  0.0639 -0.8473
 8329SOL     OW36448   3.668   3.091   9.140  0.5108 -0.0740 -0.1152
 8329SOL    HW136449   3.612   3.080   9.063  1.0755 -1.6436 -0.2975
 8329SOL    HW236450   3.672   3.187   9.146 -0.2044 -0.0115 -0.5612
 8330SOL     OW36451   3.267   2.338   6.449 -0.2153 -0.1089  0.2150
 8330SOL    HW136452   3.298   2.405   6.510 -0.2418  0.3125 -0.2345
 8330SOL    HW236453   3.344   2.327   6.395  1.6434  1.6598  2.5167
 8331SOL     OW36454   2.885   1.704   5.287  0.3143  0.2124  0.1061
 8331SOL    HW136455   2.825   1.652   5.234  0.3361  1.5171 -1.2051
 8331SOL    HW236456   2.823   1.747   5.346 -0.5731 -3.5501  1.9137
 8332SOL     OW36457   3.021   0.234  16.589 -0.4797 -0.2193 -0.0781
 8332SOL    HW136458   3.002   0.303  16.652 -1.3519  2.5125 -3.3116
 8332SOL    HW236459   3.063   0.278  16.515  0.2359 -0.9283 -0.0992
 8333SOL     OW36460   0.646   0.209   1.294  0.0839 -0.1562 -0.1002
 8333SOL    HW136461   0.660   0.282   1.235  1.3237  0.0404  0.4260
 8333SOL    HW236462   0.731   0.184   1.330  0.8194  0.2560 -1.5715
 8334SOL     OW36463   1.954   2.141   7.788 -0.0441  0.3318 -0.1969
 8334SOL    HW136464   1.957   2.214   7.850  2.5610  0.8179 -0.9162
 8334SOL    HW236465   1.889   2.175   7.726 -1.6082 -2.1291  0.0772
 8335SOL     OW36466   3.584   4.548   2.628  0.2854  0.0956  0.0904
 8335SOL    HW136467   3.495   4.583   2.633  0.6152  1.2053 -1.8670
 8335SOL    HW236468   3.639   4.623   2.651  1.0963 -0.0626 -1.3085
 8336SOL     OW36469   2.061   1.524   7.406  0.5637 -0.4678 -0.0885
 8336SOL    HW136470   2.101   1.543   7.321  2.2034 -1.5108  0.4508
 8336SOL    HW236471   2.012   1.443   7.396  0.0268 -0.5423  3.0003
 8337SOL     OW36472   0.619   2.700   4.069 -0.1845  0.3375 -0.0873
 8337SOL    HW136473   0.667   2.729   3.992 -0.5056  0.4937 -0.2290
 8337SOL    HW236474   0.693   2.703   4.130  0.5236  1.9206 -1.0408
 8338SOL     OW36475   4.204   0.751   4.650  0.1448 -0.7679  0.0844
 8338SOL    HW136476   4.266   0.685   4.682  0.5772  0.9826  2.8895
 8338SOL    HW236477   4.230   0.836   4.686  2.5852 -0.4550 -2.4714
 8339SOL     OW36478   0.651   3.279   2.230 -0.0451  0.3143  0.6961
 8339SOL    HW136479   0.592   3.288   2.156 -0.4266  0.1961  0.9869
 8339SOL    HW236480   0.708   3.211   2.194 -0.6131 -1.0419  2.3629
 8340SOL     OW36481   4.344   1.688   8.081 -0.6394 -0.1473 -0.2383
 8340SOL    HW136482   4.370   1.616   8.138 -1.5004  0.1902  0.5776
 8340SOL    HW236483   4.252   1.699   8.104 -0.2042 -0.2353  1.5450
 8341SOL     OW36484   0.603   2.971   8.573  0.2713  0.3145  0.1103
 8341SOL    HW136485   0.662   2.895   8.566  1.3836  0.9522  2.5795
 8341SOL    HW236486   0.587   2.990   8.481 -1.6576  1.7140  0.7508
 8342SOL     OW36487   3.055   2.099   9.224  0.1147  0.3056 -0.0531
 8342SOL    HW136488   3.076   2.010   9.197 -0.6408  0.3696 -0.8549
 8342SOL    HW236489   3.009   2.088   9.307 -0.6617  1.1529 -0.3638
 8343SOL     OW36490   2.255   1.655   2.057  0.0475  0.3183  0.0351
 8343SOL    HW136491   2.160   1.663   2.045 -0.1490  2.5906  3.1568
 8343SOL    HW236492   2.282   1.653   1.965  0.9751 -4.4895  0.4084
 8344SOL     OW36493   1.509   2.965   5.415  0.4787  0.4720 -0.1084
 8344SOL    HW136494   1.489   2.890   5.358  1.3560 -0.6994  1.1409
 8344SOL    HW236495   1.603   2.961   5.399  0.2741  0.2023 -1.2661
 8345SOL     OW36496   0.199   4.415   3.240  0.3215  0.4029  0.4721
 8345SOL    HW136497   0.250   4.361   3.301 -1.4680 -1.1457  0.6146
 8345SOL    HW236498   0.143   4.349   3.199 -1.3043  0.8548  1.9811
 8346SOL     OW36499   0.511   4.501   7.769 -0.2439  0.2333  0.1417
 8346SOL    HW136500   0.504   4.535   7.858  1.0118  0.9482 -0.0305
 8346SOL    HW236501   0.421   4.474   7.752 -0.9283  0.1140  3.9966
 8347SOL     OW36502   2.898   0.627  17.321 -0.0622 -0.0455  0.4593
 8347SOL    HW136503   2.967   0.609  17.385  0.7133 -0.3935 -0.4690
 8347SOL    HW236504   2.927   0.710  17.282  0.8321 -0.5302  0.0880
 8348SOL     OW36505   4.307   2.034   5.006 -0.0960 -1.0034 -0.4771
 8348SOL    HW136506   4.312   1.959   5.066 -0.2711 -1.5046 -1.0865
 8348SOL    HW236507   4.386   2.030   4.951  0.1289 -0.0924 -0.2237
 8349SOL     OW36508   0.057   1.528   9.192  0.4934  0.0989  0.1023
 8349SOL    HW136509   0.067   1.480   9.275 -2.0304  1.7480  1.3604
 8349SOL    HW236510   0.138   1.579   9.189  1.5587 -1.6793 -1.2500
 8350SOL     OW36511   1.304   1.830   6.856  0.3056 -0.4095 -0.1732
 8350SOL    HW136512   1.370   1.836   6.925  0.0993  1.8858 -0.1875
 8350SOL    HW236513   1.239   1.775   6.898  1.4626 -0.7345  1.1958
 8351SOL     OW36514   3.029   1.495   2.649  0.3216 -0.1725 -0.0339
 8351SOL    HW136515   3.070   1.580   2.658  0.1389 -0.1769  0.8366
 8351SOL    HW236516   2.973   1.500   2.571 -0.3453 -1.6704  0.3431
 8352SOL     OW36517   0.900   1.798  12.210 -0.2933 -0.3055  0.8145
 8352SOL    HW136518   0.951   1.878  12.199 -0.9449  0.2756  2.0905
 8352SOL    HW236519   0.892   1.780  12.303 -0.1104 -1.4619  0.6094
 8353SOL     OW36520   2.811   4.415   2.629 -0.4779  0.8424 -0.3754
 8353SOL    HW136521   2.789   4.371   2.711 -0.5413  2.5966  0.5453
 8353SOL    HW236522   2.851   4.338   2.589  0.2942  1.5625 -0.9850
 8354SOL     OW36523   2.184   4.366  10.498  0.3128 -0.2257 -0.2109
 8354SOL    HW136524   2.173   4.279  10.460 -3.2943  0.0237  0.2470
 8354SOL    HW236525   2.188   4.412  10.414 -1.4595  0.0112 -0.1677
 8355SOL     OW36526   1.139   2.688   4.973  0.3010  0.3239 -0.9317
 8355SOL    HW136527   1.127   2.742   5.050  1.3896  0.0956 -0.5965
 8355SOL    HW236528   1.064   2.704   4.916 -0.6421 -1.0155 -0.0710
 8356SOL     OW36529   0.082   1.792   7.560 -0.1072 -0.4598  0.3482
 8356SOL    HW136530   0.057   1.872   7.514 -0.7947 -1.9819 -1.9622
 8356SOL    HW236531   0.011   1.729   7.551 -0.0477 -0.5717  0.6401
 8357SOL     OW36532   3.828   2.125   0.798 -0.0829  0.6312  0.1446
 8357SOL    HW136533   3.810   2.040   0.837  0.2926 -0.1310 -1.3818
 8357SOL    HW236534   3.869   2.173   0.871  0.8917 -0.8619  0.5793
 8358SOL     OW36535   3.463   2.537   8.862  0.0987 -0.3079 -0.1461
 8358SOL    HW136536   3.443   2.476   8.933  3.1489 -3.2250 -1.8295
 8358SOL    HW236537   3.376   2.566   8.832  0.2991  0.1576 -0.2875
 8359SOL     OW36538   3.566   1.813   6.919  0.0198  0.7920 -0.5139
 8359SOL    HW136539   3.555   1.840   7.011 -0.1892  0.2772 -0.3861
 8359SOL    HW236540   3.585   1.903   6.892  0.5554  0.5803 -0.8337
 8360SOL     OW36541   3.050   3.995   6.360 -0.2504 -0.8450  0.1183
 8360SOL    HW136542   3.070   3.938   6.286 -1.1501 -0.1336 -0.6671
 8360SOL    HW236543   3.136   4.031   6.384 -0.2134 -0.2139 -0.9626
 8361SOL     OW36544   4.288   3.322  13.030 -0.3954  0.1472 -0.1513
 8361SOL    HW136545   4.314   3.238  13.067  1.3756  0.8515  0.2261
 8361SOL    HW236546   4.369   3.369  13.051 -0.6040 -0.4236  1.8867
 8362SOL     OW36547   2.355   3.148   9.764 -0.6021 -0.5408  0.0755
 8362SOL    HW136548   2.430   3.166   9.821 -0.3064 -0.3171 -0.3816
 8362SOL    HW236549   2.390   3.085   9.701 -1.5035  0.0965 -1.0561
 8363SOL     OW36550   2.992   2.256   8.996  0.1496  0.3231 -0.1839
 8363SOL    HW136551   2.985   2.208   9.078  1.0653  1.5321  0.6069
 8363SOL    HW236552   3.008   2.347   9.023 -0.1379  0.3831 -0.2157
 8364SOL     OW36553   2.368   2.621   4.722 -0.1412  0.5320  0.1119
 8364SOL    HW136554   2.464   2.614   4.722 -0.1631  0.2015 -0.1956
 8364SOL    HW236555   2.353   2.530   4.747  0.8278  0.4348  0.3680
 8365SOL     OW36556   4.328   4.680   4.998  0.5813  0.3041 -0.0383
 8365SOL    HW136557   4.377   0.002   4.934  0.5237  1.6846  1.0083
 8365SOL    HW236558   4.281   4.616   4.944  0.0464  1.7458 -1.2855
 8366SOL     OW36559   1.388   1.710  10.607 -0.0975 -0.5544  0.0263
 8366SOL    HW136560   1.317   1.760  10.649  1.2682  0.4372  1.1649
 8366SOL    HW236561   1.375   1.736  10.516 -0.6695 -0.2346  0.1966
 8367SOL     OW36562   2.647   0.656   4.301  0.1533  0.4300 -1.0528
 8367SOL    HW136563   2.727   0.707   4.301  1.4817 -1.6172  0.6526
 8367SOL    HW236564   2.610   0.696   4.380 -1.2217 -1.7342 -0.5921
 8368SOL     OW36565   1.792   2.184  16.095  0.5663 -0.6337  1.0625
 8368SOL    HW136566   1.854   2.128  16.141  0.7428 -1.5419 -0.2619
 8368SOL    HW236567   1.756   2.232  16.169  0.2742 -0.3731  0.7499
 8369SOL     OW36568   2.231   0.091   2.526  0.3969 -0.2552  0.7316
 8369SOL    HW136569   2.304   0.128   2.576 -0.7959  1.4774  1.1876
 8369SOL    HW236570   2.274   0.005   2.521  0.5464 -0.2550  2.1540
 8370SOL     OW36571   3.410   1.317   3.385 -0.3248  0.1975 -0.3470
 8370SOL    HW136572   3.431   1.224   3.376  0.2235  0.3256 -0.3491
 8370SOL    HW236573   3.369   1.338   3.301 -1.6618  0.6444  0.4141
 8371SOL     OW36574   2.855   0.120   5.208  0.0611  0.1486  0.2147
 8371SOL    HW136575   2.879   0.152   5.294  1.2750 -1.2000  0.3808
 8371SOL    HW236576   2.905   0.039   5.202 -1.4560 -0.8808  1.5134
 8372SOL     OW36577   1.665   4.573   4.982  0.1981  0.2303  0.3433
 8372SOL    HW136578   1.652   4.660   4.945  0.8359  0.5290  0.8472
 8372SOL    HW236579   1.743   4.541   4.936 -1.2799 -0.2596 -1.8631
 8373SOL     OW36580   4.190   3.147   5.361  0.2108 -0.4289  0.3284
 8373SOL    HW136581   4.177   3.054   5.380  0.3719 -0.5371 -0.1117
 8373SOL    HW236582   4.166   3.155   5.269  1.3504  3.0754  0.3426
 8374SOL     OW36583   1.561   3.788   7.894  0.4498  0.0171  0.1999
 8374SOL    HW136584   1.474   3.750   7.903 -0.6366  2.5724  0.6030
 8374SOL    HW236585   1.618   3.719   7.929  0.1326  0.3982  1.4593
 8375SOL     OW36586   2.721   1.566   5.065 -0.2067  0.6554  0.3295
 8375SOL    HW136587   2.657   1.579   4.996  1.8224 -2.9956 -2.2499
 8375SOL    HW236588   2.663   1.541   5.138 -0.1351 -4.1872 -1.2519
 8376SOL     OW36589   2.455   0.185   3.542  0.0509  0.3323 -0.2160
 8376SOL    HW136590   2.436   0.250   3.474 -3.4762 -1.6177 -1.1017
 8376SOL    HW236591   2.492   0.244   3.607 -1.0774  0.5520  0.2181
 8377SOL     OW36592   0.423   3.488   2.060  0.1493  0.4844 -0.5642
 8377SOL    HW136593   0.352   3.477   2.123  0.8468 -0.1540  0.1200
 8377SOL    HW236594   0.444   3.395   2.046  0.1468  0.4143 -0.0944
 8378SOL     OW36595   0.482   3.965   3.496  0.4195  0.2438 -0.0900
 8378SOL    HW136596   0.392   3.959   3.527 -0.4124  2.5315 -2.0712
 8378SOL    HW236597   0.535   3.979   3.575 -1.8474  0.7253  1.3323
 8379SOL     OW36598   0.251   1.680  12.702 -0.1536 -0.2454 -0.2471
 8379SOL    HW136599   0.256   1.711  12.611 -0.2653  0.3510 -0.0518
 8379SOL    HW236600   0.341   1.655  12.724  0.1326  2.2921  1.4972
 8380SOL     OW36601   1.612   3.154   1.250 -0.1294 -0.3323  0.2185
 8380SOL    HW136602   1.623   3.206   1.171  2.5625 -0.0160  0.7829
 8380SOL    HW236603   1.627   3.062   1.230 -0.3280 -0.3245  0.0310
 8381SOL     OW36604   2.969   0.148   4.961  1.1011 -0.0262 -0.2930
 8381SOL    HW136605   2.924   0.084   4.905  2.2221  1.2537 -2.6744
 8381SOL    HW236606   2.933   0.117   5.044  2.0804  2.4726  1.0663
 8382SOL     OW36607   3.724   3.661   9.247  0.8143  0.0325  0.1424
 8382SOL    HW136608   3.669   3.739   9.237  2.7004  1.0389 -2.4927
 8382SOL    HW236609   3.812   3.687   9.273  1.0677  0.0969 -0.7677
 8383SOL     OW36610   0.361   1.937   4.731 -0.2537 -0.5438  0.0293
 8383SOL    HW136611   0.297   1.890   4.678 -2.9076  1.4620  1.4612
 8383SOL    HW236612   0.406   1.859   4.764  2.6477  0.2281 -2.0550
 8384SOL     OW36613   4.527   2.844  15.834  0.2319 -0.2069 -0.0179
 8384SOL    HW136614   4.497   2.932  15.810 -2.0229 -1.0370 -0.1830
 8384SOL    HW236615   4.458   2.796  15.788  1.2749 -2.0887  0.3738
 8385SOL     OW36616   2.244   0.178   6.044 -0.1416  0.4283  0.2808
 8385SOL    HW136617   2.263   0.235   6.118 -0.1605  0.5826  0.1659
 8385SOL    HW236618   2.244   0.095   6.091 -0.9788  0.4824  0.3764
 8386SOL     OW36619   1.361   2.989   8.365  0.9802  0.3653  0.4658
 8386SOL    HW136620   1.452   3.020   8.358  0.7516  1.0670  0.6008
 8386SOL    HW236621   1.319   3.072   8.388 -1.2614 -0.7342  0.3310
 8387SOL     OW36622   1.898   1.772   3.437  0.1656 -0.1579  0.2990
 8387SOL    HW136623   1.833   1.777   3.507 -0.9314  1.3998 -0.8251
 8387SOL    HW236624   1.922   1.862   3.416 -0.3145 -0.2295 -0.5792
 8388SOL     OW36625   1.088   1.868   0.535  0.3522  0.5319 -0.1850
 8388SOL    HW136626   1.046   1.951   0.512 -0.9467  0.3368  1.5339
 8388SOL    HW236627   1.063   1.866   0.627 -0.8817  2.2540 -0.4802
 8389SOL     OW36628   2.465   2.717   6.843 -0.2072 -0.0706 -0.3463
 8389SOL    HW136629   2.485   2.783   6.909  0.8598 -1.0435  0.3075
 8389SOL    HW236630   2.436   2.766   6.766 -0.2967  1.4207  0.6265
 8390SOL     OW36631   0.268   0.171   8.604 -0.1534  0.2282  0.1973
 8390SOL    HW136632   0.273   0.091   8.656 -1.8885  0.1300  0.2094
 8390SOL    HW236633   0.235   0.239   8.662 -0.2704 -1.0380  1.6098
 8391SOL     OW36634   4.664   2.576   9.264  0.3549 -0.1612  0.0854
 8391SOL    HW136635   4.701   2.543   9.182  1.6810  0.2931  0.5008
 8391SOL    HW236636   4.609   2.647   9.231  0.5676  0.2800  0.6978
 8392SOL     OW36637   4.577   1.922   6.256  0.4103  0.1013  0.0548
 8392SOL    HW136638   4.524   1.994   6.220  0.9997  0.5018 -0.0180
 8392SOL    HW236639   4.640   1.924   6.184 -0.5948 -2.4180 -0.8806
 8393SOL     OW36640   4.666   4.084   3.737  0.5319  0.4334 -0.3086
 8393SOL    HW136641   0.007   4.106   3.799 -0.5308 -1.2158  1.4577
 8393SOL    HW236642   4.640   4.176   3.731  0.8108  0.4935 -0.6074
 8394SOL     OW36643   4.535   3.663   9.882 -0.0201 -0.1834 -0.0445
 8394SOL    HW136644   4.607   3.629   9.935 -1.0088  0.5740  1.7573
 8394SOL    HW236645   4.594   3.715   9.828 -0.6082  0.6255  0.1002
 8395SOL     OW36646   2.077   2.317   2.062 -0.0643 -0.8159  0.3008
 8395SOL    HW136647   2.074   2.246   1.998 -0.6020  0.2325 -0.8290
 8395SOL    HW236648   1.998   2.364   2.038  0.1670 -1.0403 -0.9503
 8396SOL     OW36649   4.124   3.224   7.542  0.5969  0.2536 -0.0539
 8396SOL    HW136650   4.189   3.220   7.612  2.1877 -0.3414 -1.5650
 8396SOL    HW236651   4.096   3.314   7.556 -0.8982 -0.6866  3.0634
 8397SOL     OW36652   1.591   0.848   8.708  0.3436  0.1228 -0.2962
 8397SOL    HW136653   1.604   0.820   8.617 -1.2475  0.6121 -0.6721
 8397SOL    HW236654   1.589   0.759   8.744 -0.0114  0.4258  0.4447
 8398SOL     OW36655   0.105   4.336  16.917  0.0605 -0.5656 -0.6819
 8398SOL    HW136656   0.169   4.325  16.847 -0.3209  0.0869 -1.1308
 8398SOL    HW236657   0.142   4.407  16.969  0.3033 -1.7946  0.8269
 8399SOL     OW36658   4.179   0.499   5.133  0.2708 -0.0822 -0.3597
 8399SOL    HW136659   4.165   0.580   5.084 -2.3021  0.2865  1.0026
 8399SOL    HW236660   4.172   0.428   5.069 -0.8083 -0.3809  0.0916
 8400SOL     OW36661   0.249   2.906   7.708 -0.1692  0.7296  0.2551
 8400SOL    HW136662   0.166   2.876   7.744  0.0505 -1.4083 -1.0040
 8400SOL    HW236663   0.317   2.846   7.739  0.1980  1.2775  0.5221
 8401SOL     OW36664   1.724   2.360   5.686  0.2784  0.4360  0.7671
 8401SOL    HW136665   1.650   2.383   5.743 -0.2896  0.3452  0.0637
 8401SOL    HW236666   1.766   2.445   5.672  0.9035 -0.0423 -0.2039
 8402SOL     OW36667   2.947   1.797  11.161 -0.0095  0.0376  0.2048
 8402SOL    HW136668   2.975   1.707  11.177  0.1099  0.5041  2.5885
 8402SOL    HW236669   2.942   1.809  11.066  1.3963  2.6080  0.4455
 8403SOL     OW36670   3.762   2.622   2.766 -0.0673  0.2139 -0.1955
 8403SOL    HW136671   3.845   2.630   2.718 -0.5131 -1.2178 -1.1719
 8403SOL    HW236672   3.703   2.689   2.731  3.7755  2.5034 -2.2881
 8404SOL     OW36673   0.117   0.171   1.752  0.3784  0.1388 -0.1724
 8404SOL    HW136674   0.177   0.231   1.795  2.9463 -0.6590 -2.6292
 8404SOL    HW236675   0.040   0.225   1.736 -0.7263 -0.9067  1.6012
 8405SOL     OW36676   2.795   2.073   8.213  0.3267  0.0479  0.2586
 8405SOL    HW136677   2.841   2.100   8.293  0.4773 -3.5675  1.4203
 8405SOL    HW236678   2.778   1.981   8.235 -2.3655  0.3261 -0.6810
 8406SOL     OW36679   2.388   1.839  14.580  0.2525 -0.6174 -0.3813
 8406SOL    HW136680   2.458   1.774  14.573 -1.5291 -2.6101 -0.0014
 8406SOL    HW236681   2.413   1.884  14.500  2.8464 -2.1458 -0.4297
 8407SOL     OW36682   4.480   4.261   7.606 -0.1188 -0.6569 -0.0653
 8407SOL    HW136683   4.555   4.290   7.555 -1.0699  2.7356  0.4817
 8407SOL    HW236684   4.419   4.335   7.610  0.8772  0.3318 -3.0298
 8408SOL     OW36685   0.388   0.365   1.471 -0.6858  0.2109 -0.6308
 8408SOL    HW136686   0.330   0.423   1.423 -1.1599  1.7700  1.7909
 8408SOL    HW236687   0.334   0.286   1.480  0.7393 -0.6201  0.5935
 8409SOL     OW36688   4.681   3.228   7.711 -0.4354  0.4536  0.3779
 8409SOL    HW136689   0.039   3.267   7.722 -0.8407  0.4644  3.8087
 8409SOL    HW236690   4.623   3.299   7.685  1.4065  1.8581  0.1015
 8410SOL     OW36691   1.069   0.194  15.643 -0.7929  0.2443  0.3549
 8410SOL    HW136692   1.153   0.203  15.689 -1.0693  0.1807  0.8784
 8410SOL    HW236693   1.025   0.138  15.707  0.4712 -1.8655 -0.6154
 8411SOL     OW36694   3.128   1.592   7.616  0.3304 -0.6917  0.0981
 8411SOL    HW136695   3.128   1.578   7.710 -1.4648  0.5875  0.3061
 8411SOL    HW236696   3.221   1.593   7.596  0.4767 -0.3916  0.8085
 8412SOL     OW36697   4.165   0.003  12.639 -0.4982  0.1638 -0.3533
 8412SOL    HW136698   4.252   0.034  12.665 -1.4935  3.1500 -0.5680
 8412SOL    HW236699   4.117   0.022  12.719 -0.8905  1.3950 -0.8845
 8413SOL     OW36700   2.320   4.322   7.129 -0.4346 -0.3738 -0.1049
 8413SOL    HW136701   2.250   4.379   7.096 -1.3512 -0.5796  1.5014
 8413SOL    HW236702   2.349   4.387   7.193 -1.1023 -0.5772  0.4084
 8414SOL     OW36703   0.396   0.424   5.434 -0.1658  0.4855  0.3563
 8414SOL    HW136704   0.382   0.331   5.418 -0.8990  0.9008 -1.4207
 8414SOL    HW236705   0.473   0.434   5.378  0.9222  0.3568  1.8473
 8415SOL     OW36706   2.364   2.847   3.759  0.1642 -0.4703 -0.4691
 8415SOL    HW136707   2.322   2.903   3.824 -1.3497 -0.8131 -1.1376
 8415SOL    HW236708   2.337   2.891   3.678 -1.4429 -2.4442 -1.0281
 8416SOL     OW36709   1.950   3.149   1.782  0.1480 -0.2842 -0.4284
 8416SOL    HW136710   1.912   3.102   1.857  1.7340 -0.1603  0.4421
 8416SOL    HW236711   1.866   3.176   1.745  0.7009  2.7328  0.5702
 8417SOL     OW36712   1.695   4.593  17.098 -0.4011 -0.2409 -0.4516
 8417SOL    HW136713   1.627   4.580  17.164 -0.7287 -2.1128 -1.1703
 8417SOL    HW236714   1.657   4.653  17.034 -0.4971  0.1259 -0.0495
 8418SOL     OW36715   0.640   0.676  13.401 -0.2934 -0.4692  0.4767
 8418SOL    HW136716   0.598   0.737  13.340 -0.7869 -0.9555  0.3265
 8418SOL    HW236717   0.676   0.744  13.457 -1.1904 -0.7800  1.4167
 8419SOL     OW36718   2.865   3.268   6.328  0.2483 -0.2222 -0.2470
 8419SOL    HW136719   2.856   3.327   6.403  0.5803  1.7868 -1.7884
 8419SOL    HW236720   2.780   3.224   6.332  0.3564 -0.6381 -3.1091
 8420SOL     OW36721   3.672   3.279   4.212 -0.4443  0.7956 -0.2541
 8420SOL    HW136722   3.580   3.267   4.234 -0.3308  1.2609  0.5070
 8420SOL    HW236723   3.721   3.215   4.263  1.0953  1.3415 -1.0367
 8421SOL     OW36724   1.477   3.656   4.130 -0.1942  0.0807 -0.1458
 8421SOL    HW136725   1.548   3.715   4.155 -1.3306  1.4589 -0.2024
 8421SOL    HW236726   1.537   3.592   4.091 -1.8866 -1.5983  0.0042
 8422SOL     OW36727   2.953   1.017   4.262  0.7153 -0.1803 -0.3981
 8422SOL    HW136728   2.929   1.107   4.283  2.3438 -0.1449  1.2503
 8422SOL    HW236729   2.939   1.016   4.167  0.3320  0.4345 -0.3540
 8423SOL     OW36730   4.530   2.686   8.630 -0.0068 -0.5062  0.1162
 8423SOL    HW136731   4.535   2.752   8.699 -1.2821 -0.3299  0.0420
 8423SOL    HW236732   4.475   2.622   8.676  1.2635 -0.1703  2.0689
 8424SOL     OW36733   2.023   1.419   1.749  0.4494 -0.4733  0.2108
 8424SOL    HW136734   2.028   1.329   1.718  0.9275  0.1055 -1.3930
 8424SOL    HW236735   2.013   1.462   1.664  1.2646  1.1929  0.9608
 8425SOL     OW36736   2.343   1.304   9.796 -0.3544  0.4839  0.2171
 8425SOL    HW136737   2.265   1.348   9.761  0.4854  1.6704 -0.1585
 8425SOL    HW236738   2.305   1.217   9.809  3.6420 -1.8033 -3.4250
 8426SOL     OW36739   2.038   3.610   7.674  0.4042 -0.0350  0.2629
 8426SOL    HW136740   1.965   3.556   7.644  0.5835  0.5303 -1.1899
 8426SOL    HW236741   2.017   3.685   7.620 -1.8083 -0.7271  0.1664
 8427SOL     OW36742   3.779   0.370   5.563  0.4792  0.1182 -0.3980
 8427SOL    HW136743   3.800   0.461   5.587 -0.3012  0.8226 -2.3893
 8427SOL    HW236744   3.854   0.322   5.597  0.5824  1.1324  0.8191
 8428SOL     OW36745   2.248   3.489   5.511  0.2633 -0.0442 -0.8074
 8428SOL    HW136746   2.167   3.514   5.466 -0.9929  0.2992  1.6439
 8428SOL    HW236747   2.259   3.567   5.566 -0.5794 -1.0092  0.7436
 8429SOL     OW36748   1.129   0.203   7.134  0.1719 -0.7254  0.0676
 8429SOL    HW136749   1.126   0.298   7.145 -2.0951 -0.5432 -2.1210
 8429SOL    HW236750   1.040   0.187   7.164 -0.5446  1.6819 -0.7214
 8430SOL     OW36751   0.908   0.818   0.253 -0.5767  0.1004 -0.6608
 8430SOL    HW136752   0.877   0.806   0.164 -0.9785  0.5370 -0.5774
 8430SOL    HW236753   0.830   0.805   0.307  0.8152  0.7728  1.5183
 8431SOL     OW36754   1.781   2.935   4.127 -0.8432  0.0130  0.3862
 8431SOL    HW136755   1.848   2.994   4.093  1.0923 -1.9114  0.8084
 8431SOL    HW236756   1.834   2.855   4.122 -1.8797 -0.6013 -0.7053
 8432SOL     OW36757   2.175   0.772  17.594 -0.3319  0.5450  0.0485
 8432SOL    HW136758   2.154   0.695  17.541 -0.9742 -0.2313  1.4408
 8432SOL    HW236759   2.246   0.742  17.650 -0.0913 -0.9764 -1.0871
 8433SOL     OW36760   4.527   0.617   9.159 -0.8575 -0.3577 -0.0769
 8433SOL    HW136761   4.483   0.563   9.093 -1.9181  2.1419 -1.4099
 8433SOL    HW236762   4.477   0.586   9.235 -0.7818  2.3528  1.0682
 8434SOL     OW36763   3.675   4.610   3.420  0.4227  0.0099  0.4312
 8434SOL    HW136764   3.631   4.532   3.388 -0.2874  0.2756  0.7541
 8434SOL    HW236765   3.767   4.587   3.437 -0.3265 -3.4461 -0.4370
 8435SOL     OW36766   1.473   1.317  12.561 -0.0575 -0.2437 -0.4003
 8435SOL    HW136767   1.427   1.374  12.500  0.0831 -2.7996 -2.8799
 8435SOL    HW236768   1.563   1.348  12.565  0.1634 -1.3593  3.7247
 8436SOL     OW36769   3.702   1.168  11.886 -0.0790 -0.4138 -0.3582
 8436SOL    HW136770   3.748   1.117  11.953 -2.3835 -1.9139  0.0876
 8436SOL    HW236771   3.775   1.216  11.848  0.0552  0.6303  1.2114
 8437SOL     OW36772   2.073   3.217   7.073 -0.3464  0.1749 -0.3672
 8437SOL    HW136773   2.125   3.251   7.000 -2.1528 -1.9347 -2.6723
 8437SOL    HW236774   2.139   3.195   7.138 -0.4175 -1.6954 -0.9117
 8438SOL     OW36775   1.777   4.090  14.598  0.2867 -0.8372  0.3145
 8438SOL    HW136776   1.730   4.007  14.591  1.1643 -1.4154  1.2544
 8438SOL    HW236777   1.867   4.058  14.589 -0.4160 -2.8335  0.3728
 8439SOL     OW36778   2.419   1.759   2.253 -0.3833  0.2556  0.2465
 8439SOL    HW136779   2.345   1.729   2.199  0.4138 -0.8988 -0.1858
 8439SOL    HW236780   2.478   1.796   2.187 -0.9168 -0.8212 -0.8288
 8440SOL     OW36781   0.815   0.518   8.989  0.3205 -0.4005  0.0044
 8440SOL    HW136782   0.755   0.577   9.033  0.3973 -0.1595 -0.2145
 8440SOL    HW236783   0.858   0.478   9.064 -2.1244 -1.2306  0.9752
 8441SOL     OW36784   1.722   2.837   8.504 -0.3918 -0.4481 -0.5799
 8441SOL    HW136785   1.703   2.768   8.568 -0.4006 -0.3323 -0.4581
 8441SOL    HW236786   1.817   2.839   8.514 -0.3424 -0.3582 -1.0487
 8442SOL     OW36787   0.512   0.280   8.872  0.2606 -0.2074  0.0134
 8442SOL    HW136788   0.520   0.344   8.802  0.4475  2.6337  2.6049
 8442SOL    HW236789   0.564   0.204   8.847  1.7066  1.3314 -1.5986
 8443SOL     OW36790   0.866   3.411   5.712 -0.5192 -0.1466  0.1029
 8443SOL    HW136791   0.851   3.318   5.696  0.2115  0.0619 -1.8276
 8443SOL    HW236792   0.851   3.443   5.623  1.8427  1.2091  0.1951
 8444SOL     OW36793   3.569   3.700   7.913 -0.2054  0.6041  0.4947
 8444SOL    HW136794   3.609   3.628   7.864 -1.4643  1.6316 -2.0679
 8444SOL    HW236795   3.560   3.766   7.844  3.7278  0.4262 -0.2017
 8445SOL     OW36796   1.939   1.772  17.120  0.0873 -0.7844 -0.0834
 8445SOL    HW136797   1.899   1.733  17.043 -0.7065  0.2348 -0.1937
 8445SOL    HW236798   2.029   1.739  17.112  0.4326  0.2562 -0.5525
 8446SOL     OW36799   1.182   3.255   1.158 -0.0978 -0.0636 -0.1227
 8446SOL    HW136800   1.166   3.166   1.124  1.4975 -0.6153  0.5751
 8446SOL    HW236801   1.257   3.274   1.101  1.6221 -0.0119  2.1572
 8447SOL     OW36802   0.761   0.365  10.663 -0.0172 -0.0098  0.2836
 8447SOL    HW136803   0.666   0.359  10.671 -0.1096  1.0875 -0.0386
 8447SOL    HW236804   0.790   0.282  10.702  0.0218 -0.8450 -1.5165
 8448SOL     OW36805   0.054   3.487   6.276  0.1164  0.4251  0.4941
 8448SOL    HW136806   0.024   3.416   6.219 -0.3090 -0.2460  1.5314
 8448SOL    HW236807   0.070   3.440   6.359  2.0807 -1.1180 -0.7368
 8449SOL     OW36808   4.709   4.390  11.778  0.3529  0.2208 -0.2002
 8449SOL    HW136809   4.684   4.306  11.815 -0.5386  0.6448  0.1525
 8449SOL    HW236810   4.650   4.460  11.805  0.5445  0.9787 -1.7432
 8450SOL     OW36811   2.351   2.219   0.804  0.7727  0.2135  0.0715
 8450SOL    HW136812   2.396   2.256   0.880  1.2498  0.3566 -0.2840
 8450SOL    HW236813   2.394   2.250   0.724 -1.4549  0.4573 -1.0429
 8451SOL     OW36814   2.713   1.018   4.703 -0.6266 -0.0232  0.0765
 8451SOL    HW136815   2.742   1.090   4.646 -0.1121  0.2309  0.6563
 8451SOL    HW236816   2.779   1.022   4.773 -0.0978 -3.5218 -0.2501
 8452SOL     OW36817   2.515   0.730   5.044 -0.7914 -0.3762  0.1156
 8452SOL    HW136818   2.457   0.662   5.009 -0.1059 -0.5235 -0.7475
 8452SOL    HW236819   2.501   0.711   5.136 -0.4936 -3.7148 -0.5154
 8453SOL     OW36820   2.561   0.271   5.411  0.1526  0.9197 -0.3700
 8453SOL    HW136821   2.647   0.313   5.410 -0.3383  1.9439 -0.5448
 8453SOL    HW236822   2.559   0.249   5.504  0.1027  2.6868  0.0590
 8454SOL     OW36823   4.716   3.229   9.748  0.0279  0.1679  0.4724
 8454SOL    HW136824   0.039   3.152   9.772  0.3009 -0.0378 -0.8045
 8454SOL    HW236825   0.038   3.294   9.798  0.4387 -0.3910  0.7762
 8455SOL     OW36826   4.668   3.324   2.348 -0.8262  0.1235  0.2116
 8455SOL    HW136827   4.670   3.249   2.288  0.0734  0.5150 -0.2364
 8455SOL    HW236828   0.009   3.382   2.317  0.5243 -1.2559  0.6716
 8456SOL     OW36829   3.994   3.629   6.665  0.3729  0.5125  0.3921
 8456SOL    HW136830   3.964   3.575   6.738 -2.6648  0.8192 -0.6087
 8456SOL    HW236831   3.918   3.620   6.607 -0.7418 -0.4111  1.9733
 8457SOL     OW36832   3.549   1.003   9.187 -0.3328  0.4745 -0.2045
 8457SOL    HW136833   3.503   1.040   9.111  1.1172 -0.0331 -1.3200
 8457SOL    HW236834   3.527   1.054   9.265  1.1413  0.1830  0.3929
 8458SOL     OW36835   2.657   4.486  12.172  0.7968 -0.0034 -0.0691
 8458SOL    HW136836   2.707   4.435  12.236  1.1129  1.9737  1.2474
 8458SOL    HW236837   2.570   4.483  12.210  0.2674 -1.1277 -1.3379
 8459SOL     OW36838   2.805   0.189   3.918 -0.0620 -0.2596 -0.5352
 8459SOL    HW136839   2.793   0.095   3.904 -1.0586 -0.4595  1.6572
 8459SOL    HW236840   2.801   0.192   4.014  2.0511 -0.3573 -0.4449
 8460SOL     OW36841   1.647   3.487   7.028  0.1090 -0.2138 -0.3082
 8460SOL    HW136842   1.654   3.569   7.077 -2.0897 -0.9923  1.2944
 8460SOL    HW236843   1.571   3.510   6.974  0.3793  0.2111 -0.5112
 8461SOL     OW36844   4.660   1.443   4.900 -0.5345 -0.1981 -0.1698
 8461SOL    HW136845   4.659   1.359   4.853  1.3505  0.5633 -1.5654
 8461SOL    HW236846   4.692   1.499   4.830 -0.7466  0.2051  0.0567
 8462SOL     OW36847   2.759   3.896  13.028 -0.9685  0.0267  0.0908
 8462SOL    HW136848   2.744   3.833  12.958  2.0543  0.2036 -0.6984
 8462SOL    HW236849   2.821   3.851  13.085  0.3152 -1.5074 -2.5259
 8463SOL     OW36850   4.583   4.152   5.555 -0.0690 -0.1753 -0.3539
 8463SOL    HW136851   4.613   4.102   5.480 -1.2284 -3.5220  1.4333
 8463SOL    HW236852   4.509   4.198   5.516  1.2664  0.9941 -1.4822
 8464SOL     OW36853   0.055   0.571   7.310  0.7711 -0.0028 -0.0631
 8464SOL    HW136854   0.037   0.625   7.387  2.1054  0.3338  0.0258
 8464SOL    HW236855   4.719   0.501   7.317  2.0781 -1.0467  1.9884
 8465SOL     OW36856   3.713   0.273   5.315  0.4101 -0.2375 -0.0977
 8465SOL    HW136857   3.725   0.298   5.406  0.2951  0.5716 -0.3104
 8465SOL    HW236858   3.662   0.347   5.283  1.7178  0.3070 -0.9332
 8466SOL     OW36859   3.042   0.968  17.332  0.2745  0.5391 -0.0543
 8466SOL    HW136860   3.036   1.061  17.313 -0.2575  0.5444  0.1452
 8466SOL    HW236861   2.957   0.936  17.300  0.3649  2.2845 -2.0529
 8467SOL     OW36862   3.516   0.686  14.939  0.1154 -0.3728  0.6421
 8467SOL    HW136863   3.432   0.689  14.894  0.0132  1.2986  0.9678
 8467SOL    HW236864   3.505   0.601  14.982 -2.5379  0.5284  1.7506
 8468SOL     OW36865   2.989   2.535   3.926 -0.0696 -0.3451 -0.3016
 8468SOL    HW136866   2.964   2.585   4.004 -0.4942 -0.0054 -0.6591
 8468SOL    HW236867   3.062   2.582   3.885 -0.5660  1.5284  0.9404
 8469SOL     OW36868   3.135   2.968   2.163 -0.6642 -0.5727 -0.2384
 8469SOL    HW136869   3.063   3.025   2.137 -0.6733 -0.9883 -1.1331
 8469SOL    HW236870   3.151   2.983   2.256  0.1017 -1.2003 -0.2652
 8470SOL     OW36871   1.784   0.913   4.859  0.2291  0.1728 -0.2776
 8470SOL    HW136872   1.697   0.937   4.891 -0.1501 -1.8811  0.2316
 8470SOL    HW236873   1.765   0.826   4.823  0.6480 -0.0660  0.0795
 8471SOL     OW36874   0.883   2.073   4.429  0.9946 -0.3601 -0.0130
 8471SOL    HW136875   0.893   2.137   4.499  1.4867 -0.3082 -0.1274
 8471SOL    HW236876   0.975   2.052   4.413  1.1510  0.2997  0.0415
 8472SOL     OW36877   0.560   1.661   6.904 -0.5932 -0.6142  0.2863
 8472SOL    HW136878   0.530   1.746   6.872  1.5409  0.7096  1.7693
 8472SOL    HW236879   0.560   1.686   6.997 -2.6565 -0.3204  0.2010
 8473SOL     OW36880   3.918   0.292   2.952  0.1501 -0.3528  0.8728
 8473SOL    HW136881   3.939   0.257   2.866 -0.2893 -1.0095  1.0290
 8473SOL    HW236882   3.999   0.266   2.996  1.7214  2.5866 -0.2916
 8474SOL     OW36883   0.976   0.213   4.817 -0.1384 -1.0723  0.0894
 8474SOL    HW136884   0.883   0.211   4.837 -0.0899  0.0135  0.4455
 8474SOL    HW236885   1.001   0.136   4.766 -0.2876  0.3358 -2.0873
 8475SOL     OW36886   0.151   2.958  15.204  0.0022 -0.2339 -0.1177
 8475SOL    HW136887   0.239   2.925  15.220 -0.6260 -1.2756  1.1270
 8475SOL    HW236888   0.146   3.019  15.277 -0.3370  0.7739 -0.9710
 8476SOL     OW36889   4.417   2.446  10.711  0.0617 -0.0844 -0.0205
 8476SOL    HW136890   4.433   2.373  10.771  0.3179 -1.8722 -2.2874
 8476SOL    HW236891   4.346   2.410  10.658  1.4822 -1.3711 -1.0227
 8477SOL     OW36892   4.548   2.311   7.194  0.0824 -0.5411 -0.7081
 8477SOL    HW136893   4.631   2.275   7.224  1.4299  0.3652 -3.2859
 8477SOL    HW236894   4.578   2.371   7.125  0.4913 -0.7704 -0.7277
 8478SOL     OW36895   2.237   0.810   3.333 -0.1387 -0.0867 -0.4267
 8478SOL    HW136896   2.245   0.847   3.245 -0.1920 -0.5892 -0.6445
 8478SOL    HW236897   2.301   0.862   3.382 -1.5648 -0.8358  2.2135
 8479SOL     OW36898   2.898   3.387   7.392 -0.1415 -0.2079 -0.3258
 8479SOL    HW136899   2.918   3.299   7.423 -0.2240 -0.4847 -1.0607
 8479SOL    HW236900   2.933   3.436   7.467 -0.8079  1.3715 -1.0653
 8480SOL     OW36901   3.449   0.498   4.238 -0.6627 -0.1545  0.4693
 8480SOL    HW136902   3.541   0.524   4.241 -0.7750  0.1691  1.1504
 8480SOL    HW236903   3.419   0.561   4.173  0.3439 -1.5434 -1.3243
 8481SOL     OW36904   1.702   2.741   3.409 -0.5188 -0.4242 -0.0139
 8481SOL    HW136905   1.713   2.719   3.502  1.1051 -0.9164 -0.3230
 8481SOL    HW236906   1.714   2.836   3.409  1.1111 -0.6379 -2.5740
 8482SOL     OW36907   1.381   1.138   3.437 -0.1356  0.7403 -0.3583
 8482SOL    HW136908   1.450   1.205   3.429  1.1347 -0.4027  0.9094
 8482SOL    HW236909   1.299   1.185   3.423 -0.6140 -0.8038 -2.6631
 8483SOL     OW36910   1.396   2.593   2.403  0.2653 -0.0801 -0.1762
 8483SOL    HW136911   1.360   2.591   2.491 -1.9782  1.7324 -1.0592
 8483SOL    HW236912   1.355   2.675   2.375 -0.9332 -0.8240 -0.6139
 8484SOL     OW36913   2.710   1.588   3.764  0.2354 -0.1592 -0.4080
 8484SOL    HW136914   2.727   1.549   3.850  0.4450  1.5049  0.3020
 8484SOL    HW236915   2.801   1.589   3.734  0.2539  1.8025 -0.3126
 8485SOL     OW36916   2.699   0.242   6.921  0.0966  0.2559 -0.0080
 8485SOL    HW136917   2.707   0.278   6.833 -1.3845 -0.5284 -0.4657
 8485SOL    HW236918   2.639   0.303   6.964  1.1172 -0.8784  3.0615
 8486SOL     OW36919   1.066   3.914  11.507  0.2681  0.4537 -0.0280
 8486SOL    HW136920   1.068   3.958  11.591  1.6928 -1.3258  0.8705
 8486SOL    HW236921   1.118   3.837  11.530  2.1455  1.2828 -1.5433
 8487SOL     OW36922   3.370   2.167   5.856  0.0554 -0.1573 -0.0114
 8487SOL    HW136923   3.455   2.163   5.900 -0.6331 -0.6322  1.2908
 8487SOL    HW236924   3.319   2.112   5.916 -0.0216  0.7444  0.7616
 8488SOL     OW36925   4.070   0.216   7.187  0.1002 -0.6513  0.3596
 8488SOL    HW136926   4.087   0.307   7.212 -2.2638 -0.6480  1.9896
 8488SOL    HW236927   4.153   0.167   7.193  0.6308  0.1381 -0.6472
 8489SOL     OW36928   4.672   0.254   5.249  0.1087  0.3191  0.0280
 8489SOL    HW136929   4.659   0.338   5.204  3.0642  0.2322 -0.9244
 8489SOL    HW236930   0.003   0.281   5.319  1.6739 -1.1889 -0.7417
 8490SOL     OW36931   0.555   4.007  12.489 -0.0549  0.5554  0.6458
 8490SOL    HW136932   0.513   4.068  12.549 -2.1013  0.0834 -0.3035
 8490SOL    HW236933   0.528   4.038  12.402  1.9207  0.6690  0.0690
 8491SOL     OW36934   0.859   3.015   6.075 -0.1575  0.3250 -0.6186
 8491SOL    HW136935   0.807   3.056   6.006  0.0565  1.1351 -0.2953
 8491SOL    HW236936   0.867   2.927   6.039  1.2148  1.1441 -2.3205
 8492SOL     OW36937   4.080   0.235   9.338  0.5009  0.2308 -0.1944
 8492SOL    HW136938   4.050   0.295   9.270 -0.7336 -1.1529 -0.8694
 8492SOL    HW236939   4.025   0.163   9.307  0.0918  0.4311  0.0739
 8493SOL     OW36940   4.281   0.528  12.202  0.1744  0.3045 -0.2661
 8493SOL    HW136941   4.216   0.543  12.133 -1.3390  0.6447  1.2244
 8493SOL    HW236942   4.338   0.604  12.194  1.4090 -0.5785  0.0698
 8494SOL     OW36943   4.148   0.029   9.054  0.3919 -0.0944  0.3683
 8494SOL    HW136944   4.223   0.088   9.047 -0.7462  1.5356  1.8612
 8494SOL    HW236945   4.181   4.680   9.009  2.3673  0.7082  0.4479
 8495SOL     OW36946   0.214   2.767   2.829  0.1513  0.7907 -0.2307
 8495SOL    HW136947   0.232   2.848   2.876 -0.3810  0.3953  0.6449
 8495SOL    HW236948   0.129   2.754   2.871 -0.3297 -0.1057 -1.4860
 8496SOL     OW36949   0.573   0.458  12.213 -0.2163  0.1000 -0.3729
 8496SOL    HW136950   0.516   0.494  12.280  1.2966  0.2994  0.8180
 8496SOL    HW236951   0.570   0.366  12.241  0.5261  0.5947  1.3135
 8497SOL     OW36952   0.492   1.316   6.871 -0.0420  0.1264 -0.0556
 8497SOL    HW136953   0.478   1.379   6.942 -2.1051 -0.5980  0.1799
 8497SOL    HW236954   0.510   1.231   6.913  4.2568  2.0825  2.0633
 8498SOL     OW36955   4.603   3.482   0.054  0.1433 -0.0808  0.6679
 8498SOL    HW136956   4.540   3.488   0.126 -0.5649  2.6175 -0.1849
 8498SOL    HW236957   4.660   3.553   0.084  1.1192 -0.0629 -1.2257
 8499SOL     OW36958   3.903   0.880  11.852 -0.6105 -0.7292 -0.2704
 8499SOL    HW136959   3.997   0.861  11.861 -0.5329 -0.6900 -0.9648
 8499SOL    HW236960   3.886   0.918  11.938 -0.8233 -2.2598  0.3528
 8500SOL     OW36961   3.799   0.106   7.803  0.1887 -0.3792  0.4611
 8500SOL    HW136962   3.821   0.186   7.755  0.0314  0.3109  1.5357
 8500SOL    HW236963   3.864   0.119   7.872 -0.1198  0.6798  0.5574
 8501SOL     OW36964   1.293   0.919   8.742  0.0476 -0.1271 -0.0004
 8501SOL    HW136965   1.386   0.905   8.760 -0.4963 -0.7172  2.3830
 8501SOL    HW236966   1.257   0.840   8.783  0.7428  0.0622  0.9593
 8502SOL     OW36967   0.750   2.837   2.586  0.0872  0.4533  0.7885
 8502SOL    HW136968   0.663   2.817   2.621 -0.0047 -0.4990  0.0201
 8502SOL    HW236969   0.766   2.756   2.537  0.3972 -0.0913  1.7873
 8503SOL     OW36970   3.507   3.645   4.933  0.1705 -0.3970 -0.5616
 8503SOL    HW136971   3.548   3.578   4.989  0.1817 -1.4503 -1.8174
 8503SOL    HW236972   3.589   3.684   4.901  0.6974  0.4155  1.8268
 8504SOL     OW36973   1.814   0.878  13.899 -0.1006  0.7426  0.4120
 8504SOL    HW136974   1.787   0.955  13.949 -1.3770  1.8546 -2.0029
 8504SOL    HW236975   1.858   0.923  13.827 -0.1279  1.7328  1.0043
 8505SOL     OW36976   0.879   3.483   8.022 -0.2318 -0.2313  0.4259
 8505SOL    HW136977   0.954   3.454   7.970  1.3995  3.6808  0.5662
 8505SOL    HW236978   0.925   3.560   8.056 -0.9336  0.2473  0.2919
 8506SOL     OW36979   0.857   1.473   8.562  0.1456  0.1413 -0.3804
 8506SOL    HW136980   0.829   1.528   8.636  0.8921 -1.2164  0.9282
 8506SOL    HW236981   0.834   1.392   8.606  1.7671  0.1687  0.5390
 8507SOL     OW36982   0.500   2.164   6.501  0.5819 -0.0562 -0.6684
 8507SOL    HW136983   0.594   2.152   6.483  0.8756 -0.6047  1.1776
 8507SOL    HW236984   0.500   2.208   6.586 -1.6429 -0.6120 -0.3895
 8508SOL     OW36985   2.355   1.588   4.525  0.2677 -0.2424 -0.2333
 8508SOL    HW136986   2.433   1.537   4.502 -0.2780 -0.5167 -1.4265
 8508SOL    HW236987   2.326   1.554   4.609 -0.0481  1.6750  0.4371
 8509SOL     OW36988   4.401   3.090   2.894 -0.0545 -0.2910 -0.0539
 8509SOL    HW136989   4.343   3.129   2.959 -0.7328  0.1357 -0.9167
 8509SOL    HW236990   4.384   3.132   2.809  2.6990  1.2461  0.1427
 8510SOL     OW36991   3.270   1.492   7.300  0.0753 -0.2988 -0.3670
 8510SOL    HW136992   3.273   1.398   7.282 -1.8462 -0.7766  1.8066
 8510SOL    HW236993   3.357   1.496   7.339 -0.6307  0.8958  1.0838
 8511SOL     OW36994   2.465   1.849   7.344 -0.6472 -0.2316 -0.0036
 8511SOL    HW136995   2.558   1.833   7.356 -1.0352 -1.5119  1.3333
 8511SOL    HW236996   2.451   1.772   7.287 -0.9447  1.1116 -1.7487
 8512SOL     OW36997   3.809   3.585   0.096  0.0818 -0.1623 -0.2437
 8512SOL    HW136998   3.893   3.624   0.121  0.8668 -1.9638 -0.0425
 8512SOL    HW236999   3.747   3.611   0.164 -0.6968  2.9102 -2.1877
 8513SOL     OW37000   0.173   1.579  15.391 -0.4624 -0.3178  0.0440
 8513SOL    HW137001   0.092   1.581  15.341  1.0610  0.9292 -2.3693
 8513SOL    HW237002   0.229   1.542  15.323  2.1222  0.0966  1.9458
 8514SOL     OW37003   0.803   4.059   7.329 -0.6292 -0.9559 -0.6732
 8514SOL    HW137004   0.848   4.083   7.411 -1.5664 -0.4959 -0.2956
 8514SOL    HW237005   0.722   4.110   7.334 -0.3884 -0.3284 -3.3837
 8515SOL     OW37006   2.559   2.863  10.194  0.0414 -0.2303  0.2562
 8515SOL    HW137007   2.565   2.787  10.136  0.0318 -0.5480  0.6686
 8515SOL    HW237008   2.647   2.900  10.197 -0.8916  1.7732  2.7549
 8516SOL     OW37009   3.711   0.603   3.548 -0.1366  0.4683 -0.1999
 8516SOL    HW137010   3.747   0.522   3.584  1.4418  0.8733 -0.8641
 8516SOL    HW237011   3.775   0.664   3.586  0.4899 -1.1136  1.2725
 8517SOL     OW37012   1.978   2.075  14.914  0.0516 -0.3104  0.1620
 8517SOL    HW137013   1.907   2.027  14.957  1.6032 -0.9499  1.9975
 8517SOL    HW237014   1.964   2.042  14.825  0.2924  2.8233 -1.0412
 8518SOL     OW37015   2.849   2.971  10.130 -0.3196  0.0407 -0.5741
 8518SOL    HW137016   2.818   3.003  10.046 -1.1677 -0.5023 -0.4640
 8518SOL    HW237017   2.907   2.900  10.102 -0.6506 -0.3184 -0.3487
 8519SOL     OW37018   1.645   1.065   9.960 -0.2479 -0.0399 -0.5726
 8519SOL    HW137019   1.619   1.041  10.049  1.9525 -1.5117 -0.3302
 8519SOL    HW237020   1.728   1.113   9.962 -0.5221  0.5076 -2.0614
 8520SOL     OW37021   0.139   2.396   3.228 -0.2589  0.3160 -0.6641
 8520SOL    HW137022   0.050   2.362   3.240  0.0203 -0.5781 -1.0511
 8520SOL    HW237023   0.126   2.490   3.217  1.4411  0.6772  0.4170
 8521SOL     OW37024   2.941   4.394   3.783  0.1220  0.4051  0.0975
 8521SOL    HW137025   2.976   4.440   3.706 -0.2750  1.2896  0.4403
 8521SOL    HW237026   2.876   4.334   3.749  2.0707 -0.5766 -1.8834
 8522SOL     OW37027   3.324   2.104   0.369  0.2663  0.5329  0.5853
 8522SOL    HW137028   3.288   2.141   0.288 -0.8506  0.8689  1.2435
 8522SOL    HW237029   3.298   2.150   0.448 -2.1038  1.1150 -0.5269
 8523SOL     OW37030   0.977   1.233   5.628  0.4696  0.2705 -0.2653
 8523SOL    HW137031   1.048   1.298   5.625  0.1555  0.5873 -0.8189
 8523SOL    HW237032   0.909   1.297   5.651 -0.6773 -1.1723  0.3387
 8524SOL     OW37033   0.066   3.804   2.439 -0.2553  0.1796 -0.1308
 8524SOL    HW137034   0.055   3.887   2.486 -0.2197  0.5078 -0.6960
 8524SOL    HW237035   4.706   3.793   2.405  0.0634 -0.5584 -0.7223
 8525SOL     OW37036   4.607   1.347   9.078 -0.2162 -0.5057 -0.2503
 8525SOL    HW137037   4.520   1.363   9.114 -0.7009 -0.3597 -1.5144
 8525SOL    HW237038   4.657   1.425   9.101  0.6748 -0.5003 -2.2121
 8526SOL     OW37039   4.021   2.847   2.755 -0.2980  0.3538  0.1143
 8526SOL    HW137040   3.986   2.932   2.729 -2.1419 -0.8810 -1.4910
 8526SOL    HW237041   3.990   2.806   2.675 -0.1812 -0.0290  0.2628
 8527SOL     OW37042   3.328   2.629  12.784  0.4375  0.0990  0.3839
 8527SOL    HW137043   3.383   2.649  12.859  0.1525 -0.3054  0.6964
 8527SOL    HW237044   3.372   2.694  12.729  1.0377 -1.3960 -0.8810
 8528SOL     OW37045   3.633   3.383   3.603  0.2765 -0.1614 -0.2289
 8528SOL    HW137046   3.546   3.344   3.615  0.0055  0.8686  1.1738
 8528SOL    HW237047   3.632   3.433   3.522 -1.4469  2.7514  1.5982
 8529SOL     OW37048   1.176   3.134  14.631  0.0597  0.3070 -0.3393
 8529SOL    HW137049   1.201   3.187  14.707 -0.6127  0.0339  0.0721
 8529SOL    HW237050   1.210   3.183  14.556  0.3553 -0.7232 -0.8768
 8530SOL     OW37051   0.621   1.323   1.691  0.0630 -0.7858  0.3709
 8530SOL    HW137052   0.624   1.237   1.648  0.6711  1.2916 -3.7775
 8530SOL    HW237053   0.526   1.326   1.693  0.0616 -0.1393 -0.6015
 8531SOL     OW37054   3.734   1.026   3.519  0.4082  0.2553 -0.5108
 8531SOL    HW137055   3.642   1.001   3.522  0.5514 -0.2525 -0.3565
 8531SOL    HW237056   3.727   1.106   3.467  1.7586  0.0473 -1.0189
 8532SOL     OW37057   4.216   3.717  16.372  0.1690  0.2265 -0.6113
 8532SOL    HW137058   4.274   3.645  16.397  0.2897  0.2346 -0.8575
 8532SOL    HW237059   4.189   3.679  16.288 -1.8499  0.0336  0.1380
 8533SOL     OW37060   3.941   2.352   4.148 -0.2261 -1.0946  0.6060
 8533SOL    HW137061   3.952   2.318   4.236 -3.3585 -0.3222  1.3015
 8533SOL    HW237062   3.880   2.423   4.170  2.1603  1.0503  0.2703
 8534SOL     OW37063   4.124   1.252   2.918 -0.2233  0.1914  0.2042
 8534SOL    HW137064   4.056   1.292   2.863  0.9619  0.8436 -0.7973
 8534SOL    HW237065   4.179   1.330   2.927  0.3354  0.0609 -1.9420
 8535SOL     OW37066   1.815   1.079  11.299  0.0198 -0.3971 -0.0541
 8535SOL    HW137067   1.909   1.095  11.301 -0.0255 -0.1598  0.2048
 8535SOL    HW237068   1.789   1.169  11.317 -2.1059 -1.0416  0.1136
 8536SOL     OW37069   2.218   4.547  10.235 -0.4875  0.2515 -0.1206
 8536SOL    HW137070   2.252   4.510  10.153  1.2364 -1.5576  1.4152
 8536SOL    HW237071   2.299   4.564  10.284 -0.4571  0.9332 -0.3954
 8537SOL     OW37072   0.524   2.867   6.243 -0.5756  0.7000  0.2361
 8537SOL    HW137073   0.447   2.851   6.189 -0.3378  2.1258 -0.5336
 8537SOL    HW237074   0.513   2.955   6.277 -2.6169  1.3240 -2.0188
 8538SOL     OW37075   4.609   1.464   1.408 -0.3049 -0.2334 -0.0355
 8538SOL    HW137076   4.580   1.392   1.463  2.2124  0.9753  2.9150
 8538SOL    HW237077   4.555   1.536   1.442  0.4582  1.4699 -2.4558
 8539SOL     OW37078   0.167   1.578   9.691  0.3110  0.2901  0.0859
 8539SOL    HW137079   0.180   1.484   9.706  1.4982  0.6551  1.3756
 8539SOL    HW237080   0.191   1.610   9.778  1.1730  0.9161 -0.3833
 8540SOL     OW37081   4.170   1.425   7.918 -0.1397 -0.3668  0.0252
 8540SOL    HW137082   4.240   1.452   7.978 -1.5655 -3.4412  3.0384
 8540SOL    HW237083   4.094   1.481   7.934 -2.5157 -2.9888 -2.1057
 8541SOL     OW37084   0.056   1.159  12.796  0.5695 -0.2551 -0.1812
 8541SOL    HW137085   0.106   1.240  12.798 -1.7046  1.1193  0.6251
 8541SOL    HW237086   4.721   1.185  12.862  1.8443  1.2458  0.4576
 8542SOL     OW37087   1.497   4.596   3.088  0.5087  0.3372 -0.2212
 8542SOL    HW137088   1.528   4.687   3.093 -3.0657  1.4235  2.1952
 8542SOL    HW237089   1.459   4.602   3.176  0.0788 -2.0938 -0.2460
 8543SOL     OW37090   4.033   3.241  15.916 -0.4368  0.4007 -0.1254
 8543SOL    HW137091   4.073   3.260  15.831  1.1819  1.3194  0.8519
 8543SOL    HW237092   4.108   3.264  15.971  0.1898  1.3617 -1.3806
 8544SOL     OW37093   4.407   0.365   6.035 -0.1787 -0.9212  0.4572
 8544SOL    HW137094   4.434   0.274   6.022  1.5342 -0.5624  1.4110
 8544SOL    HW237095   4.467   0.394   6.104  0.9320 -3.1205  0.3965
 8545SOL     OW37096   3.657   0.580   4.721 -0.5346 -0.2995 -0.1927
 8545SOL    HW137097   3.627   0.532   4.798 -1.2495 -0.2457 -0.4431
 8545SOL    HW237098   3.574   0.617   4.691 -0.6004  0.2603  0.6674
 8546SOL     OW37099   1.341   4.642   7.926  0.1436 -0.0963 -0.2347
 8546SOL    HW137100   1.315   4.708   7.861 -2.2002 -0.2208  0.5520
 8546SOL    HW237101   1.264   4.648   7.983  0.7122 -4.3184  0.9339
 8547SOL     OW37102   2.828   3.170  10.949 -0.1529 -0.3242  0.4171
 8547SOL    HW137103   2.915   3.163  10.910 -0.5494  0.7848 -0.6738
 8547SOL    HW237104   2.782   3.143  10.870  0.7033 -2.5771  0.6936
 8548SOL     OW37105   3.841   1.936  12.136 -0.0438 -0.4033  0.0035
 8548SOL    HW137106   3.891   1.868  12.179  1.1172 -0.7557 -1.8843
 8548SOL    HW237107   3.857   2.012  12.191 -1.3696 -1.2655  1.5591
 8549SOL     OW37108   1.657   2.597   2.954  0.3109 -0.3619  0.2212
 8549SOL    HW137109   1.570   2.621   2.987  0.1470  0.1799 -0.5805
 8549SOL    HW237110   1.665   2.643   2.870  0.2169 -2.9491 -1.2334
 8550SOL     OW37111   1.847   1.708   3.917 -0.0042 -0.3144 -0.0630
 8550SOL    HW137112   1.874   1.635   3.973  1.9896 -0.7243 -1.5301
 8550SOL    HW237113   1.909   1.702   3.844  0.0306  2.3165 -0.2610
 8551SOL     OW37114   3.472   3.660  14.505  0.1918  0.1613  0.3807
 8551SOL    HW137115   3.457   3.565  14.503 -0.1857  0.2385 -0.4676
 8551SOL    HW237116   3.566   3.659  14.483  0.1730 -2.2240  0.3562
 8552SOL     OW37117   0.421   3.465   5.918  0.0954  0.4834  0.3827
 8552SOL    HW137118   0.386   3.548   5.885  1.0793  1.1541  1.0371
 8552SOL    HW237119   0.461   3.439   5.834 -0.8455  0.9867 -0.2244
 8553SOL     OW37120   3.037   3.542   4.771 -0.2819 -0.2954  0.3309
 8553SOL    HW137121   3.116   3.590   4.792  1.2021 -1.4755 -2.4475
 8553SOL    HW237122   3.035   3.474   4.839 -0.2999  0.8390  1.4574
 8554SOL     OW37123   2.207   1.334   9.051 -0.5532 -0.2427  0.0092
 8554SOL    HW137124   2.243   1.281   9.122  0.8027  2.2511  1.1999
 8554SOL    HW237125   2.162   1.274   8.992 -1.8781 -0.6420  1.4331
 8555SOL     OW37126   0.896   0.206   5.215  0.0549  0.5290  0.5296
 8555SOL    HW137127   0.862   0.287   5.175  0.0216  0.3931  0.2822
 8555SOL    HW237128   0.990   0.202   5.200 -0.2565  0.5456 -1.4187
 8556SOL     OW37129   0.615   3.883   8.769 -0.3583 -0.1718  0.0751
 8556SOL    HW137130   0.671   3.953   8.735 -0.0546  0.6608  2.2956
 8556SOL    HW237131   0.684   3.818   8.784  0.6268  0.2295 -2.7490
 8557SOL     OW37132   1.946   4.164   1.824 -0.0606  0.0729  0.2592
 8557SOL    HW137133   1.982   4.125   1.904  4.4008 -0.1761 -1.8439
 8557SOL    HW237134   2.016   4.136   1.764 -0.2532  0.4019 -0.1192
 8558SOL     OW37135   2.460   0.837   5.596 -1.1509  0.0325 -0.8546
 8558SOL    HW137136   2.404   0.818   5.671 -0.6108 -0.7044 -0.6430
 8558SOL    HW237137   2.527   0.896   5.631 -0.3383 -1.7693  0.6117
 8559SOL     OW37138   2.810   2.764  13.528 -0.3129  0.3740  0.0010
 8559SOL    HW137139   2.732   2.713  13.549 -0.5654  1.0840  0.7850
 8559SOL    HW237140   2.826   2.764  13.434  0.6923  0.4830  0.1730
 8560SOL     OW37141   1.466   1.188  10.567  0.0289 -0.5676 -0.1457
 8560SOL    HW137142   1.541   1.178  10.627 -0.5512 -0.9986  0.5101
 8560SOL    HW237143   1.429   1.264  10.611 -0.1582 -1.1877  0.7784
 8561SOL     OW37144   0.461   3.927   3.850 -0.3733 -0.4800 -0.1420
 8561SOL    HW137145   0.380   3.898   3.809 -1.3611 -1.4970  2.5077
 8561SOL    HW237146   0.495   3.846   3.888  1.4887  0.9461  1.2424
 8562SOL     OW37147   0.578   0.404   4.451  0.0070 -0.3132  0.0299
 8562SOL    HW137148   0.500   0.453   4.478 -0.9177 -0.3316 -2.5883
 8562SOL    HW237149   0.642   0.399   4.522  2.8570  0.0602 -2.4890
 8563SOL     OW37150   1.097   2.132   7.264 -0.4633  0.4041  0.1243
 8563SOL    HW137151   1.017   2.084   7.243 -1.8100  1.7693  2.0995
 8563SOL    HW237152   1.127   2.151   7.175 -2.6677  2.1269 -0.2260
 8564SOL     OW37153   0.406   2.358   2.752 -0.0765  0.3736  0.0991
 8564SOL    HW137154   0.332   2.322   2.702 -0.8491  2.9230 -0.5650
 8564SOL    HW237155   0.365   2.432   2.797  1.2941  1.0328  0.2552
 8565SOL     OW37156   1.626   0.230   1.678  0.1936  0.0021  0.2982
 8565SOL    HW137157   1.573   0.233   1.758 -0.7899 -1.0307 -0.3115
 8565SOL    HW237158   1.695   0.293   1.697 -0.7138  0.2679  2.6229
 8566SOL     OW37159   3.476   2.508  10.252 -0.2192 -0.5309  0.3611
 8566SOL    HW137160   3.490   2.538  10.162  1.0414  0.4260  0.8799
 8566SOL    HW237161   3.441   2.582  10.302  2.6333  1.5650 -0.6929
 8567SOL     OW37162   4.348   3.041   1.196  0.1304  0.2650  0.6730
 8567SOL    HW137163   4.294   3.003   1.266  0.3918 -0.5451  0.4345
 8567SOL    HW237164   4.425   2.985   1.200 -0.2419 -0.3857 -1.2559
 8568SOL     OW37165   4.231   2.306  10.199 -0.5282 -0.3118  0.0840
 8568SOL    HW137166   4.235   2.256  10.118  3.6939  1.2772 -0.7186
 8568SOL    HW237167   4.255   2.236  10.260  0.7989  0.7037  0.7314
 8569SOL     OW37168   4.163   2.010   8.216  0.1159  0.0152  0.6034
 8569SOL    HW137169   4.109   1.934   8.236 -1.4597  0.8689 -0.4352
 8569SOL    HW237170   4.190   2.047   8.301 -1.1101  1.4751  0.3665
 8570SOL     OW37171   2.473   0.432  15.396 -0.3935  0.7807 -0.3451
 8570SOL    HW137172   2.395   0.381  15.419  0.2841 -0.8459 -1.5861
 8570SOL    HW237173   2.540   0.363  15.394 -0.9407  0.2348  0.1477
 8571SOL     OW37174   0.096   0.340   2.406 -0.4149  0.1062  0.1032
 8571SOL    HW137175   0.173   0.390   2.434  1.3480 -3.2114  1.2224
 8571SOL    HW237176   0.115   0.256   2.448 -0.7886  1.4679  3.0322
 8572SOL     OW37177   3.643   3.212   5.806 -0.0218  0.3416  0.4481
 8572SOL    HW137178   3.556   3.242   5.833 -1.1439  1.3573 -4.3413
 8572SOL    HW237179   3.685   3.216   5.892  0.8271  0.1251  0.0438
 8573SOL     OW37180   2.863   2.784  15.236 -0.4278 -1.2908  0.2431
 8573SOL    HW137181   2.786   2.793  15.292 -1.0240 -1.1116 -0.6002
 8573SOL    HW237182   2.833   2.704  15.193  1.4717 -2.1390  0.4919
 8574SOL     OW37183   2.675   1.805   5.441 -0.5578 -0.2368  0.1464
 8574SOL    HW137184   2.662   1.785   5.534 -1.7330 -0.0283  0.0284
 8574SOL    HW237185   2.650   1.897   5.427  0.1601 -0.2780 -1.4021
 8575SOL     OW37186   1.828   0.415   3.584 -0.0808  0.5045  0.2466
 8575SOL    HW137187   1.891   0.478   3.547  1.2448 -1.0682 -0.1822
 8575SOL    HW237188   1.784   0.473   3.646 -0.7661  0.5779 -0.3114
 8576SOL     OW37189   4.719   2.422   0.895  0.3166  0.1859  0.2918
 8576SOL    HW137190   0.023   2.380   0.816  0.9152  0.0991  0.5810
 8576SOL    HW237191   0.018   2.356   0.959 -1.3352 -1.0069 -0.2267
 8577SOL     OW37192   2.908   0.903   6.819 -0.0214 -0.7944  0.0969
 8577SOL    HW137193   2.903   0.966   6.891 -0.5925 -1.2897  0.4850
 8577SOL    HW237194   2.846   0.950   6.763  0.2723 -1.1683 -0.5421
 8578SOL     OW37195   0.954   4.525   2.020 -0.2129 -0.0128  0.2719
 8578SOL    HW137196   0.979   4.509   1.929 -0.6343 -0.3234  0.2126
 8578SOL    HW237197   0.934   4.433   2.036  0.5285 -0.3639 -0.8106
 8579SOL     OW37198   1.144   2.011   7.883  0.1597  0.3817  0.2469
 8579SOL    HW137199   1.170   2.050   7.967  1.4675  3.3803 -1.5559
 8579SOL    HW237200   1.177   1.923   7.904 -0.5202 -0.3218 -1.6505
 8580SOL     OW37201   1.704   0.519   1.370  0.1812  0.4990  0.0395
 8580SOL    HW137202   1.622   0.475   1.394  1.2445 -2.6408 -2.0792
 8580SOL    HW237203   1.705   0.487   1.280 -0.7470  0.6778 -0.0411
 8581SOL     OW37204   3.750   3.519   5.620  0.0534  0.3289  0.7830
 8581SOL    HW137205   3.702   3.572   5.684  1.7415  0.2646  2.0843
 8581SOL    HW237206   3.840   3.526   5.650  0.0440 -1.0931  1.1284
 8582SOL     OW37207   4.262   4.726   8.374 -0.5782 -0.3451  0.0864
 8582SOL    HW137208   4.292   0.027   8.460  0.7779 -2.2239  0.2654
 8582SOL    HW237209   4.215   0.076   8.345  0.3896  0.4156  0.5996
 8583SOL     OW37210   1.361   1.477  14.775  0.1158 -0.3099 -0.9886
 8583SOL    HW137211   1.273   1.489  14.810  1.7502  1.8948  2.4256
 8583SOL    HW237212   1.350   1.502  14.683  1.5872 -0.4737 -1.2156
 8584SOL     OW37213   3.580   4.236   8.453 -0.0987  0.1399  0.1301
 8584SOL    HW137214   3.641   4.194   8.513  1.6092  1.2118 -0.8717
 8584SOL    HW237215   3.578   4.329   8.472 -0.3592  0.0145  0.7289
 8585SOL     OW37216   4.628   4.195  11.974  0.5478 -0.2413  0.1480
 8585SOL    HW137217   4.696   4.225  12.034  1.0728  1.9647 -1.5376
 8585SOL    HW237218   4.559   4.174  12.037  0.6792 -0.7826  0.1165
 8586SOL     OW37219   4.697   3.805   5.129  0.3032 -0.0327  0.0907
 8586SOL    HW137220   4.690   3.754   5.047  2.0280  2.1379 -1.4155
 8586SOL    HW237221   0.029   3.873   5.099  0.0909 -1.1051 -2.8702
 8587SOL     OW37222   0.980   2.559   3.738 -0.5889  0.1525 -1.1623
 8587SOL    HW137223   1.010   2.499   3.669  1.1336  1.9198 -1.9256
 8587SOL    HW237224   1.062   2.562   3.787 -0.9314  4.3204 -0.8656
 8588SOL     OW37225   0.133   2.756   6.342 -0.4528 -0.0234  0.1630
 8588SOL    HW137226   0.091   2.670   6.339 -3.6736  1.6435 -1.9916
 8588SOL    HW237227   0.070   2.814   6.299  0.1832  0.2947 -0.3317
 8589SOL     OW37228   2.641   2.654   4.749 -0.2239 -0.1891 -0.2352
 8589SOL    HW137229   2.612   2.719   4.814 -0.8339 -0.5072 -0.1876
 8589SOL    HW237230   2.705   2.706   4.701  0.7330 -0.8970  0.2771
 8590SOL     OW37231   2.576   3.718  15.969 -0.2058  0.1254  0.4834
 8590SOL    HW137232   2.553   3.640  16.021  2.4976 -0.7886  0.3042
 8590SOL    HW237233   2.669   3.717  15.989 -0.3849  1.4013  1.3842
 8591SOL     OW37234   3.615   1.258   7.644  0.2253 -0.0175  0.4920
 8591SOL    HW137235   3.545   1.232   7.584 -0.8024 -0.7162  1.9931
 8591SOL    HW237236   3.638   1.182   7.696  1.0903 -0.4186 -0.4623
 8592SOL     OW37237   3.172   2.953  11.298 -0.4164  0.2601 -0.3211
 8592SOL    HW137238   3.229   2.947  11.375  0.2736  0.4733 -0.8156
 8592SOL    HW237239   3.106   2.891  11.327 -0.0797  0.3425  0.6279
 8593SOL     OW37240   3.001   3.917   8.072 -0.1088 -0.5143 -0.0084
 8593SOL    HW137241   2.999   3.991   8.132 -1.6542 -0.2750 -0.3425
 8593SOL    HW237242   3.005   3.964   7.989  1.9641 -0.2036  0.2839
 8594SOL     OW37243   0.261   2.836   4.754  0.3941  0.1332  0.5508
 8594SOL    HW137244   0.352   2.809   4.761  1.3036  3.4864  1.4133
 8594SOL    HW237245   0.248   2.845   4.659 -4.0908  0.6449  1.1923
 8595SOL     OW37246   3.428   0.932  13.850  0.3326  0.0806 -0.3140
 8595SOL    HW137247   3.499   0.971  13.901  0.7404 -0.1414 -0.7144
 8595SOL    HW237248   3.473   0.890  13.777 -0.6518 -0.7483 -0.4432
 8596SOL     OW37249   3.235   0.173   9.560 -0.5690 -0.6865 -0.1261
 8596SOL    HW137250   3.253   0.261   9.527  2.0094 -0.3658  2.1425
 8596SOL    HW237251   3.141   0.174   9.578 -0.6301 -0.8905 -0.4415
 8597SOL     OW37252   3.796   1.353   7.269  0.3690  0.7741  0.5554
 8597SOL    HW137253   3.882   1.377   7.235  0.7188  1.2330  1.7840
 8597SOL    HW237254   3.827   1.283   7.326 -1.8212 -1.4487 -0.9450
 8598SOL     OW37255   3.570   3.867   1.612  0.0459 -0.3615 -0.6935
 8598SOL    HW137256   3.498   3.805   1.620  0.9186 -1.3957 -0.9221
 8598SOL    HW237257   3.529   3.950   1.637  0.3912 -0.0704 -1.0978
 8599SOL     OW37258   2.410   1.903  15.590  0.0973  0.0283  0.0898
 8599SOL    HW137259   2.496   1.923  15.553 -0.0269  1.0137  0.3206
 8599SOL    HW237260   2.357   1.888  15.511 -1.5440  1.6556  0.8750
 8600SOL     OW37261   1.811   3.102  16.475 -0.0674  0.1641 -0.1071
 8600SOL    HW137262   1.801   3.094  16.380 -0.1777 -1.2479  0.0271
 8600SOL    HW237263   1.903   3.125  16.466 -0.1747  0.2229 -1.0686
 8601SOL     OW37264   1.579   1.799   6.450 -0.3140  0.3337 -0.2191
 8601SOL    HW137265   1.632   1.837   6.520  0.1699 -2.0991  0.7437
 8601SOL    HW237266   1.544   1.720   6.490  0.2556  0.6133  0.8413
 8602SOL     OW37267   4.638   4.695   7.372 -0.3170  0.3509 -0.2051
 8602SOL    HW137268   4.715   0.015   7.402 -0.3713 -0.4276  1.1733
 8602SOL    HW237269   4.670   4.664   7.287 -0.6014 -0.8683  0.1351
 8603SOL     OW37270   2.175   4.428  12.311  0.0941 -0.0594  0.6609
 8603SOL    HW137271   2.143   4.388  12.230  3.7092  1.3713 -1.4458
 8603SOL    HW237272   2.139   4.516  12.295 -0.7217 -0.2882  1.2404
 8604SOL     OW37273   1.576   2.250  17.350  0.0620  0.1545 -0.1699
 8604SOL    HW137274   1.637   2.177  17.335  1.3593  1.3085 -0.5371
 8604SOL    HW237275   1.504   2.236  17.289  0.3283 -0.9003 -0.2358
 8605SOL     OW37276   4.373   2.264  11.985 -0.6996 -0.2311  0.3371
 8605SOL    HW137277   4.317   2.224  11.919  0.2744  2.3162 -2.0142
 8605SOL    HW237278   4.356   2.206  12.060 -1.3489 -0.6167 -0.1144
 8606SOL     OW37279   2.240   1.308   6.065 -0.4718 -0.2826  0.1828
 8606SOL    HW137280   2.158   1.357   6.056  0.4180  1.3067  0.9116
 8606SOL    HW237281   2.238   1.282   6.157  1.0334  1.8695  0.8308
 8607SOL     OW37282   0.306   3.673   1.020 -0.1272  0.4763 -0.0372
 8607SOL    HW137283   0.337   3.696   0.932 -1.8318  2.2074 -0.1903
 8607SOL    HW237284   0.368   3.608   1.053 -0.6893  0.6504  1.3433
 8608SOL     OW37285   2.141   3.008   6.067  0.0984  0.1329 -0.1171
 8608SOL    HW137286   2.119   2.986   6.157 -1.8504 -0.4744 -0.7451
 8608SOL    HW237287   2.208   3.074   6.086 -1.2067  1.9318 -1.8079
 8609SOL     OW37288   2.994   0.611   5.330  0.4959  0.0488 -0.1735
 8609SOL    HW137289   3.004   0.583   5.239 -1.2079  0.5620 -0.5147
 8609SOL    HW237290   2.943   0.692   5.323  1.3300  0.5114 -0.9484
 8610SOL     OW37291   2.351   3.015   1.332  0.7647  0.6218  0.4552
 8610SOL    HW137292   2.260   3.001   1.307  0.9671 -0.8258  0.5350
 8610SOL    HW237293   2.395   2.937   1.298  1.3606  0.0773  2.5073
 8611SOL     OW37294   2.630   3.744   4.323 -0.3722 -0.1657 -0.2450
 8611SOL    HW137295   2.541   3.723   4.351 -0.2537 -0.0192  0.2547
 8611SOL    HW237296   2.607   3.826   4.279  0.4168 -0.2934 -0.8965
 8612SOL     OW37297   0.154   2.206  12.013 -0.5380  0.2210  0.1353
 8612SOL    HW137298   0.084   2.270  12.003 -0.3864  0.3732  0.0398
 8612SOL    HW237299   0.201   2.233  11.934  0.5599  0.4572  0.8701
 8613SOL     OW37300   0.811   1.556   1.643 -0.1751 -0.2729  0.3291
 8613SOL    HW137301   0.779   1.577   1.731 -1.2518 -0.7490  0.0401
 8613SOL    HW237302   0.790   1.463   1.649  0.3375 -0.2834  2.2171
 8614SOL     OW37303   4.142   3.929   0.518  0.2087  0.4284 -1.1415
 8614SOL    HW137304   4.104   3.870   0.582  0.8646  1.8586  0.5592
 8614SOL    HW237305   4.140   3.865   0.447  1.7163  0.9688 -1.6846
 8615SOL     OW37306   4.619   3.609   4.939 -0.0224  0.1495  0.5765
 8615SOL    HW137307   4.531   3.573   4.949  0.3709 -0.7173  0.9074
 8615SOL    HW237308   4.638   3.574   4.852  0.6754  0.6304  0.5322
 8616SOL     OW37309   0.518   1.033   6.976 -0.4175  0.3986  0.4096
 8616SOL    HW137310   0.607   1.038   7.010 -0.6303  0.7861  0.9073
 8616SOL    HW237311   0.469   1.013   7.056 -0.6441 -0.3058  0.1003
 8617SOL     OW37312   2.543   4.379  11.927 -0.1645  0.1370  0.3716
 8617SOL    HW137313   2.530   4.430  11.847 -2.1038 -0.3510  0.3924
 8617SOL    HW237314   2.573   4.446  11.989  1.9112  1.5323 -2.1028
 8618SOL     OW37315   2.609   4.488   4.014  0.0708 -0.1674 -0.6381
 8618SOL    HW137316   2.589   4.398   4.038  0.6110 -0.6051 -1.8846
 8618SOL    HW237317   2.704   4.481   4.017  0.2047  1.8050 -0.0035
 8619SOL     OW37318   3.096   4.151  11.296 -0.5429 -0.0542  0.0729
 8619SOL    HW137319   3.176   4.161  11.244 -0.4494  1.1837  0.4607
 8619SOL    HW237320   3.068   4.242  11.294 -0.5689 -0.0926 -1.3950
 8620SOL     OW37321   2.022   1.988   3.310 -0.2474 -0.4777  0.1533
 8620SOL    HW137322   1.991   2.012   3.223  0.4037  3.0332  0.9011
 8620SOL    HW237323   2.069   2.066   3.341  0.5360 -0.9053  0.0585
 8621SOL     OW37324   4.327   1.336   1.330 -0.0705  0.0844  0.1896
 8621SOL    HW137325   4.356   1.384   1.408 -1.1909 -3.6364  2.9167
 8621SOL    HW237326   4.243   1.380   1.319 -1.5608 -2.8768 -0.3425
 8622SOL     OW37327   3.394   4.139   8.718 -0.0036 -0.6011  0.1591
 8622SOL    HW137328   3.383   4.229   8.690  1.2247 -0.2178  0.9069
 8622SOL    HW237329   3.464   4.111   8.658  0.8049  0.0887  0.7798
 8623SOL     OW37330   1.318   0.386   8.847  0.5569  0.3885  0.7085
 8623SOL    HW137331   1.284   0.306   8.807 -0.4891  1.2142 -0.0500
 8623SOL    HW237332   1.359   0.349   8.925 -1.2002  1.3773  2.0852
 8624SOL     OW37333   4.405   2.893  16.408  0.3942  0.4424 -0.7774
 8624SOL    HW137334   4.329   2.897  16.466 -0.3931  1.3881 -1.8742
 8624SOL    HW237335   4.471   2.897  16.476  0.2105 -2.6766 -0.4110
 8625SOL     OW37336   1.816   0.251   7.361  0.2235  0.4576 -0.0828
 8625SOL    HW137337   1.891   0.274   7.306  1.6064 -2.9382  0.3445
 8625SOL    HW237338   1.803   0.161   7.331 -0.4347  1.5443 -3.0191
 8626SOL     OW37339   1.916   3.760  15.492  0.2663 -0.3618  0.0179
 8626SOL    HW137340   1.887   3.843  15.454 -1.9350 -2.1814 -2.3239
 8626SOL    HW237341   1.843   3.741  15.552  0.2787 -2.7419 -0.7200
 8627SOL     OW37342   3.396   3.312  14.099 -0.1574 -0.3839 -0.4498
 8627SOL    HW137343   3.425   3.288  14.011  0.8454  0.5751 -0.3911
 8627SOL    HW237344   3.472   3.362  14.129  0.0501 -1.7903  1.3738
 8628SOL     OW37345   3.362   2.208   2.835 -0.0568 -0.4494 -0.3957
 8628SOL    HW137346   3.413   2.169   2.764 -0.9759 -1.0004 -0.7544
 8628SOL    HW237347   3.274   2.185   2.804 -0.2314  0.2488 -0.4135
 8629SOL     OW37348   0.733   2.147   9.186 -0.2885 -0.0459  0.8169
 8629SOL    HW137349   0.746   2.180   9.275  0.4976 -2.2550  1.5272
 8629SOL    HW237350   0.693   2.066   9.217  0.3573  0.2045  2.3088
 8630SOL     OW37351   4.454   4.354   7.958 -0.5905 -0.1923  0.7421
 8630SOL    HW137352   4.426   4.278   7.907 -0.4663 -1.0867  1.9985
 8630SOL    HW237353   4.370   4.401   7.963  0.2339  1.2981  0.4929
 8631SOL     OW37354   1.104   1.224   9.656  0.0519  0.1742  0.1575
 8631SOL    HW137355   1.157   1.197   9.730 -0.3881 -2.5981 -0.5564
 8631SOL    HW237356   1.174   1.266   9.606  0.2222 -1.8114 -1.2492
 8632SOL     OW37357   4.618   0.301   4.775  0.0474  0.4620  0.2354
 8632SOL    HW137358   4.654   0.334   4.857 -0.0854  0.4302  0.3057
 8632SOL    HW237359   4.697   0.305   4.721  0.0369  1.2175  0.2741
 8633SOL     OW37360   2.985   1.677   2.025 -0.3605 -0.0000 -0.4477
 8633SOL    HW137361   3.031   1.669   1.942  2.0024  2.7545  0.5822
 8633SOL    HW237362   3.037   1.616   2.076  0.8586  0.6486 -0.9247
 8634SOL     OW37363   3.945   1.595   7.897 -0.6870  0.0707  0.1674
 8634SOL    HW137364   3.894   1.542   7.836 -1.5614 -0.5582  1.4353
 8634SOL    HW237365   3.888   1.672   7.896 -1.8286 -0.7414  1.7740
 8635SOL     OW37366   2.745   0.905  14.475  0.0752 -0.4465  0.2526
 8635SOL    HW137367   2.753   0.929  14.382 -1.5772  1.0833  0.5060
 8635SOL    HW237368   2.754   0.810  14.483  1.4390 -0.0327  3.3899
 8636SOL     OW37369   1.119   0.561   8.369  0.1591  0.2201  0.2655
 8636SOL    HW137370   1.186   0.623   8.341 -0.0448 -0.6686 -2.2456
 8636SOL    HW237371   1.081   0.607   8.444  1.0505 -0.0172  0.8541
 8637SOL     OW37372   3.269   2.319   8.972 -0.2796  0.6620  0.1024
 8637SOL    HW137373   3.181   2.291   8.997 -0.3159 -2.0014 -3.0715
 8637SOL    HW237374   3.308   2.345   9.056 -3.0115 -2.3888  2.3450
 8638SOL     OW37375   2.658   1.642  17.468  0.0846 -0.1671  0.1316
 8638SOL    HW137376   2.572   1.650  17.429  0.9274  0.1492 -1.6433
 8638SOL    HW237377   2.643   1.583  17.542 -2.4045 -0.0210 -0.2569
 8639SOL     OW37378   4.313   3.586   8.636  0.5307  0.0433  0.1422
 8639SOL    HW137379   4.219   3.573   8.653  0.7513 -3.9621 -1.6924
 8639SOL    HW237380   4.335   3.634   8.716  0.8753 -0.0412  0.0955
 8640SOL     OW37381   0.129   0.228   0.417  0.6629 -0.2888  0.6081
 8640SOL    HW137382   0.115   0.134   0.429  1.0662 -0.7333 -2.2958
 8640SOL    HW237383   0.118   0.244   0.323 -2.0541  0.2709  0.9981
 8641SOL     OW37384   0.757   2.632   3.467 -0.1475 -0.0324 -0.6983
 8641SOL    HW137385   0.767   2.589   3.552  3.5878 -1.7080 -1.9478
 8641SOL    HW237386   0.848   2.660   3.457  0.2418 -0.9655  0.2438
 8642SOL     OW37387   0.486   2.811   2.680 -0.3583 -0.5409  0.1070
 8642SOL    HW137388   0.410   2.767   2.720 -1.3318  0.1761 -0.9440
 8642SOL    HW237389   0.443   2.883   2.635  0.1435 -1.7174 -2.2675
 8643SOL     OW37390   0.635   1.154   3.562  0.2225 -0.2331 -0.4813
 8643SOL    HW137391   0.642   1.249   3.569 -2.1567 -0.0808 -0.0807
 8643SOL    HW237392   0.677   1.144   3.648 -0.8342  1.2933  0.2208
 8644SOL     OW37393   1.112   4.459   3.895  0.2045  0.0104  0.3187
 8644SOL    HW137394   1.147   4.454   3.984 -2.4589 -1.5372  1.2710
 8644SOL    HW237395   1.151   4.542   3.867 -2.4283  1.2995  0.4602
 8645SOL     OW37396   2.406   2.514  10.903  0.0495 -0.1238  0.2855
 8645SOL    HW137397   2.423   2.456  10.978 -1.4699 -0.7379  0.1459
 8645SOL    HW237398   2.364   2.451  10.844 -0.3250  2.1911 -1.9071
 8646SOL     OW37399   4.144   2.730  14.994 -0.0186 -0.0661  0.5675
 8646SOL    HW137400   4.197   2.651  15.010 -0.6563 -0.6885 -0.3678
 8646SOL    HW237401   4.109   2.744  15.082  0.8023  1.5853  0.6138
 8647SOL     OW37402   1.400   3.982   6.128  0.0167 -0.0457 -0.3802
 8647SOL    HW137403   1.305   3.975   6.136  0.0244  2.1684  1.8038
 8647SOL    HW237404   1.400   4.073   6.099 -1.4277 -0.0112 -0.2649
 8648SOL     OW37405   4.528   2.625   8.364 -0.5990  0.5999 -0.4901
 8648SOL    HW137406   4.537   2.625   8.460 -0.8470 -0.1105 -0.4666
 8648SOL    HW237407   4.593   2.560   8.336 -1.8972  0.4650 -3.1132
 8649SOL     OW37408   1.571   1.499   1.798  0.1046  0.2642 -0.0684
 8649SOL    HW137409   1.638   1.546   1.749  1.7758 -0.2707  1.7008
 8649SOL    HW237410   1.619   1.419   1.821  0.5035  1.1555  2.1561
 8650SOL     OW37411   3.049   0.698  15.212  0.0599 -0.0013 -0.6653
 8650SOL    HW137412   2.996   0.696  15.133  1.2167  1.0072 -1.4823
 8650SOL    HW237413   3.063   0.605  15.230  1.4020  0.1456 -0.9269
 8651SOL     OW37414   2.607   0.998   4.240  0.1023  0.0543  0.6865
 8651SOL    HW137415   2.639   0.952   4.162 -1.7702  0.2376 -0.1900
 8651SOL    HW237416   2.557   1.069   4.200  2.3784  1.9557  1.2025
 8652SOL     OW37417   0.505   1.569  16.301  0.1064 -0.7695 -0.1153
 8652SOL    HW137418   0.494   1.487  16.254  1.8261 -1.0216 -0.0879
 8652SOL    HW237419   0.535   1.536  16.386 -1.4870 -1.2590  0.2535
 8653SOL     OW37420   2.979   2.911   1.833  0.3184 -0.6140 -0.0950
 8653SOL    HW137421   2.994   2.836   1.891 -3.3655 -0.0667  1.5634
 8653SOL    HW237422   3.059   2.962   1.843  1.1525 -1.5965 -1.7891
 8654SOL     OW37423   4.152   2.521   6.499 -0.1026  0.1833 -0.2658
 8654SOL    HW137424   4.213   2.558   6.436 -0.6805  1.9198  0.1774
 8654SOL    HW237425   4.221   2.486   6.556 -0.4591  0.1494  0.1479
 8655SOL     OW37426   0.039   1.261   6.951  0.1774 -0.1223 -0.7020
 8655SOL    HW137427   0.021   1.351   6.978  0.3143 -0.5731  0.8472
 8655SOL    HW237428   0.063   1.270   6.858 -2.2718 -2.9404 -1.6044
 8656SOL     OW37429   2.654   1.671   6.977 -0.0779  0.5421  0.6520
 8656SOL    HW137430   2.654   1.709   6.890 -0.4456 -3.9757 -1.3068
 8656SOL    HW237431   2.733   1.707   7.017  0.4316  1.8695 -1.5579
 8657SOL     OW37432   2.876   2.016   2.889  0.4091  0.2280 -0.5068
 8657SOL    HW137433   2.816   1.952   2.850 -1.2012  1.8612 -0.6881
 8657SOL    HW237434   2.839   2.009   2.977  2.1597 -1.7713  0.0789
 8658SOL     OW37435   2.498   3.621   2.998  0.1312 -0.1829  0.1560
 8658SOL    HW137436   2.408   3.599   3.022  1.2125 -1.3070  3.0901
 8658SOL    HW237437   2.520   3.564   2.924 -0.4503  0.0084 -0.1700
 8659SOL     OW37438   3.878   2.189   0.083 -0.1592  0.3324 -0.4922
 8659SOL    HW137439   3.946   2.163   0.020  0.4575  1.1990 -0.1762
 8659SOL    HW237440   3.916   2.150   0.162 -2.0278 -1.0246 -0.2581
 8660SOL     OW37441   1.102   3.360   6.907  0.3045 -0.6376 -1.1932
 8660SOL    HW137442   1.040   3.288   6.901 -0.6604  0.0337  0.5933
 8660SOL    HW237443   1.060   3.419   6.844  0.1679  0.8329  0.2607
 8661SOL     OW37444   2.364   3.024   4.870 -0.2811  0.1497 -0.5446
 8661SOL    HW137445   2.384   2.998   4.780 -1.4418  0.3217 -0.8541
 8661SOL    HW237446   2.341   3.116   4.857 -0.9547  0.0556  0.0086
 8662SOL     OW37447   1.758   2.162   3.592  0.7040  0.1490 -0.6382
 8662SOL    HW137448   1.744   2.068   3.584 -1.6773  0.3325  1.3150
 8662SOL    HW237449   1.824   2.173   3.524 -0.2970  0.3692 -1.5755
 8663SOL     OW37450   2.627   3.650  11.699  0.1915 -0.3637  0.4915
 8663SOL    HW137451   2.626   3.743  11.721 -1.5936 -0.5414  1.1142
 8663SOL    HW237452   2.623   3.660  11.603 -1.3091  1.7201  0.7557
 8664SOL     OW37453   3.396   4.172   0.387  0.1530 -0.0667 -0.1539
 8664SOL    HW137454   3.483   4.197   0.354 -0.8627  1.9200 -1.3691
 8664SOL    HW237455   3.391   4.086   0.346 -0.3197  0.3916 -1.0693
 8665SOL     OW37456   1.438   2.612   5.521 -0.1398  0.4065  0.1877
 8665SOL    HW137457   1.451   2.648   5.609 -2.4113  0.6094  0.4346
 8665SOL    HW237458   1.520   2.646   5.487  0.3516  0.9252  1.8914
 8666SOL     OW37459   1.586   0.315   4.716 -0.5050  0.4108 -0.3898
 8666SOL    HW137460   1.676   0.302   4.688 -0.2133 -1.3113  1.3450
 8666SOL    HW237461   1.579   0.409   4.698 -1.0086  0.0723 -1.9125
 8667SOL     OW37462   1.666   1.177   4.591 -0.0417 -0.2981  0.2027
 8667SOL    HW137463   1.617   1.252   4.560 -1.2342 -1.1792 -0.0384
 8667SOL    HW237464   1.611   1.110   4.549  0.7780 -0.1848 -1.0848
 8668SOL     OW37465   3.793   4.566   6.725 -0.7455 -0.0593 -0.1424
 8668SOL    HW137466   3.878   4.544   6.688 -1.4715  0.3775 -2.0449
 8668SOL    HW237467   3.780   4.482   6.768 -1.6382  0.2550  0.2109
 8669SOL     OW37468   1.744   1.970   0.641 -0.0649 -0.5465 -0.2284
 8669SOL    HW137469   1.709   2.042   0.694 -0.3463  1.8756 -3.7015
 8669SOL    HW237470   1.839   1.975   0.641 -0.1163  0.3756  0.4610
 8670SOL     OW37471   3.554   2.311   6.921 -0.4237  0.2494  0.0209
 8670SOL    HW137472   3.505   2.293   7.001  0.6488 -0.2392  0.5589
 8670SOL    HW237473   3.533   2.228   6.878  1.2821  0.6905 -1.7025
 8671SOL     OW37474   1.163   2.454   5.637  0.2516  0.5811 -0.1543
 8671SOL    HW137475   1.187   2.492   5.721 -1.2912 -0.8968  0.9463
 8671SOL    HW237476   1.068   2.455   5.643  0.1543  1.8583 -1.9035
 8672SOL     OW37477   1.209   1.581   0.641 -0.2267  1.1218 -0.0543
 8672SOL    HW137478   1.135   1.539   0.686  1.4221  1.4540  2.9149
 8672SOL    HW237479   1.198   1.675   0.657 -0.1989  1.2119 -0.5738
 8673SOL     OW37480   0.941   2.765   2.914 -0.5218 -0.4748  0.0790
 8673SOL    HW137481   0.862   2.721   2.882 -0.4662 -0.1647 -0.4988
 8673SOL    HW237482   0.908   2.855   2.908  0.2641 -0.2438 -0.7637
 8674SOL     OW37483   0.582   0.181  12.190 -0.4238 -0.2137  0.0058
 8674SOL    HW137484   0.489   0.167  12.211  0.0083 -1.0442  1.3709
 8674SOL    HW237485   0.587   0.113  12.123 -0.3774 -0.8106  0.6157
 8675SOL     OW37486   2.671   4.374  17.488  0.3893 -0.0605 -0.4994
 8675SOL    HW137487   2.748   4.421  17.455  0.1043  2.3472  2.2373
 8675SOL    HW237488   2.602   4.424  17.444 -1.5326 -0.8367  1.7020
 8676SOL     OW37489   0.954   2.805  10.669  0.0862 -0.6330 -0.6292
 8676SOL    HW137490   0.934   2.835  10.580 -2.5350  1.0864  0.5173
 8676SOL    HW237491   0.910   2.876  10.717  1.4885  0.1885 -0.5574
 8677SOL     OW37492   2.945   2.710   7.685 -0.3993  0.7117  0.2131
 8677SOL    HW137493   2.860   2.678   7.655  0.0178  0.1498 -0.3905
 8677SOL    HW237494   2.993   2.627   7.696 -1.5100 -0.3845 -3.0846
 8678SOL     OW37495   2.430   3.944   8.766 -0.3979 -0.7719  0.3582
 8678SOL    HW137496   2.506   3.886   8.774  0.2641 -0.1727 -1.5612
 8678SOL    HW237497   2.389   3.918   8.683  0.4381  0.7166 -0.5232
 8679SOL     OW37498   1.706   2.808   0.397 -0.1676 -0.3355  0.5271
 8679SOL    HW137499   1.679   2.872   0.332 -0.7970  0.7393  1.8587
 8679SOL    HW237500   1.660   2.734   0.357 -1.8543  0.7183  0.5022
 8680SOL     OW37501   2.981   4.586  10.317  0.5530  0.5534  0.0520
 8680SOL    HW137502   2.996   4.543  10.233  0.1446 -0.1018  0.3158
 8680SOL    HW237503   3.055   4.556  10.371  0.0749  2.1196  1.5778
 8681SOL     OW37504   2.314   0.977   1.553 -0.4038  0.7136 -0.1618
 8681SOL    HW137505   2.368   0.966   1.475 -0.1176 -0.6822  0.2386
 8681SOL    HW237506   2.331   0.900   1.607  1.7635  0.6930 -0.8759
 8682SOL     OW37507   0.462   4.413   5.136  0.4336 -0.2626 -0.0860
 8682SOL    HW137508   0.525   4.479   5.105  1.5161 -0.9912  0.5618
 8682SOL    HW237509   0.398   4.464   5.184  0.8812  0.9195 -0.7436
 8683SOL     OW37510   0.321   2.907   7.428 -0.3383  0.1459 -0.1641
 8683SOL    HW137511   0.388   2.840   7.442  0.0743  0.6777  0.4220
 8683SOL    HW237512   0.279   2.906   7.513  0.5737  3.0948  0.3173
 8684SOL     OW37513   3.644   3.726   0.292  0.1008 -0.1793 -0.2185
 8684SOL    HW137514   3.682   3.813   0.295 -0.2326  0.0429 -2.4545
 8684SOL    HW237515   3.682   3.687   0.371 -2.3109  0.6509  1.3795
 8685SOL     OW37516   2.411   4.068   7.031  0.3571  0.0420 -0.1371
 8685SOL    HW137517   2.498   4.091   7.063  0.5383  1.7581 -1.8965
 8685SOL    HW237518   2.363   4.135   7.079  0.0491  1.6233 -2.6249
 8686SOL     OW37519   2.822   3.706   9.889 -0.4015 -0.0378  0.3991
 8686SOL    HW137520   2.863   3.620   9.897  0.4404  0.3121 -0.1647
 8686SOL    HW237521   2.844   3.753   9.969  1.3069 -0.3349  0.1088
 8687SOL     OW37522   3.193   1.267   2.576  0.2600 -0.2497 -0.3422
 8687SOL    HW137523   3.134   1.339   2.602  2.2069  1.4496 -0.6391
 8687SOL    HW237524   3.171   1.199   2.640 -2.4442  0.2143 -0.7708
 8688SOL     OW37525   2.125   3.365   5.829 -0.5660 -0.0461 -0.7104
 8688SOL    HW137526   2.042   3.382   5.786 -0.0184  2.5729 -0.7031
 8688SOL    HW237527   2.170   3.450   5.835 -1.3688  0.4615 -2.1052
 8689SOL     OW37528   1.657   1.744  17.249 -0.0677 -0.4618  0.2334
 8689SOL    HW137529   1.703   1.725  17.167  0.0771 -0.6244  0.3527
 8689SOL    HW237530   1.598   1.814  17.219  0.1851 -0.7238 -0.8641
 8690SOL     OW37531   2.030   4.325   3.046 -0.3607 -0.0068  0.1739
 8690SOL    HW137532   2.095   4.395   3.035 -1.2564  0.6238 -1.2072
 8690SOL    HW237533   1.982   4.377   3.110  0.9585  1.4034  0.0359
 8691SOL     OW37534   3.097   1.072   9.043 -0.0885  0.4086  0.0065
 8691SOL    HW137535   3.140   0.988   9.025  1.3925  1.3023 -0.6377
 8691SOL    HW237536   3.163   1.107   9.103  0.1270 -0.0873  0.0584
 8692SOL     OW37537   2.473   1.110   7.899  0.1782 -0.2454 -0.4957
 8692SOL    HW137538   2.557   1.149   7.874  1.1319 -2.6189 -0.9621
 8692SOL    HW237539   2.477   1.024   7.858  2.6508 -0.9404  1.1825
 8693SOL     OW37540   0.465   2.983  11.737 -0.2639 -0.5465 -0.1371
 8693SOL    HW137541   0.530   2.916  11.759  0.6504  0.9078  1.5664
 8693SOL    HW237542   0.475   3.001  11.643  1.5021 -0.5187  0.0570
 8694SOL     OW37543   0.492   0.150   6.834 -0.2568 -0.2396 -0.4025
 8694SOL    HW137544   0.404   0.171   6.865 -0.1632  0.5258 -0.6601
 8694SOL    HW237545   0.548   0.218   6.873  0.6237 -0.3877 -1.4082
 8695SOL     OW37546   4.070   2.425   3.920  0.0904 -0.3979 -0.1358
 8695SOL    HW137547   4.007   2.387   3.858  2.0243 -0.7065 -1.9079
 8695SOL    HW237548   4.023   2.405   4.001 -0.3535  0.6964 -0.1214
 8696SOL     OW37549   1.416   3.650  11.428  0.3130 -0.5505 -0.2098
 8696SOL    HW137550   1.368   3.701  11.363  2.8245  0.7293 -1.0720
 8696SOL    HW237551   1.468   3.583  11.384  2.1343  1.9809 -1.9124
 8697SOL     OW37552   1.413   0.646   0.644  1.2028 -0.6503  0.2822
 8697SOL    HW137553   1.468   0.645   0.565 -0.4592 -2.7917 -0.8500
 8697SOL    HW237554   1.467   0.695   0.705 -0.1036  1.5439 -0.3069
 8698SOL     OW37555   1.475   1.901   9.590  0.1758  0.1307  0.5265
 8698SOL    HW137556   1.436   1.954   9.521 -2.5478 -3.0219 -0.3420
 8698SOL    HW237557   1.559   1.947   9.596  0.0386  0.5135 -0.5070
 8699SOL     OW37558   1.158   0.986  11.504  0.0928 -0.7316 -0.4379
 8699SOL    HW137559   1.236   0.998  11.558 -0.1528  2.3048 -0.7673
 8699SOL    HW237560   1.204   0.970  11.421 -0.5290 -1.1644 -0.7010
 8700SOL     OW37561   3.638   3.279   1.728 -0.0046  0.2487 -0.4610
 8700SOL    HW137562   3.554   3.326   1.735  1.1893  2.1152  1.1895
 8700SOL    HW237563   3.629   3.208   1.792 -2.9537  0.4783 -0.6124
 8701SOL     OW37564   2.208   3.502  12.265 -0.1516  0.0628 -0.3374
 8701SOL    HW137565   2.208   3.412  12.235 -0.2028 -0.2996  0.7473
 8701SOL    HW237566   2.127   3.533  12.224 -0.3136 -1.8817 -1.4624
 8702SOL     OW37567   1.802   1.509   5.636  0.2188 -0.6322  0.1909
 8702SOL    HW137568   1.887   1.467   5.639  0.2426 -0.5023  1.2300
 8702SOL    HW237569   1.787   1.528   5.729 -2.3391  1.1676 -0.5808
 8703SOL     OW37570   2.586   1.119   7.317 -0.0102  0.2207  0.2275
 8703SOL    HW137571   2.610   1.064   7.391 -1.0173  1.3758  1.4081
 8703SOL    HW237572   2.497   1.152   7.331  0.1110  0.8969 -0.5884
 8704SOL     OW37573   4.537   4.532   5.660 -0.3149  0.0016  0.1703
 8704SOL    HW137574   4.550   4.475   5.736  0.4974 -0.0156  0.0112
 8704SOL    HW237575   4.507   4.616   5.696  1.2481  0.6449 -0.0618
 8705SOL     OW37576   1.515   2.627  17.399 -0.0850 -0.2872  0.7324
 8705SOL    HW137577   1.531   2.653  17.308  0.1543  0.0906  0.8792
 8705SOL    HW237578   1.603   2.616  17.437  0.9065 -0.5512 -1.6677
 8706SOL     OW37579   4.357   4.306   6.309  0.5948 -0.7301  0.8038
 8706SOL    HW137580   4.444   4.288   6.273 -0.5915 -0.8311 -1.9624
 8706SOL    HW237581   4.305   4.234   6.272  2.7440 -1.0822 -1.4775
 8707SOL     OW37582   0.783   1.312   6.405 -0.1271  0.1468 -0.0109
 8707SOL    HW137583   0.715   1.367   6.445 -0.7205 -0.7811  0.2611
 8707SOL    HW237584   0.822   1.378   6.347  0.5428  0.9525  1.3776
 8708SOL     OW37585   1.864   2.136   5.815 -0.1323 -0.5010  0.4467
 8708SOL    HW137586   1.865   2.077   5.740  1.5913  1.4628 -1.0726
 8708SOL    HW237587   1.806   2.207   5.788 -0.2848 -0.7026  0.2474
 8709SOL     OW37588   4.434   2.807   5.070 -0.4016  0.0341  0.0808
 8709SOL    HW137589   4.481   2.859   5.136 -1.7527 -1.1597  1.9899
 8709SOL    HW237590   4.502   2.774   5.012  1.0598  0.7344  1.3785
 8710SOL     OW37591   2.198   0.155  10.275 -0.3365 -0.0992  0.4271
 8710SOL    HW137592   2.118   0.191  10.238 -0.5493  0.2165  1.1985
 8710SOL    HW237593   2.183   0.061  10.271 -0.8555 -0.0272  0.7894
 8711SOL     OW37594   0.860   1.617   1.223 -1.0159  0.7360 -0.2191
 8711SOL    HW137595   0.771   1.652   1.215 -1.5861 -0.3981  1.3443
 8711SOL    HW237596   0.911   1.662   1.155  2.1335 -1.6975  0.5610
 8712SOL     OW37597   3.937   3.914   5.638 -0.2466 -0.0458  0.0805
 8712SOL    HW137598   3.992   3.868   5.574 -1.3758 -0.8034 -0.3494
 8712SOL    HW237599   3.934   3.997   5.590  0.8478  0.2877  0.5772
 8713SOL     OW37600   3.585   0.944   6.781  0.0496  0.4008 -0.6422
 8713SOL    HW137601   3.616   0.870   6.729  2.0453  0.0655  1.0257
 8713SOL    HW237602   3.493   0.921   6.799  0.9964 -3.5983 -0.9511
 8714SOL     OW37603   4.694   3.959   4.781  0.3268  0.3507 -0.0751
 8714SOL    HW137604   4.707   3.977   4.688  2.9794  0.0856  0.2567
 8714SOL    HW237605   4.674   4.039   4.829 -0.6593 -0.0628  0.1972
 8715SOL     OW37606   4.355   2.532   0.750  0.5964  0.2437  0.5466
 8715SOL    HW137607   4.285   2.596   0.759 -0.9462 -1.1523 -1.5032
 8715SOL    HW237608   4.310   2.454   0.785 -0.9340  0.9305  0.1022
 8716SOL     OW37609   2.923   4.418  11.275  0.0678  0.2904  0.2683
 8716SOL    HW137610   2.840   4.450  11.309 -0.6710 -1.1769 -0.1495
 8716SOL    HW237611   2.891   4.393  11.188  1.8455 -0.4915 -0.1648
 8717SOL     OW37612   3.022   2.715   2.019 -0.0672 -0.1652 -0.0414
 8717SOL    HW137613   2.984   2.645   2.073 -1.0606  1.4777  1.3861
 8717SOL    HW237614   3.051   2.776   2.087 -1.3593  2.1826 -1.5964
 8718SOL     OW37615   3.832   4.077   5.443  0.0057  0.1984  0.8307
 8718SOL    HW137616   3.757   4.074   5.502 -0.9198  1.4240 -0.2800
 8718SOL    HW237617   3.804   4.151   5.389  0.2588  1.1204  1.9847
 8719SOL     OW37618   3.361   3.525   8.055 -0.5309 -0.0152  0.6164
 8719SOL    HW137619   3.371   3.448   8.111 -1.5241  0.1066  0.9553
 8719SOL    HW237620   3.446   3.568   8.051 -0.6580  0.1581 -0.1971
 8720SOL     OW37621   2.815   2.875   1.036 -0.3186  0.3175 -0.3252
 8720SOL    HW137622   2.874   2.903   1.106 -1.8350  0.4800  0.8723
 8720SOL    HW237623   2.818   2.780   1.043 -0.0180  0.1764 -2.2017
 8721SOL     OW37624   0.699   0.574  10.382 -0.5943  0.1165  0.0531
 8721SOL    HW137625   0.762   0.618  10.325  1.6443 -0.5265  2.0336
 8721SOL    HW237626   0.718   0.621  10.462 -2.4120  0.3083  0.3660
 8722SOL     OW37627   4.656   3.342   8.422 -0.5071 -0.3038 -0.1874
 8722SOL    HW137628   4.597   3.416   8.438 -0.5968 -0.6996  1.2914
 8722SOL    HW237629   4.676   3.318   8.512 -1.8369 -0.9156 -0.0499
 8723SOL     OW37630   4.090   0.500  11.999  0.1151  0.1908 -0.2144
 8723SOL    HW137631   4.007   0.493  12.046  0.3452 -1.7334 -0.1190
 8723SOL    HW237632   4.069   0.438  11.930 -1.8558 -1.1536  1.5997
 8724SOL     OW37633   1.072   3.082   5.688 -0.0476 -0.0431  0.0576
 8724SOL    HW137634   1.150   3.039   5.652  1.1075  1.2165  1.0728
 8724SOL    HW237635   1.105   3.116   5.771 -1.4904 -0.2843  0.7402
 8725SOL     OW37636   2.134   3.188   8.319 -0.2284 -0.0186 -0.0016
 8725SOL    HW137637   2.092   3.172   8.234 -3.7870 -1.8023  2.0673
 8725SOL    HW237638   2.147   3.282   8.312  1.0328 -0.0146  2.5792
 8726SOL     OW37639   0.091   2.839   8.967 -0.5659 -0.2270  0.0534
 8726SOL    HW137640   0.103   2.898   8.892 -2.2482 -0.9490 -0.7787
 8726SOL    HW237641   0.168   2.856   9.023 -1.2985  2.5788  0.2159
 8727SOL     OW37642   2.956   3.820   2.904 -0.3615  0.0213 -0.1926
 8727SOL    HW137643   2.950   3.741   2.958 -0.0090 -0.6120 -1.0766
 8727SOL    HW237644   2.862   3.831   2.891 -0.5308  0.6966  1.5960
 8728SOL     OW37645   4.469   2.312  16.611  0.2684 -0.2067 -0.0528
 8728SOL    HW137646   4.557   2.318  16.648  0.0328 -2.3852  0.8884
 8728SOL    HW237647   4.414   2.382  16.646 -1.9982 -0.5314 -3.0062
 8729SOL     OW37648   1.160   1.678   7.686 -0.0674 -0.0854 -0.0736
 8729SOL    HW137649   1.072   1.652   7.714 -0.2951  1.7326  0.9276
 8729SOL    HW237650   1.201   1.708   7.767 -1.6118  1.4569  0.1457
 8730SOL     OW37651   2.475   2.234  12.869  0.0856  0.2086  0.2429
 8730SOL    HW137652   2.469   2.228  12.964 -1.7025 -0.3088  0.1130
 8730SOL    HW237653   2.446   2.324  12.855  1.3596  0.7312  0.9832
 8731SOL     OW37654   0.197   2.664   0.561 -0.1114  0.0961  0.1823
 8731SOL    HW137655   0.211   2.749   0.519  0.1332  0.4198  0.9176
 8731SOL    HW237656   0.166   2.703   0.642  2.9544  0.7128  1.0484
 8732SOL     OW37657   3.019   1.056  16.450 -0.0115 -0.5590  0.6472
 8732SOL    HW137658   3.109   1.073  16.476  0.0777 -1.0004  0.6394
 8732SOL    HW237659   3.036   0.992  16.380 -1.9951 -0.2275 -0.1520
 8733SOL     OW37660   3.311   2.506  17.713  0.3143 -0.1092 -0.1088
 8733SOL    HW137661   3.219   2.484   0.010  0.3556 -0.0456  0.3122
 8733SOL    HW237662   3.347   2.488   0.085 -2.4768 -4.1047  0.2008
 8734SOL     OW37663   2.948   1.295   4.329  0.1552 -0.1286 -0.3929
 8734SOL    HW137664   2.982   1.357   4.265 -0.1676  0.2583 -0.1927
 8734SOL    HW237665   3.009   1.304   4.403 -2.3120  2.2621  1.3192
 8735SOL     OW37666   1.577   2.472   0.949 -0.3595  0.5327 -0.0677
 8735SOL    HW137667   1.661   2.454   0.908 -1.4247 -3.0407 -0.7183
 8735SOL    HW237668   1.594   2.441   1.039  1.2183  1.0145 -0.2059
 8736SOL     OW37669   3.648   3.531   4.129  0.2882 -0.2506  0.0759
 8736SOL    HW137670   3.654   3.506   4.037 -1.0159 -0.3617  0.0147
 8736SOL    HW237671   3.676   3.445   4.160  0.3992 -0.2952 -0.1546
 8737SOL     OW37672   1.115   2.585   0.376 -0.0728 -0.3106 -0.4291
 8737SOL    HW137673   1.142   2.570   0.286 -0.2802  0.3723 -0.6074
 8737SOL    HW237674   1.034   2.632   0.354  2.3233  4.3331  0.5477
 8738SOL     OW37675   0.358   3.709   6.429  0.0389 -0.2048  0.0902
 8738SOL    HW137676   0.337   3.652   6.355  0.0974 -0.5477  0.3365
 8738SOL    HW237677   0.395   3.786   6.386 -0.3433 -0.6176 -0.9742
 8739SOL     OW37678   1.560   2.634   7.528 -0.5161 -0.0833  0.5053
 8739SOL    HW137679   1.633   2.588   7.570  0.2820 -0.2183 -1.0105
 8739SOL    HW237680   1.488   2.575   7.545 -0.0349 -0.5565  0.9089
 8740SOL     OW37681   1.111   2.329   3.654  0.0791 -0.6725  0.1333
 8740SOL    HW137682   1.160   2.285   3.723 -0.8076  0.1629  1.3117
 8740SOL    HW237683   1.125   2.265   3.585  1.9531  1.0306 -1.0442
 8741SOL     OW37684   0.256   1.247   4.975  0.0623 -0.4541 -0.5591
 8741SOL    HW137685   0.197   1.223   4.903 -0.0414  0.0062 -0.6260
 8741SOL    HW237686   0.210   1.202   5.046  0.4443  0.6119  0.3521
 8742SOL     OW37687   0.918   1.138   7.270 -0.1321 -0.2349  0.1652
 8742SOL    HW137688   0.991   1.157   7.328  1.2061 -0.9311 -1.2935
 8742SOL    HW237689   0.893   1.220   7.228  3.1310  0.0604 -1.2007
 8743SOL     OW37690   3.875   1.147   7.397 -0.3346 -0.2983  0.6280
 8743SOL    HW137691   3.938   1.190   7.455  0.3186  0.2369 -0.4793
 8743SOL    HW237692   3.840   1.084   7.460  2.5994 -0.3099  2.2428
 8744SOL     OW37693   0.744   0.476   9.248  0.0491  0.2748  0.0535
 8744SOL    HW137694   0.741   0.475   9.344 -0.2603  2.1859  0.0735
 8744SOL    HW237695   0.778   0.388   9.235 -0.3324  0.5009 -2.4788
 8745SOL     OW37696   3.614   4.411  14.656  0.7271 -0.4567 -0.0299
 8745SOL    HW137697   3.663   4.437  14.578 -0.5808  0.4888 -0.5218
 8745SOL    HW237698   3.628   4.316  14.654  1.4127 -0.3901  1.6103
 8746SOL     OW37699   0.930   1.521   6.000 -0.1370  0.0108  0.0355
 8746SOL    HW137700   1.013   1.480   5.976  0.1197 -1.0457  2.7198
 8746SOL    HW237701   0.887   1.530   5.915 -0.3976 -1.4734  0.0097
 8747SOL     OW37702   1.917   1.870   5.233  0.0827 -0.0540 -0.2021
 8747SOL    HW137703   1.884   1.793   5.188 -0.0277  1.1682 -2.2073
 8747SOL    HW237704   1.909   1.829   5.319 -0.3342  0.6429  0.0925
 8748SOL     OW37705   2.396   4.413   7.736 -0.2433  0.7244  1.0020
 8748SOL    HW137706   2.333   4.485   7.729  0.4108  1.0575 -1.6038
 8748SOL    HW237707   2.430   4.419   7.825  0.3781  0.3350  0.7886
 8749SOL     OW37708   1.128   2.463  12.632 -0.2639  0.4858 -0.4741
 8749SOL    HW137709   1.220   2.489  12.625 -0.4150  0.7263 -1.7063
 8749SOL    HW237710   1.143   2.368  12.628 -0.4252  0.4543 -0.3418
 8750SOL     OW37711   1.835   3.236   4.631  0.1208  0.7147 -0.1015
 8750SOL    HW137712   1.775   3.172   4.593 -0.0518 -0.9858  2.9572
 8750SOL    HW237713   1.785   3.316   4.616  2.5585  1.5718 -3.6064
 8751SOL     OW37714   2.071   2.049   5.999 -0.5554  0.5406  0.1422
 8751SOL    HW137715   2.023   2.100   5.933 -0.6525  1.6063  1.0403
 8751SOL    HW237716   2.146   2.108   6.009  0.7110 -1.1348  0.4010
 8752SOL     OW37717   3.259   2.759  12.195  0.1634 -0.2562 -0.3596
 8752SOL    HW137718   3.329   2.766  12.130 -0.4737  1.1452 -0.8812
 8752SOL    HW237719   3.301   2.774  12.280 -1.1772 -1.2441  0.4917
 8753SOL     OW37720   2.942   3.023  10.384  0.4378  0.6824 -0.9537
 8753SOL    HW137721   2.873   2.975  10.430  1.0861 -0.0665 -0.7675
 8753SOL    HW237722   2.917   3.026  10.292  1.6499  1.2455 -1.2691
 8754SOL     OW37723   4.388   1.207   3.744 -0.1864  0.7413  0.2599
 8754SOL    HW137724   4.303   1.172   3.716  0.4246  0.5240 -1.2856
 8754SOL    HW237725   4.385   1.195   3.839  0.1730 -0.7864  0.0717
 8755SOL     OW37726   2.082   3.336   1.443 -0.6143 -0.2350  0.1370
 8755SOL    HW137727   2.014   3.395   1.475  2.1058  2.3810  1.1544
 8755SOL    HW237728   2.055   3.302   1.358 -0.2019 -2.1094  0.7632
 8756SOL     OW37729   1.301   2.743   8.108  0.4053  0.2792  0.0232
 8756SOL    HW137730   1.294   2.742   8.012  0.4062 -1.1749  0.0301
 8756SOL    HW237731   1.320   2.836   8.115  2.0738 -0.3999  4.3905
 8757SOL     OW37732   0.259   1.627   6.059  0.3803 -0.1056  0.0654
 8757SOL    HW137733   0.349   1.660   6.056  0.4593 -0.2506  0.8373
 8757SOL    HW237734   0.274   1.553   6.000 -2.0896 -1.0097  0.5710
 8758SOL     OW37735   3.980   4.009   7.871  0.1056  0.0048  0.3275
 8758SOL    HW137736   3.918   4.029   7.941  0.8560  1.6606  0.5064
 8758SOL    HW237737   3.978   3.915   7.853 -3.2418  0.0492  0.4883
 8759SOL     OW37738   3.328   0.990  15.603  0.0169 -1.1242 -0.3281
 8759SOL    HW137739   3.343   1.075  15.561 -2.3296 -0.5769 -0.0643
 8759SOL    HW237740   3.301   0.939  15.527 -1.5417  0.8202 -1.0783
 8760SOL     OW37741   0.502   2.634   6.001 -0.0876  0.2182 -0.0786
 8760SOL    HW137742   0.504   2.569   6.071  2.3594  0.1967 -0.1701
 8760SOL    HW237743   0.442   2.699   6.037 -0.3741 -0.8103  1.2981
 8761SOL     OW37744   3.405   1.970   8.130  0.5448 -0.5413  0.0838
 8761SOL    HW137745   3.339   1.977   8.199  0.9943  0.0016  0.4568
 8761SOL    HW237746   3.410   2.061   8.104  2.6296 -0.4771  0.6478
 8762SOL     OW37747   2.656   1.315   2.236 -0.3933 -0.6079 -0.1519
 8762SOL    HW137748   2.617   1.400   2.213  1.0379 -0.3867 -1.7376
 8762SOL    HW237749   2.630   1.266   2.159  0.5296 -1.3688  0.0220
 8763SOL     OW37750   3.663   3.352  12.412 -0.3428  0.1566  0.2096
 8763SOL    HW137751   3.576   3.369  12.448 -1.3644 -0.9720 -1.7187
 8763SOL    HW237752   3.667   3.259  12.391  0.5422 -0.0415  1.2532
 8764SOL     OW37753   2.995   0.254   4.500 -0.0930  0.1698 -0.9156
 8764SOL    HW137754   3.063   0.238   4.565 -0.0915  0.8180 -0.7565
 8764SOL    HW237755   3.000   0.349   4.490 -0.5513  0.1707 -1.1175
 8765SOL     OW37756   2.403   0.326   1.829 -0.4277 -0.0926 -0.3896
 8765SOL    HW137757   2.490   0.336   1.867 -0.4597  1.3265 -0.6865
 8765SOL    HW237758   2.411   0.280   1.745  1.8974  0.8686 -0.6763
 8766SOL     OW37759   3.777   3.691   4.866  0.6292 -0.6056  0.4170
 8766SOL    HW137760   3.857   3.697   4.918  0.6068 -0.0998  0.3963
 8766SOL    HW237761   3.820   3.714   4.783 -1.0896  1.6477  0.1529
 8767SOL     OW37762   3.909   1.637   6.425  0.7107  0.2039  0.3503
 8767SOL    HW137763   3.869   1.642   6.511  1.0369  1.5233  0.4206
 8767SOL    HW237764   4.002   1.625   6.441  0.7653 -1.1665 -0.9120
 8768SOL     OW37765   3.942   0.877   1.752  0.0211  0.3338  0.7481
 8768SOL    HW137766   3.971   0.843   1.667 -0.9284 -0.9398  0.9399
 8768SOL    HW237767   3.904   0.960   1.723  1.6174  0.4566 -0.9889
 8769SOL     OW37768   4.042   2.573  10.601 -0.6593  0.1219  0.3668
 8769SOL    HW137769   4.067   2.629  10.528  1.4619  1.4045  2.0683
 8769SOL    HW237770   4.012   2.640  10.663  0.5037  0.9030  0.0798
 8770SOL     OW37771   3.487   0.723   7.701  0.2575 -0.0574 -0.1144
 8770SOL    HW137772   3.420   0.789   7.718  1.3041  0.5176  1.7571
 8770SOL    HW237773   3.439   0.645   7.726  2.8392 -1.9102 -0.9951
 8771SOL     OW37774   1.565   1.639   2.426  0.3660 -0.0147  0.3636
 8771SOL    HW137775   1.590   1.704   2.361 -3.9851  1.7705  0.5294
 8771SOL    HW237776   1.484   1.603   2.390  0.0869  0.1520  0.8261
 8772SOL     OW37777   2.173   1.215   7.881 -0.4677 -0.2105  0.6504
 8772SOL    HW137778   2.183   1.177   7.968 -2.7299  0.5158  1.2246
 8772SOL    HW237779   2.154   1.307   7.901 -0.1193  0.2643 -1.1461
 8773SOL     OW37780   3.072   3.628   3.380 -0.0671  0.1009  0.0296
 8773SOL    HW137781   3.107   3.541   3.359  0.0857 -0.1081  1.0987
 8773SOL    HW237782   2.979   3.605   3.382 -0.4827  1.8011  0.1807
 8774SOL     OW37783   0.856   4.471  10.220  0.1945  0.1900  0.2702
 8774SOL    HW137784   0.855   4.560  10.256  2.2989  0.6450 -0.7727
 8774SOL    HW237785   0.946   4.458  10.189 -0.6522  1.0036 -2.5364
 8775SOL     OW37786   3.732   2.499   6.168 -0.3537  0.5279 -0.0742
 8775SOL    HW137787   3.771   2.485   6.255 -1.2190 -3.9544 -0.3819
 8775SOL    HW237788   3.781   2.572   6.131  0.3279  0.2136  0.2071
 8776SOL     OW37789   4.506   0.111   7.923 -0.0997  0.2175  0.1093
 8776SOL    HW137790   4.521   0.017   7.936 -2.2047 -0.1939 -0.3623
 8776SOL    HW237791   4.455   0.095   7.843  1.0648 -1.6077 -0.2713
 8777SOL     OW37792   0.171   1.721   6.301 -0.1413  0.0144  0.1104
 8777SOL    HW137793   0.203   1.715   6.211 -0.8130  0.3184 -0.1519
 8777SOL    HW237794   0.165   1.626   6.313  0.1349 -0.2711 -1.9415
 8778SOL     OW37795   4.025   2.887   1.423 -0.0187  0.6399  0.3605
 8778SOL    HW137796   3.966   2.863   1.495  0.4272  0.7502  0.7594
 8778SOL    HW237797   3.995   2.826   1.355  0.6664 -1.9229  2.3272
 8779SOL     OW37798   2.479   2.440  17.661  0.4988 -0.2920 -1.3064
 8779SOL    HW137799   2.415   2.491  17.709  1.2364 -1.0291  0.4657
 8779SOL    HW237800   2.445   2.459  17.574  0.9223  2.7979 -0.8157
 8780SOL     OW37801   2.648   1.776   8.496 -0.4573  0.0558 -0.2992
 8780SOL    HW137802   2.592   1.804   8.569  1.5860  1.0964  0.8716
 8780SOL    HW237803   2.711   1.717   8.536 -1.8056 -0.9513  0.3203
 8781SOL     OW37804   1.773   4.027  10.400  0.0549 -0.3177 -0.9121
 8781SOL    HW137805   1.772   4.107  10.453  4.4987 -1.4579  0.9424
 8781SOL    HW237806   1.741   3.972  10.471  1.7877  1.2194  1.0740
 8782SOL     OW37807   3.296   0.954  16.435  0.5539 -0.0689  0.2186
 8782SOL    HW137808   3.343   0.955  16.352  0.2025 -1.9226 -0.0171
 8782SOL    HW237809   3.236   0.886  16.405  0.6501 -0.4776  0.9534
 8783SOL     OW37810   2.755   3.655  13.215 -0.1262  0.5175 -0.0504
 8783SOL    HW137811   2.827   3.675  13.155 -0.6793  1.5059 -0.3875
 8783SOL    HW237812   2.786   3.585  13.271  0.8506  1.9635  1.2241
 8784SOL     OW37813   3.921   2.747   2.528 -0.1311 -0.1333  0.4226
 8784SOL    HW137814   3.902   2.662   2.487  0.0117 -0.3452  0.8042
 8784SOL    HW237815   3.949   2.803   2.455 -0.3722 -3.9969 -2.6587
 8785SOL     OW37816   0.077   0.965  12.023  0.4250 -0.3538 -0.3075
 8785SOL    HW137817   0.043   1.039  11.972  0.4971  0.7744  1.2665
 8785SOL    HW237818   0.081   0.901  11.952 -1.1697  0.8249 -1.4708
 8786SOL     OW37819   2.851   3.857  11.869 -0.3265  0.6277  0.3939
 8786SOL    HW137820   2.919   3.922  11.850 -0.1047  0.4684  0.6401
 8786SOL    HW237821   2.767   3.899  11.856 -1.8071 -2.6232 -0.5884
 8787SOL     OW37822   2.229   2.827   2.108 -0.0879  0.2748 -0.7964
 8787SOL    HW137823   2.159   2.773   2.071  0.3069 -0.8875  0.1126
 8787SOL    HW237824   2.259   2.876   2.032  0.8838 -0.0629 -0.6292
 8788SOL     OW37825   3.093   3.007  15.665  0.3310 -0.0620  0.1669
 8788SOL    HW137826   3.134   3.082  15.708  0.8085  0.5962 -1.4684
 8788SOL    HW237827   2.998   3.022  15.674  0.0983 -1.1553 -0.5102
 8789SOL     OW37828   3.581   2.549  13.100 -0.5256  0.6547  0.3839
 8789SOL    HW137829   3.613   2.510  13.019 -1.0326 -1.0070  0.9681
 8789SOL    HW237830   3.533   2.621  13.059 -3.4353  0.2987  3.1642
 8790SOL     OW37831   4.364   3.449   9.969 -0.2170 -0.1162 -0.0230
 8790SOL    HW137832   4.303   3.509  10.013  1.2229  0.5716  1.0094
 8790SOL    HW237833   4.428   3.518   9.952 -3.0658  2.1509 -1.7122
 8791SOL     OW37834   1.070   1.834  17.711  0.6695  0.0704 -0.6454
 8791SOL    HW137835   0.996   1.867   0.048  0.8179  0.4111 -0.6521
 8791SOL    HW237836   1.068   1.909  17.651  0.1757  0.5281 -0.0547
 8792SOL     OW37837   0.777   4.384   8.982 -0.1259  0.0642  0.4587
 8792SOL    HW137838   0.810   4.325   9.050 -2.3299  0.5000  1.9199
 8792SOL    HW237839   0.831   4.463   8.982 -0.5027  0.3184  1.1983
 8793SOL     OW37840   3.452   1.793  14.458  0.5705 -0.6308  0.6087
 8793SOL    HW137841   3.398   1.869  14.479  1.3646  0.7242 -2.3007
 8793SOL    HW237842   3.432   1.776  14.366 -2.0659 -1.6801  1.3944
 8794SOL     OW37843   1.281   2.360   2.812  0.0132 -0.2077  0.1896
 8794SOL    HW137844   1.202   2.367   2.757  0.0410 -0.3675  0.1274
 8794SOL    HW237845   1.335   2.429   2.772  0.0852  0.2170  1.0311
 8795SOL     OW37846   0.236   2.188   2.609  0.1691 -0.3351  0.3146
 8795SOL    HW137847   0.214   2.167   2.700  0.5586  0.4752  0.5999
 8795SOL    HW237848   0.245   2.098   2.579  2.9657 -0.2328  0.8680
 8796SOL     OW37849   3.821   1.802   4.276  0.6088 -0.4625 -0.4395
 8796SOL    HW137850   3.784   1.740   4.213 -1.6836  1.0302 -0.5522
 8796SOL    HW237851   3.766   1.880   4.275  0.6055 -0.4479  1.2104
 8797SOL     OW37852   1.200   0.322   5.781  0.0938  0.2480  0.4009
 8797SOL    HW137853   1.225   0.250   5.839  0.4165  0.8095  0.9727
 8797SOL    HW237854   1.109   0.300   5.762 -0.0810  0.4166  1.0358
 8798SOL     OW37855   1.097   3.414   3.146  0.0013 -0.6724  0.0270
 8798SOL    HW137856   1.149   3.490   3.172  0.0887 -0.1575 -1.6453
 8798SOL    HW237857   1.166   3.350   3.163  0.9306  0.4709  0.5918
 8799SOL     OW37858   1.983   2.252   3.064 -0.2941 -0.0365  0.6137
 8799SOL    HW137859   1.964   2.175   3.009 -0.7407  0.4443  0.0887
 8799SOL    HW237860   1.954   2.323   3.007  4.0344 -1.9765 -4.0361
 8800SOL     OW37861   2.961   3.803   2.185 -0.3378 -0.0343  0.2923
 8800SOL    HW137862   2.937   3.853   2.108 -0.1868 -0.8562 -0.2952
 8800SOL    HW237863   2.879   3.757   2.203 -0.4673 -0.6563 -1.8276
 8801SOL     OW37864   1.198   2.658   7.865  1.0625 -0.0906 -0.7926
 8801SOL    HW137865   1.194   2.720   7.793 -1.8231  1.6313  0.8400
 8801SOL    HW237866   1.125   2.596   7.865  0.5516  0.4939  0.6493
 8802SOL     OW37867   3.899   4.476  13.160  0.2190  0.2897 -0.1266
 8802SOL    HW137868   3.963   4.528  13.112  0.0526  0.0905 -0.5621
 8802SOL    HW237869   3.948   4.394  13.163  0.3019  0.3841  1.1526
 8803SOL     OW37870   3.009   0.275   8.963 -0.2528 -0.1452 -0.3137
 8803SOL    HW137871   2.946   0.203   8.954 -0.5156  0.2543 -1.7198
 8803SOL    HW237872   2.977   0.347   8.908  0.7463  1.5200  1.3170
 8804SOL     OW37873   0.678   3.104   8.121  0.1238 -0.2866  0.2568
 8804SOL    HW137874   0.691   3.195   8.094 -0.6815  0.1502  1.3031
 8804SOL    HW237875   0.650   3.065   8.038  0.0068  1.0013 -0.3018
 8805SOL     OW37876   1.048   1.802   6.092  0.4241 -0.2199 -0.3695
 8805SOL    HW137877   1.089   1.869   6.038 -0.1486  1.3475  1.1057
 8805SOL    HW237878   1.054   1.834   6.182  2.0766 -1.4094 -0.0771
 8806SOL     OW37879   1.610   2.713   4.475  0.1238  0.1639  0.4516
 8806SOL    HW137880   1.656   2.728   4.557 -0.1550 -2.4925  1.1068
 8806SOL    HW237881   1.551   2.644   4.507  1.3249 -1.6881 -1.2691
 8807SOL     OW37882   2.009   3.968   2.446  0.0725 -0.1965 -0.2056
 8807SOL    HW137883   1.936   3.910   2.422 -0.1765  0.5722 -1.2901
 8807SOL    HW237884   1.965   3.996   2.527  0.5679 -2.2147  0.7696
 8808SOL     OW37885   0.425   4.586   2.019 -0.0505 -0.3359  0.0038
 8808SOL    HW137886   0.490   4.641   2.062 -0.4639 -0.4598  0.7778
 8808SOL    HW237887   0.344   4.624   2.053 -0.5242 -1.3438  0.0252
 8809SOL     OW37888   4.071   4.652  17.273 -0.4789 -0.4916  0.2005
 8809SOL    HW137889   4.076   4.619  17.363 -0.0174  1.1573  0.7745
 8809SOL    HW237890   4.030   0.008  17.292  0.8616 -0.3181  2.2545
 8810SOL     OW37891   0.127   4.499   6.435 -0.2338  0.2038 -0.0329
 8810SOL    HW137892   0.147   4.580   6.481  1.5681 -1.4874  2.2150
 8810SOL    HW237893   0.061   4.530   6.373  1.3740  2.4135 -0.6433
 8811SOL     OW37894   0.125   3.963   0.323  0.3963  0.1015 -0.4541
 8811SOL    HW137895   0.119   4.020   0.246  1.2321 -0.6575 -1.0937
 8811SOL    HW237896   0.088   4.022   0.389  1.3789  0.9728 -0.6757
 8812SOL     OW37897   0.993   1.995   3.338  0.2008 -0.2636  0.0399
 8812SOL    HW137898   0.908   1.966   3.371 -0.9620  1.2157 -1.6459
 8812SOL    HW237899   0.979   2.089   3.351  2.7169 -0.0625  1.4246
 8813SOL     OW37900   3.987   0.984  12.881  0.0784  0.0449  0.2110
 8813SOL    HW137901   3.967   1.030  12.799  0.3781 -1.5923 -0.7964
 8813SOL    HW237902   3.914   1.006  12.938 -0.7964 -0.6972 -0.6314
 8814SOL     OW37903   2.240   2.897   5.817  0.4268  0.2478 -0.5312
 8814SOL    HW137904   2.213   2.917   5.907  0.8233  3.5671 -1.1469
 8814SOL    HW237905   2.250   2.983   5.777  1.0850  0.4042 -0.0360
 8815SOL     OW37906   4.282   0.856  17.446 -0.4857 -0.2411  0.0911
 8815SOL    HW137907   4.336   0.837  17.523 -0.2732  2.6899  0.6712
 8815SOL    HW237908   4.199   0.809  17.445 -0.9685  0.5948  0.6429
 8816SOL     OW37909   4.109   3.042   9.657 -0.3198 -0.2772 -0.1668
 8816SOL    HW137910   4.019   3.033   9.687 -0.3066  1.0510  0.2691
 8816SOL    HW237911   4.088   3.094   9.580  4.7291  0.3225 -1.1210
 8817SOL     OW37912   2.067   3.171   2.734  0.1045 -0.4348  0.2539
 8817SOL    HW137913   2.153   3.133   2.753 -0.4140 -0.7048  2.0123
 8817SOL    HW237914   2.005   3.108   2.771  0.6325 -1.4313 -0.5537
 8818SOL     OW37915   2.263   4.449  16.850  0.4652  0.2584 -0.2944
 8818SOL    HW137916   2.352   4.462  16.881  0.6153  1.0854 -1.0766
 8818SOL    HW237917   2.258   4.493  16.765 -1.1597 -0.4389 -0.5712
 8819SOL     OW37918   2.171   1.799   0.410 -0.3020 -0.5838 -0.2118
 8819SOL    HW137919   2.256   1.773   0.375  0.3661 -0.5552  1.3864
 8819SOL    HW237920   2.135   1.717   0.444 -3.2407  0.8611  0.1621
 8820SOL     OW37921   1.162   3.824   8.166 -0.6531  0.2388  0.6032
 8820SOL    HW137922   1.167   3.918   8.153 -0.2238  0.4864  2.5132
 8820SOL    HW237923   1.213   3.823   8.248  0.6538  0.6956 -0.2063
 8821SOL     OW37924   2.375   4.535   2.568 -0.5409  0.0843 -0.2716
 8821SOL    HW137925   2.464   4.555   2.538 -0.0883 -1.9802 -0.3098
 8821SOL    HW237926   2.391   4.482   2.646 -0.2414 -0.3884 -0.6506
 8822SOL     OW37927   4.537   4.520   8.777  0.3965 -0.2736  0.6086
 8822SOL    HW137928   4.614   4.534   8.833 -1.4512  1.6360  2.6895
 8822SOL    HW237929   4.491   4.456   8.831  0.5975  0.2954  1.4593
 8823SOL     OW37930   4.517   1.258   4.740 -0.3571  0.3723 -0.2975
 8823SOL    HW137931   4.428   1.290   4.726 -0.8757 -1.6773 -1.6554
 8823SOL    HW237932   4.549   1.266   4.650  0.2699  0.6612 -0.0513
 8824SOL     OW37933   2.569   4.498   8.010 -0.2988  0.2249 -0.1707
 8824SOL    HW137934   2.549   4.440   8.083  0.5349 -2.8686 -2.3875
 8824SOL    HW237935   2.605   4.568   8.064 -0.6265  0.7666 -0.6544
 8825SOL     OW37936   1.712   1.920   0.082  0.1593  0.1634  0.3693
 8825SOL    HW137937   1.784   1.905   0.021 -0.1498  1.3474 -0.3000
 8825SOL    HW237938   1.760   1.892   0.160  1.5473 -0.6453 -0.7949
 8826SOL     OW37939   2.665   0.106   7.163 -0.3652  0.3572 -0.2912
 8826SOL    HW137940   2.689   0.171   7.097  0.4467 -1.7720 -2.1047
 8826SOL    HW237941   2.571   0.098   7.144 -0.2005 -0.4943 -0.7851
 8827SOL     OW37942   4.567   1.514   1.123 -0.1357  0.1856 -0.4987
 8827SOL    HW137943   4.591   1.500   1.215  0.3021  0.1004 -0.6284
 8827SOL    HW237944   4.491   1.456   1.113  0.7211 -1.1803  0.9039
 8828SOL     OW37945   4.246   4.707   5.880  0.3325  0.0037 -0.2329
 8828SOL    HW137946   4.324   0.034   5.877 -0.2869  0.9825  1.9058
 8828SOL    HW237947   4.220   4.703   5.788  0.0501 -1.6398 -0.0817
 8829SOL     OW37948   4.676   2.998  17.363 -0.2436 -0.0925  0.2242
 8829SOL    HW137949   4.662   3.016  17.270  1.3409  0.6686  0.1323
 8829SOL    HW237950   4.590   2.969  17.395 -0.0005 -1.0497 -0.0227
 8830SOL     OW37951   0.748   3.639   8.930  0.8461  0.1495 -0.0801
 8830SOL    HW137952   0.807   3.664   9.000  0.1150 -0.8166  0.8896
 8830SOL    HW237953   0.665   3.641   8.977  0.3665 -0.1068 -0.9017
 8831SOL     OW37954   4.722   4.577   9.432  0.3255 -0.3526 -0.4125
 8831SOL    HW137955   0.041   4.539   9.506 -1.9472  0.3488  1.4034
 8831SOL    HW237956   0.040   4.524   9.367  0.5314  0.1435 -0.6743
 8832SOL     OW37957   3.097   0.479   0.953  0.4511 -0.0558  0.1719
 8832SOL    HW137958   3.051   0.420   1.014  0.7634 -1.0473 -0.5575
 8832SOL    HW237959   3.065   0.569   0.956  0.4762 -0.1023  2.0377
 8833SOL     OW37960   1.856   2.591   1.560  0.0221  0.2985  0.5515
 8833SOL    HW137961   1.940   2.613   1.600  1.0724 -1.0380 -0.8949
 8833SOL    HW237962   1.793   2.634   1.618  0.4017  0.7443  0.6204
 8834SOL     OW37963   4.060   0.554   7.775 -0.0040 -0.0479  0.0138
 8834SOL    HW137964   4.035   0.530   7.865  0.5455  1.2631  0.5173
 8834SOL    HW237965   4.154   0.538   7.779 -0.0613 -0.2065  0.7767
 8835SOL     OW37966   4.272   0.798  16.773  0.2695 -0.1104 -0.0254
 8835SOL    HW137967   4.329   0.793  16.849 -1.3869  0.1608  1.2389
 8835SOL    HW237968   4.203   0.741  16.807 -0.7185  1.0611 -0.0736
 8836SOL     OW37969   0.155   0.579   4.365 -0.1231  0.3340  0.1279
 8836SOL    HW137970   0.188   0.662   4.333  0.6405  0.0493  0.1708
 8836SOL    HW237971   0.219   0.566   4.435  0.9906  0.9193 -0.7860
 8837SOL     OW37972   0.373   2.235   8.289  0.3471  0.5945 -0.0710
 8837SOL    HW137973   0.442   2.271   8.233  0.2594  1.1238  0.1640
 8837SOL    HW237974   0.303   2.294   8.260  1.8384  1.8846 -1.0174
 8838SOL     OW37975   3.345   4.296   6.016  0.2541  0.2875  0.4101
 8838SOL    HW137976   3.357   4.362   5.948 -1.9159  0.9665  0.6880
 8838SOL    HW237977   3.403   4.341   6.078  0.7101  0.2578  0.0079
 8839SOL     OW37978   1.420   2.735   5.787 -0.0820 -0.0754 -0.6221
 8839SOL    HW137979   1.439   2.828   5.785  0.0456 -0.1173 -1.4029
 8839SOL    HW237980   1.329   2.733   5.818 -0.0856  0.6009 -0.5874
 8840SOL     OW37981   3.182   3.977   8.563  0.1256  0.3264  0.3469
 8840SOL    HW137982   3.192   3.985   8.658 -0.3260 -0.6310  0.4737
 8840SOL    HW237983   3.125   4.050   8.540 -2.0147 -0.7490  2.2668
 8841SOL     OW37984   3.405   3.133   7.556  0.0870 -0.0712 -0.3335
 8841SOL    HW137985   3.341   3.187   7.601 -0.7627  0.3720 -2.0612
 8841SOL    HW237986   3.435   3.081   7.630 -0.2041  2.2825  1.4083
 8842SOL     OW37987   0.356   3.344  11.422 -0.4930  0.1195 -0.3257
 8842SOL    HW137988   0.409   3.337  11.343 -0.0403 -0.3437  0.0123
 8842SOL    HW237989   0.312   3.423  11.391  0.1267  0.4090 -0.4670
 8843SOL     OW37990   2.325   4.099   1.006 -0.4067 -0.3626  0.6221
 8843SOL    HW137991   2.407   4.064   1.040  1.4756  0.7378 -2.7176
 8843SOL    HW237992   2.259   4.043   1.045 -1.8649  0.6275 -0.3783
 8844SOL     OW37993   4.154   1.714   7.756 -0.4841 -0.0281  0.5299
 8844SOL    HW137994   4.077   1.674   7.796 -1.9820  2.0592 -0.2674
 8844SOL    HW237995   4.176   1.781   7.820 -1.0681  1.5499 -0.9424
 8845SOL     OW37996   4.167   0.287   6.108 -0.2221 -0.1290  0.6886
 8845SOL    HW137997   4.251   0.324   6.082  0.0571 -1.2426 -0.0071
 8845SOL    HW237998   4.187   0.272   6.201 -2.1122 -1.1225  0.9533
 8846SOL     OW37999   1.466   1.848   8.384  0.0734  0.8111  0.4640
 8846SOL    HW138000   1.393   1.812   8.434 -0.0884 -2.4541 -2.1384
 8846SOL    HW238001   1.458   1.941   8.403 -1.8076  0.7123  0.1664
 8847SOL     OW38002   1.710   3.416   6.486 -0.3575 -1.0494  0.4392
 8847SOL    HW138003   1.659   3.400   6.566 -0.5365 -2.4414  0.0465
 8847SOL    HW238004   1.711   3.512   6.491  3.0897 -1.0064 -1.5165
 8848SOL     OW38005   3.282   3.179  16.223  0.1518  0.1008 -0.1948
 8848SOL    HW138006   3.356   3.133  16.262  0.1403 -0.6179 -1.0122
 8848SOL    HW238007   3.282   3.262  16.270 -0.8323  0.7074 -1.2737
 8849SOL     OW38008   2.406   2.702   5.798 -0.6514 -0.0378  0.7020
 8849SOL    HW138009   2.343   2.774   5.790 -0.1752  0.3144  0.1086
 8849SOL    HW238010   2.486   2.752   5.815 -0.0437  0.1640 -2.7354
 8850SOL     OW38011   2.395   1.575   0.667  0.6425 -0.7692 -0.4095
 8850SOL    HW138012   2.327   1.638   0.692 -0.3650 -2.1068  0.2399
 8850SOL    HW238013   2.339   1.516   0.618  1.3529 -2.7814  1.1808
 8851SOL     OW38014   2.599   0.232   6.242  0.3585  0.1729 -0.0486
 8851SOL    HW138015   2.638   0.145   6.230 -0.6351 -0.2299 -0.3630
 8851SOL    HW238016   2.512   0.209   6.274  0.5892 -0.5142  0.0724
 8852SOL     OW38017   4.445   3.102  10.569 -0.0361  0.5867 -0.3317
 8852SOL    HW138018   4.487   3.016  10.571 -0.9562  0.2473  3.6316
 8852SOL    HW238019   4.517   3.162  10.589 -0.7279  0.9551  1.0147
 8853SOL     OW38020   3.091   0.903   5.752 -0.5911  0.5271 -0.0070
 8853SOL    HW138021   3.073   0.970   5.685 -0.7588 -1.0593 -1.5497
 8853SOL    HW238022   3.104   0.822   5.703  2.9929  0.3363  1.2619
 8854SOL     OW38023   1.732   0.453   1.109  0.4471  0.2012  0.1116
 8854SOL    HW138024   1.739   0.409   1.025  0.3772 -2.5749  1.5766
 8854SOL    HW238025   1.808   0.407   1.145  0.3529 -1.1544 -1.4482
 8855SOL     OW38026   1.962   4.317   3.685  1.1744 -0.6674  0.0697
 8855SOL    HW138027   1.945   4.406   3.653 -0.2796 -0.4745  1.3370
 8855SOL    HW238028   1.966   4.263   3.606 -1.2255  1.1050 -1.2713
 8856SOL     OW38029   2.047   2.112   1.899 -0.7378  0.1316  0.0340
 8856SOL    HW138030   2.042   2.037   1.958 -0.6815  0.5679  0.6006
 8856SOL    HW238031   2.103   2.075   1.831 -0.2732  0.6718  0.1131
 8857SOL     OW38032   0.229   1.833   9.833  0.9277 -0.1015  0.3351
 8857SOL    HW138033   0.317   1.804   9.810  1.0184  1.5159 -1.3495
 8857SOL    HW238034   0.213   1.771   9.905 -2.9738 -0.3126 -0.7072
 8858SOL     OW38035   0.422   4.082   7.733 -0.0607  0.0196  0.2247
 8858SOL    HW138036   0.387   4.005   7.778 -1.5632  0.0793 -0.8857
 8858SOL    HW238037   0.368   4.145   7.781  0.4653  0.5618  0.1055
 8859SOL     OW38038   0.743   0.825  15.512 -0.4032  0.3232 -0.0813
 8859SOL    HW138039   0.731   0.787  15.424 -0.7621  1.8634 -0.7030
 8859SOL    HW238040   0.768   0.915  15.492 -2.4258  0.4951 -1.8909
 8860SOL     OW38041   3.410   1.622   3.671 -0.0303 -0.5429 -0.1688
 8860SOL    HW138042   3.342   1.687   3.651  0.9468  0.0200 -1.6367
 8860SOL    HW238043   3.451   1.599   3.588 -0.1631  0.8698 -0.6278
 8861SOL     OW38044   3.718   1.646   9.388 -0.7620 -0.1642  0.2979
 8861SOL    HW138045   3.627   1.630   9.362 -0.2356  0.4333 -1.9093
 8861SOL    HW238046   3.710   1.676   9.479 -0.7216 -1.6397  0.7816
 8862SOL     OW38047   0.215   2.888   0.438  0.3650 -0.2171  0.0355
 8862SOL    HW138048   0.193   2.954   0.504  2.1004  1.3240 -0.9100
 8862SOL    HW238049   0.243   2.942   0.364 -0.0230 -1.1966 -0.8346
 8863SOL     OW38050   0.392   2.663   7.720 -0.2998 -0.6198 -0.4141
 8863SOL    HW138051   0.467   2.632   7.670  0.2739  0.0704  0.0234
 8863SOL    HW238052   0.389   2.610   7.799 -2.6318 -1.1715 -0.8796
 8864SOL     OW38053   2.024   4.009   5.731  0.1044 -0.8051  0.8772
 8864SOL    HW138054   1.950   3.954   5.758 -0.8801  1.3178  2.4729
 8864SOL    HW238055   1.993   4.094   5.763  0.0972 -0.6172  0.3675
 8865SOL     OW38056   3.188   4.605  13.165  0.1355 -0.3604 -0.5363
 8865SOL    HW138057   3.197   4.633  13.074 -1.0710 -0.3495 -0.6487
 8865SOL    HW238058   3.093   4.609  13.173  0.0809  0.0202 -1.3709
 8866SOL     OW38059   0.135   0.288   7.964 -0.0663  0.6180 -0.1010
 8866SOL    HW138060   0.089   0.355   8.014  1.6721  0.2965  1.8953
 8866SOL    HW238061   0.092   0.209   7.997 -1.6309  0.4310 -2.5966
 8867SOL     OW38062   1.548   2.358   1.229 -0.0369 -0.6024  0.0825
 8867SOL    HW138063   1.628   2.408   1.247  0.2125 -0.9846  0.0194
 8867SOL    HW238064   1.535   2.314   1.313  1.9196  3.3533  2.4845
 8868SOL     OW38065   1.120   3.962   6.112  0.5574  0.4152 -0.0412
 8868SOL    HW138066   1.057   3.889   6.116  0.8466  0.2385  1.2251
 8868SOL    HW238067   1.069   4.019   6.055 -0.7023 -0.7087 -0.0621
 8869SOL     OW38068   3.227   1.699   5.280 -0.0930 -0.4814 -0.5008
 8869SOL    HW138069   3.314   1.680   5.316  1.1613  2.0802 -2.1890
 8869SOL    HW238070   3.227   1.632   5.211  2.5499  0.8609 -1.8226
 8870SOL     OW38071   0.899   0.808   8.789  0.1646 -0.0589  0.2558
 8870SOL    HW138072   0.841   0.732   8.788 -1.5849  1.3245 -2.1875
 8870SOL    HW238073   0.899   0.832   8.882  0.1015  1.7577 -0.2247
 8871SOL     OW38074   3.816   0.791   3.301 -0.1004 -0.2495  1.1365
 8871SOL    HW138075   3.887   0.854   3.296  0.9340 -1.5405 -0.6148
 8871SOL    HW238076   3.813   0.774   3.395  1.7127 -0.9462  1.0777
 8872SOL     OW38077   4.551   0.679   7.637  0.0009  0.2411 -0.0288
 8872SOL    HW138078   4.512   0.605   7.589  1.5813  1.0040 -2.5364
 8872SOL    HW238079   4.476   0.738   7.640 -0.8303 -0.7637 -0.9188
 8873SOL     OW38080   0.320   4.143   5.795  0.3852 -0.2041  0.3794
 8873SOL    HW138081   0.350   4.097   5.717 -0.7204 -0.3266  0.0254
 8873SOL    HW238082   0.236   4.178   5.764  0.6933  0.4347  0.2758
 8874SOL     OW38083   3.936   4.090   9.754 -0.8058  0.3775  0.0349
 8874SOL    HW138084   3.952   3.996   9.740  1.0747  0.9632 -1.6028
 8874SOL    HW238085   3.987   4.127   9.682  0.0704 -1.4154 -0.2656
 8875SOL     OW38086   1.829   0.325   2.908 -0.4547 -0.3642 -0.3682
 8875SOL    HW138087   1.904   0.307   2.852 -0.3764  3.4500 -1.5148
 8875SOL    HW238088   1.884   0.374   2.970  0.0872  0.9385 -1.8636
 8876SOL     OW38089   4.080   2.700   4.402 -0.5335 -0.6052  0.4923
 8876SOL    HW138090   4.124   2.617   4.384  0.4922 -0.3249  1.6890
 8876SOL    HW238091   4.007   2.707   4.341  0.6041  0.6312 -0.7345
 8877SOL     OW38092   4.405   4.021   1.462  0.6039 -0.2346  0.1777
 8877SOL    HW138093   4.500   4.022   1.453  0.5383 -2.8477 -0.7790
 8877SOL    HW238094   4.377   4.020   1.370  0.0753 -3.2757  0.3740
 8878SOL     OW38095   2.427   3.966   0.274 -0.2016  0.2436  0.3570
 8878SOL    HW138096   2.396   3.967   0.183  0.7544 -1.0472  0.0164
 8878SOL    HW238097   2.501   3.906   0.267 -1.3136 -1.0589 -0.5131
 8879SOL     OW38098   4.487   2.237   8.953 -0.2295 -0.1154  0.2134
 8879SOL    HW138099   4.567   2.289   8.944 -0.2946 -0.2161 -0.9722
 8879SOL    HW238100   4.425   2.295   8.909 -0.8125 -0.4932  0.5230
 8880SOL     OW38101   0.008   0.315   5.807 -0.5376 -0.0179 -0.1261
 8880SOL    HW138102   0.029   0.227   5.778 -2.2885 -0.5745  0.3277
 8880SOL    HW238103   4.702   0.355   5.727 -1.2832  0.6159  0.5084
 8881SOL     OW38104   4.226   3.166   3.091  0.4886  0.0449 -0.2969
 8881SOL    HW138105   4.253   3.243   3.141  0.6567 -0.6546  0.6996
 8881SOL    HW238106   4.196   3.111   3.163  0.7793 -0.9178 -0.9008
 8882SOL     OW38107   3.636   0.081   5.709  0.5605 -0.0108 -0.1316
 8882SOL    HW138108   3.554   0.097   5.755  1.0625  1.1159  0.3917
 8882SOL    HW238109   3.606   0.009   5.654 -1.1000  0.3437  0.2894
 8883SOL     OW38110   3.867   1.926   4.622 -0.0164 -0.4148 -0.0010
 8883SOL    HW138111   3.776   1.954   4.634  0.3144  1.4177 -1.6494
 8883SOL    HW238112   3.900   1.962   4.704  2.3327  0.3431 -1.2871
 8884SOL     OW38113   3.790   0.053   6.136  1.2490 -0.2740  0.0298
 8884SOL    HW138114   3.759   0.104   6.210  0.1560 -1.5414  0.4406
 8884SOL    HW238115   3.884   0.037   6.149  1.1347  0.7081  1.9341
 8885SOL     OW38116   0.999   4.560   0.824  0.3776 -0.1915 -0.0139
 8885SOL    HW138117   1.068   4.570   0.890  1.5273 -2.6495 -0.8307
 8885SOL    HW238118   0.918   4.547   0.873  0.0323 -0.5451 -0.6701
 8886SOL     OW38119   4.280   3.752   5.009  0.0587  0.4947 -0.1774
 8886SOL    HW138120   4.319   3.680   4.960 -0.0867 -0.0079  0.4359
 8886SOL    HW238121   4.314   3.826   4.959  1.1058  1.1833  1.5292
 8887SOL     OW38122   3.554   0.414   7.235 -0.1689  0.3092 -0.0760
 8887SOL    HW138123   3.646   0.425   7.211  1.0358 -0.9483  3.9515
 8887SOL    HW238124   3.542   0.473   7.310 -0.5028 -0.9090  0.8263
 8888SOL     OW38125   2.635   4.500  11.605 -0.2512 -0.7650 -0.0427
 8888SOL    HW138126   2.654   4.526  11.515  3.1050  0.2130  0.9194
 8888SOL    HW238127   2.722   4.502  11.647 -0.9596 -0.2462  1.3935
 8889SOL     OW38128   0.386   3.804   8.854  0.5118 -0.2073  0.1107
 8889SOL    HW138129   0.389   3.710   8.837  0.2535 -0.1679 -0.1557
 8889SOL    HW238130   0.471   3.835   8.822  0.3168 -1.0654 -1.2567
 8890SOL     OW38131   1.744   0.235   8.277  0.0010  0.7647  0.1613
 8890SOL    HW138132   1.786   0.321   8.283 -2.0505  1.8198 -0.5535
 8890SOL    HW238133   1.814   0.171   8.294 -1.5926 -0.8151  0.7439
 8891SOL     OW38134   2.293   3.511   4.202 -0.5105  0.0396 -0.1570
 8891SOL    HW138135   2.204   3.500   4.236 -0.7115  0.2638 -0.6083
 8891SOL    HW238136   2.284   3.606   4.206  3.0365  0.3834 -0.0990
 8892SOL     OW38137   2.346   2.302   8.894  0.1060  0.2728  0.1607
 8892SOL    HW138138   2.257   2.314   8.860  0.2143 -0.4895 -0.3959
 8892SOL    HW238139   2.383   2.244   8.828  0.3154 -2.1826  2.3885
 8893SOL     OW38140   0.937   0.549   7.675  0.2732 -0.3483  0.1833
 8893SOL    HW138141   0.884   0.565   7.753  2.9919  0.1051  1.9305
 8893SOL    HW238142   1.025   0.566   7.707 -0.1342  1.7672  0.1503
 8894SOL     OW38143   2.539   0.067  14.236 -0.1743 -0.3510 -0.0787
 8894SOL    HW138144   2.570   4.720  14.185  0.4300  0.5175 -0.9818
 8894SOL    HW238145   2.474   0.106  14.178  1.2309  0.4570 -1.1180
 8895SOL     OW38146   4.234   4.497  16.446  0.4224 -0.3589 -0.6268
 8895SOL    HW138147   4.193   4.582  16.451  0.3454 -0.4610  0.3623
 8895SOL    HW238148   4.217   4.471  16.355  1.5282 -2.5837 -0.2006
 8896SOL     OW38149   3.217   0.773   8.376 -0.3544 -0.0506 -0.1597
 8896SOL    HW138150   3.196   0.694   8.426  0.2312  0.2437  0.5591
 8896SOL    HW238151   3.211   0.832   8.452  0.9367 -0.9201  0.6237
 8897SOL     OW38152   0.237   0.329   2.127 -0.2353 -0.1372  0.1206
 8897SOL    HW138153   0.310   0.341   2.187  0.6493 -1.7424 -0.6311
 8897SOL    HW238154   0.166   0.373   2.174  0.3962  0.5856  0.3973
 8898SOL     OW38155   4.695   1.378   5.953  0.5305 -0.1824  0.5566
 8898SOL    HW138156   4.700   1.341   6.041 -0.9537  1.5356  1.3601
 8898SOL    HW238157   4.632   1.319   5.913 -0.3274  0.0332  1.5804
 8899SOL     OW38158   0.543   2.399   5.431  0.1517  0.0935 -0.0669
 8899SOL    HW138159   0.458   2.439   5.452 -0.6183 -1.8112  0.4821
 8899SOL    HW238160   0.595   2.476   5.408  1.0359 -0.5476 -0.1599
 8900SOL     OW38161   3.070   2.026  14.120 -0.0886  0.5762  0.2629
 8900SOL    HW138162   3.047   2.083  14.047 -0.5939 -0.5989 -0.4964
 8900SOL    HW238163   3.119   1.955  14.080 -0.4459 -0.6360  1.9682
 8901SOL     OW38164   4.659   3.596   6.936  0.1998  0.5578 -0.2176
 8901SOL    HW138165   4.591   3.567   6.875  1.4053 -0.5431 -1.0375
 8901SOL    HW238166   4.607   3.639   7.004  1.1852 -0.8402  1.4128
 8902SOL     OW38167   0.547   3.083  14.011  0.2020  0.2905 -0.9206
 8902SOL    HW138168   0.556   3.145  14.082 -1.8299 -2.1466  1.4862
 8902SOL    HW238169   0.563   3.000  14.055  1.0236  0.0328 -1.7045
 8903SOL     OW38170   1.310   1.055   7.075  0.2367  0.1456 -0.1270
 8903SOL    HW138171   1.280   0.981   7.128  2.2037 -0.7154 -0.2057
 8903SOL    HW238172   1.300   1.017   6.987 -1.4802  1.8326 -0.6438
 8904SOL     OW38173   4.220   2.460   2.740 -0.4318 -0.0310  0.0162
 8904SOL    HW138174   4.311   2.464   2.712 -0.1641 -0.6638  0.7921
 8904SOL    HW238175   4.222   2.403   2.817 -1.4314 -1.1011 -0.7440
 8905SOL     OW38176   1.126   0.868   5.693  0.2460  0.2400 -0.3016
 8905SOL    HW138177   1.054   0.929   5.706 -0.0817 -0.4272  1.0509
 8905SOL    HW238178   1.081   0.791   5.726 -0.9536  0.1613 -2.1071
 8906SOL     OW38179   2.726   2.995   5.222  0.5308 -0.0226 -0.2327
 8906SOL    HW138180   2.771   3.046   5.289 -0.7259  0.9037 -0.1128
 8906SOL    HW238181   2.775   3.021   5.144  0.4311  1.6493  0.2653
 8907SOL     OW38182   0.749   1.511  17.666 -0.6734 -0.7095 -0.4268
 8907SOL    HW138183   0.787   1.594  17.697  0.5445 -1.3195 -0.2935
 8907SOL    HW238184   0.827   1.468  17.632  0.3385  1.6983 -1.1041
 8908SOL     OW38185   3.123   3.154   7.843 -0.2743 -0.0133  0.3562
 8908SOL    HW138186   3.066   3.078   7.832 -0.3754  0.1524 -0.2387
 8908SOL    HW238187   3.075   3.202   7.911  1.0443 -2.6601  3.1582
 8909SOL     OW38188   3.507   3.583   0.831  0.1344 -0.3183  0.3275
 8909SOL    HW138189   3.544   3.671   0.821 -0.7894  0.4653  3.6712
 8909SOL    HW238190   3.488   3.553   0.742 -2.0285 -1.4594  1.1907
 8910SOL     OW38191   0.756   2.373   3.760  0.6936 -0.3776 -0.2478
 8910SOL    HW138192   0.679   2.424   3.785  2.9445  2.7030  0.3892
 8910SOL    HW238193   0.816   2.447   3.751 -1.7576  1.4906 -1.2481
 8911SOL     OW38194   1.968   2.480   6.675 -0.4845  0.4799 -0.1511
 8911SOL    HW138195   2.060   2.469   6.697 -1.0799 -2.4132  0.8538
 8911SOL    HW238196   1.967   2.575   6.676  0.4409  0.4923 -0.4299
 8912SOL     OW38197   1.014   3.859  15.128  0.0836 -0.1457 -0.0033
 8912SOL    HW138198   0.941   3.849  15.189 -0.5815  2.5719 -0.3424
 8912SOL    HW238199   1.053   3.937  15.169 -0.4864  1.1080 -1.8319
 8913SOL     OW38200   4.307   2.150   7.395  0.4157  0.2038  0.3990
 8913SOL    HW138201   4.326   2.236   7.356  0.6895 -0.2876 -0.5437
 8913SOL    HW238202   4.233   2.112   7.348  0.0143 -0.3839  1.5162
 8914SOL     OW38203   0.289   3.599   7.302 -0.0553  0.1208 -0.0779
 8914SOL    HW138204   0.284   3.694   7.293 -1.6188  0.2134  1.6744
 8914SOL    HW238205   0.248   3.591   7.388 -0.8637  0.5363 -0.4239
 8915SOL     OW38206   2.698   3.950   8.298 -0.6961  0.5417 -0.0915
 8915SOL    HW138207   2.620   3.982   8.343  0.1289  1.9089  0.3691
 8915SOL    HW238208   2.740   4.031   8.269 -0.3847 -0.1279 -1.5522
 8916SOL     OW38209   0.579   1.487   6.677 -0.1089 -0.0559 -0.4273
 8916SOL    HW138210   0.543   1.411   6.722  2.0910  0.0406  1.4798
 8916SOL    HW238211   0.574   1.547   6.752  0.1124  0.2123 -0.6249
 8917SOL     OW38212   2.028   0.075   1.000  1.0354 -0.0886 -0.1924
 8917SOL    HW138213   2.071   0.161   1.008  1.8551 -0.5423  0.2993
 8917SOL    HW238214   1.941   0.103   0.972  0.7003  1.5847  2.5527
 8918SOL     OW38215   3.481   1.620   8.985 -0.4321  0.5564 -0.8117
 8918SOL    HW138216   3.530   1.689   9.029  1.9035 -0.6368 -1.5010
 8918SOL    HW238217   3.550   1.575   8.935 -1.4672 -0.7499 -1.0756
 8919SOL     OW38218   2.363   2.506  17.341 -0.3893 -0.2176 -0.4334
 8919SOL    HW138219   2.332   2.534  17.428  0.3109  0.5851 -0.4424
 8919SOL    HW238220   2.355   2.582  17.284 -0.4789  0.2402  0.1833
 8920SOL     OW38221   2.474   3.721  11.991 -0.0224  0.1087  0.1840
 8920SOL    HW138222   2.417   3.791  12.024 -0.6845  0.6290 -2.0937
 8920SOL    HW238223   2.461   3.666  12.069 -1.0387  2.4116  1.6255
 8921SOL     OW38224   3.916   3.423   5.139  0.3822 -0.6864 -0.1695
 8921SOL    HW138225   3.974   3.474   5.196 -0.2900 -1.2397  1.0130
 8921SOL    HW238226   3.831   3.453   5.170  0.5750  0.2995 -0.6017
 8922SOL     OW38227   3.356   3.724   8.916  0.3021 -0.1512 -0.2599
 8922SOL    HW138228   3.300   3.801   8.902 -0.9461 -0.6203  2.1670
 8922SOL    HW238229   3.311   3.668   8.853  0.9535 -0.7142 -0.2240
 8923SOL     OW38230   2.681   3.939  15.393  0.1325  0.3906 -0.8028
 8923SOL    HW138231   2.737   3.915  15.319 -0.9533  1.8995 -2.1254
 8923SOL    HW238232   2.632   4.011  15.354 -0.2356  1.0673  0.8857
 8924SOL     OW38233   4.447   0.550   8.483 -0.0726  0.1507  0.9143
 8924SOL    HW138234   4.496   0.613   8.430  0.7304 -0.6254  0.7373
 8924SOL    HW238235   4.476   0.459   8.474 -0.1970  0.1116  0.9090
 8925SOL     OW38236   3.326   2.548   6.637  0.0822 -0.3272 -0.0112
 8925SOL    HW138237   3.313   2.617   6.572 -1.6922  0.4149  1.1488
 8925SOL    HW238238   3.420   2.561   6.653  0.0526  0.8519 -0.8089
 8926SOL     OW38239   2.604   0.907  11.390 -0.0452 -0.1613 -0.3288
 8926SOL    HW138240   2.678   0.952  11.432 -0.1037 -1.2253  0.9192
 8926SOL    HW238241   2.598   0.952  11.306  1.4078 -1.6691 -1.2373
 8927SOL     OW38242   0.812   3.161   5.638  0.2540 -0.1797  0.1836
 8927SOL    HW138243   0.900   3.125   5.634  0.1586 -0.5847  1.5797
 8927SOL    HW238244   0.804   3.177   5.544 -0.4803 -3.6024 -0.3451
 8928SOL     OW38245   0.505   1.420   9.983 -0.0775 -0.0375  0.0839
 8928SOL    HW138246   0.543   1.380   9.905 -2.1226  0.0734 -0.9803
 8928SOL    HW238247   0.575   1.424  10.048 -0.3164  0.4728  0.3109
 8929SOL     OW38248   4.318   1.063   5.763 -0.5525  0.5206 -0.2395
 8929SOL    HW138249   4.277   0.998   5.820 -0.4547 -0.9218 -1.8217
 8929SOL    HW238250   4.252   1.133   5.762 -0.9612  0.1399  0.7155
 8930SOL     OW38251   0.725   4.394  10.470 -0.1450 -0.0351 -0.4765
 8930SOL    HW138252   0.787   4.422  10.538  0.6626  1.0454 -1.6621
 8930SOL    HW238253   0.663   4.467  10.473 -0.4272 -0.3788  2.0563
 8931SOL     OW38254   3.640   3.568   9.641  0.0945  0.7683 -0.0806
 8931SOL    HW138255   3.632   3.641   9.703  2.2822  2.5463 -1.8956
 8931SOL    HW238256   3.732   3.545   9.649 -0.0101  0.0613 -1.0013
 8932SOL     OW38257   3.935   2.825   5.168  0.3841 -0.4661  0.5084
 8932SOL    HW138258   4.024   2.845   5.141  0.5161 -0.2710  1.0853
 8932SOL    HW238259   3.925   2.860   5.257  2.0081 -0.8013  0.8181
 8933SOL     OW38260   3.078   1.983   3.550  0.2524  0.4318 -0.1841
 8933SOL    HW138261   3.119   1.897   3.554 -1.0817 -0.1524  0.9216
 8933SOL    HW238262   3.140   2.043   3.509  0.9260 -0.4622 -0.4905
 8934SOL     OW38263   3.916   4.311   6.864  0.3279 -0.0883  0.7271
 8934SOL    HW138264   3.943   4.222   6.837 -1.1430 -0.1619 -0.4715
 8934SOL    HW238265   3.988   4.364   6.829 -0.9460  2.3008  1.7250
 8935SOL     OW38266   3.909   2.688   6.049 -0.0339  0.0623 -0.4879
 8935SOL    HW138267   3.940   2.738   6.124  2.4519 -0.1904 -1.3517
 8935SOL    HW238268   3.851   2.757   6.016 -2.3634 -1.0742  1.2301
 8936SOL     OW38269   2.386   3.315   4.860 -0.0258  0.4517  0.5418
 8936SOL    HW138270   2.388   3.411   4.855 -3.8162  0.4014 -1.7082
 8936SOL    HW238271   2.353   3.297   4.948 -3.7082  0.0551 -0.8998
 8937SOL     OW38272   0.147   0.847   8.290 -0.0880 -0.5405  0.0901
 8937SOL    HW138273   0.120   0.918   8.232 -3.2304  0.7543  3.1522
 8937SOL    HW238274   0.217   0.878   8.347 -0.6205  0.5775  0.1340
 8938SOL     OW38275   3.186   0.069   8.224 -0.3867  0.1306 -0.2742
 8938SOL    HW138276   3.258   0.072   8.162  0.8556  1.4749  1.2159
 8938SOL    HW238277   3.178   4.702   8.231  0.6381  0.0534 -0.1980
 8939SOL     OW38278   3.473   3.079   1.398  0.1680 -0.0667  0.3430
 8939SOL    HW138279   3.463   3.169   1.367 -0.6326 -0.4139 -0.3882
 8939SOL    HW238280   3.403   3.070   1.462 -0.3889 -0.7843 -0.3703
 8940SOL     OW38281   1.619   0.661  13.791 -0.1694  0.0162 -0.5273
 8940SOL    HW138282   1.684   0.731  13.799 -0.9697  0.8491 -1.3663
 8940SOL    HW238283   1.681   0.590  13.776 -1.5214 -1.1323 -0.6626
 8941SOL     OW38284   2.996   4.668   8.042  0.2156  0.1923  1.0129
 8941SOL    HW138285   3.007   4.593   8.100  0.5895 -0.6063 -0.1008
 8941SOL    HW238286   2.966   0.006   8.105  1.1847  1.5089  0.0751
 8942SOL     OW38287   4.659   4.483  12.573  0.2935  0.0116  0.0729
 8942SOL    HW138288   4.703   4.426  12.509  1.5718  0.1041  0.8795
 8942SOL    HW238289   4.671   4.573  12.543  0.1997  0.4935  1.5223
 8943SOL     OW38290   4.339   4.450   2.246  0.2782  1.0017 -0.1662
 8943SOL    HW138291   4.387   4.530   2.223 -0.1880  1.1067 -0.7569
 8943SOL    HW238292   4.368   4.390   2.177 -0.7266 -2.8983  2.7749
 8944SOL     OW38293   0.692   3.564   9.379  0.1342 -0.1919  0.1387
 8944SOL    HW138294   0.597   3.549   9.380  0.6538 -3.4659 -0.4789
 8944SOL    HW238295   0.728   3.480   9.349  0.0831 -0.3878  0.6274
 8945SOL     OW38296   2.667   0.429   8.323 -0.1697 -0.7757 -0.0297
 8945SOL    HW138297   2.762   0.428   8.317 -0.0835 -0.3150  1.0933
 8945SOL    HW238298   2.656   0.470   8.409 -0.3583  0.2504 -0.5432
 8946SOL     OW38299   1.864   0.153   1.896 -0.3044  0.2901 -0.3149
 8946SOL    HW138300   1.853   0.208   1.974 -1.1871 -3.0114  1.8538
 8946SOL    HW238301   1.863   0.061   1.923 -1.5952  0.8643  1.6130
 8947SOL     OW38302   0.538   2.149   3.264  0.2968  0.5819 -0.0402
 8947SOL    HW138303   0.581   2.221   3.218 -0.1330  1.4219  0.8761
 8947SOL    HW238304   0.480   2.121   3.194  1.4394  2.6933 -1.8224
 8948SOL     OW38305   0.189   0.154   9.941  0.1422 -0.1497  0.1014
 8948SOL    HW138306   0.136   0.170  10.019  0.1302 -1.7003  0.3955
 8948SOL    HW238307   0.247   0.229   9.954  0.5556 -0.1392 -1.8675
 8949SOL     OW38308   3.505   4.539   4.240  0.3896 -0.3588  0.5351
 8949SOL    HW138309   3.529   4.456   4.199 -1.4034 -0.9623  0.7250
 8949SOL    HW238310   3.501   4.507   4.330  0.4678  0.1395  0.7184
 8950SOL     OW38311   3.167   4.149  12.770  0.2349  0.0481 -0.2684
 8950SOL    HW138312   3.133   4.233  12.800 -1.5705 -0.9123  0.4077
 8950SOL    HW238313   3.087   4.106  12.738 -0.6824  0.1496  1.8503
 8951SOL     OW38314   3.140   0.308   9.200 -0.3877 -0.2043 -0.4051
 8951SOL    HW138315   3.067   0.321   9.260 -0.4802 -0.0101 -0.5565
 8951SOL    HW238316   3.109   0.322   9.110 -0.6834 -0.2483 -0.3092
 8952SOL     OW38317   3.104   1.342   5.790  0.0782  0.0551 -0.2701
 8952SOL    HW138318   3.159   1.278   5.834 -0.4563  0.2744  0.7100
 8952SOL    HW238319   3.023   1.291   5.794 -0.9009  1.7401  1.7187
 8953SOL     OW38320   0.978   4.300   0.678 -0.0273 -0.4502  0.0473
 8953SOL    HW138321   1.062   4.266   0.707 -0.5900 -0.3526  1.8216
 8953SOL    HW238322   0.996   4.389   0.708  0.7772  0.5734 -3.4965
 8954SOL     OW38323   4.716   1.487   1.755  0.5251 -0.6198 -0.1852
 8954SOL    HW138324   0.057   1.538   1.713 -1.5174  2.5499  0.2586
 8954SOL    HW238325   4.691   1.424   1.687  0.4940 -1.3941  0.5560
 8955SOL     OW38326   4.515   2.782  13.882  0.7364  0.2438  0.2416
 8955SOL    HW138327   4.598   2.801  13.926  0.1589 -0.2393  1.5377
 8955SOL    HW238328   4.477   2.869  13.870  0.6928  0.2121  0.1535
 8956SOL     OW38329   0.764   2.238   4.104  0.0750 -0.6224  0.4474
 8956SOL    HW138330   0.737   2.214   4.015 -0.0709  0.0849  0.2929
 8956SOL    HW238331   0.711   2.174   4.151 -0.7129 -0.9552 -0.8646
 8957SOL     OW38332   4.660   2.888   0.534 -0.0390 -0.0955  0.1496
 8957SOL    HW138333   4.700   2.847   0.611 -0.2084  0.3465  0.4748
 8957SOL    HW238334   4.725   2.958   0.524  0.1475 -0.4901 -1.3043
 8958SOL     OW38335   0.138   3.468  15.001 -0.2753 -0.1222  0.2153
 8958SOL    HW138336   0.166   3.380  15.026  0.5792  0.2250  0.5015
 8958SOL    HW238337   0.210   3.522  15.034 -0.2882 -1.1399  1.9054
 8959SOL     OW38338   1.011   1.009  17.595  0.5257 -0.8190  0.5190
 8959SOL    HW138339   0.978   0.969  17.515  0.2479  0.5043 -0.0172
 8959SOL    HW238340   1.085   0.949  17.608 -0.4540 -1.9183  0.9247
 8960SOL     OW38341   4.328   0.675   1.975  0.0277  0.2601 -0.0624
 8960SOL    HW138342   4.285   0.751   1.935 -2.0396  1.2741  4.0674
 8960SOL    HW238343   4.306   0.602   1.917  0.1590  0.1791 -0.0110
 8961SOL     OW38344   2.500   2.119   9.200 -0.2989 -0.0995 -0.3095
 8961SOL    HW138345   2.516   2.190   9.137 -2.5839  0.4892 -0.2259
 8961SOL    HW238346   2.537   2.047   9.150 -0.3845 -0.2450 -0.1604
 8962SOL     OW38347   0.411   0.952  15.010 -0.3074  0.1404 -0.0459
 8962SOL    HW138348   0.362   0.992  14.938 -1.9720  0.1808  1.0977
 8962SOL    HW238349   0.368   0.871  15.037 -0.5025  0.5822  0.9525
 8963SOL     OW38350   3.409   0.383   3.829  0.2848  0.5556 -0.0558
 8963SOL    HW138351   3.404   0.351   3.920  0.2421  1.5711  0.2963
 8963SOL    HW238352   3.499   0.356   3.809  1.0247  2.3002  0.8882
 8964SOL     OW38353   1.718   1.277   5.526 -0.2413 -0.6589  0.3584
 8964SOL    HW138354   1.726   1.370   5.549  2.1850 -0.6964 -0.3111
 8964SOL    HW238355   1.753   1.231   5.602 -0.4517 -1.7972 -0.2305
 8965SOL     OW38356   2.243   1.745  14.201  0.4774 -0.2629 -0.5756
 8965SOL    HW138357   2.211   1.699  14.279 -3.2624  1.8412 -0.8592
 8965SOL    HW238358   2.334   1.761  14.228  0.0045 -0.7334  1.3302
 8966SOL     OW38359   2.204   1.951   0.154 -0.2703  0.3271 -0.1180
 8966SOL    HW138360   2.196   1.856   0.139  2.7810  0.0001  0.3164
 8966SOL    HW238361   2.297   1.952   0.177 -0.2089 -2.0548 -0.1792
 8967SOL     OW38362   2.081   3.976   6.332 -0.0324 -0.3600  0.5875
 8967SOL    HW138363   2.165   4.013   6.358  0.4013  0.2143 -1.6109
 8967SOL    HW238364   2.010   4.033   6.361 -0.0946  0.0772 -0.4213
 8968SOL     OW38365   0.814   2.425   2.859  0.3505 -0.5213 -0.5733
 8968SOL    HW138366   0.896   2.426   2.809 -0.1768 -2.0665 -1.4966
 8968SOL    HW238367   0.762   2.385   2.789 -1.2060  0.1063  0.2451
 8969SOL     OW38368   4.260   3.667  10.083  0.1158  0.4797  0.1594
 8969SOL    HW138369   4.181   3.683  10.134  1.7224 -0.0937  2.8280
 8969SOL    HW238370   4.294   3.756  10.080 -0.9567  0.9142  1.1355
 8970SOL     OW38371   3.967   0.508   3.296  0.1843 -0.3340  0.1421
 8970SOL    HW138372   3.894   0.569   3.305  0.0218 -0.7374  1.5553
 8970SOL    HW238373   4.009   0.517   3.382 -0.8132  1.6607  0.4120
 8971SOL     OW38374   4.024   4.045   7.066  0.7833 -0.5490  0.0789
 8971SOL    HW138375   4.030   4.037   6.971 -1.5663 -3.4528  0.1890
 8971SOL    HW238376   4.081   4.122   7.073 -0.2546  0.2850 -0.7340
 8972SOL     OW38377   3.823   1.024   4.156  0.0374  0.4377  0.3588
 8972SOL    HW138378   3.781   1.018   4.242  2.8913  1.7238  1.8406
 8972SOL    HW238379   3.868   0.939   4.151  1.8543  1.6555 -3.7689
 8973SOL     OW38380   2.175   4.624   0.832 -0.6708  0.0992  0.2620
 8973SOL    HW138381   2.111   4.695   0.828 -1.2167 -0.2986  2.1109
 8973SOL    HW238382   2.247   4.677   0.868 -0.8697  1.2304 -0.9865
 8974SOL     OW38383   3.435   0.453  16.001 -0.6010  0.0799 -0.2339
 8974SOL    HW138384   3.518   0.412  16.027 -0.2071  0.7116 -0.5047
 8974SOL    HW238385   3.473   0.508  15.932 -1.0240  2.3597  1.3525
 8975SOL     OW38386   2.200   3.039   4.575  0.0313 -0.3361  0.2017
 8975SOL    HW138387   2.246   2.955   4.577  1.7163  0.6080  1.0265
 8975SOL    HW238388   2.209   3.060   4.482 -0.4931  1.2379  0.4995
 8976SOL     OW38389   4.317   2.614   4.639 -0.1365 -0.3766 -0.1152
 8976SOL    HW138390   4.328   2.639   4.547 -1.6834  0.6448 -0.0301
 8976SOL    HW238391   4.321   2.519   4.644 -2.2401 -0.4446  0.1210
 8977SOL     OW38392   2.178   2.364   2.587  0.2945 -0.1357 -0.2772
 8977SOL    HW138393   2.171   2.443   2.641 -1.0629 -0.3553 -0.1275
 8977SOL    HW238394   2.207   2.389   2.499 -2.1664 -2.3554 -1.7470
 8978SOL     OW38395   3.104   1.636   0.442  0.0371 -0.2171 -0.2467
 8978SOL    HW138396   3.045   1.587   0.499 -0.7497  0.6671 -0.3080
 8978SOL    HW238397   3.172   1.665   0.503  0.2870 -1.0634 -0.1203
 8979SOL     OW38398   3.931   3.072  17.566  0.1431 -0.1090 -0.7038
 8979SOL    HW138399   3.915   3.160  17.600  0.0998  0.4396 -2.1488
 8979SOL    HW238400   3.839   3.046  17.557 -0.4060  1.8360 -0.5636
 8980SOL     OW38401   0.553   3.203   6.312 -0.0614  0.7355  0.3726
 8980SOL    HW138402   0.571   3.202   6.406 -0.2090  0.8609  0.4023
 8980SOL    HW238403   0.458   3.194   6.324  0.0929  0.8272  1.6133
 8981SOL     OW38404   2.394   4.349  17.671 -0.7926  0.0780  0.4788
 8981SOL    HW138405   2.370   4.357  17.578 -1.3323  1.8575  0.7617
 8981SOL    HW238406   2.319   4.395  17.708 -1.9790 -2.9349  1.7990
 8982SOL     OW38407   1.983   4.415   8.744  0.4244 -0.7434 -0.2003
 8982SOL    HW138408   1.925   4.480   8.783 -0.2029 -2.1717  1.2625
 8982SOL    HW238409   1.955   4.428   8.653 -0.8434  2.7691  0.6990
 8983SOL     OW38410   2.248   0.957   4.966  0.3025  0.0889 -0.6928
 8983SOL    HW138411   2.177   0.974   4.903 -0.7561 -0.3880  0.3828
 8983SOL    HW238412   2.224   0.866   4.984 -0.7747  0.4862 -0.0695
 8984SOL     OW38413   1.631   4.605  14.339  0.3271  0.0228  0.4974
 8984SOL    HW138414   1.606   4.516  14.314 -0.5075  0.4187 -0.0910
 8984SOL    HW238415   1.655   4.643  14.254  0.6792 -2.2718 -0.4223
 8985SOL     OW38416   2.495   2.610  16.389  0.4950  0.5436 -0.0173
 8985SOL    HW138417   2.483   2.615  16.484 -0.8065  5.4705 -0.4480
 8985SOL    HW238418   2.416   2.577  16.345 -1.5238  2.8374  1.9288
 8986SOL     OW38419   0.058   0.674   5.788 -0.2238  0.3054 -0.1582
 8986SOL    HW138420   0.102   0.614   5.728  1.3610  1.7282 -0.4256
 8986SOL    HW238421   0.130   0.735   5.804 -1.0434  0.2844  3.4880
 8987SOL     OW38422   1.798   3.329   0.296  0.4016 -0.3404 -0.0517
 8987SOL    HW138423   1.717   3.375   0.276  1.0447  1.0799  0.6362
 8987SOL    HW238424   1.862   3.397   0.276  1.1809 -1.0432  0.0775
 8988SOL     OW38425   3.373   3.568   4.271  0.2314 -0.2051 -0.4820
 8988SOL    HW138426   3.278   3.580   4.264  0.5101  1.8491 -0.7114
 8988SOL    HW238427   3.381   3.495   4.332 -0.1463 -0.9671 -1.3348
 8989SOL     OW38428   0.391   3.757   2.072 -0.0091 -0.4583 -0.1152
 8989SOL    HW138429   0.406   3.664   2.051  2.0381 -0.3259  0.6707
 8989SOL    HW238430   0.329   3.753   2.145  0.1715  2.1861  0.1782
 8990SOL     OW38431   1.266   1.920   7.300  0.2851 -0.2107  0.5907
 8990SOL    HW138432   1.339   1.981   7.301 -0.4763  0.6841  1.6276
 8990SOL    HW238433   1.194   1.983   7.301  0.4543 -0.0490  2.2124
 8991SOL     OW38434   2.659   3.598   1.115 -0.1978 -0.8096  0.5369
 8991SOL    HW138435   2.732   3.648   1.152 -1.6174  1.0754  0.8010
 8991SOL    HW238436   2.701   3.565   1.036  0.0412 -0.5019  0.5347
 8992SOL     OW38437   0.281   1.986  16.387  0.0334  0.0070  0.2624
 8992SOL    HW138438   0.306   1.931  16.461  0.4201 -1.9834 -1.3685
 8992SOL    HW238439   0.265   1.918  16.322 -0.0174 -0.9441  1.2715
 8993SOL     OW38440   0.059   0.082  12.286  0.0038  0.1183  0.0295
 8993SOL    HW138441   4.727   0.140  12.239  1.1154  1.8405  0.6965
 8993SOL    HW238442   0.004   0.087  12.365  0.9287  0.8821  0.6273
 8994SOL     OW38443   3.869   0.954   6.196 -0.2967  0.1840 -0.3488
 8994SOL    HW138444   3.799   1.009   6.229  0.1527 -0.1668  1.2000
 8994SOL    HW238445   3.933   1.015   6.160  0.7550 -1.2608 -0.9669
 8995SOL     OW38446   0.552   0.750   2.182  0.3686 -0.5375  0.2559
 8995SOL    HW138447   0.475   0.696   2.202  0.0970  0.7867  2.8200
 8995SOL    HW238448   0.582   0.768   2.271  3.4447 -0.0405 -0.9101
 8996SOL     OW38449   4.133   4.492   4.046  0.3162  0.0934 -0.7858
 8996SOL    HW138450   4.111   4.584   4.032 -0.3152  0.3739  2.1355
 8996SOL    HW238451   4.045   4.455   4.052  0.6451 -0.9417 -2.1946
 8997SOL     OW38452   3.225   2.132   1.683  0.1919 -0.2552 -0.1641
 8997SOL    HW138453   3.139   2.089   1.679 -0.5262  0.6748  4.3107
 8997SOL    HW238454   3.219   2.180   1.766  1.0913 -0.6988  0.1578
 8998SOL     OW38455   3.796   0.867   8.243 -0.0174 -0.0532  0.0369
 8998SOL    HW138456   3.746   0.816   8.179  0.6005  0.9573 -1.2697
 8998SOL    HW238457   3.815   0.811   8.318  1.3327  0.4769  0.0851
 8999SOL     OW38458   2.453   1.796   1.837 -0.2051  0.3272  0.5353
 8999SOL    HW138459   2.545   1.770   1.847 -0.3153  0.1950  1.2102
 8999SOL    HW238460   2.424   1.722   1.784  0.8582  1.5886 -1.8216
 9000SOL     OW38461   4.726   2.242   5.010  0.0141 -0.1789  0.0826
 9000SOL    HW138462   4.673   2.243   5.090  0.4395  2.9039  0.3300
 9000SOL    HW238463   4.664   2.191   4.958  0.9030 -0.0981 -1.0249
 9001SOL     OW38464   4.211   0.213   6.358 -0.0547 -0.5906 -0.6373
 9001SOL    HW138465   4.278   0.169   6.411 -0.2658 -0.4292 -0.2344
 9001SOL    HW238466   4.200   0.299   6.399  0.7815  0.3753 -2.4736
 9002SOL     OW38467   3.949   2.728   7.954 -0.2085 -0.5301  0.6756
 9002SOL    HW138468   3.929   2.747   8.045  2.1477  2.2507  0.5916
 9002SOL    HW238469   3.871   2.772   7.920  0.2806 -0.5383 -0.4705
 9003SOL     OW38470   0.308   4.573   8.228  0.2100 -0.3506 -0.1586
 9003SOL    HW138471   0.319   4.651   8.282 -1.6060 -1.2298  1.4776
 9003SOL    HW238472   0.280   4.511   8.295 -1.0166  1.8399  1.3518
 9004SOL     OW38473   3.609   0.769   6.073 -0.4537 -0.3306  0.2483
 9004SOL    HW138474   3.547   0.831   6.111  1.3797  1.0177  1.0354
 9004SOL    HW238475   3.667   0.763   6.149  0.8776 -0.5972 -0.7916
 9005SOL     OW38476   4.212   3.878   3.497  0.4015  0.2771  0.3511
 9005SOL    HW138477   4.241   3.927   3.574 -1.4369  1.3041  0.4027
 9005SOL    HW238478   4.156   3.943   3.454  1.0125  0.6270  0.0865
 9006SOL     OW38479   2.193   2.191   3.402 -0.2281  0.4458 -0.4589
 9006SOL    HW138480   2.154   2.252   3.465 -1.2065  0.2608 -0.8789
 9006SOL    HW238481   2.265   2.240   3.362 -1.3966  2.7754  0.2409
 9007SOL     OW38482   1.317   3.119  17.362  0.3791 -0.4738  0.0570
 9007SOL    HW138483   1.349   3.057  17.296  2.7021  1.3055 -0.4625
 9007SOL    HW238484   1.334   3.079  17.448 -1.6081  2.1921  1.6641
 9008SOL     OW38485   4.196   3.740   6.806  0.1462  0.0897 -0.0676
 9008SOL    HW138486   4.144   3.737   6.887 -0.1352  2.7656 -0.1346
 9008SOL    HW238487   4.125   3.711   6.749  0.5374 -1.7619  0.3876
 9009SOL     OW38488   2.269   2.347  14.080  0.0337 -0.6490  0.1161
 9009SOL    HW138489   2.291   2.415  14.144 -1.1126  0.4165 -0.6121
 9009SOL    HW238490   2.339   2.283  14.092  0.6617  0.5795  3.1966
 9010SOL     OW38491   1.618   4.527   1.994  0.4230  0.5424  0.2822
 9010SOL    HW138492   1.568   4.478   1.929  2.3258 -2.0177  0.7147
 9010SOL    HW238493   1.561   4.566   2.059 -0.2467 -1.1000  0.6966
 9011SOL     OW38494   0.412   1.795   8.785  0.0100  0.0901 -0.5208
 9011SOL    HW138495   0.468   1.753   8.719  0.5182 -1.1551  0.6895
 9011SOL    HW238496   0.475   1.801   8.858 -1.6271  1.5627  0.7608
 9012SOL     OW38497   0.524   2.554   2.512 -0.0897  0.3197 -0.4157
 9012SOL    HW138498   0.477   2.630   2.545 -0.0035 -0.2057  0.9220
 9012SOL    HW238499   0.616   2.583   2.509  0.3965 -0.8029  3.5068
 9013SOL     OW38500   0.957   1.064   4.412 -0.1630 -0.5834  0.5969
 9013SOL    HW138501   1.038   1.091   4.370 -1.0042  2.5262  0.9199
 9013SOL    HW238502   0.983   1.059   4.504  0.4895  1.1180  0.5020
 9014SOL     OW38503   2.685   0.930  14.213  0.1638 -0.5617  0.2001
 9014SOL    HW138504   2.590   0.936  14.223  0.3030  1.5991  0.2241
 9014SOL    HW238505   2.705   0.987  14.138 -2.9544  0.4288  0.1485
 9015SOL     OW38506   0.856   1.648  11.754 -0.5403 -0.0879  0.0166
 9015SOL    HW138507   0.869   1.565  11.800 -1.4647  0.2063  0.8205
 9015SOL    HW238508   0.869   1.609  11.668 -2.8048  0.7960 -0.7310
 9016SOL     OW38509   4.270   3.210  17.500 -0.2177 -0.0875  0.3117
 9016SOL    HW138510   4.245   3.118  17.489  1.4142 -0.3472 -1.1985
 9016SOL    HW238511   4.345   3.198  17.558  0.7204  0.2458 -0.8489
 9017SOL     OW38512   1.819   3.465  12.358  0.7899 -0.0817  0.8656
 9017SOL    HW138513   1.830   3.560  12.364 -3.9072  0.4497  1.5181
 9017SOL    HW238514   1.772   3.435  12.436 -0.2951 -3.3091 -1.0315
 9018SOL     OW38515   2.858   3.111   8.807 -0.3982 -0.4673  0.9175
 9018SOL    HW138516   2.843   3.048   8.737  1.0739  0.7579 -0.4880
 9018SOL    HW238517   2.930   3.058   8.840 -1.0947 -2.9120 -1.5021
 9019SOL     OW38518   4.604   0.410   6.211  0.6843 -0.3895 -0.3427
 9019SOL    HW138519   4.631   0.351   6.281  0.6643 -0.8370 -0.7125
 9019SOL    HW238520   4.687   0.440   6.173  0.7647  0.7351  0.7090
 9020SOL     OW38521   1.102   1.577   8.405 -0.6405  0.9861 -0.2528
 9020SOL    HW138522   1.139   1.613   8.486 -1.9205 -0.0441  0.7884
 9020SOL    HW238523   1.055   1.504   8.446  2.4273  0.0218  1.5857
 9021SOL     OW38524   1.687   2.006   5.983  0.2403  0.0128 -0.8755
 9021SOL    HW138525   1.757   2.051   5.936 -0.0480 -0.4346 -1.7208
 9021SOL    HW238526   1.686   1.924   5.935 -2.5529 -1.5978  1.9152
 9022SOL     OW38527   1.047   1.204   6.815  0.2449  0.4145  0.2808
 9022SOL    HW138528   1.027   1.238   6.902 -1.5021  0.9325 -0.3304
 9022SOL    HW238529   1.088   1.280   6.773  2.1380 -1.4927 -1.3415
 9023SOL     OW38530   2.493   3.186   2.909 -0.0006 -0.2188  0.0940
 9023SOL    HW138531   2.499   3.114   2.971 -0.2166 -1.5109 -1.3714
 9023SOL    HW238532   2.434   3.130   2.857  1.7049 -2.7553  0.8887
 9024SOL     OW38533   2.022   1.200   2.687  0.0884 -0.3567 -0.9810
 9024SOL    HW138534   2.054   1.170   2.602 -0.9091 -1.9857 -0.7883
 9024SOL    HW238535   1.933   1.218   2.658  0.1043 -0.3435 -1.0209
 9025SOL     OW38536   1.110   3.542  11.278  0.2493 -0.1863 -0.1903
 9025SOL    HW138537   1.068   3.528  11.363  2.0031 -0.1787  0.6857
 9025SOL    HW238538   1.047   3.510  11.213 -2.7376  0.6775  2.2807
 9026SOL     OW38539   1.391   0.565   2.635 -0.5652 -0.2153 -0.0709
 9026SOL    HW138540   1.411   0.659   2.644 -2.4804  0.3081 -1.2721
 9026SOL    HW238541   1.445   0.526   2.704 -0.0775 -1.3326 -1.0827
 9027SOL     OW38542   1.944   4.409   8.462 -0.2248  0.7973 -0.8071
 9027SOL    HW138543   1.931   4.321   8.428 -2.0970  1.0001 -0.6487
 9027SOL    HW238544   1.900   4.460   8.394 -0.3741  0.3679 -1.0312
 9028SOL     OW38545   4.206   4.627   6.924 -0.1880 -0.0051  0.1509
 9028SOL    HW138546   4.271   4.690   6.895  1.1913 -2.0115 -1.1555
 9028SOL    HW238547   4.240   4.545   6.887 -0.0014  0.4700 -0.7288
 9029SOL     OW38548   2.793   3.375   4.031  0.1543  0.2392  0.0789
 9029SOL    HW138549   2.789   3.450   3.972  1.5586 -0.2790 -0.6787
 9029SOL    HW238550   2.770   3.414   4.115 -0.8666 -1.8149  0.7753
 9030SOL     OW38551   4.226   0.802   8.762  0.0163  0.0877  0.0894
 9030SOL    HW138552   4.222   0.816   8.856  0.5090 -1.6349  0.3657
 9030SOL    HW238553   4.153   0.741   8.754  1.0733 -0.9781 -1.5017
 9031SOL     OW38554   4.378   2.119   7.020  0.5895 -0.0888 -0.2661
 9031SOL    HW138555   4.433   2.049   7.056 -1.3846 -1.0397  0.8776
 9031SOL    HW238556   4.446   2.185   7.036 -0.4360  1.4834 -2.2961
 9032SOL     OW38557   0.153   2.638   8.112  0.0695 -0.3153 -0.4370
 9032SOL    HW138558   0.078   2.580   8.120  0.7426 -1.1749 -0.3476
 9032SOL    HW238559   0.130   2.703   8.178 -0.3063  0.8440 -1.6935
 9033SOL     OW38560   4.243   2.082   4.224  0.4094  0.2961 -0.3861
 9033SOL    HW138561   4.166   2.134   4.202  0.0516 -0.4891 -1.0007
 9033SOL    HW238562   4.208   2.024   4.293 -0.4383  2.1608  0.7540
 9034SOL     OW38563   4.280   2.178  11.734  0.5024 -0.2038  0.2794
 9034SOL    HW138564   4.280   2.224  11.650 -0.0481  0.0311  0.4077
 9034SOL    HW238565   4.333   2.105  11.703 -0.6283 -1.6143  1.6535
 9035SOL     OW38566   3.124   0.289   6.528  0.1882  0.4002  0.3521
 9035SOL    HW138567   3.072   0.283   6.609 -0.1743  1.3746  0.1945
 9035SOL    HW238568   3.178   0.365   6.552 -0.3977  0.9783 -0.1613
 9036SOL     OW38569   3.074   3.745   1.571 -0.1024 -0.2633 -0.3232
 9036SOL    HW138570   3.052   3.754   1.479  0.5734 -1.8349 -0.6432
 9036SOL    HW238571   2.988   3.746   1.614 -0.1817 -2.5379 -0.3918
 9037SOL     OW38572   2.208   1.069  10.282 -0.1191  0.3688  0.0435
 9037SOL    HW138573   2.191   1.160  10.258  3.9091  0.7594 -1.3248
 9037SOL    HW238574   2.150   1.049  10.355 -0.1163  1.9322  0.4683
 9038SOL     OW38575   1.198   3.754   4.113  0.0944 -0.4385 -0.3134
 9038SOL    HW138576   1.145   3.679   4.136 -3.2768  2.1756  0.4285
 9038SOL    HW238577   1.288   3.721   4.117  0.9059  2.1446  2.5667
 9039SOL     OW38578   3.728   0.884   8.988  0.2511  0.1669 -0.0910
 9039SOL    HW138579   3.699   0.932   9.066  0.4351 -0.1804  0.1934
 9039SOL    HW238580   3.687   0.933   8.917 -0.6477 -1.9186 -1.0302
 9040SOL     OW38581   2.813   3.756   2.494  0.1200 -0.2856 -0.3729
 9040SOL    HW138582   2.815   3.847   2.526  2.3706 -1.1385  1.9760
 9040SOL    HW238583   2.762   3.715   2.564  2.5559 -2.6166  0.0260
 9041SOL     OW38584   1.283   3.716   6.673  1.1162  0.2509 -0.1793
 9041SOL    HW138585   1.295   3.811   6.679  4.1676 -0.1336 -0.2143
 9041SOL    HW238586   1.191   3.711   6.701  1.2191 -0.5624  0.0004
 9042SOL     OW38587   4.149   0.915   6.981  0.6672  0.0962  0.2344
 9042SOL    HW138588   4.182   0.856   7.049  0.2705  0.0122  0.3536
 9042SOL    HW238589   4.060   0.882   6.971  1.5199 -1.3888 -2.5649
 9043SOL     OW38590   2.343   2.477   5.945  0.1376 -0.0237  0.2645
 9043SOL    HW138591   2.364   2.549   5.886 -0.6374  0.2415  0.3048
 9043SOL    HW238592   2.248   2.484   5.950  0.0411 -1.8793  1.0373
 9044SOL     OW38593   1.524   3.837  11.955 -0.1333 -0.3714  0.6051
 9044SOL    HW138594   1.597   3.790  11.996  0.8846  2.1568  1.7102
 9044SOL    HW238595   1.482   3.851  12.040 -1.6013 -0.2549 -0.1505
 9045SOL     OW38596   3.303   4.605   6.906  0.0190  0.3553  0.5585
 9045SOL    HW138597   3.365   4.622   6.978 -0.1593 -0.2084  0.8434
 9045SOL    HW238598   3.284   4.692   6.870 -1.1908 -0.9251 -1.8616
 9046SOL     OW38599   1.939   0.316   1.218  0.5242 -0.3821  0.4220
 9046SOL    HW138600   2.034   0.310   1.205  0.6470 -2.3318  2.2236
 9046SOL    HW238601   1.933   0.351   1.307 -1.4417 -1.3166  0.6534
 9047SOL     OW38602   0.876   4.625   9.356  0.1900  0.3539 -0.0749
 9047SOL    HW138603   0.838   4.537   9.355  1.5026 -0.1819 -2.1228
 9047SOL    HW238604   0.958   4.610   9.309  0.5770  1.1017  0.3458
 9048SOL     OW38605   3.786   1.730   7.675  0.0119 -0.3573 -0.1311
 9048SOL    HW138606   3.778   1.635   7.678 -0.4579 -0.2829  1.0864
 9048SOL    HW238607   3.708   1.756   7.725 -0.3371 -0.6313 -0.5410
 9049SOL     OW38608   2.483   4.071   3.639  0.3535  1.3554  0.3373
 9049SOL    HW138609   2.520   3.984   3.654 -2.8043 -0.6309 -3.5840
 9049SOL    HW238610   2.436   4.060   3.557  0.6298 -0.5177  0.4167
 9050SOL     OW38611   1.978   3.468  12.095  0.2477  0.1663 -0.1097
 9050SOL    HW138612   1.937   3.426  12.170  1.3715  0.6552  0.7677
 9050SOL    HW238613   1.910   3.436  12.035  0.6375  1.1880 -1.1033
 9051SOL     OW38614   2.428   2.256   7.612 -0.6895 -0.1448  0.4059
 9051SOL    HW138615   2.392   2.184   7.560 -1.9406  1.2490 -0.6204
 9051SOL    HW238616   2.481   2.208   7.676 -0.5335 -1.1698 -0.4944
 9052SOL     OW38617   4.225   1.128  10.866 -0.8607 -0.0762  0.4255
 9052SOL    HW138618   4.248   1.075  10.942  0.8500  0.6075  0.3876
 9052SOL    HW238619   4.161   1.072  10.822  0.7371 -1.0019 -0.6937
 9053SOL     OW38620   1.188   2.162   4.995 -0.1790 -0.2292 -0.1638
 9053SOL    HW138621   1.181   2.069   4.977 -2.6673  0.5173 -3.2656
 9053SOL    HW238622   1.108   2.199   4.956 -1.7856 -0.7072  2.6729
 9054SOL     OW38623   0.782   3.962   2.149 -0.2780  0.1687  0.2717
 9054SOL    HW138624   0.775   3.983   2.242 -0.6681 -0.5205  0.3959
 9054SOL    HW238625   0.765   3.868   2.146 -0.1361  0.1066  1.4191
 9055SOL     OW38626   0.522   3.102  16.652 -0.3070 -0.3173  0.0096
 9055SOL    HW138627   0.493   3.188  16.682  1.0363  0.1722 -0.1172
 9055SOL    HW238628   0.441   3.079  16.605  0.8339  0.1386 -2.1954
 9056SOL     OW38629   3.101   3.952   3.296  0.0771 -0.0627  0.5446
 9056SOL    HW138630   3.100   4.003   3.377 -0.2290  0.9741 -0.1218
 9056SOL    HW238631   3.182   3.986   3.260  0.3398 -0.6502  0.5754
 9057SOL     OW38632   0.600   2.325   4.509  0.0752 -0.3197  0.2606
 9057SOL    HW138633   0.552   2.328   4.426 -0.1838 -0.9673  0.3880
 9057SOL    HW238634   0.534   2.295   4.571  1.8074 -0.4964  2.0296
 9058SOL     OW38635   0.061   4.177   4.248 -0.6722  0.1964  0.4391
 9058SOL    HW138636   0.127   4.108   4.243  0.8341  1.8008 -2.4711
 9058SOL    HW238637   0.118   4.254   4.236 -1.2751  0.4262 -1.0090
 9059SOL     OW38638   0.529   3.868   9.220  1.1207  0.1097  0.4534
 9059SOL    HW138639   0.543   3.777   9.193 -3.0616 -0.4171  0.0695
 9059SOL    HW238640   0.447   3.862   9.267  0.5379 -0.6244 -0.6416
 9060SOL     OW38641   1.201   0.456   4.112 -0.0314  0.1156  0.0390
 9060SOL    HW138642   1.185   0.426   4.202  0.4748  0.4964  0.2552
 9060SOL    HW238643   1.242   0.538   4.140  1.5540 -1.0112  1.0385
 9061SOL     OW38644   3.065   3.146   5.341  0.5622  0.1062 -0.0922
 9061SOL    HW138645   3.003   3.182   5.405 -0.7742  0.6291 -1.6927
 9061SOL    HW238646   3.138   3.208   5.343  1.4910 -1.0287  1.6089
 9062SOL     OW38647   1.962   1.145   9.924 -0.0797  0.3929 -0.4132
 9062SOL    HW138648   1.997   1.186   9.845 -1.4309  1.1444 -0.6212
 9062SOL    HW238649   1.951   1.056   9.890 -0.7959  0.5047 -0.4768
 9063SOL     OW38650   3.195   0.797   5.991  0.0919 -0.6778  0.1683
 9063SOL    HW138651   3.214   0.712   5.954 -1.4906 -2.1140  2.6488
 9063SOL    HW238652   3.156   0.836   5.913 -0.0380  0.1167  0.6261
 9064SOL     OW38653   0.879   2.455   7.564  0.4585  0.4296 -0.4608
 9064SOL    HW138654   0.847   2.478   7.477  0.1936  0.2434 -0.4161
 9064SOL    HW238655   0.916   2.373   7.531 -1.6372 -0.0876 -1.5622
 9065SOL     OW38656   3.719   2.895   1.038  0.2750 -0.1571  0.2988
 9065SOL    HW138657   3.807   2.911   1.069  0.7513 -0.2454 -0.9830
 9065SOL    HW238658   3.685   2.977   1.072 -0.2830  0.2895 -1.3277
 9066SOL     OW38659   2.458   4.713  14.810  0.4079 -0.1810  0.4611
 9066SOL    HW138660   2.365   4.706  14.791  0.2730  0.0703  1.0178
 9066SOL    HW238661   2.482   0.005  14.720 -0.9423 -0.6061  0.0067
 9067SOL     OW38662   3.551   2.691   5.290  0.0831  0.0834 -0.1257
 9067SOL    HW138663   3.552   2.758   5.221  1.1044  1.9062  1.6636
 9067SOL    HW238664   3.460   2.714   5.303  0.4237 -0.3655  2.8765
 9068SOL     OW38665   1.763   4.408  15.289  0.1298  0.0317  0.1323
 9068SOL    HW138666   1.804   4.494  15.294  0.7968 -0.3218  0.8411
 9068SOL    HW238667   1.687   4.429  15.235  2.3214  1.8305 -2.2115
 9069SOL     OW38668   4.075   4.098   6.806 -0.3152  0.4373 -0.1330
 9069SOL    HW138669   4.170   4.103   6.797 -0.4218 -0.2465 -1.6508
 9069SOL    HW238670   4.052   4.116   6.715 -2.8351 -1.4364  0.1321
 9070SOL     OW38671   2.545   0.826   2.876  0.5348 -0.5033 -0.3337
 9070SOL    HW138672   2.509   0.848   2.962  1.1976 -1.6261  0.2337
 9070SOL    HW238673   2.606   0.900   2.866  0.4566 -0.3634  0.2651
 9071SOL     OW38674   3.575   2.036   4.693  0.5652  0.4339 -0.3711
 9071SOL    HW138675   3.514   2.093   4.645  1.4864  2.6670  1.1064
 9071SOL    HW238676   3.585   2.091   4.770  1.2103 -0.9101  0.4887
 9072SOL     OW38677   0.750   2.894   5.341 -0.0852  0.4352 -0.0330
 9072SOL    HW138678   0.831   2.915   5.388 -0.6973  2.3779  0.1187
 9072SOL    HW238679   0.789   2.896   5.253  0.6285  0.4990  0.2883
 9073SOL     OW38680   4.303   3.434   0.520 -0.6452 -0.0005  0.8866
 9073SOL    HW138681   4.332   3.484   0.596  0.5876  1.5744 -0.6030
 9073SOL    HW238682   4.273   3.353   0.561 -1.6477  0.4170  0.9918
 9074SOL     OW38683   0.669   4.399  16.226  0.1763 -0.1533 -0.0327
 9074SOL    HW138684   0.756   4.385  16.188  1.0241  1.9430  1.1949
 9074SOL    HW238685   0.616   4.376  16.149 -0.5164 -0.8634  0.6541
 9075SOL     OW38686   4.076   4.397   9.875 -0.0229  0.4578 -0.4974
 9075SOL    HW138687   4.039   4.391   9.787  2.0171 -0.1088 -1.3132
 9075SOL    HW238688   3.993   4.406   9.923  0.0014 -6.4846  0.9090
 9076SOL     OW38689   4.047   3.251  17.129  0.8095  0.4373  0.1209
 9076SOL    HW138690   4.122   3.193  17.119  2.8650  3.0454  0.3341
 9076SOL    HW238691   4.017   3.254  17.038  0.1861  3.6556  0.4171
 9077SOL     OW38692   2.546   2.833  12.519  0.3835 -0.1892 -0.0527
 9077SOL    HW138693   2.553   2.844  12.424  1.1650  0.9487  0.1248
 9077SOL    HW238694   2.639   2.832  12.541  0.7061  0.1681 -1.3842
 9078SOL     OW38695   4.167   3.992  12.336  0.6588 -0.0886  0.3005
 9078SOL    HW138696   4.085   3.987  12.386 -0.6019  2.0614 -1.5495
 9078SOL    HW238697   4.219   4.062  12.373 -0.2706 -0.8867  3.1382
 9079SOL     OW38698   3.432   3.781   5.755 -0.9414 -0.6375  0.2267
 9079SOL    HW138699   3.444   3.847   5.823  1.0985 -1.7147  0.9310
 9079SOL    HW238700   3.521   3.780   5.717 -0.0948  0.3605  2.2350
 9080SOL     OW38701   1.659   3.295   7.224  0.3543  0.6790  0.5874
 9080SOL    HW138702   1.573   3.325   7.256 -0.7630 -1.4289 -0.4318
 9080SOL    HW238703   1.661   3.338   7.139 -1.4037  0.9986  0.7013
 9081SOL     OW38704   4.429   2.717  13.594 -0.2400 -0.0764  0.3385
 9081SOL    HW138705   4.449   2.702  13.502  1.1345 -0.0006  0.6290
 9081SOL    HW238706   4.410   2.809  13.613 -0.5505 -0.3427  1.3259
 9082SOL     OW38707   3.431   4.307   3.577 -1.0384 -0.2198 -0.6064
 9082SOL    HW138708   3.466   4.312   3.666 -0.2202 -1.3965 -0.8592
 9082SOL    HW238709   3.372   4.235   3.600 -0.3363 -1.0644 -1.4355
 9083SOL     OW38710   1.462   0.316   3.042  1.0601  0.0564 -0.6175
 9083SOL    HW138711   1.525   0.245   3.031  0.1899 -0.7973 -0.0094
 9083SOL    HW238712   1.411   0.306   2.962  0.5348  2.5292 -0.5938
 9084SOL     OW38713   4.525   3.740   5.339 -0.0521  0.9404  0.6571
 9084SOL    HW138714   4.592   3.748   5.271 -0.0413 -1.1217  0.4120
 9084SOL    HW238715   4.574   3.690   5.405  0.0990 -2.6321 -2.1739
 9085SOL     OW38716   4.209   3.614   4.603 -0.1992  0.1368  0.3374
 9085SOL    HW138717   4.245   3.693   4.561  0.3126 -1.1013 -1.5761
 9085SOL    HW238718   4.279   3.549   4.610 -0.8206 -0.6581 -0.8826
 9086SOL     OW38719   4.072   0.016   6.141 -0.0610 -0.0905 -0.0027
 9086SOL    HW138720   4.147   4.686   6.145  0.9943  1.2298 -0.4569
 9086SOL    HW238721   4.122   0.095   6.123  0.8073 -0.7586 -0.5426
 9087SOL     OW38722   3.218   1.091   3.476 -0.0515  0.1922 -0.3857
 9087SOL    HW138723   3.311   1.071   3.483 -0.0801 -0.5537 -2.1862
 9087SOL    HW238724   3.175   1.013   3.440 -0.5984  0.4286 -0.2465
 9088SOL     OW38725   3.366   1.830   1.909 -0.5694  0.2347 -0.1221
 9088SOL    HW138726   3.424   1.889   1.860 -1.2237  2.2996  1.5603
 9088SOL    HW238727   3.318   1.795   1.834  0.6555  1.2713 -1.3863
 9089SOL     OW38728   2.055   0.854   9.837  0.5727  0.1634  0.3482
 9089SOL    HW138729   2.112   0.812   9.902  3.5161  2.7618 -0.5472
 9089SOL    HW238730   2.115   0.883   9.768  0.9698  1.1021  1.0741
 9090SOL     OW38731   2.088   4.069   1.622  0.0222 -0.2428 -0.1638
 9090SOL    HW138732   2.091   3.973   1.624 -0.3708 -0.2131  1.7182
 9090SOL    HW238733   2.064   4.076   1.529  1.6707  2.8505 -0.3563
 9091SOL     OW38734   0.663   4.516   2.836  0.7981  0.6002  0.5610
 9091SOL    HW138735   0.642   4.517   2.742  1.7629 -0.0407  0.3460
 9091SOL    HW238736   0.757   4.532   2.832  0.4999  2.1734 -0.5525
 9092SOL     OW38737   2.140   0.244  14.069 -0.1894 -0.0728 -0.2103
 9092SOL    HW138738   2.068   0.191  14.034 -2.0559  1.4142  1.3759
 9092SOL    HW238739   2.212   0.186  14.042  0.0968  0.7336 -1.1651
 9093SOL     OW38740   3.002   1.854   2.233 -0.1076  0.2317 -0.1136
 9093SOL    HW138741   3.084   1.891   2.199 -0.4590  0.9812 -0.1360
 9093SOL    HW238742   2.970   1.810   2.154  1.9147 -1.0279 -0.2477
 9094SOL     OW38743   4.664   1.101  15.279 -0.4248 -0.4729  0.4149
 9094SOL    HW138744   4.698   1.016  15.307  0.2355 -0.6391 -0.8977
 9094SOL    HW238745   4.659   1.104  15.183  0.1319 -0.0369  0.4077
 9095SOL     OW38746   2.026   0.348   7.170  0.0567 -0.0203 -0.3648
 9095SOL    HW138747   1.968   0.308   7.105 -0.7522  0.5338  0.0106
 9095SOL    HW238748   1.980   0.431   7.181  0.6559  0.2709 -0.0723
 9096SOL     OW38749   4.315   3.713   0.872 -0.5909 -0.0530  0.7391
 9096SOL    HW138750   4.308   3.760   0.955  0.6332 -0.5695  1.1304
 9096SOL    HW238751   4.378   3.768   0.826 -1.1922  0.5844  0.6787
 9097SOL     OW38752   0.513   3.835   1.704 -0.3622  0.2106  0.4549
 9097SOL    HW138753   0.556   3.813   1.787 -0.7322 -0.5924  0.4342
 9097SOL    HW238754   0.519   3.751   1.659  0.7803  1.1770 -1.1721
 9098SOL     OW38755   0.694   3.290   1.583 -0.5017  0.5041 -0.1528
 9098SOL    HW138756   0.607   3.296   1.622 -0.3062 -0.3805  0.4168
 9098SOL    HW238757   0.744   3.287   1.665 -2.4340  0.2152  1.0112
 9099SOL     OW38758   0.649   3.655   5.833  0.1433  0.7152 -0.1466
 9099SOL    HW138759   0.656   3.590   5.903  2.5099  1.5304  0.3803
 9099SOL    HW238760   0.674   3.597   5.760  1.1776  2.0959 -0.8842
 9100SOL     OW38761   0.278   3.866   7.330 -0.1861  0.0989 -0.0751
 9100SOL    HW138762   0.225   3.943   7.351  0.1564  0.7882 -1.7354
 9100SOL    HW238763   0.299   3.840   7.420  0.6249 -1.3653 -0.6789
 9101SOL     OW38764   1.042   4.036   7.192 -0.0216  0.2698  0.4841
 9101SOL    HW138765   1.032   3.944   7.219  0.1038 -0.5114 -2.1145
 9101SOL    HW238766   0.956   4.069   7.219  0.7382  2.4364  0.2498
 9102SOL     OW38767   0.075   3.324   9.073 -0.6791  0.2279 -0.5562
 9102SOL    HW138768   0.012   3.289   9.136 -0.8180  1.1550 -0.1804
 9102SOL    HW238769   0.107   3.244   9.032  2.0043  0.8195  0.3995
 9103SOL     OW38770   1.065   1.817  13.065 -0.2523  0.3359  1.0329
 9103SOL    HW138771   0.975   1.796  13.042  0.1268 -2.2313  1.8721
 9103SOL    HW238772   1.051   1.883  13.134 -1.6237 -0.0868  1.1550
 9104SOL     OW38773   1.045   3.233   8.032 -0.8281  0.2922 -0.2361
 9104SOL    HW138774   1.055   3.188   7.948 -2.5733  2.1920 -1.4598
 9104SOL    HW238775   1.015   3.159   8.086  1.7292 -0.1250  0.6323
 9105SOL     OW38776   3.185   3.979  16.827 -0.1687 -0.3387  0.4316
 9105SOL    HW138777   3.094   3.963  16.852 -0.5879 -1.2656 -1.7384
 9105SOL    HW238778   3.241   3.967  16.905 -0.0805  0.9877  0.5896
 9106SOL     OW38779   2.182   1.955  17.507  0.6157 -0.4076  0.4197
 9106SOL    HW138780   2.230   2.001  17.576  1.4094  1.1177 -1.1458
 9106SOL    HW238781   2.255   1.917  17.458  0.7535  0.5422 -0.1252
 9107SOL     OW38782   1.469   4.319   7.940 -0.2313  0.1752 -0.2743
 9107SOL    HW138783   1.378   4.308   7.910 -0.1830 -0.2049 -0.2744
 9107SOL    HW238784   1.446   4.314   8.032  2.4561 -0.8549  0.3303
 9108SOL     OW38785   3.855   0.416   4.679 -0.4945 -0.1591 -0.3443
 9108SOL    HW138786   3.781   0.473   4.699  0.5328  1.3018 -0.7719
 9108SOL    HW238787   3.930   0.465   4.712 -0.6143  0.5750 -1.1467
 9109SOL     OW38788   0.799   4.337   8.479 -0.6563 -0.2399  0.7891
 9109SOL    HW138789   0.756   4.407   8.528 -1.2125 -1.3288  1.8762
 9109SOL    HW238790   0.717   4.303   8.443  0.0502 -1.9073  0.7524
 9110SOL     OW38791   3.814   0.628   8.373  0.1724 -0.4105  0.4154
 9110SOL    HW138792   3.782   0.557   8.317 -1.4708  1.4222 -0.9538
 9110SOL    HW238793   3.906   0.603   8.386  0.7387  0.2217 -2.3751
 9111SOL     OW38794   1.009   1.080   5.267 -0.8030 -0.4538 -0.1352
 9111SOL    HW138795   0.968   1.002   5.303 -1.7372  0.0282 -0.1671
 9111SOL    HW238796   1.081   1.035   5.222 -1.3840 -0.6672 -0.8441
 9112SOL     OW38797   0.577   2.202   9.666 -0.0111 -0.3123 -0.3664
 9112SOL    HW138798   0.518   2.240   9.601  0.3688  1.0051  0.0592
 9112SOL    HW238799   0.577   2.272   9.731 -1.3701  0.6497 -1.3943
 9113SOL     OW38800   0.935   3.863   5.588  0.0591 -0.1140 -0.3823
 9113SOL    HW138801   1.021   3.855   5.547  1.2728  0.7940  1.9356
 9113SOL    HW238802   0.954   3.851   5.681 -1.1999 -0.1747 -0.1334
 9114SOL     OW38803   0.050   3.990   6.208 -0.5574 -0.0987  0.1770
 9114SOL    HW138804   0.051   3.945   6.124  1.9331 -0.5331  0.4287
 9114SOL    HW238805   0.011   4.072   6.178  0.0243  1.2858  3.1925
 9115SOL     OW38806   3.291   1.356   3.645  0.0529  0.1769  0.2120
 9115SOL    HW138807   3.339   1.299   3.585 -0.7315 -2.7328  2.3475
 9115SOL    HW238808   3.292   1.428   3.582 -1.4764  1.1360  1.2928
 9116SOL     OW38809   2.542   1.210   4.940  0.4817  0.3945  0.0582
 9116SOL    HW138810   2.493   1.174   5.014 -0.4769 -0.1954 -0.8620
 9116SOL    HW238811   2.617   1.150   4.936 -0.2842 -0.5253 -0.4444
 9117SOL     OW38812   4.085   2.199   0.678  0.0471  0.5634 -0.1400
 9117SOL    HW138813   4.094   2.191   0.584  1.3075 -0.6952  0.0844
 9117SOL    HW238814   3.989   2.201   0.676  0.0839  3.5804  0.8149
 9118SOL     OW38815   2.287   1.264   5.305 -0.6486 -0.3255 -0.5188
 9118SOL    HW138816   2.329   1.212   5.238 -1.1717  0.0294 -1.1210
 9118SOL    HW238817   2.201   1.226   5.327 -0.6432  0.0623  0.2079
 9119SOL     OW38818   3.264   1.335  13.877  0.2739 -0.1487 -0.0144
 9119SOL    HW138819   3.219   1.332  13.961 -1.9280  1.1963 -1.1328
 9119SOL    HW238820   3.190   1.359  13.821 -0.2618 -0.1043  0.7099
 9120SOL     OW38821   1.515   1.593   4.759  0.5522  0.0867 -0.3112
 9120SOL    HW138822   1.569   1.672   4.769 -1.0868  1.3377 -1.2288
 9120SOL    HW238823   1.434   1.641   4.742  1.0031 -0.0212 -2.6609
 9121SOL     OW38824   0.361   1.869   8.077  0.4210 -0.2598  0.0248
 9121SOL    HW138825   0.297   1.863   8.148  1.0153  0.0398  0.5920
 9121SOL    HW238826   0.437   1.884   8.134  1.4468 -1.5408 -1.0302
 9122SOL     OW38827   3.486   1.666  15.971 -0.0436  0.1687 -0.1950
 9122SOL    HW138828   3.547   1.624  15.910  1.1600 -1.9831  2.4440
 9122SOL    HW238829   3.443   1.731  15.916 -0.5888 -0.0771 -0.0568
 9123SOL     OW38830   4.344   2.671   6.378  0.2772  0.7453  0.1357
 9123SOL    HW138831   4.319   2.744   6.322 -0.7660  2.1735  2.4698
 9123SOL    HW238832   4.421   2.705   6.424  0.3861  0.3069  0.2709
 9124SOL     OW38833   4.497   0.857  11.845 -0.0255  0.1709  0.1472
 9124SOL    HW138834   4.519   0.947  11.868  0.7414  0.2059 -0.7282
 9124SOL    HW238835   4.567   0.844  11.780  1.2965  1.3247  1.3745
 9125SOL     OW38836   2.960   3.333   1.596  0.4671  0.1079 -0.2793
 9125SOL    HW138837   2.896   3.270   1.631 -0.5975  1.6556  0.5307
 9125SOL    HW238838   2.926   3.345   1.508 -2.3944  0.4630  0.8891
 9126SOL     OW38839   1.270   3.985   3.938 -0.0288  0.0164  0.3469
 9126SOL    HW138840   1.226   3.913   3.983  0.4600  0.6506  1.8563
 9126SOL    HW238841   1.357   3.989   3.976  0.1503 -1.1414  0.0413
 9127SOL     OW38842   2.592   1.809  15.141  0.2052 -0.3870  0.1304
 9127SOL    HW138843   2.606   1.845  15.228  0.8169  0.5117 -0.3402
 9127SOL    HW238844   2.496   1.805  15.142  0.2001 -0.1804  0.2411
 9128SOL     OW38845   2.328   1.226   4.630 -0.2038  0.7532 -0.0989
 9128SOL    HW138846   2.279   1.256   4.553 -1.0647  1.3704  0.6930
 9128SOL    HW238847   2.287   1.268   4.705 -0.6026  0.5748 -0.2173
 9129SOL     OW38848   1.202   1.289  11.298 -0.2881  0.0632 -0.7843
 9129SOL    HW138849   1.274   1.226  11.308  0.0037  0.4116 -0.7013
 9129SOL    HW238850   1.227   1.317  11.210  3.6135 -0.9441 -0.0321
 9130SOL     OW38851   3.290   3.311   1.079  0.5973 -0.3586  0.5317
 9130SOL    HW138852   3.253   3.226   1.103  0.5533 -0.4974 -0.0397
 9130SOL    HW238853   3.215   3.370   1.081  1.5904  0.9767 -1.3198
 9131SOL     OW38854   2.836   4.145   3.093  0.0502  0.3621 -0.3198
 9131SOL    HW138855   2.913   4.125   3.040 -1.3195 -0.7291 -1.8691
 9131SOL    HW238856   2.846   4.240   3.103 -1.7950  0.3637  1.5548
 9132SOL     OW38857   1.946   0.923   7.237  0.6568  0.8667  0.1021
 9132SOL    HW138858   1.976   0.941   7.148  2.4454 -2.6647 -0.0192
 9132SOL    HW238859   2.022   0.952   7.288  0.6682 -1.3311  1.3353
 9133SOL     OW38860   2.236   3.263   3.641 -0.6980  0.1271  0.2319
 9133SOL    HW138861   2.230   3.297   3.551 -0.5291 -0.5347 -0.0246
 9133SOL    HW238862   2.275   3.177   3.630 -0.3166  0.1576  1.3529
 9134SOL     OW38863   2.366   2.385   3.718 -0.1558  0.5050 -0.5836
 9134SOL    HW138864   2.454   2.388   3.680  1.2262  1.2906  2.6410
 9134SOL    HW238865   2.356   2.291   3.725  1.4408  0.6112  2.8890
 9135SOL     OW38866   2.841   2.396   3.084  0.0694  0.5035 -0.4219
 9135SOL    HW138867   2.863   2.462   3.018 -0.2942 -0.7877 -1.8301
 9135SOL    HW238868   2.756   2.368   3.050  0.3664  0.1304 -0.8608
 9136SOL     OW38869   2.232   0.467   5.750  0.1494  0.2507 -0.0699
 9136SOL    HW138870   2.316   0.431   5.779  0.6254 -0.1154 -1.9284
 9136SOL    HW238871   2.165   0.412   5.791  0.3953 -1.0748 -1.4790
 9137SOL     OW38872   0.388   1.006   6.308 -0.0521  0.5956 -0.1962
 9137SOL    HW138873   0.449   1.026   6.379 -0.8146  1.5628  0.1898
 9137SOL    HW238874   0.342   0.930   6.344 -0.8691  1.7562  1.1980
 9138SOL     OW38875   3.289   1.406   9.025 -0.0820 -0.4309  0.1780
 9138SOL    HW138876   3.269   1.420   8.932 -0.1321  2.1489  0.5836
 9138SOL    HW238877   3.362   1.467   9.035  0.2526 -0.7507 -0.2515
 9139SOL     OW38878   1.091   3.342  10.657 -0.6473 -0.1512  0.0566
 9139SOL    HW138879   1.063   3.414  10.713  1.0746  2.3577 -2.3675
 9139SOL    HW238880   1.015   3.315  10.606 -1.0910  1.3380 -0.0615
 9140SOL     OW38881   0.776   2.047   5.597  0.4691 -0.9633 -0.3987
 9140SOL    HW138882   0.839   2.014   5.533 -1.0137 -4.1170 -0.2514
 9140SOL    HW238883   0.696   1.997   5.580 -0.0843 -0.0822 -0.3765
 9141SOL     OW38884   1.598   4.351   2.323 -0.0462 -0.6602  0.2938
 9141SOL    HW138885   1.684   4.380   2.352  0.2505  0.8593 -2.0651
 9141SOL    HW238886   1.619   4.320   2.234  1.9512 -1.3388  1.0000
 9142SOL     OW38887   1.276   2.448   1.152  0.6583 -0.2643 -0.6078
 9142SOL    HW138888   1.301   2.440   1.060 -1.6254 -1.1330 -1.1616
 9142SOL    HW238889   1.362   2.433   1.192  0.4016  0.3328  0.1564
 9143SOL     OW38890   4.688   4.363  15.664 -0.0305  0.6886  0.8550
 9143SOL    HW138891   4.602   4.351  15.624  1.5195 -0.9615 -1.9855
 9143SOL    HW238892   0.017   4.339  15.592 -0.6573 -1.5167  1.0613
 9144SOL     OW38893   0.291   1.692  14.482  0.4196 -0.2434  0.3173
 9144SOL    HW138894   0.318   1.739  14.403  0.5192 -0.7628  0.0381
 9144SOL    HW238895   0.311   1.602  14.456  1.4184  1.0549 -3.4858
 9145SOL     OW38896   0.357   2.613   8.604  0.5498 -0.2334 -0.0958
 9145SOL    HW138897   0.342   2.683   8.540 -0.0909  0.2774  0.6050
 9145SOL    HW238898   0.264   2.599   8.623  0.5914  0.5988  0.7584
 9146SOL     OW38899   3.607   3.424   7.855 -0.4006 -0.0833 -0.1966
 9146SOL    HW138900   3.636   3.361   7.790  3.4191  0.2729  1.1306
 9146SOL    HW238901   3.520   3.391   7.877  0.2297  0.3110  3.0220
 9147SOL     OW38902   4.267   1.403  11.076 -0.4802 -0.0018  0.0492
 9147SOL    HW138903   4.320   1.482  11.073  0.3398 -0.6180 -1.4677
 9147SOL    HW238904   4.193   1.424  11.019 -0.3719  2.5234  0.8423
 9148SOL     OW38905   2.324   4.230  17.269 -0.6329  0.2260  0.6622
 9148SOL    HW138906   2.380   4.308  17.265 -0.0035 -0.1646  2.0060
 9148SOL    HW238907   2.286   4.231  17.181 -0.2545 -1.4525  0.4816
 9149SOL     OW38908   2.035   3.817  10.100 -0.2910  0.2090 -0.0112
 9149SOL    HW138909   1.972   3.749  10.121  1.8621 -1.1513  2.0522
 9149SOL    HW238910   2.105   3.793  10.161  0.3963 -1.3902 -1.4090
 9150SOL     OW38911   2.018   2.498  17.599  0.7513 -0.1996  0.2951
 9150SOL    HW138912   1.993   2.411  17.629  1.1980  0.4974  2.6778
 9150SOL    HW238913   1.948   2.508  17.535 -1.5282  1.2353  3.0024
 9151SOL     OW38914   4.534   1.257   6.591  0.0639 -0.1222 -0.4842
 9151SOL    HW138915   4.473   1.331   6.597  1.9836  1.4594 -0.5890
 9151SOL    HW238916   4.472   1.186   6.610 -0.2167 -0.5490 -2.9419
 9152SOL     OW38917   4.156   2.362   9.863 -1.0282  0.0379  0.2258
 9152SOL    HW138918   4.133   2.290   9.922  0.4828  0.5703  1.4487
 9152SOL    HW238919   4.251   2.354   9.873 -0.3115  1.9565 -4.9631
 9153SOL     OW38920   0.594   1.672   8.591 -0.3965  0.3616  0.4013
 9153SOL    HW138921   0.649   1.743   8.558 -0.2774 -0.3100 -0.8275
 9153SOL    HW238922   0.656   1.622   8.644 -0.1874  0.6632  0.4402
 9154SOL     OW38923   2.389   3.543   2.582 -0.0661 -0.3535  0.4474
 9154SOL    HW138924   2.394   3.637   2.568  0.2960 -0.4247  0.0964
 9154SOL    HW238925   2.297   3.525   2.564 -0.2734 -0.3065  1.4586
 9155SOL     OW38926   0.025   3.038  14.480  0.3245 -0.3875 -0.0666
 9155SOL    HW138927   4.678   3.041  14.422  0.9615  0.3327 -0.8685
 9155SOL    HW238928   4.717   3.079  14.559  0.2992 -1.0871  0.2866
 9156SOL     OW38929   3.412   3.620   5.436  0.0856  0.2823  0.1283
 9156SOL    HW138930   3.360   3.596   5.359  0.1058  2.9958 -0.7080
 9156SOL    HW238931   3.501   3.623   5.399 -0.4323 -1.5991 -1.3027
 9157SOL     OW38932   3.402   1.084  16.169  0.3164 -0.7184  0.2930
 9157SOL    HW138933   3.397   1.133  16.088 -1.9140  0.1928  0.9918
 9157SOL    HW238934   3.445   1.006  16.133  0.6719 -0.0333 -0.7676
 9158SOL     OW38935   2.663   2.193   7.758 -0.1577  0.1483 -0.1585
 9158SOL    HW138936   2.719   2.268   7.737  1.5019 -1.7290 -2.2872
 9158SOL    HW238937   2.726   2.151   7.817  0.5869 -1.7772 -2.3440
 9159SOL     OW38938   4.000   0.361   5.896 -0.8590  0.2810 -0.5628
 9159SOL    HW138939   4.064   0.304   5.939 -0.7490  0.3169 -0.6754
 9159SOL    HW238940   3.943   0.288   5.871 -0.7302 -0.6501  1.8841
 9160SOL     OW38941   0.254   4.700   0.921 -0.5515 -0.5023 -0.4563
 9160SOL    HW138942   0.264   4.706   0.826 -0.9174  2.3130 -0.3079
 9160SOL    HW238943   0.342   4.675   0.949 -0.9795 -0.7147  0.6973
 9161SOL     OW38944   1.342   4.490  16.015 -0.2502 -0.1944  0.2692
 9161SOL    HW138945   1.314   4.411  16.062 -1.9631  1.1615  1.4923
 9161SOL    HW238946   1.262   4.531  15.983 -0.7948 -0.5470  1.1913
 9162SOL     OW38947   1.920   2.193   5.094  0.3531  0.1119  0.1707
 9162SOL    HW138948   1.870   2.127   5.144 -0.6271  0.2527 -0.6138
 9162SOL    HW238949   1.982   2.147   5.038  0.0201 -0.1558  0.0221
 9163SOL     OW38950   0.175   3.449   2.229 -0.3094 -0.1868  0.0891
 9163SOL    HW138951   0.215   3.362   2.231 -1.5323 -0.7332  0.2625
 9163SOL    HW238952   0.122   3.444   2.149 -0.8373  2.0375  0.3105
 9164SOL     OW38953   0.324   0.068   4.107 -0.0255  0.4367 -0.0832
 9164SOL    HW138954   0.416   0.044   4.097 -0.5708 -1.8123  0.1933
 9164SOL    HW238955   0.338   0.143   4.165 -3.9760 -0.8301  2.4879
 9165SOL     OW38956   2.204   3.852   5.026  0.1325 -0.6664 -0.3237
 9165SOL    HW138957   2.153   3.786   4.979 -1.3972  0.7259 -0.6303
 9165SOL    HW238958   2.149   3.862   5.104 -1.2945 -2.3709 -1.0920
 9166SOL     OW38959   4.050   2.118  11.853 -0.0727  0.0476 -0.0834
 9166SOL    HW138960   4.126   2.146  11.801  1.2446 -0.5414  1.5417
 9166SOL    HW238961   4.016   2.206  11.869  0.2801  0.1003  0.3793
 9167SOL     OW38962   1.474   2.976   0.871 -0.1790  0.1645  0.2308
 9167SOL    HW138963   1.511   2.902   0.823 -1.7456 -0.0720 -0.6344
 9167SOL    HW238964   1.551   3.028   0.892  1.3020  0.0005 -4.7016
 9168SOL     OW38965   2.825   2.460   1.545  0.3295 -0.0544 -0.3620
 9168SOL    HW138966   2.906   2.497   1.511  0.7601 -1.3069 -0.7039
 9168SOL    HW238967   2.827   2.504   1.630 -1.9883 -0.2622 -0.1918
 9169SOL     OW38968   0.796   0.760  15.771  0.2934  0.2725 -0.5188
 9169SOL    HW138969   0.787   0.783  15.678 -1.1957 -1.1899 -0.7362
 9169SOL    HW238970   0.889   0.739  15.770  0.1861 -0.1915 -1.4236
 9170SOL     OW38971   3.080   2.327   3.245  0.1949  0.4648 -0.2881
 9170SOL    HW138972   3.026   2.361   3.316 -0.6512 -0.2124 -0.6067
 9170SOL    HW238973   3.011   2.333   3.179 -1.0153  2.9413  1.1976
 9171SOL     OW38974   3.067   1.383  12.080  0.2427 -0.0177  0.5192
 9171SOL    HW138975   3.116   1.408  12.001  1.2438 -0.5423  0.9836
 9171SOL    HW238976   3.111   1.310  12.124 -1.7659 -1.9477 -0.6627
 9172SOL     OW38977   3.164   4.231   7.055  0.2629  0.6787 -0.0224
 9172SOL    HW138978   3.218   4.152   7.056  0.8451  1.1346  3.4830
 9172SOL    HW238979   3.188   4.293   6.985 -3.5634  0.9497 -1.0958
 9173SOL     OW38980   1.775   2.848   6.452  0.0658 -0.1978  0.4588
 9173SOL    HW138981   1.796   2.873   6.362  1.3152  0.2193  0.8741
 9173SOL    HW238982   1.679   2.844   6.454  0.0236  0.8828  0.1238
 9174SOL     OW38983   1.162   3.464   8.117  0.2795 -0.4716  0.3149
 9174SOL    HW138984   1.106   3.387   8.108  1.9723 -1.7083  0.2938
 9174SOL    HW238985   1.167   3.497   8.027  1.6689  0.1539  0.6309
 9175SOL     OW38986   3.206   0.243   4.648 -0.1528  0.2999 -0.2992
 9175SOL    HW138987   3.258   0.173   4.687 -1.0816  0.7404  1.7193
 9175SOL    HW238988   3.268   0.290   4.594  0.9620  0.4246  1.0942
 9176SOL     OW38989   0.395   2.863  15.263  0.7345  0.3484  0.4823
 9176SOL    HW138990   0.407   2.827  15.176  0.5873  0.5433  0.3814
 9176SOL    HW238991   0.391   2.786  15.321 -1.0466  1.3692  1.7203
 9177SOL     OW38992   3.338   0.931  12.595 -0.0573  0.0178  0.0227
 9177SOL    HW138993   3.325   0.887  12.679 -3.0984 -0.3451 -0.6623
 9177SOL    HW238994   3.297   1.017  12.598 -1.7473 -0.7373 -1.9566
 9178SOL     OW38995   4.504   1.024   7.310 -0.5406 -0.1243  0.1995
 9178SOL    HW138996   4.479   0.932   7.301  1.8258 -0.9904  2.3961
 9178SOL    HW238997   4.532   1.037   7.401 -0.1020  1.1611 -0.1177
 9179SOL     OW38998   2.556   2.244   3.199 -0.4627 -0.3966  0.3276
 9179SOL    HW138999   2.586   2.266   3.111  0.3003  0.8236  0.8935
 9179SOL    HW239000   2.471   2.216   3.165 -1.3342  4.1029 -1.1607
 9180SOL     OW39001   4.439   0.714   3.274 -0.2349 -0.2434  0.3048
 9180SOL    HW139002   4.387   0.790   3.248 -0.0775 -0.7399 -1.5022
 9180SOL    HW239003   4.459   0.672   3.190 -0.0513  0.6106 -0.0719
 9181SOL     OW39004   3.350   2.018   9.023 -0.0638 -0.0188 -0.2387
 9181SOL    HW139005   3.342   1.937   8.973 -0.8725 -0.6022  0.8625
 9181SOL    HW239006   3.272   2.007   9.077  1.0560  0.3762  1.4798
 9182SOL     OW39007   3.483   3.722   2.500  0.1025 -0.5500 -0.4156
 9182SOL    HW139008   3.563   3.671   2.486  0.4390  0.7970 -3.4054
 9182SOL    HW239009   3.419   3.652   2.486 -0.9937  0.0447  1.6420
 9183SOL     OW39010   3.553   2.193   9.099 -0.0022  0.4209  0.6443
 9183SOL    HW139011   3.593   2.139   9.167  1.4958  0.9788  0.2227
 9183SOL    HW239012   3.473   2.148   9.074  0.8672 -1.0907  0.6265
 9184SOL     OW39013   3.298   3.098   1.604  0.0773 -0.0221  0.0255
 9184SOL    HW139014   3.327   3.123   1.692 -0.6547 -3.4553  1.2756
 9184SOL    HW239015   3.289   3.003   1.617  1.3257 -0.3149 -1.2706
 9185SOL     OW39016   4.259   2.397  14.145  0.0706  0.0996 -0.9753
 9185SOL    HW139017   4.189   2.463  14.141  0.0391  0.2914  3.0348
 9185SOL    HW239018   4.273   2.391  14.240  0.3883 -0.2754 -1.0458
 9186SOL     OW39019   2.059   0.464  14.351  0.0057 -0.1433  0.5053
 9186SOL    HW139020   2.120   0.392  14.332 -0.4903  0.1483 -2.1814
 9186SOL    HW239021   1.986   0.414  14.389  0.4856  1.0126  2.9349
 9187SOL     OW39022   4.562   0.339   4.380  0.1372 -0.8500  0.1136
 9187SOL    HW139023   4.593   0.420   4.340 -1.5992 -0.2214  0.0422
 9187SOL    HW239024   4.506   0.384   4.443 -0.5977 -1.7238  0.0940
 9188SOL     OW39025   4.373   3.849   4.526  0.1084  0.4196 -0.2319
 9188SOL    HW139026   4.466   3.830   4.513  0.4548  1.2540  0.9879
 9188SOL    HW239027   4.353   3.902   4.449  0.8814 -0.9316 -1.3544
 9189SOL     OW39028   1.983   0.141   6.316  0.2417 -0.7107  0.3434
 9189SOL    HW139029   2.051   0.186   6.367 -2.7159  1.7500  2.1760
 9189SOL    HW239030   1.977   0.059   6.365  1.7510 -0.4130  1.0121
 9190SOL     OW39031   1.261   2.503   1.438  0.1239  0.5976  0.7036
 9190SOL    HW139032   1.261   2.407   1.443 -1.5810  0.4467 -2.6969
 9190SOL    HW239033   1.233   2.518   1.348 -0.7455 -0.7362  0.7487
 9191SOL     OW39034   1.652   3.904   2.829 -0.0418  0.4162 -0.3971
 9191SOL    HW139035   1.737   3.860   2.822  0.1565  1.0430 -1.9126
 9191SOL    HW239036   1.678   3.980   2.881 -0.8095 -0.1027  0.7410
 9192SOL     OW39037   0.651   3.900  17.066  0.4255 -0.8084  1.0869
 9192SOL    HW139038   0.724   3.838  17.062 -0.1268 -1.3579 -0.3660
 9192SOL    HW239039   0.668   3.939  17.152  5.9619 -0.9792  0.1042
 9193SOL     OW39040   1.805   3.933   3.880  0.1810  0.3755 -0.1211
 9193SOL    HW139041   1.859   4.006   3.911  1.8686 -1.5824  1.5682
 9193SOL    HW239042   1.856   3.890   3.811  0.3101 -0.2679  0.3706
 9194SOL     OW39043   2.402   2.134  14.228 -0.0245  0.2367 -0.9647
 9194SOL    HW139044   2.451   2.052  14.231 -1.1774 -0.3307  2.4630
 9194SOL    HW239045   2.312   2.110  14.205 -0.7108  2.2650 -0.3701
 9195SOL     OW39046   3.597   3.344  16.752  0.4811  0.5052  0.1109
 9195SOL    HW139047   3.560   3.320  16.837  0.1398  3.2675  0.7243
 9195SOL    HW239048   3.567   3.277  16.690 -0.1792 -0.1054  1.0851
 9196SOL     OW39049   2.899   4.543   8.516 -0.4501 -0.0074 -0.4564
 9196SOL    HW139050   2.876   4.631   8.484 -2.1989  0.0938  1.0837
 9196SOL    HW239051   2.818   4.505   8.551 -1.0228  1.1214 -0.5347
 9197SOL     OW39052   4.652   0.488   6.639 -0.2806  0.4847  1.0086
 9197SOL    HW139053   4.714   0.545   6.593 -1.6797 -0.0477 -1.5269
 9197SOL    HW239054   4.631   0.557   6.703 -1.1580  1.8835 -0.8066
 9198SOL     OW39055   4.097   2.499   3.335  0.2687 -0.3606  0.5215
 9198SOL    HW139056   4.023   2.456   3.293  1.4401  0.1202 -2.0588
 9198SOL    HW239057   4.095   2.580   3.282  0.2629 -1.3200 -0.9525
 9199SOL     OW39058   0.514   0.763   3.245 -0.1899 -0.0123 -0.8702
 9199SOL    HW139059   0.449   0.730   3.307  0.2085 -0.4557 -0.6901
 9199SOL    HW239060   0.524   0.854   3.273  1.4056 -0.6094  0.5297
 9200SOL     OW39061   3.475   3.843   7.690  0.6690 -0.6664  0.4428
 9200SOL    HW139062   3.518   3.895   7.622  0.8743 -1.8840 -0.3538
 9200SOL    HW239063   3.400   3.901   7.699  0.6348 -0.8951  1.5737
 9201SOL     OW39064   1.568   1.428   2.806 -0.2647  0.7603 -0.1348
 9201SOL    HW139065   1.576   1.491   2.735  0.6973 -0.0241 -0.7201
 9201SOL    HW239066   1.528   1.348   2.772  1.1659 -1.6238  3.6556
 9202SOL     OW39067   4.252   1.131   8.573 -0.0743  0.7722  0.0369
 9202SOL    HW139068   4.188   1.150   8.641  0.4360 -0.2978  0.7992
 9202SOL    HW239069   4.304   1.211   8.581  0.3129  0.8153 -2.9786
 9203SOL     OW39070   0.380   4.182   9.302  0.0760 -0.1693  0.6142
 9203SOL    HW139071   0.379   4.140   9.216  1.2793 -0.1354  0.5922
 9203SOL    HW239072   0.400   4.111   9.362 -3.1669 -0.9449  0.7614
 9204SOL     OW39073   2.772   1.195  12.006 -0.3024  0.0138 -0.0648
 9204SOL    HW139074   2.737   1.144  12.078  0.5926  1.2919  1.2971
 9204SOL    HW239075   2.862   1.163  11.996 -0.4096 -0.4432  0.4446
 9205SOL     OW39076   2.713   1.386  16.535 -0.1681 -0.0557  0.7133
 9205SOL    HW139077   2.770   1.352  16.605  0.6859 -2.7472 -1.2936
 9205SOL    HW239078   2.759   1.336  16.467  0.4720  0.7001  0.5917
 9206SOL     OW39079   3.937   1.716   1.356 -0.0534  0.1659 -0.0523
 9206SOL    HW139080   3.911   1.773   1.284 -1.9678  0.3528  0.7923
 9206SOL    HW239081   3.927   1.634   1.307 -1.5415 -0.5001  1.3424
 9207SOL     OW39082   1.836   2.387  13.924  0.6341  0.2732 -0.0007
 9207SOL    HW139083   1.788   2.446  13.982  2.7178  0.5354  1.4603
 9207SOL    HW239084   1.760   2.345  13.883  1.7323  0.0323 -1.7729
 9208SOL     OW39085   2.279   1.106  14.953 -0.6781  0.1945 -0.1905
 9208SOL    HW139086   2.205   1.154  14.991 -0.0336  0.0779  1.2171
 9208SOL    HW239087   2.349   1.117  15.017 -0.4693 -4.3889  0.3668
 9209SOL     OW39088   0.072   4.460   5.534  0.5303 -0.7343 -0.4785
 9209SOL    HW139089   4.712   4.485   5.562  1.3190  0.7026  0.7681
 9209SOL    HW239090   0.094   4.525   5.467  0.2984  0.4390  0.5856
 9210SOL     OW39091   1.172   1.382  12.704  0.2112  0.1488 -0.6914
 9210SOL    HW139092   1.266   1.385  12.685  0.4488 -1.5325  0.2403
 9210SOL    HW239093   1.167   1.434  12.785  1.1326 -1.3839  0.3556
 9211SOL     OW39094   0.191   3.934   3.200 -0.0599  0.1399 -0.1565
 9211SOL    HW139095   0.173   3.842   3.219 -0.3311  0.6732  2.1232
 9211SOL    HW239096   0.160   3.990   3.271 -2.1072  0.1889 -1.0783
 9212SOL     OW39097   4.159   3.359   3.381 -0.3007  0.0323  0.1285
 9212SOL    HW139098   4.203   3.432   3.423 -0.9354  0.7215 -0.4106
 9212SOL    HW239099   4.087   3.410   3.344 -0.6491  0.3226  1.2344
 9213SOL     OW39100   3.801   0.520   6.844 -0.0963 -0.0802  0.1209
 9213SOL    HW139101   3.752   0.562   6.915  0.9214 -0.2984  0.9536
 9213SOL    HW239102   3.737   0.501   6.776  0.8396 -2.0152 -0.2303
 9214SOL     OW39103   1.833   4.426   7.351 -0.5107 -0.0247  0.1621
 9214SOL    HW139104   1.743   4.396   7.345 -0.3418 -0.1785 -1.4634
 9214SOL    HW239105   1.860   4.382   7.432 -0.7335  0.0639  0.2860
 9215SOL     OW39106   1.219   2.452  15.415 -0.0177 -0.3912 -0.1839
 9215SOL    HW139107   1.142   2.425  15.464  1.2212  0.8351  2.4478
 9215SOL    HW239108   1.182   2.536  15.386 -1.9844 -1.4423 -0.7008
 9216SOL     OW39109   1.700   2.222   0.163  0.1897 -0.1616 -0.4013
 9216SOL    HW139110   1.673   2.244   0.074  0.3148  1.7343  0.0399
 9216SOL    HW239111   1.704   2.126   0.169  0.4105 -0.1407 -0.2029
 9217SOL     OW39112   0.846   1.516  16.531  0.7278 -0.1546 -0.5796
 9217SOL    HW139113   0.888   1.520  16.617  0.3935 -1.3864 -0.3596
 9217SOL    HW239114   0.840   1.609  16.510  0.9023  0.1919  0.9244
 9218SOL     OW39115   0.006   4.719   5.180  0.5477  0.1819 -0.5937
 9218SOL    HW139116   4.643   4.712   5.207  0.1381 -0.9985 -2.2992
 9218SOL    HW239117   0.015   0.085   5.176 -0.8654  0.2849 -1.3000
 9219SOL     OW39118   2.308   0.788   5.828 -0.3252  0.1291  0.2268
 9219SOL    HW139119   2.318   0.695   5.850  2.3320  1.0716  3.0580
 9219SOL    HW239120   2.350   0.828   5.904  0.7084 -1.7239  0.6440
 9220SOL     OW39121   2.991   1.266   8.726  0.0387  0.3764  0.0848
 9220SOL    HW139122   2.974   1.241   8.635 -0.2281 -1.2300  0.5795
 9220SOL    HW239123   2.917   1.223   8.769 -0.8003  2.6422  0.8742
 9221SOL     OW39124   1.410   4.536   6.942 -0.2181 -0.0344 -0.4565
 9221SOL    HW139125   1.331   4.495   6.975  0.3878 -0.7096  0.1657
 9221SOL    HW239126   1.382   4.627   6.949  0.5976  0.2130 -0.3571
 9222SOL     OW39127   4.294   3.083   7.323  0.1655 -0.3121  0.5978
 9222SOL    HW139128   4.237   3.081   7.246  2.5722  0.1313 -1.1920
 9222SOL    HW239129   4.244   3.136   7.385  0.1946 -0.8129  1.0489
 9223SOL     OW39130   0.513   4.144   4.528  0.2787 -0.0431 -0.4070
 9223SOL    HW139131   0.546   4.189   4.450 -1.8324  0.3347 -1.0868
 9223SOL    HW239132   0.577   4.180   4.589 -0.1349  0.2559 -0.1493
 9224SOL     OW39133   3.964   3.238   2.929 -0.7658 -0.7707  0.2786
 9224SOL    HW139134   3.951   3.325   2.968 -0.8534 -1.7019  2.3079
 9224SOL    HW239135   4.045   3.211   2.971 -0.3770  0.4630  0.3425
 9225SOL     OW39136   0.356   2.504   9.539 -0.1573  0.1894 -0.2613
 9225SOL    HW139137   0.356   2.562   9.463  0.1519  1.3461  0.6142
 9225SOL    HW239138   0.361   2.420   9.495  0.8952 -1.2917  2.6642
 9226SOL     OW39139   4.256   0.254  17.277 -0.1033  0.5433  0.3092
 9226SOL    HW139140   4.283   0.292  17.361 -1.9993  0.9087  0.7529
 9226SOL    HW239141   4.162   0.268  17.289  0.3852  2.2164  2.1147
 9227SOL     OW39142   2.206   3.235  11.873 -0.1308 -0.5143 -0.0106
 9227SOL    HW139143   2.290   3.191  11.867  0.7647  1.0252  1.1151
 9227SOL    HW239144   2.165   3.181  11.940  0.2268 -0.6604  0.0868
 9228SOL     OW39145   2.213   1.512   3.609  0.6484  0.0452 -0.0422
 9228SOL    HW139146   2.195   1.502   3.516  2.0423  0.0467 -0.3235
 9228SOL    HW239147   2.308   1.522   3.595  0.8405  0.1031  1.2725
 9229SOL     OW39148   0.067   0.494   8.534 -0.2138 -0.3491 -0.4005
 9229SOL    HW139149   0.027   0.550   8.468 -0.8968 -2.0621 -1.4391
 9229SOL    HW239150   0.057   0.546   8.614 -2.0910 -3.2859  1.2650
 9230SOL     OW39151   4.109   4.059   9.152 -0.3911 -0.5727  0.1854
 9230SOL    HW139152   4.050   4.069   9.077 -0.5815 -0.9557  0.2874
 9230SOL    HW239153   4.087   4.130   9.212  2.5253  1.8475 -1.6109
 9231SOL     OW39154   3.850   2.318   0.489 -0.6738 -0.1599 -0.0820
 9231SOL    HW139155   3.784   2.296   0.424  0.1085  1.1719 -1.3227
 9231SOL    HW239156   3.937   2.301   0.454 -1.6091  1.3909 -3.1702
 9232SOL     OW39157   1.468   1.849   7.062  0.1693 -0.2535 -0.4065
 9232SOL    HW139158   1.494   1.787   7.130  1.7790  0.8504 -0.0202
 9232SOL    HW239159   1.462   1.925   7.121 -0.6079 -1.7017  1.3830
 9233SOL     OW39160   3.593   0.833   1.760 -0.0816 -0.9607 -0.0720
 9233SOL    HW139161   3.571   0.921   1.730  3.2868  0.1802  0.8044
 9233SOL    HW239162   3.652   0.815   1.686 -1.1747  0.6938 -1.3594
 9234SOL     OW39163   2.938   3.651   7.971 -0.0304 -0.1335  0.7387
 9234SOL    HW139164   2.960   3.743   7.983 -0.6115 -0.2156  2.3985
 9234SOL    HW239165   2.843   3.654   7.959  0.0335 -1.7684 -0.1389
 9235SOL     OW39166   2.782   4.140   3.901 -0.0586  0.2365  0.8279
 9235SOL    HW139167   2.837   4.215   3.922  1.6423 -0.4238 -1.2831
 9235SOL    HW239168   2.750   4.171   3.816 -0.2012  0.3153  0.9107
 9236SOL     OW39169   2.544   3.446   2.792  0.2561  0.4638  0.0677
 9236SOL    HW139170   2.487   3.462   2.717 -2.0422 -0.6069  1.5942
 9236SOL    HW239171   2.535   3.353   2.816 -2.0656 -0.0137 -2.7738
 9237SOL     OW39172   4.119   4.164   8.762  0.2978 -0.2796  1.1524
 9237SOL    HW139173   4.152   4.091   8.710  1.1077 -1.6589  3.6224
 9237SOL    HW239174   4.063   4.213   8.701  3.9117  1.1394 -1.0177
 9238SOL     OW39175   3.880   0.855   6.952  0.1116  0.1717 -0.2282
 9238SOL    HW139176   3.794   0.825   6.925  0.7413  0.9480 -3.1613
 9238SOL    HW239177   3.861   0.885   7.041 -0.3768  0.2061 -0.3476
 9239SOL     OW39178   0.776   0.840  10.161 -0.0955 -0.1049  0.2059
 9239SOL    HW139179   0.776   0.932  10.134 -0.9871 -1.1906 -3.5433
 9239SOL    HW239180   0.683   0.822  10.150  0.1768 -1.2161 -0.3465
 9240SOL     OW39181   2.118   3.318   6.626  0.0459 -0.6252 -0.3214
 9240SOL    HW139182   2.111   3.224   6.613 -1.4679 -0.2747 -2.1627
 9240SOL    HW239183   2.156   3.332   6.539  0.5471 -0.0550 -0.0130
 9241SOL     OW39184   2.746   0.854   7.100  0.1826  0.0389  0.3137
 9241SOL    HW139185   2.826   0.851   7.153 -0.6499  0.5683  1.6111
 9241SOL    HW239186   2.690   0.793   7.148 -0.0204  0.2377  0.3314
 9242SOL     OW39187   2.175   0.303   5.050  0.0738  0.2778 -0.5417
 9242SOL    HW139188   2.134   0.331   5.132  3.0698  0.7484  0.7857
 9242SOL    HW239189   2.191   0.209   5.061  0.8585  0.3318 -1.2194
 9243SOL     OW39190   0.145   4.444   2.257  0.2015  0.6921 -0.1448
 9243SOL    HW139191   0.105   4.496   2.188  1.0863 -1.2982 -2.1516
 9243SOL    HW239192   0.185   4.511   2.313 -1.0748 -0.6007  2.3302
 9244SOL     OW39193   3.301   3.537   1.356  0.3788 -0.0284  0.3963
 9244SOL    HW139194   3.238   3.524   1.286  1.1024 -2.2759  0.1507
 9244SOL    HW239195   3.264   3.481   1.424 -0.6612 -0.7149 -0.7253
 9245SOL     OW39196   3.235   3.043  12.051 -0.0933  0.9604  1.1171
 9245SOL    HW139197   3.178   3.062  12.125  0.5107  1.3151  1.4863
 9245SOL    HW239198   3.313   3.095  12.067  0.7487 -0.0971  0.5320
 9246SOL     OW39199   0.974   1.959   1.475 -0.2651  0.3623  0.3297
 9246SOL    HW139200   1.007   1.869   1.474 -0.6127  0.2502 -0.9661
 9246SOL    HW239201   0.941   1.972   1.386  0.4290  4.0817  0.6535
 9247SOL     OW39202   0.509   4.005   1.994  0.1178 -0.2083 -0.3183
 9247SOL    HW139203   0.469   3.922   2.021 -0.0724 -0.3630 -1.0725
 9247SOL    HW239204   0.603   3.988   1.996  0.2762  0.3841 -2.9033
 9248SOL     OW39205   0.524   1.643   6.072  0.1737 -0.0690 -0.7918
 9248SOL    HW139206   0.548   1.713   6.133 -0.6486 -0.5613  0.1030
 9248SOL    HW239207   0.541   1.669   5.982 -0.4328  0.2819 -0.8002
 9249SOL     OW39208   3.869   0.153   5.813  0.0746 -0.1371 -0.3554
 9249SOL    HW139209   3.927   0.077   5.815  0.6807  0.3210 -0.4870
 9249SOL    HW239210   3.792   0.121   5.765  0.2652 -0.5665 -0.3784
 9250SOL     OW39211   2.165   2.751   4.807  0.3061  0.2695 -0.2294
 9250SOL    HW139212   2.192   2.781   4.893  2.5722 -1.4729 -0.3073
 9250SOL    HW239213   2.250   2.724   4.770  1.9531  3.3566  1.3489
 9251SOL     OW39214   1.447   4.384   1.870 -0.0337  0.0401 -0.2010
 9251SOL    HW139215   1.405   4.383   1.784  0.9767  1.4950 -0.7064
 9251SOL    HW239216   1.372   4.380   1.929 -1.7169  0.5632 -2.3167
 9252SOL     OW39217   1.993   0.452   8.764 -0.9470  0.1871  0.3174
 9252SOL    HW139218   1.898   0.442   8.768 -0.7228 -1.6984  0.8572
 9252SOL    HW239219   2.023   0.448   8.855  0.8299 -1.5152 -0.3613
 9253SOL     OW39220   0.532   0.233   9.164  0.3671 -0.3440  0.4419
 9253SOL    HW139221   0.509   0.323   9.187 -0.1263 -0.6657  1.2332
 9253SOL    HW239222   0.560   0.238   9.073  0.0507 -2.9342  0.1924
 9254SOL     OW39223   1.941   3.078   6.850 -0.4486 -0.2536  0.1638
 9254SOL    HW139224   1.905   3.107   6.933 -2.1937 -0.6282 -0.4728
 9254SOL    HW239225   2.025   3.042   6.878 -0.4721 -1.2250 -1.0135
 9255SOL     OW39226   0.510   1.216   9.743  0.2805  0.2176  0.4186
 9255SOL    HW139227   0.519   1.120   9.744  1.3341  0.3377  1.9573
 9255SOL    HW239228   0.423   1.219   9.783  0.4115  0.5278  0.6783
 9256SOL     OW39229   0.298   0.435   0.527 -0.0828  0.1692  0.1307
 9256SOL    HW139230   0.216   0.388   0.512 -0.1393 -0.6765  3.0559
 9256SOL    HW239231   0.274   0.527   0.516  0.2657  0.4275  1.5181
 9257SOL     OW39232   2.081   2.177  11.820  0.2760 -0.3953  0.0326
 9257SOL    HW139233   2.114   2.120  11.751 -1.1399 -1.1572 -0.0210
 9257SOL    HW239234   2.107   2.137  11.903  2.2966  1.5283  0.3304
 9258SOL     OW39235   1.610   3.557   2.614 -0.1925 -0.7879 -0.3488
 9258SOL    HW139236   1.517   3.567   2.632  0.1686  0.5594  0.6677
 9258SOL    HW239237   1.610   3.483   2.552  1.0893  0.0419 -1.3240
 9259SOL     OW39238   1.875   3.785   8.198  0.1520 -0.1467  0.4313
 9259SOL    HW139239   1.933   3.756   8.268  1.6047  2.3450  0.2669
 9259SOL    HW239240   1.812   3.833   8.252 -1.5676 -1.7603 -0.1184
 9260SOL     OW39241   4.643   4.594   5.970  0.3713 -0.6725 -0.3013
 9260SOL    HW139242   4.615   4.506   5.943 -3.4969  0.1440  1.0719
 9260SOL    HW239243   4.724   4.603   5.920 -0.3733  2.0732 -1.0243
 9261SOL     OW39244   1.549   2.441   7.961 -0.2910  0.3280 -0.7464
 9261SOL    HW139245   1.516   2.450   8.050  3.6333  0.2202  0.7121
 9261SOL    HW239246   1.529   2.349   7.943  1.1665 -0.2846  0.7803
 9262SOL     OW39247   2.354   1.189   7.390  0.3754 -0.0308 -0.0648
 9262SOL    HW139248   2.292   1.241   7.340 -1.3969  0.2906  2.4364
 9262SOL    HW239249   2.347   1.216   7.482 -0.3021  0.0106 -0.1325
 9263SOL     OW39250   1.578   0.484   3.211 -0.2400  0.2306  0.1158
 9263SOL    HW139251   1.519   0.435   3.154 -1.5178  0.7835  0.9766
 9263SOL    HW239252   1.643   0.418   3.233 -1.7687 -2.1130 -2.3421
 9264SOL     OW39253   3.450   2.354   8.355 -0.2978 -0.8154  0.4216
 9264SOL    HW139254   3.524   2.345   8.294 -1.1077  0.0207 -0.6876
 9264SOL    HW239255   3.498   2.386   8.432 -1.2916  0.1539  0.6413
 9265SOL     OW39256   0.103   2.002  12.438  0.3419  0.0914 -0.3777
 9265SOL    HW139257   0.079   2.000  12.345  1.2751  1.9844 -0.6419
 9265SOL    HW239258   0.138   2.090  12.450  1.8408 -0.5027 -0.4246
 9266SOL     OW39259   3.136   0.436   9.828 -0.1157  0.6177 -0.1072
 9266SOL    HW139260   3.147   0.474   9.915  0.8699 -1.9276  0.9049
 9266SOL    HW239261   3.201   0.365   9.833 -2.0124 -0.9803  2.1608
 9267SOL     OW39262   1.418   2.767   3.760 -0.0004  0.0622 -0.2945
 9267SOL    HW139263   1.491   2.708   3.783 -0.1087 -0.9742 -2.6407
 9267SOL    HW239264   1.449   2.837   3.817  0.9747 -0.5388 -0.0767
 9268SOL     OW39265   3.857   0.429   6.153 -0.1352 -0.4846  0.1439
 9268SOL    HW139266   3.922   0.360   6.138 -0.4614 -0.4229 -1.5978
 9268SOL    HW239267   3.882   0.496   6.089  1.5706  0.6331  1.9939
 9269SOL     OW39268   0.053   2.162  16.428 -0.0015 -0.2371 -0.0041
 9269SOL    HW139269   4.715   2.099  16.403  0.7932 -0.7328 -0.8706
 9269SOL    HW239270   0.130   2.110  16.404  0.6087  0.1173  1.1441
 9270SOL     OW39271   2.164   0.695   7.769  0.1913 -0.0611 -0.3990
 9270SOL    HW139272   2.247   0.676   7.813 -0.6564 -1.6086  0.5112
 9270SOL    HW239273   2.117   0.738   7.840 -1.5218  0.2318 -1.7031
 9271SOL     OW39274   1.112   2.307  10.317 -0.0017 -0.3454  0.3368
 9271SOL    HW139275   1.135   2.228  10.270  2.1421  1.4972 -1.6887
 9271SOL    HW239276   1.121   2.269  10.404 -0.8142  0.6830  0.8837
 9272SOL     OW39277   2.690   0.056   2.547  0.5809 -0.1836  0.0240
 9272SOL    HW139278   2.670   0.139   2.503  2.2622 -0.9053 -2.1274
 9272SOL    HW239279   2.631   0.055   2.622  0.7428 -2.0416  0.1322
 9273SOL     OW39280   0.110   4.550   4.126  0.3818 -0.0270  0.2403
 9273SOL    HW139281   0.176   4.619   4.125 -0.4384  0.7728  0.4144
 9273SOL    HW239282   0.157   4.488   4.071 -1.6176 -0.2951 -1.1671
 9274SOL     OW39283   0.429   3.292  12.247  0.1994 -0.5115 -0.1703
 9274SOL    HW139284   0.444   3.233  12.321  1.5475  0.2002  0.1350
 9274SOL    HW239285   0.413   3.366  12.307 -0.9263 -3.0975  2.6926
 9275SOL     OW39286   1.597   3.215   3.568 -0.0777 -0.1486  0.4633
 9275SOL    HW139287   1.605   3.304   3.533 -2.3462 -0.3935 -0.6825
 9275SOL    HW239288   1.542   3.232   3.644 -1.7988 -0.4575 -0.7134
 9276SOL     OW39289   0.904   3.838   4.493 -0.0281  0.5669 -0.1317
 9276SOL    HW139290   0.885   3.884   4.411 -1.1646 -0.5832 -0.5106
 9276SOL    HW239291   0.836   3.873   4.550 -0.8047 -3.1810  1.2382
 9277SOL     OW39292   4.166   2.474   6.849  0.3214 -0.5979 -0.3234
 9277SOL    HW139293   4.149   2.422   6.928  2.1353  0.6953  0.9177
 9277SOL    HW239294   4.177   2.411   6.778 -2.0437 -0.7511 -0.5614
 9278SOL     OW39295   2.407   1.993  16.853  0.6750 -0.2697  0.0104
 9278SOL    HW139296   2.478   2.015  16.793  1.7164  0.7273  1.6164
 9278SOL    HW239297   2.330   1.998  16.797 -0.5450  0.4389  1.7531
 9279SOL     OW39298   3.846   1.877   5.695 -0.5792  0.6553  0.3887
 9279SOL    HW139299   3.863   1.968   5.670 -1.1982  0.8262  0.5936
 9279SOL    HW239300   3.804   1.886   5.781  2.0507  0.6570  1.6858
 9280SOL     OW39301   4.505   3.501   0.317  0.1497  0.1234 -0.1611
 9280SOL    HW139302   4.529   3.583   0.362  0.2014  0.3041 -0.5196
 9280SOL    HW239303   4.453   3.465   0.389 -0.9915 -1.9670 -2.0619
 9281SOL     OW39304   0.884   2.916   4.469 -0.0848  0.9103  0.0101
 9281SOL    HW139305   0.959   2.870   4.507  0.3457  2.4212  0.9787
 9281SOL    HW239306   0.869   2.995   4.521 -0.0525  0.2968  0.9530
 9282SOL     OW39307   0.338   1.617   9.037 -0.1498 -0.2115 -0.4314
 9282SOL    HW139308   0.290   1.583   8.961  1.4505 -1.7072 -0.7691
 9282SOL    HW239309   0.327   1.712   9.042 -0.0188 -0.1907 -0.5394
 9283SOL     OW39310   2.823   3.879   3.147  0.3372  0.5710 -0.3919
 9283SOL    HW139311   2.773   3.831   3.081  1.3406  1.0338 -1.4930
 9283SOL    HW239312   2.798   3.969   3.130 -1.5321  0.4497  1.6275
 9284SOL     OW39313   0.399   4.407   2.837 -0.2381 -0.8595  0.1414
 9284SOL    HW139314   0.473   4.460   2.866 -0.7117 -0.3946  0.4885
 9284SOL    HW239315   0.323   4.459   2.860  0.3342  0.9978 -2.2101
 9285SOL     OW39316   3.502   3.182   8.933 -0.1349 -0.7327 -0.2757
 9285SOL    HW139317   3.433   3.234   8.975  0.0117  1.1905 -2.4256
 9285SOL    HW239318   3.438   3.139   8.876 -1.1042  0.6309 -0.2304
 9286SOL     OW39319   1.222   2.334  14.333  0.2267  0.1993 -0.1661
 9286SOL    HW139320   1.168   2.297  14.403  0.2548 -1.6726 -1.1480
 9286SOL    HW239321   1.222   2.258  14.276 -0.1743 -0.4818  0.7328
 9287SOL     OW39322   0.641   1.205   1.377 -0.4200 -0.9325  0.0482
 9287SOL    HW139323   0.699   1.159   1.438  0.9407 -0.8712 -1.2079
 9287SOL    HW239324   0.702   1.235   1.310  0.1635 -1.1991  0.4559
 9288SOL     OW39325   0.728   0.530  14.819 -0.0624 -0.3320  0.4752
 9288SOL    HW139326   0.664   0.511  14.750  0.3548  0.0850 -0.0320
 9288SOL    HW239327   0.801   0.471  14.801 -1.1944 -1.4077 -0.5662
 9289SOL     OW39328   2.614   0.491   4.745  0.2222 -0.1788  0.1619
 9289SOL    HW139329   2.586   0.476   4.655 -0.2958 -1.2801  0.5032
 9289SOL    HW239330   2.568   0.418   4.786 -0.3769 -0.3943 -0.8915
 9290SOL     OW39331   2.342   3.842  14.932  0.1581 -0.0807  0.4622
 9290SOL    HW139332   2.346   3.936  14.913  2.5357 -0.6652 -1.8973
 9290SOL    HW239333   2.319   3.849  15.024 -1.0227 -1.6544  0.2712
 9291SOL     OW39334   3.628   3.427  14.231 -0.1566  0.0752 -0.1319
 9291SOL    HW139335   3.686   3.418  14.306  2.1184 -1.4930 -2.0713
 9291SOL    HW239336   3.639   3.333  14.215  0.4188  0.6338 -2.9396
 9292SOL     OW39337   1.100   1.149   8.719 -0.3305 -0.4079  0.0508
 9292SOL    HW139338   1.167   1.080   8.723 -1.3218 -1.4867 -1.9052
 9292SOL    HW239339   1.070   1.160   8.809 -1.2417 -0.6190 -0.2336
 9293SOL     OW39340   3.523   2.417   8.604 -0.1966  0.1532 -0.1428
 9293SOL    HW139341   3.469   2.359   8.657 -1.2592  0.4359 -0.9217
 9293SOL    HW239342   3.576   2.450   8.676  0.5183 -2.8020  0.6636
 9294SOL     OW39343   0.594   1.739   9.510 -0.8416  0.0875  0.2354
 9294SOL    HW139344   0.517   1.688   9.535 -1.5980  0.0631 -2.0508
 9294SOL    HW239345   0.611   1.799   9.582  1.6752  1.8785 -1.8448
 9295SOL     OW39346   3.374   3.342  11.980 -0.3429 -0.5183 -0.0229
 9295SOL    HW139347   3.430   3.287  12.035  2.7832  0.8527 -1.7865
 9295SOL    HW239348   3.377   3.425  12.028 -2.5150 -0.9544  0.8370
 9296SOL     OW39349   1.269   4.235   4.070  0.3032  0.4282 -0.2490
 9296SOL    HW139350   1.353   4.231   4.024 -0.1502  1.8983 -1.1934
 9296SOL    HW239351   1.230   4.158   4.027  2.1528  0.2052 -1.5475
 9297SOL     OW39352   2.149   3.516  10.963  0.0465  0.0463 -0.9603
 9297SOL    HW139353   2.167   3.566  10.883 -1.0216 -1.2706 -2.0230
 9297SOL    HW239354   2.109   3.588  11.013  1.3082  0.8869 -1.1696
 9298SOL     OW39355   0.202   2.783  10.110  0.3756  0.3758  0.1024
 9298SOL    HW139356   0.115   2.812  10.082 -0.1383 -0.6393  0.6262
 9298SOL    HW239357   0.181   2.710  10.169  0.6312 -0.1819 -0.5053
 9299SOL     OW39358   3.435   2.387   3.028  0.0538  0.1643 -0.3070
 9299SOL    HW139359   3.383   2.329   2.972  1.2288 -0.6685 -0.5414
 9299SOL    HW239360   3.443   2.466   2.975 -0.6557  0.2211 -0.3204
 9300SOL     OW39361   2.322   0.673   3.925 -0.1490 -0.3387 -0.4081
 9300SOL    HW139362   2.236   0.705   3.953  0.7517 -0.4047  2.3764
 9300SOL    HW239363   2.382   0.730   3.973 -0.1249  0.1055 -0.9619
 9301SOL     OW39364   1.615   0.840  10.961  0.0953 -1.4671  0.5493
 9301SOL    HW139365   1.575   0.831  11.047  0.3319  0.4780  0.8759
 9301SOL    HW239366   1.545   0.830  10.897  0.0863 -2.2640  0.6854
 9302SOL     OW39367   2.702   0.444  11.703  0.0318 -0.3378  0.0602
 9302SOL    HW139368   2.623   0.498  11.699 -0.8373 -1.4712  1.6509
 9302SOL    HW239369   2.765   0.487  11.761  0.2266 -0.5042 -0.0280
 9303SOL     OW39370   1.515   2.758   0.632 -0.1209  0.4668 -1.2379
 9303SOL    HW139371   1.500   2.826   0.566  1.9173  1.3077 -0.8257
 9303SOL    HW239372   1.603   2.730   0.607 -0.1891 -1.2121  0.3410
 9304SOL     OW39373   1.263   1.735   7.920 -0.1387 -0.1075  0.6174
 9304SOL    HW139374   1.320   1.786   7.978 -0.7269  0.2598  0.8743
 9304SOL    HW239375   1.196   1.709   7.983 -0.4508  1.8317  1.0909
 9305SOL     OW39376   4.133   0.750   8.116  0.6966 -0.0041 -0.3019
 9305SOL    HW139377   4.228   0.753   8.106  0.5984  1.4136 -0.7046
 9305SOL    HW239378   4.107   0.842   8.114  0.6829 -0.0277 -1.0869
 9306SOL     OW39379   0.171   3.387   7.705 -0.5395  0.0533  0.0604
 9306SOL    HW139380   0.151   3.429   7.621 -1.2846 -1.9447 -0.7595
 9306SOL    HW239381   0.206   3.451   7.767  0.8835  1.9812 -2.6830
 9307SOL     OW39382   0.293   0.307   7.642  0.7969  0.4513  0.0290
 9307SOL    HW139383   0.211   0.274   7.680 -0.7425  2.8969 -1.1984
 9307SOL    HW239384   0.324   0.223   7.608  0.1982  0.2819 -0.0919
 9308SOL     OW39385   2.242   3.218   0.349 -0.1092  0.2251 -0.4052
 9308SOL    HW139386   2.322   3.240   0.396  0.0180 -1.0820 -0.0195
 9308SOL    HW239387   2.197   3.165   0.414 -0.1234  0.0633 -0.5473
 9309SOL     OW39388   4.120   3.104   3.860 -0.6127 -0.5010 -0.5046
 9309SOL    HW139389   4.208   3.082   3.831 -0.4558  0.7103 -0.9580
 9309SOL    HW239390   4.070   3.117   3.779 -0.0601  3.8487 -0.1162
 9310SOL     OW39391   0.039   4.251   6.429 -0.1997 -0.4782  0.1177
 9310SOL    HW139392   0.123   4.207   6.432  0.7804  1.3211 -1.2336
 9310SOL    HW239393   0.069   4.341   6.420  0.2912 -0.6272  0.3067
 9311SOL     OW39394   0.496   1.263   4.841  0.1653  0.2001 -0.3496
 9311SOL    HW139395   0.406   1.278   4.870 -0.0164  0.3104 -0.9613
 9311SOL    HW239396   0.516   1.348   4.801 -3.7316  2.2015  1.9787
 9312SOL     OW39397   2.077   3.019  12.005 -0.3643  0.3039  0.5570
 9312SOL    HW139398   2.026   2.968  11.942  0.5619 -0.2665  0.2700
 9312SOL    HW239399   2.009   3.041  12.069 -0.3801 -0.4486  0.8088
 9313SOL     OW39400   2.906   4.116   1.750  0.8774 -0.0782 -0.1101
 9313SOL    HW139401   2.980   4.085   1.804  1.5859  2.3136  0.2854
 9313SOL    HW239402   2.924   4.208   1.732 -1.4213  1.2281  4.2920
 9314SOL     OW39403   4.440   2.125  17.488 -0.2514  0.2277  0.3443
 9314SOL    HW139404   4.414   2.126  17.581 -1.2633 -3.2093  0.1196
 9314SOL    HW239405   4.512   2.188  17.487 -1.5658  1.7159 -0.3163
 9315SOL     OW39406   4.362   2.520   8.747 -0.6481  0.0538 -0.5418
 9315SOL    HW139407   4.305   2.451   8.781  0.5847  0.4307  2.3125
 9315SOL    HW239408   4.384   2.571   8.825 -1.3853 -0.9156  0.2999
 9316SOL     OW39409   3.252   4.295   1.747 -0.0884  0.0243  0.2738
 9316SOL    HW139410   3.233   4.217   1.799  0.2769 -1.1259 -1.3402
 9316SOL    HW239411   3.166   4.333   1.728 -0.1670 -0.3164 -0.0483
 9317SOL     OW39412   2.735   3.171  12.666 -0.1922  0.0862 -0.1967
 9317SOL    HW139413   2.672   3.100  12.675  0.3434 -0.2544  0.9549
 9317SOL    HW239414   2.729   3.212  12.753 -1.4586 -1.1736  0.3094
 9318SOL     OW39415   4.504   1.311   1.599  0.0760  0.2329 -0.1764
 9318SOL    HW139416   4.479   1.330   1.689  2.0486 -2.5957  0.9854
 9318SOL    HW239417   4.527   1.218   1.602 -0.3140  0.1373 -0.1069
 9319SOL     OW39418   1.177   2.065   6.690  0.2635 -0.5361  0.4998
 9319SOL    HW139419   1.213   2.066   6.602  0.2634 -0.5733  0.4996
 9319SOL    HW239420   1.235   1.996   6.722 -1.3691 -1.3551  1.6638
 9320SOL     OW39421   2.321   1.876   2.624  0.3573  0.3342  0.0359
 9320SOL    HW139422   2.352   1.796   2.666  0.4089  1.2602  1.7914
 9320SOL    HW239423   2.396   1.894   2.568 -0.1340 -1.1826 -1.0939
 9321SOL     OW39424   0.022   3.218   4.171 -0.1641  0.6527 -0.0713
 9321SOL    HW139425   0.095   3.243   4.227  0.5943 -0.7655 -0.4359
 9321SOL    HW239426   4.675   3.214   4.229  0.6179 -2.4579  0.6947
 9322SOL     OW39427   3.961   3.276   8.268  0.1362 -0.2349  0.4193
 9322SOL    HW139428   3.873   3.240   8.278 -1.4517  3.5747  0.3968
 9322SOL    HW239429   3.987   3.306   8.356  1.2675  0.4143 -0.1316
 9323SOL     OW39430   4.708   4.022   9.630  0.2895 -0.1294  0.5792
 9323SOL    HW139431   4.681   4.051   9.543  0.8844  1.6010  0.9747
 9323SOL    HW239432   4.667   4.089   9.684 -1.9894 -0.9130 -0.1871
 9324SOL     OW39433   4.088   4.213   5.174  0.2248  0.4331 -0.1004
 9324SOL    HW139434   4.117   4.129   5.206  0.0685  0.2969 -0.3121
 9324SOL    HW239435   4.030   4.246   5.243 -0.4695 -1.5053  0.2197
 9325SOL     OW39436   1.416   2.122   4.742  0.1243  0.1393 -0.1950
 9325SOL    HW139437   1.399   2.106   4.835  0.3280  1.7006  0.1150
 9325SOL    HW239438   1.509   2.103   4.738 -0.5185 -3.2089  1.0601
 9326SOL     OW39439   0.386   2.488   3.021  0.3546  0.1398 -0.3332
 9326SOL    HW139440   0.402   2.394   3.014  2.0023  0.4018 -0.1098
 9326SOL    HW239441   0.475   2.523   3.027 -0.9950  3.6621 -0.6494
 9327SOL     OW39442   1.675   2.775   7.310  0.9292  0.8274 -0.5733
 9327SOL    HW139443   1.745   2.803   7.368  0.3251  0.0700  0.5131
 9327SOL    HW239444   1.630   2.725   7.378  2.2606  0.5258  0.0806
 9328SOL     OW39445   0.016   2.964  16.825  0.0403  0.2408  0.1460
 9328SOL    HW139446   0.076   2.920  16.886  0.2009  0.6723  0.3020
 9328SOL    HW239447   0.006   3.043  16.879  0.4405  1.1838 -1.1668
 9329SOL     OW39448   4.368   3.852   1.667 -0.0001  0.5515  0.0184
 9329SOL    HW139449   4.375   3.925   1.606  0.1066  0.4981 -0.0342
 9329SOL    HW239450   4.447   3.804   1.639  0.3206  1.8422 -1.3027
 9330SOL     OW39451   3.125   1.928   0.490  0.2136  0.1470  0.2678
 9330SOL    HW139452   3.173   1.976   0.423 -0.2434 -2.3471 -1.8975
 9330SOL    HW239453   3.186   1.860   0.518  0.0689  1.1074  2.8873
 9331SOL     OW39454   3.460   4.429  13.130 -0.6936  0.4660 -0.4560
 9331SOL    HW139455   3.547   4.400  13.156 -0.6582 -0.2240 -1.3701
 9331SOL    HW239456   3.402   4.399  13.200  0.7549 -0.3589  0.3873
 9332SOL     OW39457   2.061   3.837   1.354  0.7672 -0.1893 -0.0342
 9332SOL    HW139458   2.050   3.932   1.347 -3.3943 -0.7469 -1.1503
 9332SOL    HW239459   2.040   3.836   1.447 -1.0877 -1.2490 -0.4494
 9333SOL     OW39460   2.892   0.591   6.594  0.5606 -0.1025 -0.4963
 9333SOL    HW139461   2.862   0.598   6.504 -1.4026 -0.4629  0.1328
 9333SOL    HW239462   2.980   0.624   6.575  0.4478  0.7475  0.4697
 9334SOL     OW39463   0.332   0.744   6.770  0.5779  0.4019  0.2801
 9334SOL    HW139464   0.421   0.780   6.779  1.1323 -1.7503  3.5514
 9334SOL    HW239465   0.368   0.656   6.778 -1.3581 -0.3342  0.8901
 9335SOL     OW39466   4.226   2.852  16.602 -0.4886 -0.4458  0.1127
 9335SOL    HW139467   4.225   2.906  16.682 -0.6513  1.5349 -1.2185
 9335SOL    HW239468   4.137   2.835  16.571 -0.6025 -1.9081  1.2590
 9336SOL     OW39469   0.758   0.951   3.024  0.4314  0.6463  0.3941
 9336SOL    HW139470   0.690   0.960   3.091  0.8631 -0.0717  0.9205
 9336SOL    HW239471   0.788   0.863   3.044 -3.9132 -0.6402  1.1598
 9337SOL     OW39472   4.514   4.289  11.323  0.5139  0.2758 -0.2284
 9337SOL    HW139473   4.550   4.203  11.344 -0.1038  0.7149  2.6403
 9337SOL    HW239474   4.536   4.307  11.232 -0.6901 -1.3569 -0.8403
 9338SOL     OW39475   1.756   1.242  16.789 -0.1925  0.0953 -0.1171
 9338SOL    HW139476   1.681   1.300  16.797  0.0642  0.9482 -3.8319
 9338SOL    HW239477   1.799   1.234  16.874 -1.8316 -0.1911  0.6728
 9339SOL     OW39478   2.635   2.931  11.106  0.2540  0.5034  0.0608
 9339SOL    HW139479   2.724   2.907  11.133 -0.8421 -2.2627  1.2680
 9339SOL    HW239480   2.655   2.985  11.029  2.1170 -1.1019 -0.5948
 9340SOL     OW39481   0.320   4.163   1.048  0.2688  0.2422  0.3633
 9340SOL    HW139482   0.347   4.102   1.117  0.9735  0.0479 -0.0828
 9340SOL    HW239483   0.256   4.113   0.998 -1.0148  0.7164  1.5494
 9341SOL     OW39484   3.510   1.577  13.885  0.2844 -0.4431 -0.1345
 9341SOL    HW139485   3.469   1.647  13.834  1.3904 -1.5323 -2.5654
 9341SOL    HW239486   3.449   1.559  13.955  2.8908 -1.7467  1.8135
 9342SOL     OW39487   1.178   0.819   6.299 -0.0840 -0.1235 -0.2467
 9342SOL    HW139488   1.123   0.781   6.231  0.3600 -0.3120 -0.4953
 9342SOL    HW239489   1.133   0.789   6.378  0.6885  0.4292  0.4119
 9343SOL     OW39490   0.759   1.872   3.110 -0.8208  1.0424 -0.3020
 9343SOL    HW139491   0.817   1.948   3.121  0.6167 -0.5104  2.8355
 9343SOL    HW239492   0.805   1.829   3.038 -0.3303 -1.4162  1.4858
 9344SOL     OW39493   2.818   3.124  17.432 -0.6020 -0.2897 -0.1481
 9344SOL    HW139494   2.750   3.096  17.370  1.3993 -2.1175 -1.4905
 9344SOL    HW239495   2.838   3.210  17.395  1.6045 -1.5467 -1.8406
 9345SOL     OW39496   2.142   1.523   6.784 -0.7076  0.5563 -0.2257
 9345SOL    HW139497   2.224   1.479   6.762 -0.7115 -0.6352  2.0968
 9345SOL    HW239498   2.161   1.595   6.844 -2.2925  0.6734  0.1308
 9346SOL     OW39499   4.565   1.081   6.383  0.5205  0.2615  0.0979
 9346SOL    HW139500   4.597   1.008   6.435  0.9513  1.3735  1.3731
 9346SOL    HW239501   4.570   1.158   6.439  0.9844  1.3614 -1.4437
 9347SOL     OW39502   0.895   3.129   6.856 -0.0739 -0.2398  0.1969
 9347SOL    HW139503   0.910   3.104   6.765 -1.5342 -0.5922  0.0438
 9347SOL    HW239504   0.887   3.043   6.897  0.9794  0.0899  1.0931
 9348SOL     OW39505   1.194   0.678   7.698  0.0204 -0.0283 -0.0210
 9348SOL    HW139506   1.194   0.770   7.670 -1.3461  0.5976  2.0694
 9348SOL    HW239507   1.205   0.694   7.791  1.1609  1.2994 -0.3831
 9349SOL     OW39508   2.299   1.643   6.099  0.0627  0.0426  0.3516
 9349SOL    HW139509   2.272   1.714   6.041  1.4643 -0.5530 -1.0438
 9349SOL    HW239510   2.235   1.640   6.171 -0.0826 -3.1399  0.1089
 9350SOL     OW39511   1.836   0.232   0.186  0.0112  0.1093 -0.0963
 9350SOL    HW139512   1.831   0.183   0.267 -1.2236 -1.2645 -1.0034
 9350SOL    HW239513   1.917   0.198   0.148 -0.6426 -0.2178 -1.1934
 9351SOL     OW39514   3.680   4.682   9.204  0.3865  0.7433  0.1608
 9351SOL    HW139515   3.593   4.650   9.180  0.5227  1.7429 -1.7220
 9351SOL    HW239516   3.693   4.641   9.289  1.0636  1.1571  0.2584
 9352SOL     OW39517   2.718   1.945   3.127 -0.3153 -0.1563  0.4540
 9352SOL    HW139518   2.717   1.989   3.212  0.9921  0.3637  0.2116
 9352SOL    HW239519   2.624   1.951   3.113 -0.0115  2.7164 -0.4748
 9353SOL     OW39520   0.221   0.577  16.714 -0.0768 -0.3737 -0.4816
 9353SOL    HW139521   0.186   0.620  16.792  1.7173  0.7191 -0.2846
 9353SOL    HW239522   0.296   0.635  16.699  1.1175 -1.5294  0.9671
 9354SOL     OW39523   1.835   0.916   4.068 -0.3800  0.3231  0.1312
 9354SOL    HW139524   1.824   0.836   4.120 -0.4735 -0.0309 -0.4334
 9354SOL    HW239525   1.775   0.977   4.111  0.0193  0.1530  0.9288
 9355SOL     OW39526   0.660   0.104   5.358 -0.8105  0.0715  0.1782
 9355SOL    HW139527   0.733   0.141   5.309 -0.3662 -1.8069 -0.5713
 9355SOL    HW239528   0.678   0.013   5.336 -1.7273 -0.1445  0.3249
 9356SOL     OW39529   3.284   4.514   5.489 -0.6381 -0.5944  0.1917
 9356SOL    HW139530   3.283   4.422   5.462  0.1106 -0.5085 -0.1098
 9356SOL    HW239531   3.209   4.510   5.548  0.4648 -0.1840  1.6106
 9357SOL     OW39532   2.913   3.316   8.622  0.4816 -0.6250 -0.8349
 9357SOL    HW139533   2.880   3.245   8.677 -1.0256 -0.0670 -1.0312
 9357SOL    HW239534   2.911   3.388   8.684  0.3968 -0.8487 -0.5757
 9358SOL     OW39535   4.704   3.325   5.379  0.2934 -0.6058  0.0764
 9358SOL    HW139536   4.624   3.274   5.393 -2.6461  3.3869 -2.2307
 9358SOL    HW239537   0.043   3.257   5.388  1.9124  1.0479  0.4841
 9359SOL     OW39538   0.425   3.819   5.647  0.2558  0.3026  0.6847
 9359SOL    HW139539   0.518   3.796   5.651  0.5006  1.1522 -0.2306
 9359SOL    HW239540   0.413   3.843   5.555 -1.3146 -0.5327  0.6741
 9360SOL     OW39541   0.596   2.492   6.566  0.3731  0.0527  0.1790
 9360SOL    HW139542   0.630   2.580   6.586 -0.5428  0.0057  1.9422
 9360SOL    HW239543   0.648   2.471   6.488 -1.6780  0.0566 -1.1696
 9361SOL     OW39544   1.269   4.465  13.166  0.1839  0.2931  0.3044
 9361SOL    HW139545   1.292   4.409  13.240 -1.6178 -0.6580  0.1469
 9361SOL    HW239546   1.174   4.465  13.177 -0.1898 -0.5519 -3.0869
 9362SOL     OW39547   3.663   0.654   9.094 -0.3904 -0.0692 -0.7376
 9362SOL    HW139548   3.754   0.624   9.097 -0.1117  0.9403  0.9481
 9362SOL    HW239549   3.667   0.744   9.061 -0.4380  0.2100  0.0307
 9363SOL     OW39550   1.083   3.501   7.838 -0.9787 -0.4281  0.1198
 9363SOL    HW139551   1.075   3.433   7.771 -0.9072 -1.5007  1.2068
 9363SOL    HW239552   1.115   3.576   7.787  0.1473 -1.6308 -0.9256
 9364SOL     OW39553   0.772   1.850   4.610  0.2656 -0.3666  0.0469
 9364SOL    HW139554   0.787   1.760   4.583  2.5731  0.6177 -1.9440
 9364SOL    HW239555   0.842   1.895   4.563 -1.2908  3.7062  1.5756
 9365SOL     OW39556   3.912   0.680  10.829  0.8736  0.3750  0.4612
 9365SOL    HW139557   3.858   0.677  10.907  0.2173  1.3779  0.0479
 9365SOL    HW239558   3.993   0.640  10.861  1.7900  1.4016 -0.5450
 9366SOL     OW39559   1.240   4.259   0.700 -0.1355  0.7403  0.2456
 9366SOL    HW139560   1.278   4.255   0.612 -0.8931 -1.5570  0.0315
 9366SOL    HW239561   1.315   4.294   0.749  0.5657  0.3999 -0.5922
 9367SOL     OW39562   0.763   2.736   8.716  0.1981  0.0193  0.1119
 9367SOL    HW139563   0.675   2.733   8.755  1.2189 -0.1465  2.4320
 9367SOL    HW239564   0.806   2.781   8.789  2.7323  0.3761 -1.6054
 9368SOL     OW39565   0.624   3.624   5.391  0.0169  0.2520 -0.3184
 9368SOL    HW139566   0.656   3.701   5.344  1.1831  1.6813  2.8406
 9368SOL    HW239567   0.529   3.620   5.385 -0.0569 -0.9593  1.7040
 9369SOL     OW39568   1.347   0.878   3.538 -0.0359 -0.1791  0.4317
 9369SOL    HW139569   1.344   0.964   3.498  1.2596 -0.8261 -1.0504
 9369SOL    HW239570   1.420   0.839   3.490  0.6563 -0.1571  1.4616
 9370SOL     OW39571   4.432   0.587   4.796  0.1959 -0.8940  0.7516
 9370SOL    HW139572   4.501   0.653   4.806 -2.2040  1.6755  0.6171
 9370SOL    HW239573   4.457   0.533   4.870  3.1827  0.2069  0.5255
 9371SOL     OW39574   3.130   2.651  15.382 -0.2016 -0.5109 -0.0682
 9371SOL    HW139575   3.126   2.620  15.292  1.9583 -1.6019  0.2222
 9371SOL    HW239576   3.054   2.603  15.417 -0.5918 -1.7631 -2.6218
 9372SOL     OW39577   2.648   2.157   4.845 -0.0387  0.6721  0.4551
 9372SOL    HW139578   2.599   2.077   4.863 -1.6462  2.0172  2.0146
 9372SOL    HW239579   2.735   2.122   4.862  0.6956  1.5041 -1.5920
 9373SOL     OW39580   1.060   1.191   8.981 -0.2453  0.1739 -0.4098
 9373SOL    HW139581   1.009   1.164   9.057 -0.6619  1.2611 -0.3161
 9373SOL    HW239582   1.105   1.264   9.022  2.0221 -0.8145 -1.0882
 9374SOL     OW39583   0.464   1.055   5.186 -0.8601  0.2282 -0.0019
 9374SOL    HW139584   0.393   1.106   5.147  1.5225  2.8210 -0.9599
 9374SOL    HW239585   0.534   1.067   5.122 -0.5305 -2.2532 -0.1170
 9375SOL     OW39586   4.018   2.936   5.849 -0.5384  0.2707  0.4115
 9375SOL    HW139587   3.970   3.004   5.802 -2.2973  1.0658  3.3345
 9375SOL    HW239588   3.947   2.870   5.845  1.2805 -1.5344 -1.9948
 9376SOL     OW39589   3.746   4.715  12.080  0.3763  0.8482 -0.6271
 9376SOL    HW139590   3.774   4.700  12.170 -0.1404 -2.5561 -1.0257
 9376SOL    HW239591   3.665   4.664  12.084  0.5712  0.3628 -2.7156
 9377SOL     OW39592   0.302   4.436  12.535 -0.0545 -0.0647  0.0613
 9377SOL    HW139593   0.256   4.444  12.618  1.7637 -0.2531  1.0740
 9377SOL    HW239594   0.365   4.508  12.536 -2.0160  1.6885 -0.5754
 9378SOL     OW39595   2.890   4.604   4.893  0.1405  0.1189  0.6080
 9378SOL    HW139596   2.820   4.562   4.943  0.1713 -0.1227  0.4495
 9378SOL    HW239597   2.965   4.625   4.949  1.0577 -0.5262 -0.3656
 9379SOL     OW39598   0.407   2.242  17.423  0.1075 -0.1714 -0.7840
 9379SOL    HW139599   0.419   2.251  17.329 -0.6074  0.3230 -0.8216
 9379SOL    HW239600   0.340   2.307  17.442 -0.4450 -0.5053 -1.6112
 9380SOL     OW39601   2.504   1.653   8.025 -0.1870 -0.4977  0.0852
 9380SOL    HW139602   2.540   1.702   7.951  0.6659 -0.7810  0.3013
 9380SOL    HW239603   2.576   1.657   8.088 -0.6532  0.8040  0.5353
 9381SOL     OW39604   3.429   4.604  15.049 -0.3133  0.5680 -0.0423
 9381SOL    HW139605   3.354   4.663  15.036 -0.1931  0.7388  0.0376
 9381SOL    HW239606   3.394   4.576  15.134  0.5012  2.0168  0.7733
 9382SOL     OW39607   0.491   1.104   8.167  0.0803 -0.3249  0.3192
 9382SOL    HW139608   0.413   1.091   8.220  0.1069  2.3930  1.0031
 9382SOL    HW239609   0.458   1.119   8.078 -0.2047  0.4200  0.5564
 9383SOL     OW39610   3.591   1.244   4.369  0.3119 -0.2721 -0.1578
 9383SOL    HW139611   3.646   1.166   4.375  2.6506  1.5004  1.5439
 9383SOL    HW239612   3.598   1.260   4.275 -2.2093 -1.3605 -0.5167
 9384SOL     OW39613   3.116   3.809   5.754  0.1881  0.0081  1.4286
 9384SOL    HW139614   3.204   3.778   5.779  1.1176  0.6276 -1.0252
 9384SOL    HW239615   3.063   3.730   5.748  2.0664 -1.1200 -0.8311
 9385SOL     OW39616   3.830   0.081   5.186 -0.2696 -0.1597  0.2164
 9385SOL    HW139617   3.803   0.148   5.248  0.5759 -0.4852  0.9417
 9385SOL    HW239618   3.887   0.129   5.126 -0.2001 -0.7810 -0.2143
 9386SOL     OW39619   1.628   3.359   5.533 -0.1046  0.0847  0.2813
 9386SOL    HW139620   1.702   3.312   5.571 -0.5464 -1.3585 -0.6333
 9386SOL    HW239621   1.662   3.442   5.500  0.1916 -0.3565 -0.5440
 9387SOL     OW39622   3.324   2.747   0.303  0.3385 -0.1289 -0.2658
 9387SOL    HW139623   3.329   2.653   0.324  0.3612  0.1233  0.8561
 9387SOL    HW239624   3.363   2.789   0.379  0.6730  0.1235 -0.5757
 9388SOL     OW39625   4.601   2.587   6.602  0.7399 -0.3360  0.1888
 9388SOL    HW139626   4.585   2.503   6.561 -0.2629  0.6595 -1.4537
 9388SOL    HW239627   4.605   2.564   6.695  1.1424 -0.9120  0.0241
 9389SOL     OW39628   4.020   3.864  13.552 -0.1906 -0.1007 -0.3810
 9389SOL    HW139629   3.926   3.874  13.539 -0.8322 -2.3000  2.6955
 9389SOL    HW239630   4.045   3.884  13.462  0.4641 -0.1760 -0.2138
 9390SOL     OW39631   2.699   4.225   6.162  0.3894 -0.2276  0.0102
 9390SOL    HW139632   2.684   4.194   6.251 -1.5958 -0.1981 -0.3166
 9390SOL    HW239633   2.713   4.139   6.122 -0.7884 -1.1189  1.5236
 9391SOL     OW39634   2.632   2.742   6.600  0.0670 -0.7576 -0.0724
 9391SOL    HW139635   2.696   2.728   6.670 -0.1730  0.0003  0.3080
 9391SOL    HW239636   2.689   2.785   6.536 -0.1407  0.0824  0.3041
 9392SOL     OW39637   1.679   3.835   4.208  0.6904 -0.1412 -0.3570
 9392SOL    HW139638   1.645   3.862   4.294  1.2882  1.6103 -0.6768
 9392SOL    HW239639   1.772   3.854   4.218  0.8660 -0.8323 -0.7315
 9393SOL     OW39640   4.173   3.396   6.307  0.5608  0.3276  0.5633
 9393SOL    HW139641   4.147   3.477   6.351 -1.6205 -1.0924  1.8612
 9393SOL    HW239642   4.263   3.419   6.285  0.0770 -0.3406 -2.0623
 9394SOL     OW39643   4.497   4.540   4.435  0.6228 -0.7199  0.5003
 9394SOL    HW139644   4.418   4.578   4.396  0.7669 -1.7238 -0.7715
 9394SOL    HW239645   4.483   4.447   4.419  1.6539 -0.7868 -0.0269
 9395SOL     OW39646   2.532   4.112   4.571  0.1489  0.1092 -0.0228
 9395SOL    HW139647   2.558   4.022   4.591 -0.8803 -0.0776  0.4948
 9395SOL    HW239648   2.582   4.126   4.491 -1.1809  0.5114 -0.7775
 9396SOL     OW39649   4.613   0.721   1.793  0.4943 -0.0874 -0.1379
 9396SOL    HW139650   4.672   0.747   1.723 -0.6444 -1.0676 -1.4603
 9396SOL    HW239651   4.656   0.658   1.852 -0.7166 -1.4684 -0.7384
 9397SOL     OW39652   0.023   4.572   2.012 -0.1095  0.2618 -0.3271
 9397SOL    HW139653   0.073   4.653   2.003  2.5918 -1.7553 -3.3043
 9397SOL    HW239654   0.090   4.503   2.017 -1.1584 -0.7329  0.2369
 9398SOL     OW39655   3.496   2.332   6.292 -0.2850  0.0408 -0.7998
 9398SOL    HW139656   3.549   2.402   6.332  0.2762  0.8127 -2.9057
 9398SOL    HW239657   3.547   2.307   6.215  0.4902  2.0545 -0.9483
 9399SOL     OW39658   0.946   4.510  15.599  0.3546  0.1394 -0.4353
 9399SOL    HW139659   0.978   4.434  15.648  2.9944  1.6018  0.0828
 9399SOL    HW239660   0.905   4.569  15.662  0.5760 -0.8437  0.6262
 9400SOL     OW39661   1.224   1.934  11.284 -0.7418  0.1929 -0.0460
 9400SOL    HW139662   1.260   2.013  11.245 -1.2459  0.9103  0.9281
 9400SOL    HW239663   1.221   1.876  11.208  1.6687  1.1107 -0.8239
 9401SOL     OW39664   3.607   3.218  12.737 -0.2194 -0.5859 -0.1808
 9401SOL    HW139665   3.698   3.225  12.707 -1.3716 -0.7370 -3.7340
 9401SOL    HW239666   3.569   3.164  12.667 -0.5379  0.5845 -0.9059
 9402SOL     OW39667   3.825   0.506   0.947  0.2011  0.1989 -0.2379
 9402SOL    HW139668   3.876   0.435   0.908 -0.2664 -1.2970  1.8386
 9402SOL    HW239669   3.744   0.464   0.977 -0.7148  1.6216 -0.7782
 9403SOL     OW39670   1.999   2.818   4.035  0.2051  0.1287 -0.3747
 9403SOL    HW139671   2.052   2.859   3.967 -0.3599  1.1587 -0.1933
 9403SOL    HW239672   2.069   2.773   4.082 -1.8625 -1.5412  1.1169
 9404SOL     OW39673   0.217   4.537  12.821  0.6446 -0.8734 -0.0190
 9404SOL    HW139674   0.312   4.527  12.831  0.6108 -0.7848  0.4038
 9404SOL    HW239675   0.184   4.473  12.884 -1.4238  0.9686  0.7845
 9405SOL     OW39676   4.091   0.905  10.723  0.2053 -0.4181  0.2973
 9405SOL    HW139677   4.178   0.869  10.706  0.4049  0.3470 -0.2683
 9405SOL    HW239678   4.059   0.822  10.760  0.0617 -0.7784 -0.6358
 9406SOL     OW39679   1.288   4.576  13.468 -0.5667 -0.0257 -0.1748
 9406SOL    HW139680   1.257   4.498  13.513  0.2132 -1.1779 -1.6392
 9406SOL    HW239681   1.208   4.612  13.431 -0.0500 -1.8231 -3.0677
 9407SOL     OW39682   2.643   0.591   5.322  0.3024  0.1071  0.1856
 9407SOL    HW139683   2.589   0.606   5.399  2.0335  2.2347  0.9866
 9407SOL    HW239684   2.712   0.658   5.320 -1.3781  1.8894  1.7167
 9408SOL     OW39685   2.079   4.517   7.171  0.0355  0.0230 -0.5290
 9408SOL    HW139686   2.018   4.512   7.245  1.3795  1.0022  0.6456
 9408SOL    HW239687   2.015   4.563   7.117 -0.1581 -0.2566 -0.5387
 9409SOL     OW39688   1.457   0.620   3.877 -0.2192 -0.9784 -0.3283
 9409SOL    HW139689   1.402   0.695   3.853  1.0872 -0.8537 -2.8604
 9409SOL    HW239690   1.455   0.624   3.972 -0.5372  0.4872 -0.3964
 9410SOL     OW39691   0.834   0.886   9.055  0.5702  0.0561 -0.1476
 9410SOL    HW139692   0.880   0.960   9.094 -0.8407 -0.4569  2.5112
 9410SOL    HW239693   0.833   0.827   9.131 -0.1715 -0.4834 -0.5702
 9411SOL     OW39694   3.055   3.707  16.290  0.3865  0.0574  0.4314
 9411SOL    HW139695   2.992   3.769  16.254 -0.6922 -1.9932 -1.1758
 9411SOL    HW239696   3.082   3.750  16.372 -1.3995 -0.1011  1.1024
 9412SOL     OW39697   2.543   1.171   6.123 -0.5164 -0.0407  0.1173
 9412SOL    HW139698   2.481   1.205   6.187 -0.1575 -0.4049  0.6650
 9412SOL    HW239699   2.558   1.251   6.073  2.1385  1.1000  2.7471
 9413SOL     OW39700   0.670   0.393   7.166  0.2652  0.2005  0.4021
 9413SOL    HW139701   0.702   0.356   7.083 -1.3608 -0.1994 -0.0563
 9413SOL    HW239702   0.615   0.464   7.132 -0.0813  0.3228  1.2160
 9414SOL     OW39703   1.943   2.315  12.141  0.2127  0.5662 -0.3144
 9414SOL    HW139704   1.919   2.339  12.051 -0.8048 -2.0252 -0.7411
 9414SOL    HW239705   2.015   2.379  12.143 -0.7229  1.5947  0.0330
 9415SOL     OW39706   2.308   2.504   3.090  0.0494 -0.1261 -0.4265
 9415SOL    HW139707   2.394   2.524   3.127  0.4869  2.4293 -2.8692
 9415SOL    HW239708   2.253   2.519   3.166  0.5678  1.7615 -0.4319
 9416SOL     OW39709   3.112   2.425   4.814  0.1935 -0.1038 -0.0490
 9416SOL    HW139710   3.045   2.492   4.817 -1.8795 -2.1596 -0.2444
 9416SOL    HW239711   3.076   2.351   4.863  0.2131  2.1010  3.2499
 9417SOL     OW39712   0.507   1.654   5.198  0.1486 -0.3877  0.3830
 9417SOL    HW139713   0.455   1.664   5.118 -1.3419 -2.9819  0.9921
 9417SOL    HW239714   0.583   1.608   5.162  0.0253 -0.6985  0.5176
 9418SOL     OW39715   1.540   3.608  16.113  0.1352 -0.2911 -0.0255
 9418SOL    HW139716   1.450   3.590  16.140  0.1398 -2.4533 -1.4899
 9418SOL    HW239717   1.530   3.702  16.126 -0.3913 -0.6350  2.0300
 9419SOL     OW39718   3.605   3.040  14.737 -0.0529 -0.0384 -0.0249
 9419SOL    HW139719   3.529   2.984  14.746  0.5667 -0.9892 -0.6794
 9419SOL    HW239720   3.580   3.109  14.799 -2.3711 -0.3568 -0.6167
 9420SOL     OW39721   3.703   0.689   7.519  0.4431  0.2713  0.0295
 9420SOL    HW139722   3.624   0.698   7.571  2.1573  1.2396  2.4560
 9420SOL    HW239723   3.704   0.595   7.501  1.3886  0.4381 -0.8353
 9421SOL     OW39724   1.335   1.074  10.142  0.8181 -0.4531 -0.2678
 9421SOL    HW139725   1.384   1.148  10.176 -1.3694  0.6342  0.5174
 9421SOL    HW239726   1.392   0.999  10.159  0.7838  0.1594  2.5642
 9422SOL     OW39727   0.710   1.994   3.404  0.3635 -0.2680  0.4923
 9422SOL    HW139728   0.641   2.046   3.365  0.9160 -1.4913 -2.1422
 9422SOL    HW239729   0.755   2.059   3.457 -1.9261  0.7777  1.1250
 9423SOL     OW39730   0.793   1.122   1.576  0.3956  0.3786  0.0937
 9423SOL    HW139731   0.786   1.069   1.656  1.9745 -1.9688 -1.2999
 9423SOL    HW239732   0.878   1.162   1.592  2.0862 -2.7549 -1.0112
 9424SOL     OW39733   1.876   2.809  11.899  0.0537  0.2467 -0.1655
 9424SOL    HW139734   1.844   2.721  11.881 -1.2975  0.6086  0.4631
 9424SOL    HW239735   1.791   2.853  11.909  0.9730  1.8163  0.6684
 9425SOL     OW39736   1.946   3.544   2.164  0.0743 -0.3918  0.3014
 9425SOL    HW139737   1.884   3.522   2.094  1.4820 -0.3139 -0.9735
 9425SOL    HW239738   2.001   3.607   2.118 -2.6543 -0.8349 -3.5517
 9426SOL     OW39739   1.054   4.177   8.260 -0.1019  0.4512 -0.7861
 9426SOL    HW139740   1.107   4.123   8.201  0.3996 -0.8783  0.8830
 9426SOL    HW239741   1.108   4.182   8.338 -0.5867  1.3189 -0.5001
 9427SOL     OW39742   2.999   1.329   6.677  0.3819 -0.2279  0.1784
 9427SOL    HW139743   3.062   1.378   6.730  0.2351  0.5635 -0.3721
 9427SOL    HW239744   3.053   1.300   6.604  0.9797  2.8242 -0.5903
 9428SOL     OW39745   4.203   2.255   8.141 -0.1992  0.1229 -0.0016
 9428SOL    HW139746   4.181   2.175   8.189 -1.5487 -0.4835 -1.6116
 9428SOL    HW239747   4.249   2.217   8.066  0.2414  0.3690  0.1495
 9429SOL     OW39748   3.870   0.389   4.387 -0.3028  0.1355 -0.2493
 9429SOL    HW139749   3.933   0.414   4.455 -0.6577  0.9720 -0.2333
 9429SOL    HW239750   3.787   0.408   4.431  1.0286 -0.0301  2.3334
 9430SOL     OW39751   0.485   4.342   0.911 -0.9599 -0.9217 -0.4880
 9430SOL    HW139752   0.459   4.291   0.987 -1.6593 -1.0812 -0.8293
 9430SOL    HW239753   0.398   4.342   0.870 -1.3525  1.7760  0.3349
 9431SOL     OW39754   3.891   1.697   9.044  0.1199 -0.4571 -0.0001
 9431SOL    HW139755   3.936   1.668   9.123 -1.6051 -0.4106  1.0229
 9431SOL    HW239756   3.961   1.736   8.992 -0.0328 -0.3303 -0.1108
 9432SOL     OW39757   2.515   3.395   1.613 -0.1172 -0.0292  0.1470
 9432SOL    HW139758   2.420   3.400   1.599 -0.2588  0.3158  1.2623
 9432SOL    HW239759   2.544   3.438   1.532  0.9790 -1.3863 -0.1706
 9433SOL     OW39760   4.670   2.488  13.700 -0.9055  0.0949 -0.1376
 9433SOL    HW139761   0.017   2.535  13.736 -1.6638  1.0831  0.1729
 9433SOL    HW239762   4.693   2.491  13.607 -2.4649  0.0344 -0.5176
 9434SOL     OW39763   0.526   1.660   4.907  0.1190 -0.5995  0.0507
 9434SOL    HW139764   0.464   1.594   4.937 -1.1724  0.1897 -0.8883
 9434SOL    HW239765   0.572   1.613   4.838 -0.4169 -1.1341  0.0534
 9435SOL     OW39766   4.498   3.446   1.395 -0.2231  0.3072 -0.1920
 9435SOL    HW139767   4.428   3.384   1.416  1.2358 -0.9089  1.1352
 9435SOL    HW239768   4.541   3.393   1.328  1.1986  0.2589  0.7290
 9436SOL     OW39769   3.359   3.600  11.587 -0.2568 -0.4551 -0.2844
 9436SOL    HW139770   3.419   3.535  11.551 -0.7665 -0.7993 -0.5045
 9436SOL    HW239771   3.369   3.591  11.681  1.7796  0.3236 -0.4211
 9437SOL     OW39772   4.583   1.042   4.368 -0.5519  0.6205 -0.4811
 9437SOL    HW139773   4.571   1.134   4.391 -1.1385  0.4591 -0.1513
 9437SOL    HW239774   4.496   1.003   4.370  0.6804 -2.2337 -2.0701
 9438SOL     OW39775   0.305   0.815   7.382  0.2707  0.1440 -0.1147
 9438SOL    HW139776   0.233   0.810   7.319 -0.6804 -1.0407  1.0541
 9438SOL    HW239777   0.329   0.908   7.379  1.2138 -0.2089 -3.1420
 9439SOL     OW39778   2.209   0.630   2.815  0.6786  0.7568  0.2714
 9439SOL    HW139779   2.236   0.550   2.860  2.1708 -0.1149 -2.1788
 9439SOL    HW239780   2.151   0.667   2.882  1.5928 -2.5775  2.8797
 9440SOL     OW39781   3.406   1.434   6.545  0.0447 -0.6518 -0.2505
 9440SOL    HW139782   3.387   1.516   6.590  1.4636  1.0979 -2.8909
 9440SOL    HW239783   3.395   1.466   6.456  3.5681 -0.1788 -0.5162
 9441SOL     OW39784   3.012   1.785  15.665  0.4966 -0.1171  0.2918
 9441SOL    HW139785   2.955   1.771  15.589  1.6049  3.3695 -1.1652
 9441SOL    HW239786   3.073   1.855  15.641  1.2639  0.1019  2.8844
 9442SOL     OW39787   2.959   2.798   4.417 -0.7291 -0.1897  0.0197
 9442SOL    HW139788   3.024   2.738   4.380 -0.7399 -0.4224  0.3768
 9442SOL    HW239789   3.015   2.833   4.486 -0.6876  2.0000 -1.1345
 9443SOL     OW39790   0.298   1.528   2.998  0.9867  0.3484  0.3257
 9443SOL    HW139791   0.281   1.435   3.010  1.1637  0.2047 -0.5280
 9443SOL    HW239792   0.218   1.574   2.975  1.2993  0.9945  0.5254
 9444SOL     OW39793   2.365   0.057   8.258 -0.4218  0.8653 -0.1782
 9444SOL    HW139794   2.375   0.107   8.339 -0.3640  1.8851 -0.8133
 9444SOL    HW239795   2.446   0.007   8.252 -3.0861 -3.0676 -3.2164
 9445SOL     OW39796   2.487   4.460  10.862 -0.1071  0.2423 -0.3645
 9445SOL    HW139797   2.563   4.496  10.817 -0.9085 -1.1591 -2.8461
 9445SOL    HW239798   2.453   4.539  10.902 -0.3180 -0.7224  1.3394
 9446SOL     OW39799   1.479   3.512   1.391 -0.4275  0.2326  0.0910
 9446SOL    HW139800   1.456   3.569   1.464 -0.2534  2.9621 -1.9887
 9446SOL    HW239801   1.391   3.482   1.367 -1.0101  1.9720  0.0749
 9447SOL     OW39802   1.657   0.906   3.463  0.0550 -0.0380 -0.4025
 9447SOL    HW139803   1.703   0.822   3.456  1.9331  1.0516 -1.0061
 9447SOL    HW239804   1.716   0.961   3.514 -0.4540  0.0158  0.1228
 9448SOL     OW39805   2.050   1.614  17.379 -0.0143  0.2145  0.5159
 9448SOL    HW139806   2.022   1.604  17.288  1.4334  0.0117  0.0846
 9448SOL    HW239807   2.131   1.663  17.364  0.1910 -0.3095 -0.0561
 9449SOL     OW39808   2.285   2.211  10.850 -0.1110 -0.1674  0.2381
 9449SOL    HW139809   2.294   2.121  10.879 -0.4329 -0.1416  0.4134
 9449SOL    HW239810   2.191   2.226  10.852 -0.1539 -0.1642 -1.7268
 9450SOL     OW39811   4.705   2.480   0.506  0.4119  0.3070 -0.6150
 9450SOL    HW139812   4.699   2.404   0.564 -1.9078  0.6466 -0.4158
 9450SOL    HW239813   0.046   2.532   0.547 -0.4010  0.9194 -0.0024
 9451SOL     OW39814   0.052   2.818   8.348 -0.3729 -0.1532  0.8414
 9451SOL    HW139815   0.054   2.832   8.442  3.2500 -2.9572  1.1974
 9451SOL    HW239816   0.055   2.898   8.296  2.9390  0.8049  2.4983
 9452SOL     OW39817   3.688   2.919   0.406 -0.2546  0.2890  0.3092
 9452SOL    HW139818   3.714   2.850   0.345  1.2644 -0.6326  1.9774
 9452SOL    HW239819   3.774   2.953   0.431 -0.5809  0.2475  1.5180
 9453SOL     OW39820   0.332   4.080   8.815 -0.2670 -0.1122  0.5235
 9453SOL    HW139821   0.274   4.029   8.759 -1.1427  1.1206  0.3181
 9453SOL    HW239822   0.406   4.021   8.829 -0.0965 -0.4755 -1.9334
 9454SOL     OW39823   4.441   1.174   1.086 -0.7830 -0.0732  0.1452
 9454SOL    HW139824   4.357   1.152   1.048 -0.4603 -0.3604 -0.4030
 9454SOL    HW239825   4.414   1.233   1.157  2.1873 -0.6468  1.7746
 9455SOL     OW39826   0.772   0.189   9.315 -0.2397  0.3786  0.0252
 9455SOL    HW139827   0.685   0.192   9.275 -0.4290 -0.8023  0.3387
 9455SOL    HW239828   0.802   0.098   9.311  1.5004  0.8589  2.0326
 9456SOL     OW39829   4.141   4.456   3.547 -0.5071  0.1138  0.1847
 9456SOL    HW139830   4.063   4.508   3.566  1.6298  2.2976  2.9338
 9456SOL    HW239831   4.125   4.383   3.607 -0.0238  0.5649  0.8600
 9457SOL     OW39832   3.370   1.762   5.867 -0.2725  0.2603  0.7763
 9457SOL    HW139833   3.422   1.775   5.946  0.2217  0.2310  0.4641
 9457SOL    HW239834   3.282   1.776   5.901 -0.7914  0.7855 -0.7528
 9458SOL     OW39835   1.941   0.605   4.985  0.3420  0.6042 -0.0715
 9458SOL    HW139836   1.909   0.538   5.045  3.2735 -0.2193  0.5894
 9458SOL    HW239837   1.887   0.580   4.911 -0.6558 -0.2857  0.9609
 9459SOL     OW39838   0.884   2.780  16.683  0.1321  0.0638  0.4895
 9459SOL    HW139839   0.877   2.725  16.605  0.8714  0.7971 -0.0998
 9459SOL    HW239840   0.842   2.863  16.662 -2.6224 -1.5933 -0.4259
 9460SOL     OW39841   2.593   0.648  15.324  0.3763  0.4747  0.1053
 9460SOL    HW139842   2.542   0.571  15.349  0.3943  1.3077  2.7583
 9460SOL    HW239843   2.567   0.660  15.233  1.5044 -2.7717 -0.6492
 9461SOL     OW39844   2.863   0.731   5.720 -0.9002  0.3301  0.4617
 9461SOL    HW139845   2.924   0.676   5.670 -2.7853 -0.3034 -1.1320
 9461SOL    HW239846   2.807   0.660   5.753 -1.7799  1.3078  1.0340
 9462SOL     OW39847   0.274   0.356   6.082  0.2939 -0.1554 -0.1032
 9462SOL    HW139848   0.333   0.384   6.012 -0.8367  1.0091 -0.5842
 9462SOL    HW239849   0.202   0.416   6.063 -1.3366 -2.1039 -0.0809
 9463SOL     OW39850   1.123   2.256   0.338  0.3364  0.1933  0.3370
 9463SOL    HW139851   1.162   2.342   0.349  1.3391 -0.3081  0.7609
 9463SOL    HW239852   1.165   2.220   0.260 -1.3892  0.4171 -0.6996
 9464SOL     OW39853   1.038   1.403   7.587  0.1883  0.2685  0.4062
 9464SOL    HW139854   1.092   1.337   7.543 -0.8340  0.7693 -1.6116
 9464SOL    HW239855   1.096   1.463   7.634 -0.6454 -1.5263  3.7315
 9465SOL     OW39856   2.988   1.610   9.301  0.6598  0.0107  0.3120
 9465SOL    HW139857   2.913   1.654   9.341  0.7839  0.5651 -0.0647
 9465SOL    HW239858   3.032   1.681   9.255 -0.5023 -0.1712 -1.0586
 9466SOL     OW39859   4.436   4.724   9.824  0.4732  0.1663 -0.0262
 9466SOL    HW139860   4.489   0.063   9.783 -0.9484  1.1456 -0.2750
 9466SOL    HW239861   4.352   0.032   9.853 -0.0607  1.5833 -3.4077
 9467SOL     OW39862   0.958   1.380   6.996  0.5131  0.0040 -0.4713
 9467SOL    HW139863   0.891   1.394   7.062  0.2053 -1.9372 -0.3696
 9467SOL    HW239864   1.010   1.455   7.023 -1.1671  0.5248  1.2848
 9468SOL     OW39865   1.748   1.023   7.914  0.6845  0.4464  0.4037
 9468SOL    HW139866   1.693   1.093   7.879  1.3341  1.4062  1.2866
 9468SOL    HW239867   1.700   0.996   7.992 -0.1320 -0.5328 -0.4319
 9469SOL     OW39868   0.038   3.595  11.478 -0.1494  0.1806  0.3318
 9469SOL    HW139869   4.673   3.578  11.487 -0.4017  0.7050 -1.3240
 9469SOL    HW239870   0.048   3.623  11.569  2.1615 -1.2271  0.5206
 9470SOL     OW39871   0.955   0.111   3.004 -0.0322 -0.5625  0.2318
 9470SOL    HW139872   0.994   0.025   3.022 -0.3009 -0.2762  2.1879
 9470SOL    HW239873   0.888   0.116   3.072 -0.4474 -1.2465 -0.1244
 9471SOL     OW39874   4.531   2.056   4.853  0.2016 -0.7860 -0.6271
 9471SOL    HW139875   4.511   2.026   4.764  0.8921  1.9377 -1.7079
 9471SOL    HW239876   4.610   2.003   4.865  0.8928  0.9623  2.3956
 9472SOL     OW39877   1.556   4.341  17.466 -0.0366 -0.2474 -0.1902
 9472SOL    HW139878   1.595   4.255  17.455  0.6498  0.1689 -0.9222
 9472SOL    HW239879   1.502   4.336  17.546  0.5982  3.5718  0.4834
 9473SOL     OW39880   0.939   0.340   4.416 -0.3631 -0.1346 -0.3632
 9473SOL    HW139881   0.891   0.357   4.496 -0.8970  0.1863 -0.7583
 9473SOL    HW239882   0.910   0.256   4.381  1.1265 -0.6258 -0.4230
 9474SOL     OW39883   0.533   0.684   7.393 -0.1538 -0.8045 -0.2635
 9474SOL    HW139884   0.591   0.726   7.329  1.3434 -0.7395  1.1171
 9474SOL    HW239885   0.453   0.735   7.381  0.8024  0.8723  0.4803
 9475SOL     OW39886   1.672   3.591  15.876 -0.0472  0.0330 -0.2743
 9475SOL    HW139887   1.747   3.561  15.927  1.5171 -1.2937 -3.3405
 9475SOL    HW239888   1.610   3.606  15.948 -0.1561  4.9810 -1.3968
 9476SOL     OW39889   1.445   0.196   4.241  0.3252 -0.4144 -0.1977
 9476SOL    HW139890   1.416   0.122   4.294  0.9939 -0.8247 -0.3986
 9476SOL    HW239891   1.370   0.252   4.263 -0.3689 -1.2095 -0.5390
 9477SOL     OW39892   3.522   3.343   0.944  0.1419 -0.2817 -0.4229
 9477SOL    HW139893   3.518   3.436   0.922 -0.0025  0.0569  1.0524
 9477SOL    HW239894   3.434   3.329   0.977 -0.9081  0.5008 -2.8736
 9478SOL     OW39895   3.212   0.476   7.279 -0.2596 -0.1330  0.0159
 9478SOL    HW139896   3.202   0.414   7.206  1.9677 -0.2647 -0.1681
 9478SOL    HW239897   3.163   0.423   7.342  1.7022 -0.5556  1.1710
 9479SOL     OW39898   0.391   0.170   5.676 -0.2321  0.6046 -0.1595
 9479SOL    HW139899   0.450   0.108   5.718 -0.3253  0.2676 -0.5342
 9479SOL    HW239900   0.310   0.119   5.667 -0.4366  0.5127  2.0999
 9480SOL     OW39901   0.773   1.864   5.253  0.7019  0.1512 -0.3915
 9480SOL    HW139902   0.733   1.782   5.282  0.9032  0.5922  1.1626
 9480SOL    HW239903   0.846   1.868   5.316 -0.4584  1.8373  0.8554
 9481SOL     OW39904   1.887   2.454  11.895 -0.5967  0.9108  0.0141
 9481SOL    HW139905   1.845   2.392  11.835  3.0622 -0.9870 -0.5720
 9481SOL    HW239906   1.975   2.464  11.857  1.0547 -1.4770  3.2305
 9482SOL     OW39907   1.829   3.470  16.143  0.3342  0.0555 -0.5668
 9482SOL    HW139908   1.916   3.447  16.175 -0.4151 -2.3400 -0.2586
 9482SOL    HW239909   1.797   3.526  16.214 -1.0435 -2.5970  0.8911
 9483SOL     OW39910   0.393   0.237   7.876  0.3951  0.4104 -0.0599
 9483SOL    HW139911   0.298   0.231   7.888  0.3624  2.1696  0.5036
 9483SOL    HW239912   0.387   0.282   7.791  3.2559  0.5805 -0.1742
 9484SOL     OW39913   2.675   0.827   8.757  0.5018  0.7922  0.1661
 9484SOL    HW139914   2.586   0.863   8.760  0.3061  0.2075  1.3534
 9484SOL    HW239915   2.682   0.787   8.843 -1.6776  1.7056  0.7791
 9485SOL     OW39916   4.033   3.561   5.325 -0.2007  0.1296  0.4236
 9485SOL    HW139917   4.120   3.574   5.287 -0.0339  0.4153  0.9119
 9485SOL    HW239918   4.013   3.654   5.329 -0.7159  0.1049 -1.5448
 9486SOL     OW39919   2.705   1.403   6.112  0.5233 -0.1692  0.3563
 9486SOL    HW139920   2.793   1.403   6.149  1.1147  2.6414 -1.0487
 9486SOL    HW239921   2.655   1.467   6.162 -2.7307 -1.3789 -1.3536
 9487SOL     OW39922   0.895   2.366   1.842  0.3405 -0.0526 -0.0658
 9487SOL    HW139923   0.845   2.336   1.918 -1.4556 -0.9275 -1.5667
 9487SOL    HW239924   0.823   2.402   1.790  0.6384  0.4563 -0.1209
 9488SOL     OW39925   4.358   3.035  13.718  0.3424 -0.3222  0.6246
 9488SOL    HW139926   4.316   2.995  13.642  1.4412 -0.7017  0.2054
 9488SOL    HW239927   4.452   3.035  13.698 -0.0792 -0.4765 -1.4287
 9489SOL     OW39928   1.261   4.442   1.317  0.3486 -0.0301 -0.1435
 9489SOL    HW139929   1.303   4.458   1.402 -0.9153  0.3512  0.4012
 9489SOL    HW239930   1.332   4.408   1.262  1.0559 -1.3903  1.5887
 9490SOL     OW39931   2.772   1.207   6.329  0.0983 -0.2000 -0.6014
 9490SOL    HW139932   2.734   1.130   6.372 -0.4604  0.2991 -0.2154
 9490SOL    HW239933   2.696   1.241   6.283 -0.2107 -1.3406 -0.9405
 9491SOL     OW39934   2.807   0.362   3.490  0.0136  0.5224 -0.0093
 9491SOL    HW139935   2.783   0.454   3.483  0.1048  0.3828 -1.9586
 9491SOL    HW239936   2.740   0.324   3.547  0.9177 -0.8397  0.1468
 9492SOL     OW39937   0.031   3.184   3.386 -0.0553  0.0502  0.0778
 9492SOL    HW139938   4.707   3.248   3.338  0.2784  0.5549  0.3839
 9492SOL    HW239939   4.708   3.163   3.464  2.4639 -1.3580  1.3933
 9493SOL     OW39940   0.740   0.469  11.634 -0.2420 -0.1571 -0.5725
 9493SOL    HW139941   0.816   0.509  11.676 -0.5087 -2.0375  1.7029
 9493SOL    HW239942   0.677   0.520  11.684 -0.5252 -0.5341 -0.5470
 9494SOL     OW39943   2.054   1.110   5.968 -0.1865  0.9850  0.3452
 9494SOL    HW139944   2.047   1.112   5.872  0.6323  0.6258  0.2717
 9494SOL    HW239945   2.125   1.172   5.985 -0.1930  0.4718  2.2214
 9495SOL     OW39946   0.162   1.770   4.514 -0.3712  0.9584  0.5993
 9495SOL    HW139947   0.135   1.804   4.428 -2.8812  2.8640  2.1502
 9495SOL    HW239948   0.178   1.680   4.487  1.6603  1.2948  0.6906
 9496SOL     OW39949   4.187   2.219   5.199  0.0559  0.5613 -0.1181
 9496SOL    HW139950   4.203   2.147   5.137 -2.2757 -1.2300  1.3417
 9496SOL    HW239951   4.192   2.298   5.144 -0.2778  0.4282 -0.3431
 9497SOL     OW39952   2.376   2.163  17.615  0.4665  0.0866 -0.4501
 9497SOL    HW139953   2.442   2.161  17.684 -2.2576 -1.8935  2.0918
 9497SOL    HW239954   2.302   2.190  17.670 -1.0536 -1.4927 -1.7032
 9498SOL     OW39955   2.337   0.996   1.011 -0.0048  0.3167 -0.2972
 9498SOL    HW139956   2.380   0.992   0.926  0.1285  1.9961 -0.3094
 9498SOL    HW239957   2.414   0.961   1.057 -0.2753  0.1062 -0.0016
 9499SOL     OW39958   2.369   4.580   9.591  0.4986 -0.1195  0.9441
 9499SOL    HW139959   2.414   4.496   9.599  1.3984  0.1509 -1.4201
 9499SOL    HW239960   2.402   4.628   9.667  0.5356 -0.5870  1.2237
 9500SOL     OW39961   3.003   3.387   7.997  0.6843 -0.5812  0.4954
 9500SOL    HW139962   3.016   3.482   7.994 -1.3397 -0.3255  0.0563
 9500SOL    HW239963   2.935   3.369   7.933  0.8679 -1.4391  0.5416
 9501SOL     OW39964   0.463   1.860   1.894  0.3829  0.3301 -0.3312
 9501SOL    HW139965   0.465   1.765   1.887 -0.5737  0.1578  1.7880
 9501SOL    HW239966   0.390   1.879   1.835 -0.5638  0.9887  1.0378
 9502SOL     OW39967   3.892   2.336  13.290  0.2111  0.5140  0.5487
 9502SOL    HW139968   3.845   2.416  13.264 -0.8775 -0.3457 -0.1730
 9502SOL    HW239969   3.932   2.367  13.371  1.3278  1.9755 -0.5601
 9503SOL     OW39970   3.390   3.291   2.116  0.3994 -0.0188  0.5096
 9503SOL    HW139971   3.472   3.321   2.154 -0.0485  0.7529  0.8702
 9503SOL    HW239972   3.363   3.369   2.067 -0.2361 -1.3626 -1.2904
 9504SOL     OW39973   0.788   1.432   5.616  0.5750  0.2614 -0.0236
 9504SOL    HW139974   0.806   1.526   5.621  0.3842  0.1771  2.0936
 9504SOL    HW239975   0.693   1.434   5.627  0.5187  2.2469 -0.8155
 9505SOL     OW39976   2.697   2.041  17.068 -0.7323 -0.2047  0.2374
 9505SOL    HW139977   2.783   2.064  17.102  0.3324 -0.1380 -2.4836
 9505SOL    HW239978   2.691   1.960  17.118  1.7617 -0.6588 -0.2197
 9506SOL     OW39979   1.685   4.343   6.034  0.5487  0.1061  0.1378
 9506SOL    HW139980   1.731   4.392   6.103 -0.0527  1.4969 -0.4492
 9506SOL    HW239981   1.620   4.405   6.002  0.9573  0.7101  0.4677
 9507SOL     OW39982   0.957   1.683  17.012 -0.0158 -0.8183  0.7766
 9507SOL    HW139983   1.009   1.760  16.991 -1.7439  0.2236  0.2780
 9507SOL    HW239984   0.986   1.669  17.102 -0.2824  1.4586  1.2214
 9508SOL     OW39985   3.648   1.445  17.176  0.0790  0.3145 -0.0480
 9508SOL    HW139986   3.604   1.360  17.175  1.3202 -0.3075 -1.3090
 9508SOL    HW239987   3.598   1.491  17.108 -0.0693 -0.3475 -0.3921
 9509SOL     OW39988   2.422   3.307   8.042  0.2902  0.1237  0.3040
 9509SOL    HW139989   2.438   3.291   8.135 -1.7345 -0.1708  0.5942
 9509SOL    HW239990   2.379   3.227   8.011  1.2137 -0.4367  0.4700
 9510SOL     OW39991   3.709   3.436   1.495 -0.5250  0.6079 -0.2075
 9510SOL    HW139992   3.706   3.526   1.527 -1.4077  0.2587  0.6814
 9510SOL    HW239993   3.687   3.386   1.573  0.2326 -0.2861 -0.5627
 9511SOL     OW39994   0.489   2.567  13.044 -0.1642  0.4642  0.1024
 9511SOL    HW139995   0.575   2.554  13.083 -0.8157  0.9171  1.6862
 9511SOL    HW239996   0.446   2.481  13.043  0.1976  0.2962 -1.3651
 9512SOL     OW39997   0.172   3.659   3.300 -0.1903 -0.2954 -0.3130
 9512SOL    HW139998   0.102   3.654   3.365 -1.4625 -1.9309 -1.8270
 9512SOL    HW239999   0.141   3.587   3.246 -1.3227  0.1991 -0.3212
 9513SOL     OW40000   3.375   0.705   8.634  0.4033  0.6036  0.3059
 9513SOL    HW140001   3.418   0.658   8.705 -1.8200 -1.0578  0.5468
 9513SOL    HW240002   3.376   0.623   8.585 -2.4337  0.8609 -0.2110
 9514SOL     OW40003   2.149   2.893   1.574 -0.3309  0.1819 -0.5673
 9514SOL    HW140004   2.168   2.977   1.615 -0.3840 -0.4615  0.7838
 9514SOL    HW240005   2.093   2.926   1.504 -0.8345  0.7879  0.1086
 9515SOL     OW40006   1.952   4.609  11.198  0.3494 -0.3587  0.2618
 9515SOL    HW140007   1.962   4.526  11.245 -0.9328 -0.7791 -0.2132
 9515SOL    HW240008   1.902   4.587  11.120  0.0579 -0.2863  0.4249
 9516SOL     OW40009   1.710   3.863  11.655 -0.6708  0.7426  0.0619
 9516SOL    HW140010   1.704   3.790  11.716  0.5955 -0.8471 -1.7316
 9516SOL    HW240011   1.764   3.819  11.590  1.4902  1.2318  1.5511
 9517SOL     OW40012   3.156   3.512   2.752 -0.1105 -0.2511 -0.2315
 9517SOL    HW140013   3.137   3.469   2.835 -0.1250 -0.9048 -0.5719
 9517SOL    HW240014   3.069   3.543   2.729  0.4219  0.7664 -0.8907
 9518SOL     OW40015   1.650   0.312  17.662 -1.0784 -0.6324  0.2528
 9518SOL    HW140016   1.715   0.323   0.016 -0.3507  1.7938 -0.8137
 9518SOL    HW240017   1.609   0.230  17.688  0.0766 -0.9576  1.0492
 9519SOL     OW40018   0.718   1.025   8.650 -0.4419 -0.3307  0.4757
 9519SOL    HW140019   0.730   1.010   8.556  1.9580 -0.9686  0.8804
 9519SOL    HW240020   0.774   0.954   8.680 -0.7881 -0.5996  0.4932
 9520SOL     OW40021   1.275   0.116   5.951 -0.1497  0.0172  0.6865
 9520SOL    HW140022   1.337   0.076   6.011  0.6666  3.9404  2.4268
 9520SOL    HW240023   1.189   0.095   5.989  0.0294 -2.5174 -0.2840
 9521SOL     OW40024   0.797   0.663   7.903  0.2336 -0.1895 -0.1911
 9521SOL    HW140025   0.844   0.745   7.916  1.2174 -1.0357  1.5666
 9521SOL    HW240026   0.724   0.695   7.849 -0.3317 -1.7560 -0.3501
 9522SOL     OW40027   1.560   0.179   2.706 -0.6118 -0.1696 -0.8090
 9522SOL    HW140028   1.575   0.085   2.693  1.6663  0.1564 -0.6014
 9522SOL    HW240029   1.646   0.210   2.677 -2.0758  2.2722 -2.5540
 9523SOL     OW40030   2.788   0.650   8.162  0.4882  0.8091  0.0427
 9523SOL    HW140031   2.730   0.587   8.206  0.1978  0.9389 -0.1532
 9523SOL    HW240032   2.823   0.709   8.229  0.8335 -1.2814  1.7197
 9524SOL     OW40033   3.383   1.579   8.194 -0.2037  0.0326 -0.0388
 9524SOL    HW140034   3.383   1.645   8.263  0.6862  0.5426 -0.5227
 9524SOL    HW240035   3.292   1.594   8.169  0.0052  2.8674  0.9672
 9525SOL     OW40036   4.166   3.340   0.028 -0.5804 -0.2289 -0.0161
 9525SOL    HW140037   4.221   3.286  17.686  1.3320 -0.5903  2.2145
 9525SOL    HW240038   4.210   3.320   0.110 -0.5229  0.5447  0.1449
 9526SOL     OW40039   1.971   0.965   5.152 -0.3199  0.6562  0.0110
 9526SOL    HW140040   1.968   1.022   5.076  1.7185  1.2051  0.3414
 9526SOL    HW240041   1.883   0.928   5.147 -1.0771  2.3340  0.9251
 9527SOL     OW40042   2.379   3.907   8.299  0.1015 -0.1747  0.1539
 9527SOL    HW140043   2.356   3.908   8.207 -0.4096  1.5135  0.3033
 9527SOL    HW240044   2.354   3.998   8.316  2.5302  1.0169 -2.6582
 9528SOL     OW40045   4.053   1.098  17.305  0.1013 -0.5620  0.3145
 9528SOL    HW140046   3.999   1.175  17.285  1.0254 -0.7110 -2.7886
 9528SOL    HW240047   4.139   1.128  17.278 -0.5419  1.2798  0.2496
 9529SOL     OW40048   4.377   1.176  13.500  0.3413  0.0105 -0.4415
 9529SOL    HW140049   4.416   1.223  13.574  0.5299 -0.5819 -0.1644
 9529SOL    HW240050   4.456   1.151  13.452  0.2626 -0.6633 -0.2263
 9530SOL     OW40051   3.544   4.222  10.076 -0.2846 -0.0342  0.1780
 9530SOL    HW140052   3.551   4.235   9.982  0.9419 -2.8474 -0.1185
 9530SOL    HW240053   3.635   4.224  10.105 -0.8953  3.8030  1.8463
 9531SOL     OW40054   2.934   3.850   5.033  0.2830 -0.2383  0.3019
 9531SOL    HW140055   2.877   3.790   5.081  0.0677 -1.1499 -1.0939
 9531SOL    HW240056   3.020   3.810   5.051 -0.1663 -1.8684 -1.1321
 9532SOL     OW40057   3.934   3.032   9.111 -0.3629 -0.2734 -0.2294
 9532SOL    HW140058   3.933   3.006   9.019 -2.7198  1.3676 -0.6624
 9532SOL    HW240059   3.840   3.053   9.112 -0.6821 -1.7004  0.1994
 9533SOL     OW40060   1.855   3.909   5.939 -0.2131 -0.0933 -0.1727
 9533SOL    HW140061   1.816   3.958   6.011 -0.2449 -0.1688 -0.1379
 9533SOL    HW240062   1.933   3.874   5.982  0.6381 -0.3234 -1.9126
 9534SOL     OW40063   1.030   2.657  15.329 -0.5735 -0.2439 -0.3833
 9534SOL    HW140064   1.012   2.717  15.402  0.6733  0.4837 -0.6839
 9534SOL    HW240065   1.043   2.716  15.255 -1.6628  0.1163 -0.2950
 9535SOL     OW40066   4.639   1.283   4.464  1.0199  0.2499  0.0608
 9535SOL    HW140067   4.631   1.364   4.414  0.8859  0.3842  0.3033
 9535SOL    HW240068   0.002   1.284   4.491  0.4711  1.4016  1.8410
 9536SOL     OW40069   1.422   4.097  17.521  0.3071  0.6389 -0.2389
 9536SOL    HW140070   1.373   4.100  17.604 -0.9819  1.3557 -1.0320
 9536SOL    HW240071   1.352   4.068  17.463 -0.3846 -1.1114  1.4458
 9537SOL     OW40072   2.094   2.568  13.543  0.3080 -0.4123 -0.3427
 9537SOL    HW140073   2.117   2.617  13.622 -1.4079 -1.0679  0.5745
 9537SOL    HW240074   2.041   2.495  13.576  0.8306 -0.9070 -0.5902
 9538SOL     OW40075   0.222   0.844   5.219  0.3352 -0.3292 -0.3564
 9538SOL    HW140076   0.311   0.831   5.253 -0.5939 -2.4542  1.3287
 9538SOL    HW240077   0.206   0.937   5.233 -2.6486 -1.0048  0.7527
 9539SOL     OW40078   2.080   0.313   2.793  0.6578  0.3815  0.2057
 9539SOL    HW140079   2.132   0.352   2.863 -1.5514  3.3658  0.1996
 9539SOL    HW240080   2.123   0.228   2.783  1.7879  0.7808  1.6382
 9540SOL     OW40081   3.272   2.286  15.734 -0.1321 -0.4452  0.2890
 9540SOL    HW140082   3.249   2.330  15.816  2.3695  2.7084 -0.7342
 9540SOL    HW240083   3.290   2.349  15.664  1.2439  0.0100  1.0661
 9541SOL     OW40084   3.822   0.136   4.599  0.4664 -0.7444  0.6039
 9541SOL    HW140085   3.841   0.228   4.618  0.9101 -1.2634  2.6309
 9541SOL    HW240086   3.727   0.138   4.608  0.4169  1.1697 -0.2636
 9542SOL     OW40087   2.433   4.697  15.130 -0.9546 -0.4375 -0.2790
 9542SOL    HW140088   2.406   4.687  15.039 -0.4614 -0.1698 -0.4559
 9542SOL    HW240089   2.450   0.063  15.130 -0.0294 -0.5990  0.5517
 9543SOL     OW40090   3.078   1.752   6.182  0.0100  0.2030 -0.1765
 9543SOL    HW140091   3.007   1.791   6.233  0.4972 -0.2677  0.8568
 9543SOL    HW240092   3.082   1.816   6.110 -2.6284 -0.8954 -1.3149
 9544SOL     OW40093   3.520   2.251   2.417  0.1617 -0.2851  0.4351
 9544SOL    HW140094   3.455   2.319   2.396 -1.0331 -1.5523  0.0271
 9544SOL    HW240095   3.535   2.263   2.511  1.4657  0.7239  0.0964
 9545SOL     OW40096   0.111   1.493  11.268  0.0154 -0.1074 -0.9621
 9545SOL    HW140097   0.136   1.504  11.176  1.0990  0.9489 -0.5390
 9545SOL    HW240098   0.082   1.582  11.286  1.1465 -0.3407  1.9259
 9546SOL     OW40099   0.224   0.829   4.266  0.1013 -0.1672  0.7267
 9546SOL    HW140100   0.151   0.877   4.225 -0.2137  0.0522  1.5417
 9546SOL    HW240101   0.304   0.844   4.216 -0.8924  0.1670 -0.7630
 9547SOL     OW40102   0.862   4.273   4.025 -0.8086  0.6261 -0.7967
 9547SOL    HW140103   0.779   4.244   3.987 -0.9097 -2.1550  1.5512
 9547SOL    HW240104   0.895   4.309   3.942 -2.0245 -0.7601 -1.8812
 9548SOL     OW40105   2.950   0.123   9.463  0.1370 -0.1791  0.6364
 9548SOL    HW140106   2.877   0.138   9.403  1.4394 -2.3014 -1.4894
 9548SOL    HW240107   3.013   0.094   9.396 -0.1373  1.1940 -0.2093
 9549SOL     OW40108   2.206   4.617  14.829  0.3114 -0.0583 -0.3500
 9549SOL    HW140109   2.138   4.666  14.875  1.4983  0.3060  1.0495
 9549SOL    HW240110   2.162   4.546  14.784  1.8060 -0.6495 -0.8795
 9550SOL     OW40111   2.161   3.037   7.463 -0.0212 -0.1988 -0.7526
 9550SOL    HW140112   2.198   3.121   7.434 -0.7482 -0.4166 -2.2602
 9550SOL    HW240113   2.188   2.975   7.395 -1.9673 -2.1136  0.2172
 9551SOL     OW40114   3.466   1.318   5.113  0.8293 -0.0492 -0.4139
 9551SOL    HW140115   3.557   1.344   5.100  0.4251  2.1836  1.2661
 9551SOL    HW240116   3.428   1.335   5.026 -0.8369  0.9321  0.5024
 9552SOL     OW40117   2.891   2.529   6.966  0.2300  0.7550  0.2987
 9552SOL    HW140118   2.931   2.490   6.888 -0.1113  0.4946  0.2570
 9552SOL    HW240119   2.939   2.482   7.034 -0.9546 -0.0907  0.5449
 9553SOL     OW40120   2.348   0.875   8.339  0.2979 -0.3010 -0.0068
 9553SOL    HW140121   2.409   0.941   8.308  0.0937 -0.7604 -1.3931
 9553SOL    HW240122   2.279   0.921   8.387 -0.4540 -0.1179 -1.2741
 9554SOL     OW40123   2.011   4.074  17.683  0.6129  0.1522  0.1094
 9554SOL    HW140124   2.073   4.118   0.027  0.6634  0.8513 -0.4619
 9554SOL    HW240125   2.064   4.083  17.603 -2.0388 -1.3959 -1.7833
 9555SOL     OW40126   1.177   2.456   5.915 -0.1848 -0.3562  0.3576
 9555SOL    HW140127   1.105   2.476   5.975  0.8402 -1.4268  1.9215
 9555SOL    HW240128   1.249   2.416   5.963 -0.7364 -0.5326  1.0407
 9556SOL     OW40129   1.290   2.840   2.403 -0.3970  0.7249  0.0652
 9556SOL    HW140130   1.249   2.918   2.364 -2.1720  0.1653  0.7897
 9556SOL    HW240131   1.357   2.875   2.461  2.8280 -0.0196 -3.1625
 9557SOL     OW40132   2.251   3.861   4.649  0.5565 -0.5859  0.1001
 9557SOL    HW140133   2.281   3.929   4.710  2.6132 -0.2798 -1.2326
 9557SOL    HW240134   2.272   3.898   4.563 -0.5083 -0.6649 -0.1873
 9558SOL     OW40135   4.406   3.294   3.485  0.3075  0.5568  0.0980
 9558SOL    HW140136   4.474   3.316   3.422  0.1068  0.1655 -0.2565
 9558SOL    HW240137   4.325   3.306   3.436  0.9016 -0.7089 -1.1997
 9559SOL     OW40138   1.284   1.770  17.567 -0.4362 -0.4326  0.4172
 9559SOL    HW140139   1.199   1.780  17.610 -1.2534  0.6595 -1.4408
 9559SOL    HW240140   1.335   1.781  17.647  0.1857 -0.1395 -0.0229
 9560SOL     OW40141   1.878   3.208  14.984 -0.9942  0.2338  0.1320
 9560SOL    HW140142   1.949   3.173  15.038 -2.5225 -2.9658  0.0573
 9560SOL    HW240143   1.898   3.301  14.979  0.4035 -0.0808  0.0535
 9561SOL     OW40144   2.521   2.788  17.628  0.9491 -0.6512 -0.1664
 9561SOL    HW140145   2.460   2.768  17.557 -1.0339  0.5546  1.2339
 9561SOL    HW240146   2.544   2.879  17.613  0.3931 -0.4726  0.0761
 9562SOL     OW40147   1.704   2.630   2.241 -0.2324  0.0794  0.5291
 9562SOL    HW140148   1.687   2.577   2.319  0.9062 -0.2838  0.5338
 9562SOL    HW240149   1.783   2.679   2.263  0.5353 -0.0704 -1.9038
 9563SOL     OW40150   2.887   3.282   5.454  0.2181 -0.1905 -0.1937
 9563SOL    HW140151   2.835   3.340   5.399  0.7835  2.0844  1.6432
 9563SOL    HW240152   2.850   3.271   5.542  1.9249 -0.7197  0.4658
 9564SOL     OW40153   3.771   1.605  13.385 -0.6211  0.6557  0.7735
 9564SOL    HW140154   3.731   1.606  13.472  0.0016 -1.5832  1.0850
 9564SOL    HW240155   3.722   1.533  13.346  2.1879 -1.9706  2.1544
 9565SOL     OW40156   2.043   0.880   3.691 -0.6729  0.2612 -0.0437
 9565SOL    HW140157   1.954   0.907   3.669 -0.9905  0.5083  1.5297
 9565SOL    HW240158   2.040   0.867   3.786  1.6143  0.8851  0.1174
 9566SOL     OW40159   1.709   0.142   3.029  0.1315  0.5833 -0.4891
 9566SOL    HW140160   1.750   0.080   2.969  1.9928  0.4151  0.9464
 9566SOL    HW240161   1.739   0.219   2.980  3.4524  0.4980  1.4018
 9567SOL     OW40162   3.161   3.792   7.730 -0.0088 -0.3218 -0.3421
 9567SOL    HW140163   3.103   3.868   7.734  0.2207 -0.2167  0.9665
 9567SOL    HW240164   3.201   3.789   7.817 -0.5344 -1.5100 -0.1479
 9568SOL     OW40165   3.902   1.280  13.311 -0.0633  0.7402 -0.0569
 9568SOL    HW140166   3.888   1.186  13.314 -1.0046  0.7846 -3.3472
 9568SOL    HW240167   3.823   1.312  13.267 -0.6899  0.3300  0.7740
   4.72860   4.72860  17.71491
