Membrane in water
40167
    1TCq1    O1    1   2.845   1.383  10.874 -0.8467  0.6046  0.2060
    1TCq1    C1    2   2.734   1.317  10.937  0.8885 -0.6998  0.2330
    1TCq1    O2    3   2.678   1.361  11.036  0.3989  0.0827 -0.4729
    1TCq1    C2    4   2.763   1.178  10.926  0.2025 -0.6021 -0.1190
    1TCq1    C3    5   2.794   1.130  10.801  0.2706 -0.8534 -0.0296
    1TCq1    C4    6   2.832   0.996  10.789  0.0761  0.2461 -0.0195
    1TCq1    C5    7   2.844   0.914  10.901 -0.4820 -0.4052  0.2749
    1TCq1    C6    8   2.823   0.972  11.022  0.6489 -0.7349  0.2449
    1TCq1    C7    9   2.781   1.106  11.037 -0.2477  0.4885 -0.6819
    1TCq1    C8   10   2.815   0.885  11.140 -0.4175  0.3373 -0.2504
    1TCq1    O4   11   2.733   0.922  11.224  0.6161  0.1363  0.4544
    1TCq1    C9   12   2.869   0.941  10.660  0.2853 -0.1563  0.0632
    1TCq1    O5   13   2.820   0.985  10.551 -0.1343  0.0946  0.1676
    1TCq1    O6   14   2.946   0.843  10.667  0.1349  0.0960  0.0602
    1TCq1    H1   15   2.905   1.321  10.827  0.6242 -0.3383  3.3744
    1TCq1    H2   16   2.772   1.186  10.711  0.6336  1.3091  1.2451
    1TCq1    H3   17   2.875   0.810  10.893 -2.8127 -0.9145 -2.1176
    1TCq1    H4   18   2.771   1.152  11.134  1.5839  0.0348 -0.2739
    2MPD2     C   19   2.834   0.400  11.307 -0.3161  0.0263 -0.5543
    2MPD2    C1   20   2.787   0.516  11.372 -0.4243  0.5888  0.3347
    2MPD2    C2   21   2.814   0.639  11.320  0.2206  0.7754 -0.6218
    2MPD2    C3   22   2.887   0.657  11.201  0.0119  0.0158  0.0765
    2MPD2    C4   23   2.943   0.542  11.151  0.3816 -0.1491  0.1953
    2MPD2    C5   24   2.917   0.421  11.200  0.1727 -0.2784  0.2914
    2MPD2     H   25   2.780   0.730  11.368 -0.5512 -0.7618  1.7387
    2MPD2    H1   26   2.997   0.554  11.057 -1.3511 -0.2986 -0.8075
    2MPD2    H2   27   2.812   0.297  11.330  2.3237 -0.8005 -1.7602
    2MPD2    H3   28   2.952   0.333  11.149 -0.5711 -0.0577 -0.5933
    2MPD2     N   29   2.893   0.776  11.125 -0.6353 -0.4856 -0.0343
    2MPD2    H5   30   2.962   0.785  11.051  1.3369  1.7799  2.1258
    2MPD2    N1   31   2.702   0.501  11.489 -0.2595 -0.3619 -0.1212
    2MPD2    H7   32   2.646   0.577  11.527  1.0250 -0.0008  1.0384
    3TCq1    O1   33   2.428   1.395  10.617 -0.4325  0.1150  0.5532
    3TCq1    C1   34   2.386   1.374  10.743  0.3798 -0.0824 -0.1560
    3TCq1    O2   35   2.409   1.269  10.804 -0.7669 -0.2356  0.0222
    3TCq1    C2   36   2.377   1.502  10.803 -0.2620  0.0460  0.1370
    3TCq1    C3   37   2.342   1.613  10.732 -0.6677 -0.3083  0.2218
    3TCq1    C4   38   2.344   1.731  10.800  0.5791  0.2858 -0.1095
    3TCq1    C5   39   2.364   1.747  10.935  0.0118  0.4504 -0.2912
    3TCq1    C6   40   2.395   1.630  10.998  0.5187  0.4112 -0.0461
    3TCq1    C7   41   2.407   1.510  10.933  0.0678 -0.3248  0.4310
    3TCq1    C8   42   2.419   1.629  11.139  0.4429  0.1091  0.4676
    3TCq1    O4   43   2.436   1.525  11.192  0.0209 -0.3645 -0.3330
    3TCq1    C9   44   2.309   1.856  10.731 -0.2639 -0.6843  0.0364
    3TCq1    O5   45   2.328   1.863  10.608  0.6494 -0.3975  0.1388
    3TCq1    O6   46   2.294   1.953  10.811 -0.3909  0.2785  0.1887
    3TCq1    H1   47   2.406   1.482  10.578  1.7828  0.3332 -0.2315
    3TCq1    H2   48   2.318   1.615  10.626  0.2921 -2.3140 -0.0239
    3TCq1    H3   49   2.354   1.846  10.980  4.8127  0.8635 -0.1954
    3TCq1    H4   50   2.445   1.421  10.981 -0.5790 -0.1251  1.3139
    4MPD2     C   51   2.297   1.841  11.601  0.2270  0.0980 -0.0043
    4MPD2    C1   52   2.345   1.937  11.517 -0.0324 -0.3017 -0.6299
    4MPD2    C2   53   2.378   1.911  11.386 -0.2249 -0.7527  0.4132
    4MPD2    C3   54   2.384   1.781  11.338  0.0888  1.3129  0.2621
    4MPD2    C4   55   2.365   1.683  11.434 -0.4939 -0.7157 -0.3737
    4MPD2    C5   56   2.317   1.708  11.563  0.2134  0.2549  0.1890
    4MPD2     H   57   2.401   1.985  11.310 -1.4495 -2.7872 -1.9632
    4MPD2    H1   58   2.374   1.577  11.412  1.1228 -0.1824 -2.2504
    4MPD2    H2   59   2.274   1.859  11.706 -1.3653  0.5947 -0.4299
    4MPD2    H3   60   2.294   1.630  11.635  1.5110  0.4493  0.8111
    4MPD2     N   61   2.408   1.753  11.202  0.3873  0.2224 -0.4015
    4MPD2    H5   62   2.434   1.834  11.147 -0.6962  0.4501 -0.5783
    4MPD2    N1   63   2.341   2.076  11.549 -0.7711  0.2727 -0.1104
    4MPD2    H7   64   2.355   2.138  11.469  1.1504  1.4886  1.1752
    5TCq1    O1   65   4.034   2.685  11.680  0.9174 -0.3677 -0.4664
    5TCq1    C1   66   3.936   2.642  11.605 -0.7064  0.1768  0.5655
    5TCq1    O2   67   3.929   2.530  11.554 -0.1570  0.1630 -0.4121
    5TCq1    C2   68   3.825   2.743  11.605 -0.0027  1.0126 -0.0231
    5TCq1    C3   69   3.814   2.838  11.697  0.9063  0.2802 -0.0684
    5TCq1    C4   70   3.718   2.926  11.675 -0.1519 -0.1098 -0.1604
    5TCq1    C5   71   3.624   2.916  11.579  0.4747 -0.8365 -0.4121
    5TCq1    C6   72   3.637   2.815  11.490 -0.6094 -0.1144 -0.0646
    5TCq1    C7   73   3.734   2.722  11.506  0.1629 -0.3289  0.3293
    5TCq1    C8   74   3.526   2.792  11.399 -0.5030  0.3852 -0.7794
    5TCq1    O4   75   3.547   2.729  11.295 -0.1545 -0.2646  0.0414
    5TCq1    C9   76   3.695   3.025  11.779 -0.7419 -0.3839  1.2768
    5TCq1    O5   77   3.589   3.094  11.780  0.1501  0.7009  0.6477
    5TCq1    O6   78   3.792   3.044  11.855  0.1245  0.1814 -0.0841
    5TCq1    H1   79   4.045   2.782  11.681 -0.6986 -0.1707 -1.3627
    5TCq1    H2   80   3.874   2.848  11.787  0.8159 -2.0842  0.2382
    5TCq1    H3   81   3.547   2.991  11.571  1.7344  0.3777 -1.2389
    5TCq1    H4   82   3.743   2.634  11.443 -0.9160 -0.4648  0.3553
    6MPD2     C   83   3.199   2.929  11.464 -0.4373  0.1502 -0.8707
    6MPD2    C1   84   3.290   2.858  11.395 -0.0116  0.6389  0.4213
    6MPD2    C2   85   3.262   2.805  11.277 -0.6157  0.1533 -0.3342
    6MPD2    C3   86   3.131   2.802  11.230  0.0380 -0.2177 -1.0127
    6MPD2    C4   87   3.040   2.876  11.302  0.3581 -0.4208  0.5258
    6MPD2    C5   88   3.073   2.938  11.419  0.8600  0.2496 -0.2400
    6MPD2     H   89   3.335   2.741  11.229 -1.0590 -0.9136  0.4009
    6MPD2    H1   90   2.937   2.888  11.271  0.8457  1.4361 -0.3613
    6MPD2    H2   91   3.230   2.979  11.555 -0.5005 -0.1275 -0.6945
    6MPD2    H3   92   3.003   3.007  11.463 -1.5863 -3.2630  1.3975
    6MPD2     N   93   3.095   2.727  11.117 -0.0481 -0.4633  0.9719
    6MPD2    H5   94   3.174   2.670  11.089  0.3533  0.3829  0.3756
    6MPD2    N1   95   3.415   2.854  11.455  0.2134  0.5626 -0.3189
    6MPD2    H7   96   3.413   2.900  11.545 -2.1910 -0.5084  0.1786
    7TCq1    O1   97   0.440   3.170  13.064 -0.8776  0.6859  0.0782
    7TCq1    C1   98   0.460   3.048  13.011 -0.3394  0.6664  0.6893
    7TCq1    O2   99   0.545   3.022  12.924  0.1740  0.5344  0.5974
    7TCq1    C2  100   0.411   2.948  13.103 -0.2686 -0.4044 -0.4101
    7TCq1    C3  101   0.297   2.970  13.171 -0.4810  0.3567  0.0501
    7TCq1    C4  102   0.259   2.884  13.272 -0.5203  0.2093 -0.1954
    7TCq1    C5  103   0.343   2.784  13.309  0.5084 -0.2801  0.1332
    7TCq1    C6  104   0.446   2.754  13.232 -0.4818  0.1758  0.3476
    7TCq1    C7  105   0.487   2.838  13.135  0.0155 -0.3281 -0.2074
    7TCq1    C8  106   0.514   2.630  13.259 -0.2631  0.3409 -1.2787
    7TCq1    O4  107   0.450   2.545  13.315  0.3044 -0.3044 -0.1670
    7TCq1    C9  108   0.162   2.925  13.362  0.2818  0.7692  0.3068
    7TCq1    O5  109   0.161   2.853  13.465  0.0486 -0.5003  0.0833
    7TCq1    O6  110   0.103   3.036  13.342  0.3008 -0.0120 -0.2009
    7TCq1    H1  111   0.387   3.172  13.147 -0.5207 -1.4046  0.3381
    7TCq1    H2  112   0.232   3.048  13.132 -0.1600 -0.0318 -1.2492
    7TCq1    H3  113   0.324   2.724  13.398 -0.1476  2.0262  1.5578
    7TCq1    H4  114   0.567   2.818  13.065  0.5709 -2.2347  0.9793
    8MPD2     C  115   0.943   2.367  13.342 -0.8064  0.0281  0.6721
    8MPD2    C1  116   0.812   2.318  13.348  0.2606 -0.4241 -0.9139
    8MPD2    C2  117   0.714   2.410  13.305 -0.4135 -0.2084  0.6889
    8MPD2    C3  118   0.746   2.536  13.261  0.1594  0.0510  0.0254
    8MPD2    C4  119   0.873   2.572  13.244  0.3608 -0.6361  0.8248
    8MPD2    C5  120   0.973   2.491  13.285  0.3388 -0.1333  0.0101
    8MPD2     H  121   0.611   2.380  13.321 -0.3647 -0.7843 -0.0760
    8MPD2    H1  122   0.907   2.668  13.205 -0.7474  0.0850  1.6378
    8MPD2    H2  123   1.022   2.310  13.390 -1.4072 -0.3934  1.1509
    8MPD2    H3  124   1.075   2.526  13.275  0.0820  0.0137 -2.0191
    8MPD2     N  125   0.645   2.632  13.226 -0.2161  0.0907 -0.2413
    8MPD2    H5  126   0.685   2.721  13.198  0.2573  0.9808  3.1775
    8MPD2    N1  127   0.783   2.193  13.404  0.1195 -0.2692  0.7263
    8MPD2    H7  128   0.857   2.142  13.451 -0.0736 -3.2619 -2.2388
    9TCq1    O1  129   3.626   0.372  11.078 -0.5483  0.0391 -0.4892
    9TCq1    C1  130   3.668   0.489  11.136 -0.2213  0.4056 -0.1055
    9TCq1    O2  131   3.780   0.527  11.162 -0.5612  0.2130  0.4447
    9TCq1    C2  132   3.553   0.582  11.141 -0.3631  0.4653  0.2463
    9TCq1    C3  133   3.449   0.573  11.058  0.8778 -0.1673 -0.1627
    9TCq1    C4  134   3.357   0.671  11.060 -0.1784 -0.7701  0.4290
    9TCq1    C5  135   3.369   0.778  11.151  0.5761  0.0454  0.6759
    9TCq1    C6  136   3.476   0.787  11.236  0.2251  0.1758 -0.1883
    9TCq1    C7  137   3.572   0.687  11.232 -0.1679  0.0771  0.0127
    9TCq1    C8  138   3.517   0.916  11.302 -0.6602  0.7010  0.0655
    9TCq1    O4  139   3.634   0.926  11.330  0.9814 -0.7547 -0.3633
    9TCq1    C9  140   3.254   0.680  10.960 -0.4533 -0.6079 -0.4209
    9TCq1    O5  141   3.158   0.757  10.972  0.1666 -0.6072 -0.3707
    9TCq1    O6  142   3.266   0.598  10.868 -0.1834  0.4688 -0.7478
    9TCq1    H1  143   3.530   0.356  11.091 -0.3796  1.3127  2.2231
    9TCq1    H2  144   3.442   0.496  10.982  0.6888 -0.7756  0.4754
    9TCq1    H3  145   3.298   0.859  11.143  0.6136  0.1007  0.9030
    9TCq1    H4  146   3.668   0.697  11.282  0.0248  1.5628 -0.6456
   10MPD2     C  147   3.526   1.193  11.399 -0.2392  0.4834 -0.7487
   10MPD2    C1  148   3.415   1.118  11.404 -0.0381  0.1694 -0.1695
   10MPD2    C2  149   3.302   1.165  11.470  0.0265  0.4811  0.5738
   10MPD2    C3  150   3.312   1.291  11.519 -0.1749  0.1821  0.2557
   10MPD2    C4  151   3.419   1.378  11.498  0.2519  0.3594 -0.0917
   10MPD2    C5  152   3.530   1.322  11.437  0.0376  0.0092  0.4202
   10MPD2     H  153   3.216   1.100  11.481 -1.0240  1.7186 -0.2301
   10MPD2    H1  154   3.415   1.483  11.527  0.3159  0.8965 -1.9796
   10MPD2    H2  155   3.618   1.156  11.353 -0.4850  0.5501 -1.2903
   10MPD2    H3  156   3.623   1.377  11.424  0.0868 -0.2341 -0.2742
   10MPD2     N  157   3.202   1.356  11.584  0.2594 -0.5332  0.2271
   10MPD2    H5  158   3.219   1.452  11.613  0.9298 -1.0479  1.5411
   10MPD2    N1  159   3.415   0.983  11.359  0.0012  0.5801  0.2660
   10MPD2    H7  160   3.324   0.939  11.348  0.7814 -0.8247 -0.5990
   11TCq1    O1  161   4.333   1.448  14.251  0.4239  0.4033  0.3617
   11TCq1    C1  162   4.209   1.503  14.232 -0.3659  0.5401  0.2336
   11TCq1    O2  163   4.144   1.464  14.135 -0.2547 -0.1959 -0.0574
   11TCq1    C2  164   4.148   1.524  14.363  0.8778 -0.0335 -0.3000
   11TCq1    C3  165   4.211   1.611  14.450  0.0772  0.0783  0.5160
   11TCq1    C4  166   4.150   1.652  14.559  0.2117  0.2024 -0.5337
   11TCq1    C5  167   4.019   1.620  14.589 -0.1816  0.2518 -0.6083
   11TCq1    C6  168   3.958   1.530  14.501 -0.5938  0.4565  0.7616
   11TCq1    C7  169   4.024   1.492  14.386  0.0040  0.1537 -0.1144
   11TCq1    C8  170   3.822   1.494  14.530 -0.2860 -0.1785 -0.6077
   11TCq1    O4  171   3.798   1.511  14.653 -1.0467  0.1120 -0.3658
   11TCq1    C9  172   4.224   1.736  14.642  0.1436 -0.7201 -0.4826
   11TCq1    O5  173   4.177   1.740  14.761 -0.2485  0.3182  0.7218
   11TCq1    O6  174   4.325   1.796  14.596  0.4784 -0.3342  0.7004
   11TCq1    H1  175   4.371   1.465  14.340  0.7845  0.6965  0.1492
   11TCq1    H2  176   4.315   1.633  14.430 -0.4902  1.0688 -1.3784
   11TCq1    H3  177   3.965   1.656  14.676  1.1860 -0.8963  0.7259
   11TCq1    H4  178   3.975   1.430  14.312 -1.4291  1.7281 -0.5135
   12MPD2     C  179   3.541   1.424  14.562 -0.3603 -0.4795  0.1098
   12MPD2    C1  180   3.617   1.400  14.448 -0.6921  0.0988 -0.3308
   12MPD2    C2  181   3.556   1.327  14.350 -0.1660  0.7791  0.3106
   12MPD2    C3  182   3.424   1.276  14.357 -0.2903  0.3189  0.0709
   12MPD2    C4  183   3.354   1.296  14.476  0.4127  0.3605 -0.5250
   12MPD2    C5  184   3.409   1.381  14.568 -0.2844  0.2759  0.2640
   12MPD2     H  185   3.621   1.304  14.265 -0.0567  2.7908 -0.1605
   12MPD2    H1  186   3.253   1.264  14.497  0.2045 -0.2326 -2.4008
   12MPD2    H2  187   3.568   1.487  14.647  2.3563 -0.5957 -0.6651
   12MPD2    H3  188   3.337   1.411  14.643 -0.2590  1.3358 -0.1360
   12MPD2     N  189   3.386   1.181  14.259 -0.4050  0.3683 -0.0229
   12MPD2    H5  190   3.463   1.147  14.202  0.6267  3.7702 -0.6107
   12MPD2    N1  191   3.749   1.443  14.429 -0.3322 -0.6456  0.5435
   12MPD2    H7  192   3.777   1.441  14.332 -0.0587 -0.4842  0.6199
   13TCq1    O1  193   2.599   1.063  10.474  0.3315 -0.5081  0.0338
   13TCq1    C1  194   2.492   0.984  10.504 -0.3363  0.6607  0.7695
   13TCq1    O2  195   2.374   1.015  10.491 -1.0860 -0.2883  0.5483
   13TCq1    C2  196   2.537   0.898  10.607  0.1335  0.7357 -0.4961
   13TCq1    C3  197   2.598   0.788  10.552 -0.4257 -0.1739 -0.4909
   13TCq1    C4  198   2.628   0.690  10.635  0.4341  0.6780  0.2132
   13TCq1    C5  199   2.590   0.697  10.763 -0.5143 -0.4102 -0.1118
   13TCq1    C6  200   2.518   0.805  10.812 -0.7189  0.2696  0.4824
   13TCq1    C7  201   2.490   0.914  10.729  0.1748  0.4115 -0.0856
   13TCq1    C8  202   2.483   0.818  10.958  0.3699 -0.1814 -0.5561
   13TCq1    O4  203   2.426   0.917  11.003  0.4148  0.1312 -0.3983
   13TCq1    C9  204   2.695   0.576  10.591 -0.9090  0.7515  0.5894
   13TCq1    O5  205   2.737   0.497  10.687  0.4473  0.0096  0.8395
   13TCq1    O6  206   2.714   0.557  10.467 -0.4394 -0.1212 -0.2853
   13TCq1    H1  207   2.680   1.022  10.512  2.2222  1.6199 -1.7112
   13TCq1    H2  208   2.619   0.781  10.446 -0.0731 -1.3175 -0.3492
   13TCq1    H3  209   2.624   0.621  10.834  0.1182  1.3900  1.5116
   13TCq1    H4  210   2.437   1.002  10.762 -1.1837 -1.3575  2.4411
   14MPD2     C  211   2.466   0.524  11.194  0.6585 -0.4708  0.2163
   14MPD2    C1  212   2.458   0.661  11.158 -0.5948  0.2571  0.3016
   14MPD2    C2  213   2.414   0.746  11.260 -0.0210 -0.1378  0.0828
   14MPD2    C3  214   2.377   0.706  11.384 -0.4440  0.3405  0.3543
   14MPD2    C4  215   2.388   0.570  11.407  0.1682  0.0093 -0.0468
   14MPD2    C5  216   2.432   0.481  11.314  0.4714 -0.4012  0.2283
   14MPD2     H  217   2.404   0.850  11.233  0.9211 -0.0693  0.0084
   14MPD2    H1  218   2.344   0.525  11.496 -2.8149  0.1107 -1.4531
   14MPD2    H2  219   2.487   0.448  11.119 -2.4472 -0.4745 -0.6506
   14MPD2    H3  220   2.450   0.377  11.338  0.8191 -0.5969 -0.8836
   14MPD2     N  221   2.339   0.811  11.474  0.0016  0.2923  0.3326
   14MPD2    H5  222   2.352   0.908  11.446  2.3319  0.5516  2.2723
   14MPD2    N1  223   2.496   0.699  11.021  0.6274 -0.4735 -0.0947
   14MPD2    H7  224   2.546   0.629  10.968 -0.0104 -1.0081  0.0117
   15TCq1    O1  225   4.358   0.531   1.697 -0.8818  0.1870  0.4282
   15TCq1    C1  226   4.438   0.582   1.790 -1.1408  0.0481 -0.0501
   15TCq1    O2  227   4.421   0.694   1.840  0.2770 -0.4033  0.4408
   15TCq1    C2  228   4.575   0.530   1.794  0.2256  0.2087  0.7969
   15TCq1    C3  229   4.651   0.564   1.905  0.0196  0.0881 -0.1860
   15TCq1    C4  230   0.052   0.520   1.906 -0.1158 -0.1880 -0.4706
   15TCq1    C5  231   0.112   0.442   1.812 -0.5202  0.3175  0.1242
   15TCq1    C6  232   0.036   0.413   1.701  0.6730 -0.5698 -0.0538
   15TCq1    C7  233   4.634   0.459   1.694  0.5690  0.2009  0.2522
   15TCq1    C8  234   0.094   0.316   1.609  1.0404  0.0692 -0.4496
   15TCq1    O4  235   0.199   0.266   1.640  0.1728 -0.0189 -0.0651
   15TCq1    C9  236   0.120   0.554   2.029 -0.0495  0.8954 -0.1584
   15TCq1    O5  237   0.246   0.552   2.022  0.3652 -0.1478 -0.0828
   15TCq1    O6  238   0.058   0.560   2.138  0.0102 -0.2075  0.8760
   15TCq1    H1  239   4.376   0.435   1.687  2.8300  1.1014 -1.3050
   15TCq1    H2  240   4.618   0.624   1.989  0.4719  0.7328 -0.4753
   15TCq1    H3  241   0.214   0.408   1.829  0.0057  2.2257  0.8238
   15TCq1    H4  242   4.577   0.465   1.602  1.9403  1.0703 -0.5379
   16MPD2     C  243   4.612   0.126   1.376  0.3601 -0.8252 -0.7830
   16MPD2    C1  244   0.002   0.163   1.439 -0.3513  0.5143 -0.6827
   16MPD2    C2  245   0.115   0.086   1.429 -0.4147 -0.0969  0.1895
   16MPD2    C3  246   0.112   4.691   1.355 -0.6180 -0.5662  0.0128
   16MPD2    C4  247   4.723   4.648   1.304 -0.0581  0.8036 -0.5154
   16MPD2    C5  248   4.616   0.007   1.310 -0.5965  0.6021 -0.2408
   16MPD2     H  249   0.208   0.114   1.478 -0.0109  1.5799 -1.5448
   16MPD2    H1  250   4.715   4.554   1.250  0.3361 -0.0244  0.8956
   16MPD2    H2  251   4.533   0.197   1.351  0.6635 -0.4200 -0.6044
   16MPD2    H3  252   4.526   4.701   1.258 -0.7659  0.7021 -0.0100
   16MPD2     N  253   0.235   4.634   1.339  0.1083 -0.4142  0.1920
   16MPD2    H5  254   0.316   4.687   1.367 -0.0819  0.5062 -1.0010
   16MPD2    N1  255   4.719   0.280   1.522  0.0985  0.8056 -0.0180
   16MPD2    H7  256   4.630   0.329   1.532 -1.0909 -1.0248 -1.6897
   17TCq1    O1  257   2.511   4.247  10.375 -0.1165  0.3323  0.7454
   17TCq1    C1  258   2.419   4.350  10.369 -0.1896  0.4348 -0.6615
   17TCq1    O2  259   2.341   4.374  10.283  0.6945  0.4347  0.2379
   17TCq1    C2  260   2.499   4.457  10.431  0.3317 -0.2022  0.2553
   17TCq1    C3  261   2.513   4.580  10.365  0.3111 -0.2307 -0.2399
   17TCq1    C4  262   2.575   4.681  10.419 -0.2990  0.1879 -0.0845
   17TCq1    C5  263   2.629   4.666  10.542 -0.0448 -0.2050  0.0153
   17TCq1    C6  264   2.612   4.547  10.610 -0.0935  0.3997  0.0457
   17TCq1    C7  265   2.556   4.436  10.552 -0.2759 -0.5746  0.1009
   17TCq1    C8  266   2.687   4.529  10.734  0.7118  0.7595  0.2664
   17TCq1    O4  267   2.632   4.477  10.830  0.0882  0.1449  0.6737
   17TCq1    C9  268   2.575   0.092  10.365 -0.0870 -0.2246  0.8285
   17TCq1    O5  269   2.557   0.111  10.245 -0.0587  0.1665  0.2303
   17TCq1    O6  270   2.594   0.187  10.443 -0.4220  0.8115  0.5930
   17TCq1    H1  271   2.599   4.275  10.408  0.1224  1.0908 -0.5500
   17TCq1    H2  272   2.463   4.595  10.270  2.3321  2.1159 -0.9057
   17TCq1    H3  273   2.674   0.022  10.596 -0.3458  1.5803 -2.4495
   17TCq1    H4  274   2.541   4.346  10.610  0.0332 -0.4188  0.4290
   18MPD2     C  275   2.926   4.476  10.903 -0.4339 -0.4012  0.1867
   18MPD2    C1  276   2.927   4.533  10.777 -0.0738 -0.6059 -0.3024
   18MPD2    C2  277   3.054   4.548  10.714  0.2824 -0.1361 -0.5498
   18MPD2    C3  278   3.169   4.507  10.772 -0.9242 -0.4007 -0.0831
   18MPD2    C4  279   3.166   4.454  10.901  0.1538  0.3312  0.4319
   18MPD2    C5  280   3.048   4.445  10.965 -0.7921  0.2948  0.0294
   18MPD2     H  281   3.061   4.593  10.615 -2.0760 -1.4717 -1.3152
   18MPD2    H1  282   3.249   4.415  10.957  1.2617  2.7053  0.4587
   18MPD2    H2  283   2.833   4.462  10.958 -0.0957  1.7269  1.2940
   18MPD2    H3  284   3.046   4.396  11.061  0.2407 -0.0407 -0.1178
   18MPD2     N  285   3.293   4.527  10.716  0.2488 -0.0625  0.1267
   18MPD2    H5  286   3.366   4.507  10.784  1.0581 -0.3608 -0.8181
   18MPD2    N1  287   2.816   4.567  10.709  0.1267  0.2660 -0.1808
   18MPD2    H7  288   2.834   4.595  10.613  2.1527 -1.5354 -0.3310
   19TMC2    C1  289   4.642   1.376  14.120  0.7754 -0.6584  0.2858
   19TMC2    C2  290   4.598   1.499  14.067  0.4642  0.1359 -0.2433
   19TMC2    C3  291   4.484   1.494  13.994 -0.0122 -0.3424 -0.4081
   19TMC2    C4  292   4.571   1.257  14.103 -0.5193  0.1703 -0.2047
   19TMC2    C5  293   4.461   1.259  14.027 -0.5222  0.8014  0.1026
   19TMC2    C6  294   4.419   1.375  13.969 -0.1219  0.2889  0.2888
   19TMC2     C  295   0.050   1.373  14.172  0.3063 -0.2777 -0.5213
   19TMC2     O  296   0.134   1.457  14.132  0.3587 -0.1963  0.1286
   19TMC2     H  297   4.659   1.589  14.067 -1.9504  1.8025 -0.0071
   19TMC2    H1  298   4.607   1.164  14.145 -1.3222 -0.4877 -1.0001
   19TMC2    H2  299   4.330   1.383  13.908  0.7414  2.0051 -0.7501
   19TMC2    C7  300   4.389   1.143  14.014  0.0479  0.0256  0.0858
   19TMC2    C8  301   4.425   1.600  13.914  0.5330  0.1843  0.0409
   19TMC2    O1  302   4.406   1.061  14.101  0.2424  0.0766  0.2467
   19TMC2    O2  303   4.374   1.582  13.802 -0.0121  0.0834  0.0489
   19TMC2    O5  304   4.490   1.716  13.955  1.1519 -0.0764  0.6755
   19TMC2    H5  305   4.512   1.704  14.049  1.9925  2.6853  0.8250
   20MPD2     C  306   0.266   1.358  14.376 -0.4081  0.3141  0.4051
   20MPD2    C1  307   0.180   1.256  14.340  0.2224 -0.2364 -0.5085
   20MPD2    C2  308   0.196   1.130  14.394  1.2321 -0.3056 -0.1565
   20MPD2    C3  309   0.294   1.102  14.480 -0.8721 -0.6440 -0.4437
   20MPD2    C4  310   0.376   1.201  14.520  0.1211 -0.3763  0.9020
   20MPD2    C5  311   0.362   1.330  14.475  0.4146  0.4793 -0.1075
   20MPD2     H  312   0.130   1.056  14.349  2.2311 -3.3693  3.4021
   20MPD2    H1  313   0.453   1.184  14.594  0.6218  0.3897  0.5589
   20MPD2    H2  314   0.262   1.457  14.332 -0.0339 -0.9256 -2.4268
   20MPD2    H3  315   0.430   1.410  14.504  0.4853 -0.1393  1.4389
   20MPD2     N  316   0.333   0.970  14.519  0.4030 -0.2957  0.0398
   20MPD2    H5  317   0.421   0.959  14.569  0.7423 -0.1215 -0.5130
   20MPD2    N1  318   0.071   1.264  14.247  0.0625 -0.0242 -1.0558
   20MPD2    H7  319   0.005   1.187  14.251 -0.8775  0.8145 -0.5933
   21MPD2     C  320   2.506   1.657  14.634 -0.1263 -0.1543  0.3311
   21MPD2    C1  321   2.524   1.522  14.644 -0.0829 -0.0212  0.4166
   21MPD2    C2  322   2.441   1.447  14.724 -0.2644 -0.7384 -0.6282
   21MPD2    C3  323   2.328   1.498  14.783 -0.9099 -0.1640  0.0126
   21MPD2    C4  324   2.310   1.633  14.773 -0.4374  0.0121 -0.2409
   21MPD2    C5  325   2.400   1.710  14.699 -0.6658 -0.5742 -0.4740
   21MPD2     H  326   2.462   1.341  14.730 -0.0398 -0.7057 -0.8159
   21MPD2    H1  327   2.226   1.680  14.822 -1.9616 -1.2178 -1.6932
   21MPD2    H2  328   2.579   1.722  14.586  1.0461 -2.2610 -0.7239
   21MPD2    H3  329   2.378   1.816  14.697 -1.1150 -0.6529  0.3213
   21MPD2     N  330   2.254   1.417  14.876  0.6510 -0.1556  0.3926
   21MPD2    H5  331   2.189   1.464  14.937  2.3860  1.3501  1.1056
   21MPD2    N1  332   2.632   1.458  14.582 -0.5551  0.3921 -0.3000
   21MPD2    H7  333   2.653   1.362  14.609 -0.3698  0.9062  1.3943
   22TCq2    C1  334   2.258   1.276  14.889  1.0264  0.5956  0.1619
   22TCq2    O2  335   2.323   1.195  14.824  0.2554 -0.1625 -0.0943
   22TCq2    C2  336   2.194   1.240  15.012  0.5883  0.4100 -0.2042
   22TCq2    C3  337   2.264   1.148  15.089 -0.0175 -0.1375  0.4357
   22TCq2    C4  338   2.238   1.162  15.226 -0.1366  0.4217 -0.0020
   22TCq2    C5  339   2.151   1.241  15.286  0.3634 -0.2976  0.2074
   22TCq2    C6  340   2.073   1.318  15.206 -0.2024  0.0413  0.1057
   22TCq2    C7  341   2.093   1.321  15.070 -0.5020  0.2437 -0.1074
   22TCq2    C8  342   2.000   1.434  15.267  0.2947 -0.1164 -0.4678
   22TCq2    O4  343   2.030   1.456  15.384  0.6639 -0.5944 -0.6821
   22TCq2    C9  344   2.319   1.083  15.315  0.1028  0.7060 -0.3592
   22TCq2    O5  345   2.267   1.052  15.427  0.4204 -0.1191  0.7167
   22TCq2    O6  346   2.440   1.064  15.282 -0.2252 -0.6896  0.0156
   22TCq2    H2  347   2.346   1.092  15.048 -0.0563  0.4536 -0.4330
   22TCq2    H3  348   2.136   1.243  15.393 -0.1794  0.2136  0.1187
   22TCq2    H4  349   2.034   1.387  15.007 -0.2169 -1.6422 -2.3697
   23MPD2     C  350   4.146   2.607  15.026 -0.2489  0.0953  0.7734
   23MPD2    C1  351   4.056   2.583  15.126  0.1714 -0.5108 -0.2963
   23MPD2    C2  352   3.930   2.637  15.123  0.3450 -0.4635  0.2133
   23MPD2    C3  353   3.903   2.726  15.019  0.0006 -0.3066 -0.4439
   23MPD2    C4  354   4.006   2.762  14.935  0.6993 -0.1158 -0.6298
   23MPD2    C5  355   4.130   2.706  14.935 -0.3918  0.3406 -0.1468
   23MPD2     H  356   3.863   2.598  15.199 -1.6518  1.2294 -0.6903
   23MPD2    H1  357   3.980   2.838  14.862  0.7936  0.9296  0.4351
   23MPD2    H2  358   4.242   2.556  15.021 -0.8897 -1.0565  0.2650
   23MPD2    H3  359   4.204   2.720  14.857 -1.5240 -0.2385 -1.3220
   23MPD2     N  360   3.772   2.774  14.989 -0.1755  0.3930  0.0690
   23MPD2    H5  361   3.758   2.842  14.915 -0.2868  1.0945  0.7317
   23MPD2    N1  362   4.092   2.501  15.239  0.2949  0.1609  0.1193
   23MPD2    H7  363   4.014   2.487  15.302 -0.2490  1.2617 -0.3033
   24TCq2    C1  364   3.654   2.728  15.052 -0.3042  0.8149  0.1424
   24TCq2    O2  365   3.626   2.638  15.127 -0.4575  0.2130 -0.2995
   24TCq2    C2  366   3.531   2.804  15.017  0.0522  0.0712  0.1209
   24TCq2    C3  367   3.537   2.914  14.930 -0.9694  0.7074 -0.3211
   24TCq2    C4  368   3.434   2.926  14.840 -0.2941 -0.5573 -0.1381
   24TCq2    C5  369   3.316   2.853  14.852 -0.0885  0.2452  0.1078
   24TCq2    C6  370   3.305   2.763  14.949  0.8872 -0.5218  0.0572
   24TCq2    C7  371   3.411   2.734  15.032 -1.0078 -0.3662 -0.0321
   24TCq2    C8  372   3.204   2.655  14.941 -0.0222  0.1005 -0.2374
   24TCq2    O4  373   3.247   2.540  14.953 -0.0745  0.6286 -0.0100
   24TCq2    C9  374   3.446   3.013  14.723  0.2578  0.8645  0.6987
   24TCq2    O5  375   3.358   3.003  14.633 -0.5638 -0.5359 -0.1083
   24TCq2    O6  376   3.562   3.046  14.692 -0.8400 -0.0832  0.3749
   24TCq2    H2  377   3.621   2.981  14.919 -0.9067  0.6804  0.0101
   24TCq2    H3  378   3.231   2.880  14.791 -0.7481 -0.5924  0.6448
   24TCq2    H4  379   3.410   2.660  15.111 -1.2514  2.7934  2.9193
   25TMC2    C1  380   2.515   4.449  11.302  0.3801 -1.0548  0.2258
   25TMC2    C2  381   2.565   4.533  11.202  0.2412  0.4739 -0.2723
   25TMC2    C3  382   2.554   4.670  11.241 -0.1293 -0.1766  0.5455
   25TMC2    C4  383   2.468   4.490  11.423 -0.1191  0.1077  0.6831
   25TMC2    C5  384   2.479   4.627  11.454 -0.5357 -0.2176 -0.6445
   25TMC2    C6  385   2.522   4.719  11.362 -0.7639 -0.0321  0.8750
   25TMC2     C  386   2.512   4.305  11.278 -0.4481  0.0989  0.3469
   25TMC2     O  387   2.572   4.261  11.184  0.0858  0.2623 -0.1573
   25TMC2     H  388   2.607   4.506  11.106  0.4680 -0.9601  0.2308
   25TMC2    H1  389   2.437   4.419  11.499 -0.0367 -1.2791 -0.5847
   25TMC2    H2  390   2.510   0.101  11.371 -3.8629 -0.3236  0.0461
   25TMC2    C7  391   2.433   4.674  11.585  0.1260  0.2420 -0.9079
   25TMC2    C8  392   2.610   0.030  11.134  0.3913  0.1574 -0.8708
   25TMC2    O1  393   2.409   4.597  11.674 -0.1954  0.6896 -0.3122
   25TMC2    O2  394   2.638   0.143  11.172  0.2977  0.3868 -0.1007
   25TMC2    O5  395   2.570   4.723  11.006  0.5490 -0.1498  0.3144
   25TMC2    H5  396   2.538   4.630  11.000  2.1323 -0.6406 -0.7673
   26MPD2     C  397   2.334   3.831  11.352  0.3493  0.0942 -0.6818
   26MPD2    C1  398   2.254   3.916  11.432  1.1153  0.1292  0.2226
   26MPD2    C2  399   2.284   4.053  11.423  0.1951  0.3653  0.1893
   26MPD2    C3  400   2.386   4.101  11.346  0.1243  0.1336 -0.1555
   26MPD2    C4  401   2.471   4.015  11.281  0.5401  0.2686  0.1440
   26MPD2    C5  402   2.443   3.882  11.284  0.0665  0.4164 -0.3974
   26MPD2     H  403   2.219   4.124  11.474 -0.6561  0.0999 -0.5348
   26MPD2    H1  404   2.552   4.048  11.216  1.6918 -2.8240  0.0328
   26MPD2    H2  405   2.301   3.728  11.344 -1.0332  0.5390 -0.7683
   26MPD2    H3  406   2.496   3.808  11.225  0.6507  2.0496 -1.9033
   26MPD2     N  407   2.414   4.237  11.354  0.6672 -0.1342 -0.2418
   26MPD2    H5  408   2.349   4.294  11.407  0.6654 -1.8866  1.6557
   26MPD2    N1  409   2.136   3.863  11.495 -0.3102 -0.5342  0.6652
   26MPD2    H7  410   2.120   3.763  11.490  1.4267 -0.7632 -0.2448
   27TMC2    C1  411   1.773   2.078  12.499  0.3157 -0.5199 -0.0110
   27TMC2    C2  412   1.724   2.165  12.418 -0.1904 -0.5114 -0.0007
   27TMC2    C3  413   1.755   2.300  12.440  0.2897  0.6492 -0.0135
   27TMC2    C4  414   1.849   2.111  12.601  0.2627  0.4414  0.1273
   27TMC2    C5  415   1.885   2.240  12.630  0.6249  0.0213 -0.0086
   27TMC2    C6  416   1.842   2.336  12.538 -0.0068 -0.1309  0.2887
   27TMC2     C  417   1.702   1.957  12.525  0.7303  0.3634 -0.5616
   27TMC2     O  418   1.746   1.848  12.490  0.1384 -0.0115  0.0415
   27TMC2     H  419   1.652   2.137  12.343 -0.8623  3.2494 -0.7836
   27TMC2    H1  420   1.886   2.028  12.659 -1.4335 -1.5875 -1.7153
   27TMC2    H2  421   1.865   2.441  12.552 -2.5781  0.4256  0.3015
   27TMC2    C7  422   1.832   2.254  12.762 -0.0857 -0.2893 -0.1688
   27TMC2    C8  423   1.692   2.406  12.366 -0.1623 -0.1921 -0.3981
   27TMC2    O1  424   1.817   2.151  12.821 -0.3868 -0.6177 -0.2001
   27TMC2    O2  425   1.747   2.515  12.346  0.0126 -0.2193 -0.8296
   27TMC2    O5  426   1.558   2.396  12.378 -0.2877 -0.2491  0.8252
   27TMC2    H5  427   1.514   2.318  12.418  0.4783 -1.6988 -1.1883
   28MPD2     C  428   1.314   1.730  12.768  0.1944 -0.0244 -0.2386
   28MPD2    C1  429   1.305   1.860  12.804  0.2173 -0.2775  0.3603
   28MPD2    C2  430   1.407   1.942  12.748 -0.3706  0.6256 -0.6850
   28MPD2    C3  431   1.509   1.893  12.669 -0.0517  0.6568 -0.5972
   28MPD2    C4  432   1.512   1.759  12.634  0.2003  0.0243 -0.0538
   28MPD2    C5  433   1.408   1.678  12.676 -0.1987  0.2482 -0.0286
   28MPD2     H  434   1.389   2.048  12.765 -1.6458  0.5356 -1.4337
   28MPD2    H1  435   1.578   1.704  12.568  0.7882  1.5293 -0.7105
   28MPD2    H2  436   1.231   1.669  12.802  1.3446 -0.5891  1.5631
   28MPD2    H3  437   1.382   1.576  12.650 -0.3594  0.9916 -2.8121
   28MPD2     N  438   1.598   1.985  12.608 -0.1596  0.1582  0.3899
   28MPD2    H5  439   1.582   2.083  12.627 -2.3893  0.2818 -2.0871
   28MPD2    N1  440   1.199   1.908  12.887 -0.1815  0.1660  0.1237
   28MPD2    H7  441   1.121   1.844  12.903 -0.0932  0.3514  1.2892
   29MPD2     C  442   0.953   3.960  14.081 -0.4492 -0.1789 -0.2491
   29MPD2    C1  443   1.084   3.984  14.088  0.1100 -0.5404  0.2918
   29MPD2    C2  444   1.123   4.117  14.079 -0.2016  0.3316  0.0575
   29MPD2    C3  445   1.035   4.223  14.049  0.1028 -0.1946  0.4857
   29MPD2    C4  446   0.902   4.194  14.037 -0.4347  0.5225 -0.4662
   29MPD2    C5  447   0.865   4.063  14.055 -0.3072  0.2734  1.2412
   29MPD2     H  448   1.229   4.131  14.092 -0.1144 -0.0545 -0.2508
   29MPD2    H1  449   0.827   4.271  14.020 -0.8684  0.6884  2.3100
   29MPD2    H2  450   0.911   3.864  14.111 -0.7237  0.3959  1.1988
   29MPD2    H3  451   0.759   4.044  14.067 -0.1829 -3.0011 -2.9933
   29MPD2     N  452   1.078   4.353  14.041  0.2794 -0.2948  0.0421
   29MPD2    H5  453   1.003   4.414  14.010  0.9604  0.9069  0.7584
   29MPD2    N1  454   1.186   3.890  14.118  0.0064 -0.5785  0.2272
   29MPD2    H7  455   1.277   3.934  14.123 -0.0902 -0.1588 -1.6272
   30TCq2    C1  456   1.204   4.403  14.078  0.1371 -0.3393 -0.7392
   30TCq2    O2  457   1.279   4.347  14.154 -0.0484  0.4347 -0.5309
   30TCq2    C2  458   1.238   4.536  14.025 -0.3689 -0.4066 -0.5512
   30TCq2    C3  459   1.157   4.591  13.927  0.0897  0.0153  0.7256
   30TCq2    C4  460   1.195   4.708  13.875 -0.2162 -0.2942  0.0436
   30TCq2    C5  461   1.309   0.047  13.920  0.7709 -0.0555 -0.1803
   30TCq2    C6  462   1.391   4.716  14.012 -0.9036  0.0145  0.4297
   30TCq2    C7  463   1.355   4.596  14.070  0.4159 -0.3533 -0.6151
   30TCq2    C8  464   1.443   0.085  14.111 -0.1716  0.2487  0.8725
   30TCq2    O4  465   1.541   0.052  14.174 -0.9828 -0.1167  0.2144
   30TCq2    C9  466   1.108   0.049  13.779  0.1484 -0.0320  0.4112
   30TCq2    O5  467   1.009   4.704  13.743  0.2927  0.3522 -0.6983
   30TCq2    O6  468   1.166   0.133  13.705 -0.3962 -0.2097 -0.3360
   30TCq2    H2  469   1.073   4.537  13.884  1.3708 -0.7045 -0.9057
   30TCq2    H3  470   1.323   0.144  13.874 -0.6379 -0.8977 -2.3845
   30TCq2    H4  471   1.428   4.549  14.135 -1.0466 -1.4895  0.1744
   31MPD2     C  472   3.684   3.682  15.233  0.8528  0.4694  0.1958
   31MPD2    C1  473   3.595   3.657  15.130 -0.9397  0.7051  0.9523
   31MPD2    C2  474   3.474   3.603  15.174  0.2864 -0.5130 -0.1024
   31MPD2    C3  475   3.452   3.562  15.309 -0.4230 -1.0173 -0.3492
   31MPD2    C4  476   3.551   3.566  15.397  0.1893  0.2745  0.7096
   31MPD2    C5  477   3.664   3.625  15.359  0.4078  0.1332 -0.0435
   31MPD2     H  478   3.394   3.593  15.101 -0.5607 -0.4292  0.8082
   31MPD2    H1  479   3.542   3.538  15.502 -1.4950  3.2157  1.3630
   31MPD2    H2  480   3.775   3.737  15.212  2.0960 -0.6360  2.7136
   31MPD2    H3  481   3.739   3.644  15.435 -1.5789  1.2089  1.6627
   31MPD2     N  482   3.332   3.493  15.344 -0.1077  0.6136  0.3333
   31MPD2    H5  483   3.327   3.463  15.441 -0.6453  2.4642  0.8819
   31MPD2    N1  484   3.623   3.708  14.998 -0.2783 -0.0310  0.8211
   31MPD2    H7  485   3.722   3.725  14.979  0.1512 -2.7876  0.4390
   32TCq2    C1  486   3.231   3.450  15.260 -0.2256 -0.2157  0.1751
   32TCq2    O2  487   3.184   3.508  15.161  0.1984 -0.0669 -0.0328
   32TCq2    C2  488   3.146   3.355  15.328 -0.6141  0.0182 -0.1719
   32TCq2    C3  489   3.014   3.355  15.294 -0.2580 -0.4461  0.3099
   32TCq2    C4  490   2.926   3.280  15.372  0.4976 -0.3401  0.4801
   32TCq2    C5  491   2.968   3.202  15.476 -0.7266 -0.1257 -0.3814
   32TCq2    C6  492   3.097   3.206  15.508  0.2985  0.8417 -0.0534
   32TCq2    C7  493   3.188   3.276  15.433 -0.3684 -0.2907  0.8899
   32TCq2    C8  494   3.154   3.171  15.640  0.3755 -0.3113 -0.5046
   32TCq2    O4  495   3.276   3.156  15.656 -0.4061  0.0075 -0.1393
   32TCq2    C9  496   2.786   3.283  15.341  0.3477 -0.8473  0.3727
   32TCq2    O5  497   2.712   3.204  15.409 -0.0474 -0.3342  0.5510
   32TCq2    O6  498   2.736   3.357  15.259 -0.2699 -0.4065  0.0001
   32TCq2    H2  499   2.981   3.418  15.212  2.6157 -1.2429 -1.4625
   32TCq2    H3  500   2.898   3.127  15.511 -0.1692 -0.6032 -0.2982
   32TCq2    H4  501   3.292   3.269  15.462 -0.1728 -2.3386 -0.2471
   33MPD2     C  502   3.505   4.383   9.932  0.6381 -0.1685 -0.0207
   33MPD2    C1  503   3.544   4.508   9.982 -0.2779  0.0452  0.0846
   33MPD2    C2  504   3.605   4.601   9.897  0.8633 -0.6506  0.7048
   33MPD2    C3  505   3.619   4.570   9.761 -0.2950 -0.8030 -0.0853
   33MPD2    C4  506   3.576   4.450   9.709  0.0752  0.0180  0.6974
   33MPD2    C5  507   3.521   4.359   9.795 -0.1649 -0.4126 -0.7019
   33MPD2     H  508   3.639   4.690   9.949  1.2355  0.6926 -1.8368
   33MPD2    H1  509   3.564   4.427   9.604  1.0218 -1.0162  0.8116
   33MPD2    H2  510   3.456   4.313   9.997  0.1166  0.2269  0.0126
   33MPD2    H3  511   3.472   4.271   9.757 -0.5872 -1.4386  2.2369
   33MPD2     N  512   3.691   4.659   9.668  0.2527 -0.3653 -0.1636
   33MPD2    H5  513   3.695   4.620   9.574  1.9195  2.0979 -1.0926
   33MPD2    N1  514   3.530   4.535  10.120  0.8518 -0.1220 -0.3483
   33MPD2    H7  515   3.481   4.460  10.167 -0.2230  1.5112  1.1536
   34TCq2    C1  516   3.747   0.058   9.686  0.1004 -0.0573  0.0250
   34TCq2    O2  517   3.776   0.108   9.797  0.3079  0.2789 -0.8965
   34TCq2    C2  518   3.803   0.119   9.569  0.2576  0.8441 -0.1847
   34TCq2    C3  519   3.823   0.045   9.451 -0.0524 -0.2680  0.6262
   34TCq2    C4  520   3.918   0.086   9.365  0.3117 -0.6758 -0.5467
   34TCq2    C5  521   3.992   0.200   9.387  0.0596  0.0571 -0.1511
   34TCq2    C6  522   3.983   0.256   9.513 -0.1385  0.8204 -0.3887
   34TCq2    C7  523   3.880   0.226   9.602 -0.4708 -0.0298 -0.5709
   34TCq2    C8  524   4.041   0.387   9.536 -0.2579 -0.3813 -0.0557
   34TCq2    O4  525   3.980   0.471   9.600 -0.0768  0.3510 -0.2419
   34TCq2    C9  526   3.946   0.019   9.238  0.7104  0.0558  0.0527
   34TCq2    O5  527   3.914   4.622   9.232 -0.1592  0.2111 -0.3056
   34TCq2    O6  528   4.024   0.073   9.155 -0.3337 -0.3018  0.5432
   34TCq2    H2  529   3.769   4.683   9.419  0.7425 -0.4163 -0.2824
   34TCq2    H3  530   4.057   0.234   9.307  1.2761 -3.2734 -0.5408
   34TCq2    H4  531   3.872   0.288   9.690 -0.3159  0.2660 -0.7659
   35MPD2     C  532   0.891   2.743  12.296 -0.0944 -0.2556 -0.5342
   35MPD2    C1  533   0.849   2.613  12.301  0.0917 -0.2006 -0.0021
   35MPD2    C2  534   0.785   2.552  12.192  0.1704  0.8722  0.1563
   35MPD2    C3  535   0.771   2.618  12.077 -0.0199 -0.1091 -0.2807
   35MPD2    C4  536   0.812   2.753  12.073 -0.6961  0.3171 -0.1514
   35MPD2    C5  537   0.871   2.814  12.176 -0.0177  0.8889  0.4732
   35MPD2     H  538   0.749   2.450  12.195  2.4366  0.0709  0.1463
   35MPD2    H1  539   0.792   2.816  11.987 -1.4364  0.7808  0.3528
   35MPD2    H2  540   0.943   2.791  12.377 -3.3389 -0.6355  1.7716
   35MPD2    H3  541   0.898   2.919  12.178 -0.5021  1.0380 -1.6743
   35MPD2     N  542   0.684   2.579  11.978  0.6293  0.5698  0.8413
   35MPD2    H5  543   0.676   2.652  11.908 -0.1482 -1.6106 -1.3501
   35MPD2    N1  544   0.850   2.549  12.426  0.5004 -0.0062  0.2212
   35MPD2    H7  545   0.859   2.605  12.511 -3.1534 -1.8340  1.8284
   36TCq2    C1  546   0.612   2.464  11.965  0.3725 -0.7738  0.1668
   36TCq2    O2  547   0.625   2.367  12.039  0.3995 -0.2617 -0.2670
   36TCq2    C2  548   0.531   2.453  11.845  0.1913  0.4214  0.0354
   36TCq2    C3  549   0.551   2.551  11.748  0.3451 -0.3280  0.6327
   36TCq2    C4  550   0.473   2.534  11.638 -0.1341 -0.3008  0.2421
   36TCq2    C5  551   0.400   2.423  11.614 -0.4185  0.2285 -0.6617
   36TCq2    C6  552   0.392   2.325  11.708 -0.0867 -0.0849 -0.1937
   36TCq2    C7  553   0.467   2.328  11.826  0.4587  0.1756  0.0930
   36TCq2    C8  554   0.282   2.227  11.695 -0.2880  0.6902  0.7183
   36TCq2    O4  555   0.301   2.118  11.743 -0.5632 -0.1264 -0.4905
   36TCq2    C9  556   0.458   2.641  11.535 -0.2881 -0.4529 -0.1006
   36TCq2    O5  557   0.363   2.635  11.455 -0.0843  0.0617 -0.5887
   36TCq2    O6  558   0.559   2.716  11.521  0.3104  0.1502 -0.2353
   36TCq2    H2  559   0.599   2.648  11.757 -1.0334  0.4060  0.2072
   36TCq2    H3  560   0.341   2.418  11.523 -1.6953 -2.7749  0.3123
   36TCq2    H4  561   0.448   2.246  11.894  1.5819  0.3851  0.6540
   37TMC2    C1  562   2.274   1.981  12.357  0.1301 -0.4711 -0.8882
   37TMC2    C2  563   2.157   2.042  12.311 -0.2369  0.4052  0.1879
   37TMC2    C3  564   2.170   2.110  12.191  0.2724 -0.2187 -0.4773
   37TMC2    C4  565   2.396   2.001  12.303  0.4770  0.8830  0.6883
   37TMC2    C5  566   2.394   2.052  12.175 -0.1449  0.3584 -0.3576
   37TMC2    C6  567   2.286   2.113  12.122 -0.2117  0.0276  0.0052
   37TMC2     C  568   2.265   1.936  12.497 -0.6619 -0.3335 -0.6101
   37TMC2     O  569   2.156   1.957  12.551  0.3351  0.4937 -0.4470
   37TMC2     H  570   2.054   2.030  12.345  0.0664  1.7350  1.5678
   37TMC2    H1  571   2.485   1.962  12.350  0.1838  0.3304  0.7900
   37TMC2    H2  572   2.299   2.158  12.025 -3.0877 -0.9308 -0.8163
   37TMC2    C7  573   2.522   2.084  12.122  0.5399  0.1337  0.1272
   37TMC2    C8  574   2.053   2.179  12.124  0.1744  0.3526  0.1099
   37TMC2    O1  575   2.613   2.100  12.203 -0.2277 -0.0151 -0.5323
   37TMC2    O2  576   2.043   2.198  12.003 -0.3460 -0.1819  0.8578
   37TMC2    O5  577   2.011   2.269  12.211  0.2252  0.4522  0.2497
   37TMC2    H5  578   2.083   2.279  12.278  0.1507 -0.6530  0.4935
   38MPD2     C  579   2.466   1.879  12.949 -0.1468 -0.0073 -0.3470
   38MPD2    C1  580   2.559   1.929  12.870  0.3882  1.4700 -0.3512
   38MPD2    C2  581   2.534   1.929  12.738 -0.1671  0.3528  0.0567
   38MPD2    C3  582   2.412   1.891  12.686  0.4459 -0.3092 -0.3790
   38MPD2    C4  583   2.325   1.833  12.767  0.5957 -0.2373 -0.3740
   38MPD2    C5  584   2.360   1.822  12.896 -0.0354  1.3986 -0.2741
   38MPD2     H  585   2.607   1.956  12.663  0.6357  0.2634  0.7997
   38MPD2    H1  586   2.232   1.787  12.734 -0.5009  1.0254  0.9539
   38MPD2    H2  587   2.482   1.853  13.053  0.4317  0.0615 -0.4202
   38MPD2    H3  588   2.286   1.772  12.957 -0.8240  0.8146 -1.7013
   38MPD2     N  589   2.388   1.921  12.551  0.5463  0.4169  0.0124
   38MPD2    H5  590   2.463   1.955  12.492  1.5873 -1.0436  0.4959
   38MPD2    N1  591   2.684   1.975  12.919  0.3827 -0.0151  0.1119
   38MPD2    H7  592   2.750   1.990  12.843 -1.7680  1.9411 -1.3646
   39MPD2     C  593   0.807   4.219   2.027  0.3745  0.1936  0.2483
   39MPD2    C1  594   0.829   4.184   1.897  0.0637  0.0417  0.1359
   39MPD2    C2  595   0.720   4.181   1.812 -0.4515 -0.0445  0.2286
   39MPD2    C3  596   0.590   4.204   1.862  0.0403 -0.2708  0.8122
   39MPD2    C4  597   0.570   4.243   1.993  0.2034  0.8155 -0.6147
   39MPD2    C5  598   0.684   4.245   2.078  0.1473 -0.1389  0.5121
   39MPD2     H  599   0.741   4.174   1.706 -1.9935  0.1959 -0.0909
   39MPD2    H1  600   0.478   4.258   2.048 -0.0073 -1.8819 -0.2358
   39MPD2    H2  601   0.897   4.215   2.087 -0.6937 -2.3945  1.7019
   39MPD2    H3  602   0.674   4.258   2.185 -0.3732  1.9798  0.1986
   39MPD2     N  603   0.474   4.205   1.787  0.3687 -0.6167 -0.0026
   39MPD2    H5  604   0.388   4.245   1.824  0.9774 -1.2885  2.1315
   39MPD2    N1  605   0.966   4.149   1.859 -0.6207  0.7999 -0.1462
   39MPD2    H7  606   1.039   4.169   1.926 -0.4837 -1.5924  0.4063
   40TCq2    C1  607   0.999   4.097   1.737 -0.3320  0.1187  0.9595
   40TCq2    O2  608   0.941   4.067   1.632 -0.0508 -0.0627  0.3400
   40TCq2    C2  609   1.148   4.072   1.733  0.1897  0.4913  1.2669
   40TCq2    C3  610   1.186   3.981   1.635 -0.3006 -0.0148  0.0682
   40TCq2    C4  611   1.312   3.929   1.632 -0.1261 -1.0066 -0.1346
   40TCq2    C5  612   1.399   3.958   1.727 -0.5010  1.0894  0.4399
   40TCq2    C6  613   1.357   4.046   1.823  0.1023  0.4860 -0.1957
   40TCq2    C7  614   1.238   4.114   1.825 -0.2375 -0.5311 -0.4423
   40TCq2    C8  615   1.460   4.105   1.908  0.5501  0.1368  0.3055
   40TCq2    O4  616   1.556   4.031   1.940 -0.1708 -0.9479  0.2428
   40TCq2    C9  617   1.342   3.821   1.547 -0.1481 -0.0418  0.3329
   40TCq2    O5  618   1.284   3.823   1.432 -0.1976 -0.0447  0.1563
   40TCq2    O6  619   1.428   3.736   1.590 -0.4602  0.1375 -0.0096
   40TCq2    H2  620   1.118   3.947   1.558 -1.7993  2.1050  0.4305
   40TCq2    H3  621   1.495   3.908   1.735 -1.1058 -0.4394 -1.8765
   40TCq2    H4  622   1.223   4.174   1.914  0.3991 -0.0868 -0.6316
   41TMC2    C1  623   0.182   2.390  13.674 -0.3003 -0.0461  0.0746
   41TMC2    C2  624   0.177   2.513  13.740 -0.5322 -0.5417  0.2734
   41TMC2    C3  625   0.118   2.623  13.675  0.3142 -0.5317 -0.2791
   41TMC2    C4  626   0.122   2.361  13.558  0.8468  0.0689 -0.7782
   41TMC2    C5  627   0.060   2.468  13.497 -0.2124 -0.0014 -0.0325
   41TMC2    C6  628   0.055   2.599  13.553  0.0104 -0.1772 -0.3166
   41TMC2     C  629   0.242   2.277  13.728 -0.0068  0.2407  0.5405
   41TMC2     O  630   0.282   2.186  13.658 -0.4833 -0.1977 -0.1277
   41TMC2     H  631   0.221   2.529  13.838 -0.6706  0.9386  0.0887
   41TMC2    H1  632   0.131   2.263  13.513 -0.7120  0.2959 -1.5802
   41TMC2    H2  633   0.000   2.676  13.499 -2.2184 -1.6727 -0.1755
   41TMC2    C7  634   4.701   2.454  13.369 -0.2284  0.3774 -0.7923
   41TMC2    C8  635   0.117   2.744  13.751  0.8110 -0.4865 -0.1402
   41TMC2    O1  636   4.621   2.548  13.346 -0.1338 -0.2988 -0.2471
   41TMC2    O2  637   0.118   2.748  13.873  0.1444 -0.2096 -0.3340
   41TMC2    O5  638   0.053   2.833  13.676  0.4033  0.2283  0.1701
   41TMC2    H5  639   0.091   2.824  13.586  1.9620 -0.4140  0.8966
   42MPD2     C  640   0.371   2.100  13.939 -0.3166 -0.1466  0.2741
   42MPD2    C1  641   0.287   2.204  13.965 -0.6562  0.6250 -0.0521
   42MPD2    C2  642   0.261   2.233  14.098  0.3991  0.2627  0.1229
   42MPD2    C3  643   0.312   2.169  14.207  0.0451 -0.0034  0.0444
   42MPD2    C4  644   0.407   2.068  14.181  0.5118 -0.1936  0.5712
   42MPD2    C5  645   0.430   2.040  14.049 -0.1642  0.2447 -0.3168
   42MPD2     H  646   0.187   2.311  14.110  1.2109  1.0384  0.1234
   42MPD2    H1  647   0.445   1.999  14.255 -1.1665 -1.9758 -0.2320
   42MPD2    H2  648   0.383   2.056  13.840  0.6338  0.0010  0.3250
   42MPD2    H3  649   0.492   1.953  14.029 -0.0098  0.1456  0.6005
   42MPD2     N  650   0.264   2.184  14.336  0.1390  0.2401 -0.6295
   42MPD2    H5  651   0.315   2.137  14.410  1.1255 -1.5683 -2.4273
   42MPD2    N1  652   0.229   2.288  13.866 -0.5014  0.2017  0.6000
   42MPD2    H7  653   0.176   2.368  13.897 -1.7018 -0.4028  0.1238
   43MPD2     C  654   0.671   0.090   0.825  0.0900 -0.3891 -0.8110
   43MPD2    C1  655   0.794   0.132   0.874  0.6887 -0.8485 -0.4230
   43MPD2    C2  656   0.808   0.259   0.933  0.8264 -0.4022  0.2994
   43MPD2    C3  657   0.703   0.354   0.940  0.1313  0.6212  0.8115
   43MPD2    C4  658   0.581   0.322   0.873  0.2512 -0.2351  0.7733
   43MPD2    C5  659   0.570   0.189   0.833 -0.0477  0.5488  0.6916
   43MPD2     H  660   0.901   0.305   0.963 -0.5180  2.2286  0.4225
   43MPD2    H1  661   0.490   0.380   0.862  0.6353  0.1865 -0.1425
   43MPD2    H2  662   0.649   4.725   0.770 -2.4449 -0.3129  0.0967
   43MPD2    H3  663   0.474   0.175   0.785  1.0878  1.5816 -1.8713
   43MPD2     N  664   0.716   0.490   0.985 -0.2732 -0.0597  0.3318
   43MPD2    H5  665   0.633   0.547   0.974  0.5142  0.9134 -0.4545
   43MPD2    N1  666   0.907   0.051   0.843 -0.3231 -0.3952  0.6493
   43MPD2    H7  667   0.996   0.088   0.875  0.1926 -0.6483 -0.5078
   44TCq2    C1  668   0.992   0.943   1.245  0.5432  0.3494 -0.1502
   44TCq2    O2  669   1.097   0.882   1.251 -0.1882 -0.1837  0.5377
   44TCq2    C2  670   0.888   0.876   1.178 -0.2697  0.0618  0.1010
   44TCq2    C3  671   0.760   0.931   1.173  0.1486  0.2329 -0.2416
   44TCq2    C4  672   0.664   0.872   1.102 -0.4613  0.4200 -0.1436
   44TCq2    C5  673   0.693   0.761   1.027  0.1002 -0.8596  0.0946
   44TCq2    C6  674   0.815   0.700   1.034 -0.3226 -0.6175 -0.5778
   44TCq2    C7  675   0.914   0.759   1.112 -0.1185 -0.5298  0.3278
   44TCq2    C8  676   0.829   0.554   1.030  0.3107  0.7102  0.7519
   44TCq2    O4  677   0.927   0.503   1.076  0.7066  0.0534  0.2848
   44TCq2    C9  678   0.527   0.916   1.103 -0.1693 -0.4253 -0.5802
   44TCq2    O5  679   0.494   1.032   1.131  0.2179  0.3287  0.2385
   44TCq2    O6  680   0.440   0.846   1.033  0.5665 -0.2744 -0.0648
   44TCq2    H2  681   0.738   1.024   1.225  0.1317 -0.3263  0.7495
   44TCq2    H3  682   0.607   0.716   0.978  0.4140  0.6210 -1.7980
   44TCq2    H4  683   1.014   0.718   1.106  0.2677  0.2607  1.4084
   45TMC2    C1  684   1.864   3.113   9.567 -0.1287 -0.6620  0.4532
   45TMC2    C2  685   1.899   3.147   9.441  0.3135  0.9614  0.1968
   45TMC2    C3  686   1.942   3.278   9.420  1.2739 -0.2100 -0.3640
   45TMC2    C4  687   1.861   3.208   9.664 -0.3305  0.1128  0.0437
   45TMC2    C5  688   1.898   3.333   9.637 -0.4781 -0.3944  0.0767
   45TMC2    C6  689   1.948   3.374   9.520  0.5042 -0.6754  0.3156
   45TMC2     C  690   1.840   2.971   9.609 -0.2934 -0.0253  1.0176
   45TMC2     O  691   1.910   2.940   9.705 -0.2572  0.2369 -0.2938
   45TMC2     H  692   1.861   3.078   9.367  1.0918  0.6076  0.1340
   45TMC2    H1  693   1.822   3.177   9.760  0.2025  1.4806  0.7036
   45TMC2    H2  694   2.005   3.463   9.496  0.1742 -1.2102 -2.4482
   45TMC2    C7  695   1.867   3.432   9.736 -0.0588 -0.1307 -0.4548
   45TMC2    C8  696   1.989   3.312   9.292  0.2256 -0.9879  0.2034
   45TMC2    O1  697   1.821   3.393   9.843  0.8885 -0.2686  0.6622
   45TMC2    O2  698   1.995   3.226   9.202  0.4573 -0.2707  0.4565
   45TMC2    O5  699   1.946   3.437   9.264 -0.4261  0.3511 -0.4886
   45TMC2    H5  700   1.904   3.485   9.338 -1.1728 -0.3391 -0.4572
   46MPD2     C  701   1.783   2.678   9.600  0.2563  0.2626 -0.3839
   46MPD2    C1  702   1.709   2.769   9.534  0.6918  0.6121 -0.2528
   46MPD2    C2  703   1.604   2.732   9.462  0.8475 -0.0540 -0.1112
   46MPD2    C3  704   1.568   2.598   9.454  0.2690 -0.4758 -0.1278
   46MPD2    C4  705   1.630   2.508   9.536 -0.6192 -0.6348  0.5449
   46MPD2    C5  706   1.746   2.545   9.602  0.7363 -0.3986 -0.0494
   46MPD2     H  707   1.530   2.798   9.418  0.0698  0.9056  2.6377
   46MPD2    H1  708   1.599   2.405   9.554 -1.7670 -0.0334  1.9728
   46MPD2    H2  709   1.868   2.697   9.665  0.0866  1.4101 -0.5011
   46MPD2    H3  710   1.794   2.479   9.673 -0.7890 -1.8314 -0.3375
   46MPD2     N  711   1.445   2.564   9.388 -0.4067  0.0732 -0.2819
   46MPD2    H5  712   1.391   2.642   9.351 -1.0679  0.0918  0.7325
   46MPD2    N1  713   1.745   2.905   9.535  0.6423 -0.9319  0.7803
   46MPD2    H7  714   1.697   2.971   9.475 -0.7489 -1.1426  1.6654
   47TMC2    C1  715   0.169   2.617   9.576 -0.0558 -0.0633  0.1731
   47TMC2    C2  716   0.200   2.495   9.516 -0.1359 -0.3492 -0.3513
   47TMC2    C3  717   0.167   2.480   9.384  0.2415 -0.0287 -0.1320
   47TMC2    C4  718   0.109   2.718   9.512 -0.5948 -0.1912  0.6641
   47TMC2    C5  719   0.062   2.690   9.385  0.0709  0.4009  0.1943
   47TMC2    C6  720   0.094   2.574   9.317 -0.4655  0.1312  0.5229
   47TMC2     C  721   0.196   2.637   9.718  0.1184  0.0516  0.1623
   47TMC2     O  722   0.220   2.753   9.756 -0.0696  0.4806 -0.7238
   47TMC2     H  723   0.256   2.413   9.559 -0.8713  0.5204  2.2370
   47TMC2    H1  724   0.100   2.813   9.563  0.8410  1.2427 -1.7725
   47TMC2    H2  725   0.066   2.540   9.218  0.5400 -2.2043  1.0227
   47TMC2    C7  726   4.722   2.787   9.308 -0.2666  0.1379 -0.2161
   47TMC2    C8  727   0.234   2.375   9.307  0.6559 -0.2718 -0.4918
   47TMC2    O1  728   4.700   2.748   9.193 -0.4381  0.0362 -0.7659
   47TMC2    O2  729   0.278   2.275   9.359 -0.4072 -0.4714 -0.3837
   47TMC2    O5  730   0.268   2.417   9.182 -0.3010  0.6466 -0.1569
   47TMC2    H5  731   0.235   2.503   9.147 -2.8139  0.4302  1.6840
   48MPD2     C  732   0.267   2.617  10.005  0.5484  0.1419  0.2460
   48MPD2    C1  733   0.209   2.520   9.926  0.4136 -0.5281 -0.6547
   48MPD2    C2  734   0.167   2.399   9.988 -0.4156 -0.7365  0.0694
   48MPD2    C3  735   0.180   2.377  10.124  0.1023 -0.3870  0.2887
   48MPD2    C4  736   0.248   2.472  10.190 -0.1342 -0.7084  0.1669
   48MPD2    C5  737   0.294   2.591  10.136 -0.0924 -0.6245 -0.1965
   48MPD2     H  738   0.130   2.324   9.919  0.1559  0.6853 -1.7878
   48MPD2    H1  739   0.297   2.460  10.286  2.8644 -1.3195 -1.4593
   48MPD2    H2  740   0.306   2.712   9.970 -0.3053 -0.6697 -2.9451
   48MPD2    H3  741   0.350   2.662  10.197 -1.2397  0.9323 -0.9514
   48MPD2     N  742   0.156   2.248  10.168 -0.3282 -0.3362 -0.0838
   48MPD2    H5  743   0.154   2.168  10.105 -1.3577  0.9760 -1.7019
   48MPD2    N1  744   0.181   2.526   9.789 -0.2036 -0.0661  0.6301
   48MPD2    H7  745   0.140   2.446   9.742 -0.5817 -0.2371  1.2536
   49MPD2     C  746   1.362   0.534  10.542 -0.9534 -0.4517  0.1851
   49MPD2    C1  747   1.465   0.627  10.568  0.4005  0.7336  0.2700
   49MPD2    C2  748   1.527   0.620  10.694  0.0243 -0.2336  0.1307
   49MPD2    C3  749   1.490   0.529  10.793  0.2080 -0.1936 -0.1064
   49MPD2    C4  750   1.387   0.448  10.768  0.1569 -0.1986  0.9326
   49MPD2    C5  751   1.326   0.449  10.647 -0.0901 -0.0198 -0.2562
   49MPD2     H  752   1.604   0.695  10.708  0.6055 -0.6799 -0.6556
   49MPD2    H1  753   1.366   0.367  10.838 -0.7974  1.4647  2.5485
   49MPD2    H2  754   1.293   0.533  10.459 -0.0441  0.8508 -0.5858
   49MPD2    H3  755   1.237   0.388  10.638 -0.2260  0.2185 -0.5164
   49MPD2     N  756   1.555   0.510  10.916  0.1436 -0.3908  0.0784
   49MPD2    H5  757   1.523   0.430  10.969  0.4225 -0.7019 -0.2182
   49MPD2    N1  758   1.515   0.709  10.469  0.2191 -0.2035 -0.3430
   49MPD2    H7  759   1.580   0.785  10.490 -0.7772  0.7315 -0.6075
   50TCq2    C1  760   1.455   0.713  10.344 -0.0940 -0.3061 -0.9924
   50TCq2    O2  761   1.355   0.663  10.292  0.1000 -0.2127 -0.6794
   50TCq2    C2  762   1.530   0.788  10.249  0.3841  1.2565 -0.6235
   50TCq2    C3  763   1.463   0.850  10.150 -0.6994  0.0371  0.3546
   50TCq2    C4  764   1.537   0.933  10.061  0.7722  0.0946 -0.6198
   50TCq2    C5  765   1.672   0.954  10.084  0.4724  0.3742 -0.0718
   50TCq2    C6  766   1.729   0.892  10.188 -0.2869 -0.0678 -0.0723
   50TCq2    C7  767   1.666   0.800  10.265  0.3224 -0.2351  0.1596
   50TCq2    C8  768   1.870   0.906  10.214 -1.0040  0.4258 -0.3255
   50TCq2    O4  769   1.912   0.851  10.315 -0.0431  0.1417  0.6073
   50TCq2    C9  770   1.472   1.001   9.953  0.0600  0.3341  0.3842
   50TCq2    O5  771   1.353   0.969   9.934 -0.3504 -0.2812  0.7086
   50TCq2    O6  772   1.544   1.079   9.886  0.0848  0.2380 -0.1143
   50TCq2    H2  773   1.357   0.837  10.132 -0.3297 -1.8467 -0.4047
   50TCq2    H3  774   1.718   1.035  10.029  2.3128  1.6058  3.2782
   50TCq2    H4  775   1.720   0.744  10.340 -0.1739 -0.9100  0.0135
   51MPD2     C  776   2.726   3.587   1.633 -0.0156 -0.3163  0.3757
   51MPD2    C1  777   2.776   3.461   1.676 -0.1693 -0.5415 -0.2667
   51MPD2    C2  778   2.831   3.455   1.803 -0.3456  0.1519  0.1051
   51MPD2    C3  779   2.845   3.564   1.882 -0.1840 -0.4239 -0.5218
   51MPD2    C4  780   2.795   3.690   1.841  0.3091 -0.1587  0.2127
   51MPD2    C5  781   2.724   3.697   1.719 -0.2242 -0.1738  0.3799
   51MPD2     H  782   2.862   3.356   1.837  1.1217  0.1394 -1.2614
   51MPD2    H1  783   2.788   3.769   1.916  1.5383  0.6115 -0.4898
   51MPD2    H2  784   2.668   3.602   1.542 -0.7963  1.0220  1.0767
   51MPD2    H3  785   2.676   3.790   1.695 -0.3344 -0.3199  0.0439
   51MPD2     N  786   2.908   3.559   2.004  0.3182 -0.6285  0.2783
   51MPD2    H5  787   2.933   3.648   2.047 -0.7009 -0.7809  1.2002
   51MPD2    N1  788   2.779   3.344   1.590 -0.4361 -0.1858 -0.0148
   51MPD2    H7  789   2.801   3.251   1.625 -2.2449 -0.6459 -0.1351
   52TCq2    C1  790   2.928   3.442   2.072 -0.0601  0.2320  0.4345
   52TCq2    O2  791   2.876   3.332   2.055  0.0482  0.6699  0.4562
   52TCq2    C2  792   2.995   3.453   2.200 -0.0866  0.4724  0.2626
   52TCq2    C3  793   2.988   3.339   2.280  0.5479  0.1796 -0.0991
   52TCq2    C4  794   3.041   3.359   2.403  0.3661  0.1493 -0.2609
   52TCq2    C5  795   3.100   3.474   2.435  0.1119  0.1669 -0.7946
   52TCq2    C6  796   3.105   3.579   2.353 -0.7832  0.2399  0.1712
   52TCq2    C7  797   3.051   3.570   2.229  0.5739 -0.3580  0.0586
   52TCq2    C8  798   3.192   3.696   2.380 -0.3517 -0.4805 -0.0380
   52TCq2    O4  799   3.251   3.735   2.283  0.0195  0.0569  0.1573
   52TCq2    C9  800   3.036   3.258   2.504  0.1675 -0.8469  0.1728
   52TCq2    O5  801   3.091   3.278   2.611 -0.0885  0.2382  0.1000
   52TCq2    O6  802   2.957   3.165   2.479 -0.1916 -0.0567  0.3004
   52TCq2    H2  803   2.957   3.239   2.251  1.4121  0.2313 -1.2052
   52TCq2    H3  804   3.132   3.483   2.539 -2.8074  1.1319  0.0006
   52TCq2    H4  805   3.033   3.655   2.164  3.2331  0.4426  0.3433
   53TMC2    C1  806   3.175   2.392  11.989  0.0632  0.4704  0.4366
   53TMC2    C2  807   3.305   2.362  11.983  0.5135 -0.2100  0.1186
   53TMC2    C3  808   3.378   2.371  12.098 -0.2614  0.0062  0.1041
   53TMC2    C4  809   3.120   2.433  12.108 -0.5143  0.8013  0.4376
   53TMC2    C5  810   3.190   2.442  12.223  0.5016  0.9272  0.1345
   53TMC2    C6  811   3.323   2.407  12.224  0.3683  0.0367 -0.0889
   53TMC2     C  812   3.088   2.337  11.892 -0.3644  0.1369  0.2231
   53TMC2     O  813   3.135   2.307  11.786  0.3069 -0.2215 -0.1634
   53TMC2     H  814   3.355   2.324  11.894  3.0890  0.3023  1.3584
   53TMC2    H1  815   3.031   2.496  12.103 -1.6937 -1.0140 -1.4320
   53TMC2    H2  816   3.378   2.379  12.313  1.6933 -1.3825 -1.3679
   53TMC2    C7  817   3.096   2.401  12.329  0.8284 -0.0469 -1.0621
   53TMC2    C8  818   3.514   2.344  12.089 -0.6245 -0.1489  0.1666
   53TMC2    O1  819   2.994   2.341  12.293 -0.2021  0.0527  0.5715
   53TMC2    O2  820   3.569   2.300  11.990 -0.3533  0.0002 -0.0936
   53TMC2    O5  821   3.569   2.439  12.170 -0.3160 -0.0653 -0.2836
   53TMC2    H5  822   3.507   2.475  12.237 -0.3697 -2.5308  0.9817
   54MPD2     C  823   2.852   2.227  11.751  0.3261 -0.1396  0.3095
   54MPD2    C1  824   2.862   2.237  11.886 -0.3501 -0.4704  0.4687
   54MPD2    C2  825   2.755   2.201  11.971  0.4159 -0.0451  0.2311
   54MPD2    C3  826   2.637   2.145  11.919 -0.3168  0.2811  0.3103
   54MPD2    C4  827   2.631   2.137  11.780 -0.2867  0.2068  0.1921
   54MPD2    C5  828   2.735   2.172  11.703  0.3661 -0.1173 -0.0412
   54MPD2     H  829   2.760   2.219  12.078  0.8275  3.4830 -0.3693
   54MPD2    H1  830   2.549   2.091  11.727 -0.6847 -1.4100  2.2042
   54MPD2    H2  831   2.930   2.264  11.686 -1.3197 -0.4638 -1.8574
   54MPD2    H3  832   2.730   2.158  11.596  0.2436 -2.6751  0.2798
   54MPD2     N  833   2.521   2.109  11.984 -0.2651  0.0462 -0.5518
   54MPD2    H5  834   2.444   2.076  11.926  0.2202 -0.1417 -1.0809
   54MPD2    N1  835   2.976   2.294  11.951 -0.3251 -0.3025 -0.0112
   54MPD2    H7  836   2.977   2.306  12.051  1.6196 -1.4723  0.1073
   55MPD2     C  837   3.765   4.694   0.041  0.0104  0.8360 -0.2351
   55MPD2    C1  838   3.680   4.611   0.106  0.8369  0.4807  0.0057
   55MPD2    C2  839   3.542   4.639   0.121  0.7740  0.1249  1.2625
   55MPD2    C3  840   3.494   0.040   0.081  0.3355 -0.1004  0.2228
   55MPD2    C4  841   3.584   0.122   0.019  1.1167 -0.5737  0.2970
   55MPD2    C5  842   3.715   0.087  17.694  0.0571 -0.1161 -0.3776
   55MPD2     H  843   3.470   4.563   0.147 -0.1138  0.6342  0.2967
   55MPD2    H1  844   3.551   0.220  17.693  1.4435 -0.9706 -1.3331
   55MPD2    H2  845   3.872   4.678   0.031 -0.2143  0.4510 -1.9034
   55MPD2    H3  846   3.780   0.165  17.654 -3.1673  2.7609  0.0006
   55MPD2     N  847   3.351   0.067   0.103  0.1812  0.2133 -0.0061
   55MPD2    H5  848   3.287   4.717   0.125  1.4941 -1.3271 -1.5261
   55MPD2    N1  849   3.723   4.484   0.158  0.0582 -0.2200  0.2352
   55MPD2    H7  850   3.822   4.462   0.150 -0.2608 -0.7385 -2.1602
   56TCq2    C1  851   3.653   4.396   0.240  0.1596  0.1096 -0.8469
   56TCq2    O2  852   3.541   4.411   0.289  0.3331 -0.3306 -0.1452
   56TCq2    C2  853   3.741   4.299   0.306  0.0610  0.5617  0.1361
   56TCq2    C3  854   3.861   4.277   0.251  0.6648 -0.3473 -0.0887
   56TCq2    C4  855   3.946   4.199   0.319 -0.0061 -0.3973 -0.2567
   56TCq2    C5  856   3.923   4.146   0.442 -0.2743 -0.2321 -0.1456
   56TCq2    C6  857   3.791   4.169   0.500  0.0162 -0.2318 -0.0133
   56TCq2    C7  858   3.698   4.243   0.426 -0.3645  0.2889 -0.0035
   56TCq2    C8  859   3.790   4.177   0.645 -0.3496  0.3556  0.3042
   56TCq2    O4  860   3.885   4.116   0.697 -0.0206 -0.2114 -0.4498
   56TCq2    C9  861   4.071   4.188   0.258  0.0160  0.7136 -0.0692
   56TCq2    O5  862   4.140   4.093   0.312 -0.0481  0.1234  0.2263
   56TCq2    O6  863   4.094   4.255   0.152 -0.2372 -0.7344 -0.4748
   56TCq2    H2  864   3.891   4.313   0.154 -0.4984  0.4134 -0.1725
   56TCq2    H3  865   4.008   4.109   0.498 -1.3050 -1.7385  0.4488
   56TCq2    H4  866   3.603   4.270   0.469 -0.3889 -1.6591  1.1416
   57TMC2    C1  867   3.163   1.475  14.180  0.1412  0.7417 -0.1179
   57TMC2    C2  868   3.190   1.530  14.306  0.9409 -0.7843 -0.1942
   57TMC2    C3  869   3.294   1.621  14.319  0.1156 -0.3054  0.3741
   57TMC2    C4  870   3.239   1.520  14.073 -0.3173 -0.0299  0.0731
   57TMC2    C5  871   3.338   1.615  14.092  0.2844  0.2344  0.2705
   57TMC2    C6  872   3.372   1.669  14.216  0.0422 -0.6793 -0.7799
   57TMC2     C  873   3.020   1.503  14.169 -0.0464 -0.5816 -0.3026
   57TMC2     O  874   2.982   1.580  14.252 -0.1066  0.1935  0.1294
   57TMC2     H  875   3.143   1.484  14.393  1.6783 -1.0605  0.0571
   57TMC2    H1  876   3.213   1.470  13.980 -0.9655 -0.6243  0.5681
   57TMC2    H2  877   3.454   1.737  14.235  0.1105 -1.5305  1.9906
   57TMC2    C7  878   3.451   1.625  14.007 -0.3009 -0.2209  0.4175
   57TMC2    C8  879   3.276   1.696  14.432  0.1621  0.4375  0.1072
   57TMC2    O1  880   3.561   1.642  14.057 -0.1406 -0.2539  0.6758
   57TMC2    O2  881   3.361   1.752  14.502  0.6419 -0.1594  0.0891
   57TMC2    O5  882   3.144   1.711  14.444 -0.6786  0.4322  0.7829
   57TMC2    H5  883   3.091   1.677  14.370  1.2435 -1.8083  0.4261
   58MPD2     C  884   2.577   1.468  13.925  0.0219  1.0514 -0.2534
   58MPD2    C1  885   2.613   1.540  14.039  0.0264  0.3118  0.0256
   58MPD2    C2  886   2.740   1.523  14.088 -0.0637  0.4079  0.6916
   58MPD2    C3  887   2.833   1.445  14.024 -0.0920  0.6812  0.2818
   58MPD2    C4  888   2.798   1.373  13.910 -0.5215 -0.4615 -0.1477
   58MPD2    C5  889   2.670   1.397  13.861 -0.0929  0.2124 -0.7557
   58MPD2     H  890   2.772   1.566  14.181  2.9207  0.9481 -0.5846
   58MPD2    H1  891   2.864   1.332  13.834 -1.3369  2.9942 -2.6911
   58MPD2    H2  892   2.474   1.469  13.890 -0.3854 -2.4234  0.8245
   58MPD2    H3  893   2.633   1.350  13.771 -0.6192  0.8393 -0.8641
   58MPD2     N  894   2.963   1.432  14.066 -0.4262  0.1484 -0.0186
   58MPD2    H5  895   3.026   1.368  14.018 -1.2416 -1.1008  0.5543
   58MPD2    N1  896   2.527   1.620  14.111 -0.1272 -0.5523 -0.6754
   58MPD2    H7  897   2.562   1.642  14.204 -0.3976 -0.0135 -0.7018
   59MPD2     C  898   0.492   1.479  13.553  0.2806 -1.2346 -0.3149
   59MPD2    C1  899   0.604   1.502  13.470 -0.7111  0.3328  0.0604
   59MPD2    C2  900   0.713   1.565  13.525 -0.8321 -0.0897  0.0550
   59MPD2    C3  901   0.730   1.581  13.663 -0.1484 -0.2441  0.0575
   59MPD2    C4  902   0.615   1.547  13.736 -0.6976  0.4091  0.2647
   59MPD2    C5  903   0.504   1.505  13.684  0.5539 -0.0135 -0.1162
   59MPD2     H  904   0.800   1.580  13.462  0.4315  1.6803  2.2479
   59MPD2    H1  905   0.622   1.541  13.844 -2.4793  1.1530  0.4103
   59MPD2    H2  906   0.399   1.439  13.514 -0.0520  0.7111 -1.4890
   59MPD2    H3  907   0.413   1.483  13.737 -0.5394  1.2929 -1.4588
   59MPD2     N  908   0.849   1.624  13.733 -0.3775 -0.5554 -0.1650
   59MPD2    H5  909   0.845   1.640  13.834 -0.1470 -1.8902  0.0554
   59MPD2    N1  910   0.607   1.465  13.332 -0.2148 -0.1713 -0.5636
   59MPD2    H7  911   0.694   1.470  13.280 -0.3826 -0.6535 -0.8867
   60TCq2    C1  912   0.497   1.411  13.263 -0.3692  0.0815 -0.5256
   60TCq2    O2  913   0.382   1.378  13.302 -0.1721 -0.1456  0.5801
   60TCq2    C2  914   0.544   1.349  13.145  0.5535  0.4423 -0.2636
   60TCq2    C3  915   0.518   1.216  13.122 -0.8337 -0.3345  0.3494
   60TCq2    C4  916   0.573   1.152  13.021 -0.2348 -0.6216 -0.1099
   60TCq2    C5  917   0.661   1.218  12.943  0.3450 -0.0535 -0.0904
   60TCq2    C6  918   0.688   1.348  12.965  0.3094  0.3338  0.8979
   60TCq2    C7  919   0.628   1.420  13.064  0.6425 -0.0009  0.2028
   60TCq2    C8  920   0.786   1.404  12.876  0.2147 -0.2911 -0.0348
   60TCq2    O4  921   0.861   1.327  12.831 -0.6109 -0.3209 -0.5813
   60TCq2    C9  922   0.544   1.013  13.008  0.4342  0.8144  0.0031
   60TCq2    O5  923   0.620   0.940  12.932 -0.0327 -1.1787 -0.3228
   60TCq2    O6  924   0.466   0.963  13.096 -0.1108 -0.1138  0.3640
   60TCq2    H2  925   0.468   1.153  13.195  0.3719  0.8736  2.2121
   60TCq2    H3  926   0.699   1.153  12.865 -2.0070 -1.7578  0.1896
   60TCq2    H4  927   0.653   1.522  13.092 -4.1185  1.3641 -0.3664
   61MPD2     C  928   0.211   2.789  15.520  0.2453  0.3555 -0.1161
   61MPD2    C1  929   0.207   2.925  15.538 -0.5568  0.4085 -0.3367
   61MPD2    C2  930   0.265   3.005  15.443  1.0044 -0.4371 -0.4279
   61MPD2    C3  931   0.323   2.950  15.331 -0.0290 -0.0469 -0.1422
   61MPD2    C4  932   0.316   2.817  15.312  0.3957 -0.3645 -0.1868
   61MPD2    C5  933   0.266   2.736  15.408  0.1253 -0.1765  0.4410
   61MPD2     H  934   0.270   3.111  15.465  0.4969 -0.5010 -0.0090
   61MPD2    H1  935   0.349   2.765  15.222 -2.6660  1.7243 -2.4820
   61MPD2    H2  936   0.173   2.721  15.596  0.0741 -0.1378 -0.6381
   61MPD2    H3  937   0.254   2.629  15.397 -1.0040 -0.0907  0.8900
   61MPD2     N  938   0.390   3.021  15.231  0.2710 -0.2602  0.3545
   61MPD2    H5  939   0.422   2.974  15.147  0.9794 -0.9775  1.0200
   61MPD2    N1  940   0.119   2.981  15.640 -0.1917 -0.1715 -0.4444
   61MPD2    H7  941   0.113   3.082  15.628  2.4278  0.2229  1.4075
   62TCq2    C1  942   0.046   2.913  15.738 -0.4648 -0.0417  0.1113
   62TCq2    O2  943   0.047   2.794  15.761  0.6049 -0.0893 -0.0300
   62TCq2    C2  944   4.657   2.982  15.803 -0.5806 -0.6145  0.0234
   62TCq2    C3  945   4.609   2.941  15.928  0.6103 -0.2618  0.7040
   62TCq2    C4  946   4.503   3.010  15.986  0.6022  0.2930  0.1206
   62TCq2    C5  947   4.442   3.105  15.919 -0.3525 -0.6784  0.1196
   62TCq2    C6  948   4.482   3.136  15.786 -0.3374 -0.2126  0.1919
   62TCq2    C7  949   4.587   3.074  15.727  0.2117 -0.0738 -0.3162
   62TCq2    C8  950   4.442   3.259  15.720 -0.3459 -0.1650  0.0675
   62TCq2    O4  951   4.490   3.279  15.614  0.2772 -0.8452  0.0285
   62TCq2    C9  952   4.455   2.978  16.116  0.1208  1.2283 -0.4456
   62TCq2    O5  953   4.373   3.049  16.172 -0.6632  0.4322 -0.3247
   62TCq2    O6  954   4.504   2.868  16.161 -0.0065  0.1584  0.5812
   62TCq2    H2  955   4.644   2.849  15.974  0.3654 -0.0254  1.3640
   62TCq2    H3  956   4.365   3.162  15.970 -1.3060 -1.0064 -0.9637
   62TCq2    H4  957   4.611   3.081  15.622  1.4324  0.1949 -0.0154
   63TMC2    C1  958   4.116   2.811  11.249 -0.1921  0.0786  0.6840
   63TMC2    C2  959   4.114   2.859  11.375 -0.2709  0.8045  0.0550
   63TMC2    C3  960   4.227   2.917  11.429  0.6868  0.4235  0.0253
   63TMC2    C4  961   4.234   2.804  11.177  0.0240 -0.3961  0.0461
   63TMC2    C5  962   4.339   2.880  11.226  0.0133 -0.4312 -0.5885
   63TMC2    C6  963   4.343   2.930  11.354  0.9740  0.1581  0.4107
   63TMC2     C  964   4.004   2.720  11.227 -0.6062 -0.3423  0.3146
   63TMC2     O  965   3.894   2.751  11.270 -0.2068 -0.0958 -0.0143
   63TMC2     H  966   4.025   2.861  11.438  0.4064 -1.5463  1.0513
   63TMC2    H1  967   4.233   2.766  11.075 -0.2300  0.2727 -0.2029
   63TMC2    H2  968   4.433   2.978  11.391 -0.2078  1.2096  1.9180
   63TMC2    C7  969   4.459   2.883  11.139  0.6526 -0.7138  0.4130
   63TMC2    C8  970   4.225   2.970  11.566 -0.5120  0.2261 -0.5209
   63TMC2    O1  971   4.443   2.846  11.025  0.0978 -0.4770 -0.3290
   63TMC2    O2  972   4.134   2.953  11.642 -0.3827 -0.0652 -0.1215
   63TMC2    O5  973   4.328   3.051  11.582 -0.2922  0.0908  0.0774
   63TMC2    H5  974   4.372   3.087  11.502 -1.5799  0.0949 -0.6277
   64MPD2     C  975   3.801   2.244  11.175  0.0584  0.0189 -0.0997
   64MPD2    C1  976   3.933   2.245  11.131 -0.4105 -0.7678 -0.0215
   64MPD2    C2  977   4.002   2.361  11.139  0.1555  0.2138 -0.4239
   64MPD2    C3  978   3.950   2.481  11.175 -0.0200 -0.4529  0.0335
   64MPD2    C4  979   3.821   2.480  11.223  0.1674 -0.5025 -0.7133
   64MPD2    C5  980   3.745   2.364  11.218  0.0725  0.7102  1.0008
   64MPD2     H  981   4.105   2.360  11.106 -0.3075 -2.0995 -1.8527
   64MPD2    H1  982   3.780   2.576  11.252 -1.4455 -1.0408 -1.1911
   64MPD2    H2  983   3.739   2.156  11.162  2.1366 -1.3352 -0.7819
   64MPD2    H3  984   3.640   2.373  11.243 -0.3931 -0.1284 -0.7202
   64MPD2     N  985   4.041   2.588  11.190  0.2358  0.0471  0.6651
   64MPD2    H5  986   4.140   2.583  11.167  0.0907  1.5053 -0.3042
   64MPD2    N1  987   4.001   2.133  11.079 -0.6588 -0.7557  0.3046
   64MPD2    H7  988   4.087   2.151  11.028 -1.2440 -0.7686 -0.6997
   65MPD2     C  989   0.541   2.208  16.149 -0.0636  0.1755  0.3698
   65MPD2    C1  990   0.497   2.165  16.023 -0.5252 -0.2848  0.0387
   65MPD2    C2  991   0.456   2.036  16.011  0.0383 -0.7338  0.1975
   65MPD2    C3  992   0.459   1.949  16.117  0.0848 -0.3469  0.3624
   65MPD2    C4  993   0.502   1.992  16.246 -1.0334 -0.4101  0.7104
   65MPD2    C5  994   0.553   2.119  16.254 -0.4072 -0.4428 -0.0452
   65MPD2     H  995   0.421   2.015  15.911  2.3767 -0.3317 -0.7009
   65MPD2    H1  996   0.487   1.932  16.335 -1.6017  2.0148  2.2555
   65MPD2    H2  997   0.574   2.308  16.173  1.5342 -0.4293  0.6356
   65MPD2    H3  998   0.587   2.151  16.352  0.1042  0.5119 -0.5324
   65MPD2     N  999   0.420   1.812  16.104 -0.1885 -0.1402  0.1602
   65MPD2    H5 1000   0.418   1.759  16.190 -0.7632 -1.0360 -0.4089
   65MPD2    N1 1001   0.502   2.258  15.913  0.0158 -0.3176 -0.5904
   65MPD2    H7 1002   0.472   2.225  15.822 -0.7986  2.0720 -1.1812
   66TCq2    C1 1003   0.523   2.396  15.930  0.2975  0.0258 -0.3889
   66TCq2    O2 1004   0.508   2.471  16.028 -0.6974  0.6474 -0.4198
   66TCq2    C2 1005   0.528   2.452  15.794 -0.5126  0.0329 -0.4804
   66TCq2    C3 1006   0.532   2.379  15.679 -0.3710  0.0483  0.1712
   66TCq2    C4 1007   0.545   2.443  15.557 -0.3212  0.2039  0.1951
   66TCq2    C5 1008   0.567   2.574  15.555  0.4595 -0.4908  0.0143
   66TCq2    C6 1009   0.561   2.646  15.667  0.8717 -0.7840 -0.1670
   66TCq2    C7 1010   0.537   2.587  15.793 -0.0938  0.8214 -0.4599
   66TCq2    C8 1011   0.554   2.791  15.663  0.0842 -0.4222 -0.0977
   66TCq2    O4 1012   0.618   2.849  15.576 -0.2578  0.5524  0.0242
   66TCq2    C9 1013   0.552   2.363  15.435 -0.5813  0.1386 -0.0523
   66TCq2    O5 1014   0.580   2.418  15.325 -0.5669  0.2506 -0.0703
   66TCq2    O6 1015   0.531   2.241  15.463 -0.4113 -0.3074  0.5088
   66TCq2    H2 1016   0.529   2.270  15.676  0.8822  0.0945 -2.1768
   66TCq2    H3 1017   0.568   2.628  15.460 -3.0894  1.3223  0.9994
   66TCq2    H4 1018   0.564   2.640  15.884  1.4488  0.8626 -0.9345
   67MPD2     C 1019   0.652   1.539  14.229 -0.1902 -0.1939 -0.7546
   67MPD2    C1 1020   0.594   1.557  14.355  0.4527  0.0540  0.3300
   67MPD2    C2 1021   0.479   1.640  14.357  0.5275  0.3347 -0.2103
   67MPD2    C3 1022   0.430   1.695  14.240 -0.2476 -0.0507 -0.5575
   67MPD2    C4 1023   0.491   1.678  14.119  0.0596 -0.1202 -0.5505
   67MPD2    C5 1024   0.601   1.598  14.116  0.6492  0.4936  0.4595
   67MPD2     H 1025   0.432   1.656  14.454 -0.0284  0.2595 -0.4682
   67MPD2    H1 1026   0.454   1.722  14.027 -3.2624  1.3637  1.4597
   67MPD2    H2 1027   0.727   1.463  14.208 -0.8326 -2.0652  3.5993
   67MPD2    H3 1028   0.658   1.568  14.029  2.3119  1.5502  1.1819
   67MPD2     N 1029   0.309   1.773  14.238  0.3278  0.5714 -0.2718
   67MPD2    H5 1030   0.286   1.816  14.149 -0.1192  3.3013  1.1431
   67MPD2    N1 1031   0.641   1.497  14.476 -0.0973  0.0201  0.3541
   67MPD2    H7 1032   0.598   1.531  14.561 -0.3877 -1.2282  0.7116
   68TCq2    C1 1033   0.758   1.428  14.491 -0.3892  0.1324 -0.1493
   68TCq2    O2 1034   0.837   1.389  14.408 -0.1245 -0.1178  0.0991
   68TCq2    C2 1035   0.778   1.411  14.635 -0.2741 -0.8620 -0.5275
   68TCq2    C3 1036   0.675   1.357  14.710 -0.1590 -0.1975 -0.2169
   68TCq2    C4 1037   0.697   1.330  14.844 -1.2536  0.0513 -0.3780
   68TCq2    C5 1038   0.818   1.356  14.901  0.2820  0.1251  0.7836
   68TCq2    C6 1039   0.918   1.417  14.826 -0.4854  0.0470 -0.6033
   68TCq2    C7 1040   0.901   1.435  14.691 -0.0683 -0.3262  0.2800
   68TCq2    C8 1041   1.007   1.512  14.885  0.3090  0.2316 -0.0263
   68TCq2    O4 1042   1.082   1.575  14.812 -0.0901 -0.6436  0.6966
   68TCq2    C9 1043   0.592   1.272  14.926 -0.2203 -0.2091 -0.7184
   68TCq2    O5 1044   0.619   1.256  15.048 -0.2418 -0.2421 -0.1780
   68TCq2    O6 1045   0.521   1.191  14.861  0.1836  0.4114 -0.2125
   68TCq2    H2 1046   0.574   1.341  14.676 -0.2579 -0.2614  0.1096
   68TCq2    H3 1047   0.829   1.328  15.005 -0.0071 -1.4056  0.3934
   68TCq2    H4 1048   0.983   1.474  14.631 -0.9752  0.1303 -0.6727
   69TMC2    C1 1049   2.515   2.771  12.375  0.6449  0.0651 -0.1903
   69TMC2    C2 1050   2.395   2.847  12.357 -0.0095  0.8431  0.0554
   69TMC2    C3 1051   2.355   2.869  12.235  0.3948 -0.3405  0.1634
   69TMC2    C4 1052   2.589   2.733  12.267 -0.1866  0.3873  0.0104
   69TMC2    C5 1053   2.549   2.771  12.142 -0.2223 -0.2845 -0.0325
   69TMC2    C6 1054   2.423   2.831  12.123 -0.7981 -0.4500 -0.0776
   69TMC2     C 1055   2.559   2.743  12.506 -0.3340 -0.0135 -0.2283
   69TMC2     O 1056   2.600   2.633  12.536 -0.1465  0.1451 -0.0960
   69TMC2     H 1057   2.336   2.892  12.437 -1.2588 -0.7874  0.0628
   69TMC2    H1 1058   2.689   2.691  12.278 -0.5585 -0.3993  0.3930
   69TMC2    H2 1059   2.373   2.841  12.027 -0.2052  1.3824 -0.1929
   69TMC2    C7 1060   2.639   2.739  12.032  0.3130  0.2078 -0.2429
   69TMC2    C8 1061   2.228   2.939  12.218 -0.4536 -0.1327 -0.7267
   69TMC2    O1 1062   2.744   2.688  12.059  0.3765 -0.5231 -0.0341
   69TMC2    O2 1063   2.136   2.909  12.294  0.2017 -0.3971  0.2855
   69TMC2    O5 1064   2.259   3.066  12.184  0.0852  0.1202  0.5739
   69TMC2    H5 1065   2.343   3.074  12.132  1.0189 -1.6868  1.8296
   70MPD2     C 1066   2.539   2.978  12.790 -0.1586  0.3403  0.3775
   70MPD2    C1 1067   2.543   2.850  12.736  0.0710  0.9299 -0.4530
   70MPD2    C2 1068   2.537   2.738  12.814 -0.0314  1.2114 -0.5932
   70MPD2    C3 1069   2.516   2.753  12.949  0.2660  0.0846 -0.4470
   70MPD2    C4 1070   2.498   2.882  12.998  0.0217  0.1166  0.2909
   70MPD2    C5 1071   2.513   2.992  12.921  0.2350 -0.6870  0.1003
   70MPD2     H 1072   2.539   2.638  12.773  1.3899  1.2909 -0.7269
   70MPD2    H1 1073   2.464   2.891  13.100 -0.1173 -0.1069  0.2629
   70MPD2    H2 1074   2.553   3.069  12.732  2.2738  0.6362  1.4384
   70MPD2    H3 1075   2.497   3.091  12.962  1.8702  0.4258 -1.9688
   70MPD2     N 1076   2.523   2.640  13.031 -0.0711 -0.2774  0.2107
   70MPD2    H5 1077   2.563   2.557  12.988 -0.9396 -1.7321  2.1851
   70MPD2    N1 1078   2.533   2.849  12.591  0.2225 -0.2851  0.4449
   70MPD2    H7 1079   2.534   2.943  12.550 -1.2353 -1.0836 -1.4353
   71TMC2    C1 1080   0.625   3.390   2.022 -0.4715 -0.1038 -0.0529
   71TMC2    C2 1081   0.723   3.308   2.078  0.6953 -0.3224  0.4340
   71TMC2    C3 1082   0.692   3.238   2.194  0.2622  0.6233  0.1460
   71TMC2    C4 1083   0.507   3.406   2.088 -0.3036  1.0783  0.2321
   71TMC2    C5 1084   0.479   3.339   2.200 -0.5878 -0.5020 -0.1221
   71TMC2    C6 1085   0.569   3.252   2.257  0.4426  0.0424  0.5434
   71TMC2     C 1086   0.638   3.438   1.888  0.6149  0.4444  0.3890
   71TMC2     O 1087   0.534   3.466   1.829 -0.1096  0.4460  0.2632
   71TMC2     H 1088   0.820   3.285   2.035  2.0732  1.9266  2.3084
   71TMC2    H1 1089   0.426   3.461   2.042  0.0925  0.9617 -0.6105
   71TMC2    H2 1090   0.537   3.201   2.347  1.6291 -1.0995  0.3297
   71TMC2    C7 1091   0.344   3.350   2.260  0.4714  0.2363 -0.0664
   71TMC2    C8 1092   0.786   3.137   2.229 -0.5500  0.0139 -0.0805
   71TMC2    O1 1093   0.334   3.319   2.376 -0.6104 -0.3955  0.3805
   71TMC2    O2 1094   0.853   3.074   2.143 -0.4737  0.2392  0.0527
   71TMC2    O5 1095   0.755   3.089   2.345 -0.3959 -0.3422  0.1125
   71TMC2    H5 1096   0.730   3.167   2.400  1.9252  0.8772 -0.5740
   72MPD2     C 1097   0.871   3.430   1.434  0.1007  0.4495 -0.3282
   72MPD2    C1 1098   0.736   3.417   1.463 -1.4439 -0.2749 -0.1619
   72MPD2    C2 1099   0.705   3.413   1.596  0.6508 -0.4968 -0.2820
   72MPD2    C3 1100   0.800   3.410   1.699  0.8298 -0.0693  0.3463
   72MPD2    C4 1101   0.933   3.396   1.663 -0.0491 -1.0362  0.3256
   72MPD2    C5 1102   0.967   3.405   1.533 -0.5760 -0.2300 -0.2872
   72MPD2     H 1103   0.601   3.423   1.624  0.5745  0.9084 -1.1029
   72MPD2    H1 1104   1.003   3.351   1.732  1.5375  1.6841  0.4905
   72MPD2    H2 1105   0.917   3.451   1.338 -0.6656  0.5411 -0.6735
   72MPD2    H3 1106   1.069   3.384   1.504  0.1923 -0.6564  2.7714
   72MPD2     N 1107   0.767   3.414   1.836  0.0933 -0.2428 -0.4161
   72MPD2    H5 1108   0.847   3.396   1.896  0.5692 -0.8001 -1.2183
   72MPD2    N1 1109   0.632   3.427   1.369 -0.4954 -0.6850  0.2948
   72MPD2    H7 1110   0.540   3.399   1.402 -0.2850  0.3729  1.7758
   73TMC2    C1 1111   4.545   0.739  13.936  0.2622  0.9362  0.4717
   73TMC2    C2 1112   4.550   0.670  13.816 -0.0750  0.6458 -0.0760
   73TMC2    C3 1113   4.569   0.538  13.811  0.0172  0.6164 -0.0882
   73TMC2    C4 1114   4.575   0.667  14.046  0.4277 -0.5567 -0.0760
   73TMC2    C5 1115   4.611   0.536  14.039  0.5754 -0.3791 -0.5031
   73TMC2    C6 1116   4.595   0.463  13.925  0.2561 -0.2655 -0.5231
   73TMC2     C 1117   4.636   0.849  13.934 -0.0814  0.1812 -0.6754
   73TMC2     O 1118   0.014   0.834  13.997 -0.4546 -0.4807 -0.2359
   73TMC2     H 1119   4.536   0.719  13.719 -4.2084 -0.9821 -0.2786
   73TMC2    H1 1120   4.576   0.712  14.145 -1.8126  0.0194 -0.3114
   73TMC2    H2 1121   4.629   0.360  13.919  0.3236 -0.3383  1.2247
   73TMC2    C7 1122   4.720   0.503  14.125  0.0323 -0.3109 -0.5508
   73TMC2    C8 1123   4.514   0.468  13.699 -0.5933  0.0617 -0.7940
   73TMC2    O1 1124   0.007   0.382  14.143 -0.6767 -0.1134 -0.2730
   73TMC2    O2 1125   4.392   0.471  13.687 -0.2219  0.0726  0.3122
   73TMC2    O5 1126   4.602   0.478  13.599 -0.1502 -0.5587  0.0217
   73TMC2    H5 1127   4.695   0.473  13.631 -0.0121 -1.8894 -0.6051
   74MPD2     C 1128   0.141   1.259  13.731  0.6124 -0.6541  0.2995
   74MPD2    C1 1129   0.169   1.191  13.849 -0.2459 -0.4600 -0.1230
   74MPD2    C2 1130   0.081   1.089  13.884  0.0210 -0.0653  0.1381
   74MPD2    C3 1131   4.692   1.055  13.812  0.7076  0.2053  0.7677
   74MPD2    C4 1132   4.666   1.124  13.696  0.0423 -0.2353  0.4929
   74MPD2    C5 1133   0.018   1.235  13.664  0.8046 -0.1506  0.2209
   74MPD2     H 1134   0.106   1.039  13.977 -0.4498 -0.8612 -0.1666
   74MPD2    H1 1135   4.577   1.108  13.637  0.0694  1.6672 -0.0717
   74MPD2    H2 1136   0.193   1.348  13.699  0.1284 -0.8282 -0.9860
   74MPD2    H3 1137   4.708   1.293  13.579 -0.1735 -1.1196 -0.0344
   74MPD2     N 1138   4.614   0.940  13.837 -0.0444  1.1976  0.0357
   74MPD2    H5 1139   4.528   0.935  13.783 -0.2449  1.8515  0.2962
   74MPD2    N1 1140   0.278   1.224  13.932  0.2283  0.4145  0.2708
   74MPD2    H7 1141   0.331   1.307  13.905  0.5442 -0.5085 -1.9466
   75TCq2    C1 1142   0.221   1.796  14.347  0.7390  0.6408 -0.0409
   75TCq2    O2 1143   0.227   1.744  14.457 -0.0199  0.5694 -0.4736
   75TCq2    C2 1144   0.112   1.888  14.326 -0.2479 -0.0505 -0.3125
   75TCq2    C3 1145   0.053   1.952  14.428  0.2007 -0.1018  0.1806
   75TCq2    C4 1146   4.674   2.033  14.406  0.2084  1.0550  0.2667
   75TCq2    C5 1147   4.635   2.070  14.283 -0.7274  0.2606  0.2067
   75TCq2    C6 1148   4.695   2.009  14.177 -0.4439  0.0004  1.0167
   75TCq2    C7 1149   0.069   1.919  14.203 -0.1744 -0.1789  0.4390
   75TCq2    C8 1150   4.662   2.041  14.039  0.2636  0.1530 -1.1022
   75TCq2    O4 1151   4.689   1.953  13.956  0.5412  0.1163 -0.3251
   75TCq2    C9 1152   4.600   2.072  14.524  0.5848  0.0052  0.6228
   75TCq2    O5 1153   4.478   2.105  14.505  0.3192  0.7002 -0.0537
   75TCq2    O6 1154   4.634   2.025  14.636  0.0777 -0.1876  0.2249
   75TCq2    H2 1155   0.095   1.932  14.527 -0.8167 -0.0724  0.6158
   75TCq2    H3 1156   4.551   2.137  14.268 -2.0293 -1.4449 -0.1253
   75TCq2    H4 1157   0.100   1.855  14.121 -0.5665  0.6769 -0.3749
   76MPD2     C 1158   3.592   2.737  12.017  0.2057  0.2678  0.4013
   76MPD2    C1 1159   3.613   2.640  11.919 -0.6870 -0.4342 -0.0973
   76MPD2    C2 1160   3.727   2.565  11.924 -0.0949 -0.3878  0.1524
   76MPD2    C3 1161   3.823   2.587  12.017 -0.4473  0.1913  0.2030
   76MPD2    C4 1162   3.800   2.682  12.118 -0.4710  0.4235  0.1782
   76MPD2    C5 1163   3.687   2.759  12.113 -0.2595  0.5783  0.0084
   76MPD2     H 1164   3.747   2.502  11.838 -2.6647 -0.5990 -0.2808
   76MPD2    H1 1165   3.869   2.691  12.200 -0.4841 -0.8433  0.3221
   76MPD2    H2 1166   3.503   2.799  12.007  0.0883 -0.0045 -0.1997
   76MPD2    H3 1167   3.666   2.825  12.197 -0.4012  0.8295 -0.2259
   76MPD2     N 1168   3.939   2.514  12.011  0.0051  0.0503  0.0253
   76MPD2    H5 1169   4.019   2.547  12.063  0.1158 -0.3336  0.1019
   76MPD2    N1 1170   3.522   2.626  11.811  0.5603  0.6852 -0.6824
   76MPD2    H7 1171   3.448   2.694  11.798 -0.6159 -0.5264 -0.2902
   77TCq2    C1 1172   3.956   2.392  11.946  0.0218  0.1704 -0.3477
   77TCq2    O2 1173   3.865   2.319  11.909 -0.2739 -0.6457  0.3356
   77TCq2    C2 1174   4.086   2.333  11.969  0.1964 -0.2254  0.1542
   77TCq2    C3 1175   4.086   2.194  11.968  0.0861  0.0196  0.3337
   77TCq2    C4 1176   4.203   2.122  11.949  0.3934  0.0837 -0.1306
   77TCq2    C5 1177   4.318   2.189  11.925  0.1722 -0.6921 -0.6580
   77TCq2    C6 1178   4.312   2.324  11.909 -0.4948 -0.2174  0.6116
   77TCq2    C7 1179   4.203   2.405  11.936  0.7241 -0.2610 -0.2908
   77TCq2    C8 1180   4.439   2.402  11.909 -0.5372  0.2267 -0.0307
   77TCq2    O4 1181   4.438   2.520  11.874 -0.5302  0.0690  0.3768
   77TCq2    C9 1182   4.198   1.979  11.976  0.5017  0.5221  0.2442
   77TCq2    O5 1183   4.298   1.907  11.944 -0.7700 -0.0448 -0.1435
   77TCq2    O6 1184   4.120   1.943  12.071  0.2469  0.4155  0.4109
   77TCq2    H2 1185   3.998   2.134  11.989  0.8089 -1.6023 -1.3563
   77TCq2    H3 1186   4.411   2.137  11.907 -0.4276 -1.8131 -0.5044
   77TCq2    H4 1187   4.204   2.514  11.935 -0.3017 -0.2848 -2.4863
   78MPD1     C 1188   0.530   2.170   1.754  0.0413 -0.2547 -0.0400
   78MPD1    C1 1189   0.628   2.267   1.722 -0.9406 -0.3303  0.2468
   78MPD1    C2 1190   0.652   2.361   1.817  0.0513  0.1072 -0.4392
   78MPD1    C3 1191   0.587   2.365   1.943  0.1363 -0.2842 -0.0608
   78MPD1    C4 1192   0.480   2.278   1.963 -0.0256 -0.0119  0.1669
   78MPD1    C5 1193   0.458   2.185   1.867 -0.1938  0.2324 -0.3568
   78MPD1     H 1194   0.722   2.438   1.787 -0.0900  1.2395  2.1482
   78MPD1    H1 1195   0.418   2.280   2.052  0.2495  0.2879  0.3494
   78MPD1    H2 1196   0.506   2.079   1.700 -0.3243 -0.5485  0.6121
   78MPD1    H3 1197   0.373   2.121   1.885  0.9037 -0.8005  1.2714
   78MPD1     N 1198   0.626   2.438   2.055  0.0155 -0.3140 -1.2398
   78MPD1    H5 1199   0.571   2.427   2.139  0.1917 -0.0446 -1.0905
   78MPD1    N1 1200   0.698   2.275   1.599 -0.3659 -0.3891  0.3167
   78MPD1    H6 1201   0.763   2.352   1.590  0.2549 -1.1297 -1.5658
   78MPD1    H7 1202   0.639   2.254   1.519 -1.8020 -2.4195  1.8852
   79TCq2    C1 1203   0.738   2.523   2.060  0.6722 -0.0594  0.1719
   79TCq2    O2 1204   0.821   2.549   1.973 -0.2378 -0.6149  0.5588
   79TCq2    C2 1205   0.762   2.584   2.191 -0.1855 -0.0193  0.6455
   79TCq2    C3 1206   0.667   2.556   2.289 -0.5630  0.6927  0.4676
   79TCq2    C4 1207   0.669   2.636   2.399  1.0612  0.0308  0.7308
   79TCq2    C5 1208   0.761   2.733   2.418  0.4472  0.1790  0.2615
   79TCq2    C6 1209   0.863   2.753   2.323  0.6191  0.0213 -0.4990
   79TCq2    C7 1210   0.861   2.676   2.212 -0.0765 -0.0349 -0.0508
   79TCq2    C8 1211   0.993   2.805   2.370  0.5561 -0.3739 -0.3495
   79TCq2    O4 1212   1.078   2.831   2.287  0.1613  0.4662 -0.1747
   79TCq2    C9 1213   0.555   2.639   2.487  0.1587 -0.8037  0.2592
   79TCq2    O5 1214   0.468   2.550   2.476 -0.0351 -0.4904  0.3637
   79TCq2    O6 1215   0.548   2.730   2.575  0.3019  0.1534  0.1702
   79TCq2    H2 1216   0.576   2.497   2.289  0.0529 -0.2741  4.4775
   79TCq2    H3 1217   0.755   2.806   2.497 -0.4609 -0.2446  0.5793
   79TCq2    H4 1218   0.940   2.683   2.137 -1.1267  1.5698 -1.0270
   80MPD2     C 1219   3.514   2.149  12.494 -0.0331 -0.5171 -0.0266
   80MPD2    C1 1220   3.387   2.108  12.466 -0.1409  0.1967 -0.1368
   80MPD2    C2 1221   3.289   2.089  12.569  0.2399 -0.1840 -0.4064
   80MPD2    C3 1222   3.326   2.105  12.697 -0.0646  0.4320 -0.8195
   80MPD2    C4 1223   3.461   2.127  12.725  0.6536  0.0488  0.3446
   80MPD2    C5 1224   3.552   2.147  12.624 -0.0527  0.1965 -0.1479
   80MPD2     H 1225   3.191   2.057  12.534 -0.1567  1.2467 -0.5936
   80MPD2    H1 1226   3.508   2.120  12.822 -1.7622 -1.1476  1.4316
   80MPD2    H2 1227   3.593   2.162  12.421  0.0964  0.1599  0.2357
   80MPD2    H3 1228   3.656   2.165  12.646 -0.0127 -0.7220  0.4205
   80MPD2     N 1229   3.249   2.081  12.813 -0.2989 -0.7129  0.8643
   80MPD2    H5 1230   3.284   2.078  12.908  1.2319  1.6177  0.3915
   80MPD2    N1 1231   3.342   2.069  12.337  0.3403  0.4216  0.0951
   80MPD2    H7 1232   3.244   2.046  12.326  0.6458 -0.5249 -0.6694
   81TCq2    C1 1233   3.424   2.039  12.226  0.5641  0.5496  0.1321
   81TCq2    O2 1234   3.543   2.060  12.227 -0.0155 -0.1146 -0.1851
   81TCq2    C2 1235   3.364   2.009  12.098  0.0365  0.3675  0.1536
   81TCq2    C3 1236   3.449   2.028  11.991  0.0575  0.5888  0.1779
   81TCq2    C4 1237   3.391   2.015  11.864  1.0486 -0.1763  0.6931
   81TCq2    C5 1238   3.255   1.994  11.855 -0.1421 -0.5100 -0.6738
   81TCq2    C6 1239   3.169   1.984  11.961 -0.4996 -0.0201  0.5966
   81TCq2    C7 1240   3.231   1.987  12.084 -0.5735 -0.2116 -0.5674
   81TCq2    C8 1241   3.041   1.919  11.945 -0.1334  0.1049  0.6723
   81TCq2    O4 1242   3.021   1.844  11.842  0.1498 -0.1155  0.3188
   81TCq2    C9 1243   3.469   2.043  11.748  0.5920  0.5758 -0.6350
   81TCq2    O5 1244   3.403   2.053  11.644 -0.0555 -0.0995  0.2292
   81TCq2    O6 1245   3.588   2.067  11.765 -0.0032  0.0415  0.1757
   81TCq2    H2 1246   3.551   2.064  11.996  0.2026  0.3704 -1.1847
   81TCq2    H3 1247   3.220   1.979  11.753 -0.3088 -1.1261 -0.5242
   81TCq2    H4 1248   3.181   1.943  12.170 -0.1839  1.6004  0.5948
   82MPD2     C 1249   1.659   1.893  11.015  0.0665 -0.2920  0.6593
   82MPD2    C1 1250   1.554   1.805  11.043  0.5257 -0.3782 -0.1917
   82MPD2    C2 1251   1.503   1.796  11.172 -0.0409 -0.6884 -0.0757
   82MPD2    C3 1252   1.561   1.864  11.279  0.3972 -0.6764 -0.8666
   82MPD2    C4 1253   1.671   1.934  11.254  0.2538  0.2226  0.4496
   82MPD2    C5 1254   1.718   1.956  11.123 -0.1757  0.3902 -0.0752
   82MPD2     H 1255   1.416   1.736  11.196 -0.9960 -0.4661 -3.0567
   82MPD2    H1 1256   1.726   1.979  11.336  1.8644  0.1795 -0.5852
   82MPD2    H2 1257   1.698   1.925  10.920  1.4444 -2.0957  0.6120
   82MPD2    H3 1258   1.804   2.018  11.099  1.4669 -2.2845 -1.1219
   82MPD2     N 1259   1.501   1.864  11.410  0.3100  0.2082 -0.0223
   82MPD2    H5 1260   1.560   1.900  11.485 -1.0376  0.5419  0.8644
   82MPD2    N1 1261   1.490   1.736  10.937  0.5607  0.5708 -0.1411
   82MPD2    H7 1262   1.521   1.763  10.844  2.4324 -2.1992 -0.3095
   83TCq2    C1 1263   1.370   1.832  11.431 -0.3418 -0.6259 -0.2483
   83TCq2    O2 1264   1.276   1.828  11.352 -0.0738 -1.3725 -0.8778
   83TCq2    C2 1265   1.346   1.747  11.555  0.8022 -0.2029 -0.7569
   83TCq2    C3 1266   1.447   1.753  11.648  0.3472 -0.2780  0.6910
   83TCq2    C4 1267   1.458   1.637  11.727  0.1432 -0.7270 -0.0468
   83TCq2    C5 1268   1.397   1.520  11.698  0.2495  0.0142 -0.2332
   83TCq2    C6 1269   1.297   1.522  11.603 -0.2589  0.6219 -0.3906
   83TCq2    C7 1270   1.266   1.637  11.535  0.0462 -0.0998  0.0867
   83TCq2    C8 1271   1.294   1.395  11.532 -0.1143  0.2009 -0.0487
   83TCq2    O4 1272   1.297   1.401  11.409 -0.2323 -0.5409 -0.5926
   83TCq2    C9 1273   1.558   1.632  11.827 -0.2487  0.1825 -0.0467
   83TCq2    O5 1274   1.642   1.725  11.821  0.9625 -0.1982  0.0899
   83TCq2    O6 1275   1.576   1.521  11.889  0.0401 -0.3146  0.2078
   83TCq2    H2 1276   1.498   1.844  11.678 -1.9972  0.4351  2.4737
   83TCq2    H3 1277   1.430   1.431  11.751  0.6554  1.5014  2.0414
   83TCq2    H4 1278   1.197   1.634  11.451 -0.1387  3.0349  0.1157
   84TCq2    C1 1279   1.670   0.580  10.956 -0.1676 -0.0326 -0.3984
   84TCq2    O2 1280   1.737   0.654  10.887 -0.5085  0.0664  0.0122
   84TCq2    C2 1281   1.722   0.552  11.088  0.1328 -0.3956 -0.1691
   84TCq2    C3 1282   1.664   0.449  11.167  0.5666 -0.7096  0.0974
   84TCq2    C4 1283   1.712   0.439  11.294  0.2897 -0.8829  0.1241
   84TCq2    C5 1284   1.798   0.534  11.348 -0.2296  0.0288  0.5761
   84TCq2    C6 1285   1.858   0.626  11.264  0.1177 -0.3199  0.3612
   84TCq2    C7 1286   1.821   0.633  11.134 -0.6091  0.1954  0.1575
   84TCq2    C8 1287   1.919   0.746  11.328 -0.2668 -0.2029 -0.3749
   84TCq2    O4 1288   1.883   0.763  11.444  0.3171 -0.1773 -0.1370
   84TCq2    C9 1289   1.643   0.363  11.389  0.0789 -0.1105  0.7753
   84TCq2    O5 1290   1.702   0.332  11.498 -0.2052  0.1062  0.1038
   84TCq2    O6 1291   1.520   0.358  11.366  0.2600 -0.4890  0.0161
   84TCq2    H2 1292   1.593   0.375  11.132  0.9283 -0.3915 -1.3139
   84TCq2    H3 1293   1.805   0.549  11.455  1.0192 -1.4002  0.7039
   84TCq2    H4 1294   1.868   0.703  11.066  0.4837  0.1641  0.8964
   85MPD2     C 1295   2.395   3.264  16.691  0.0211  0.4547  0.1940
   85MPD2    C1 1296   2.299   3.238  16.596 -0.7571  0.1370 -0.3752
   85MPD2    C2 1297   2.289   3.324  16.485 -0.3412 -0.3264  0.4189
   85MPD2    C3 1298   2.371   3.437  16.471  0.3530  0.3571 -0.0243
   85MPD2    C4 1299   2.458   3.465  16.573  0.0910 -0.0475 -0.8780
   85MPD2    C5 1300   2.466   3.381  16.679 -0.9305  0.4985 -0.7344
   85MPD2     H 1301   2.230   3.301  16.397  0.3809  1.4158 -0.5084
   85MPD2    H1 1302   2.527   3.549  16.574 -2.5069  2.0661 -1.2150
   85MPD2    H2 1303   2.432   3.196  16.767  1.4868 -0.0960 -1.0154
   85MPD2    H3 1304   2.539   3.405  16.756 -0.2522 -0.1750 -1.1662
   85MPD2     N 1305   2.370   3.518  16.350  0.4356  0.1430 -1.2602
   85MPD2    H5 1306   2.295   3.485  16.291 -0.2249 -0.7147  0.0488
   85MPD2    N1 1307   2.212   3.124  16.586  0.4781  0.1775  0.5721
   85MPD2    H7 1308   2.141   3.126  16.513 -1.3311 -0.9832  2.2690
   86TCq2    C1 1309   2.467   3.599  16.304  0.3763 -0.2701 -0.9177
   86TCq2    O2 1310   2.571   3.628  16.360  0.6312  0.3544 -0.1725
   86TCq2    C2 1311   2.440   3.632  16.163  0.0916  0.9871  0.0371
   86TCq2    C3 1312   2.310   3.650  16.117 -0.3129 -0.2039 -0.1257
   86TCq2    C4 1313   2.306   3.699  15.994  0.5338 -0.3469 -0.4462
   86TCq2    C5 1314   2.406   3.750  15.923 -0.0701  0.5474  0.5373
   86TCq2    C6 1315   2.532   3.738  15.979 -0.2795  0.2403 -0.4832
   86TCq2    C7 1316   2.550   3.681  16.102 -0.0076 -0.8647 -0.6532
   86TCq2    C8 1317   2.640   3.797  15.909  0.3744  1.0518  0.0817
   86TCq2    O4 1318   2.750   3.762  15.952 -0.3414  0.1973 -0.3167
   86TCq2    C9 1319   2.176   3.727  15.935  0.4477 -0.1067  0.7992
   86TCq2    O5 1320   2.160   3.854  15.929  0.0722  0.0199 -0.5364
   86TCq2    O6 1321   2.092   3.639  15.929  0.0924 -0.1420 -0.1282
   86TCq2    H2 1322   2.223   3.610  16.169 -0.3668  1.2369  0.9015
   86TCq2    H3 1323   2.381   3.785  15.824 -0.0985 -0.0586  0.3310
   86TCq2    H4 1324   2.652   3.671  16.139  0.2843  3.7353 -0.1459
   87MPD2     C 1325   0.388   2.705   2.066  0.0339 -0.2305  0.8746
   87MPD2    C1 1326   0.416   2.715   1.934 -0.3528  0.2344 -0.3758
   87MPD2    C2 1327   0.502   2.812   1.886 -0.4313 -0.0281  0.2659
   87MPD2    C3 1328   0.569   2.893   1.978  0.4507 -0.5676  0.7596
   87MPD2    C4 1329   0.550   2.869   2.116 -0.1643 -0.0876  0.1132
   87MPD2    C5 1330   0.457   2.779   2.153 -0.6625  0.4318 -0.2626
   87MPD2     H 1331   0.524   2.806   1.780 -1.0035 -2.9130  0.3015
   87MPD2    H1 1332   0.615   2.909   2.193  0.3817 -0.7497 -0.0042
   87MPD2    H2 1333   0.322   2.631   2.108  0.6188 -1.6345 -0.6942
   87MPD2    H3 1334   0.427   2.770   2.257  2.6347 -1.2743  0.5103
   87MPD2     N 1335   0.674   2.980   1.938  0.2665 -0.2872 -0.3818
   87MPD2    H5 1336   0.750   2.991   2.005 -1.6955  0.1334  1.7837
   87MPD2    N1 1337   0.344   2.617   1.856  0.4145 -0.4358 -0.3069
   87MPD2    H7 1338   0.272   2.561   1.900  0.9084 -0.3747  0.5635
   88TCq2    C1 1339   0.356   2.598   1.720 -0.1715  0.3288  0.1892
   88TCq2    O2 1340   0.412   2.658   1.631 -0.4333 -0.4778 -0.5689
   88TCq2    C2 1341   0.266   2.486   1.676  0.6836 -0.3027 -0.1771
   88TCq2    C3 1342   0.199   2.418   1.770 -0.0350 -0.2044 -0.1175
   88TCq2    C4 1343   0.165   2.292   1.742 -0.2546 -0.4350 -0.6678
   88TCq2    C5 1344   0.207   2.229   1.626  0.5887  0.3053  0.7462
   88TCq2    C6 1345   0.284   2.301   1.529 -0.1824 -0.8154  0.5110
   88TCq2    C7 1346   0.306   2.432   1.555 -0.3445  0.4321  0.2582
   88TCq2    C8 1347   0.378   2.232   1.437 -0.0911  0.0858  0.2317
   88TCq2    O4 1348   0.465   2.302   1.384 -0.1209  0.1306 -0.7065
   88TCq2    C9 1349   0.069   2.227   1.826  0.9207 -0.2395  0.2940
   88TCq2    O5 1350   0.040   2.275   1.940  1.1054 -0.1279 -0.2298
   88TCq2    O6 1351   0.032   2.111   1.787  0.0529 -0.1229  0.6933
   88TCq2    H2 1352   0.170   2.447   1.870  0.2288 -2.0530  0.4969
   88TCq2    H3 1353   0.181   2.125   1.609  2.3515  0.0544 -0.4335
   88TCq2    H4 1354   0.353   2.496   1.481 -0.4129 -0.1955 -0.3353
   89MPD2     C 1355   1.636   4.300   2.068 -0.2734 -0.3385  0.0686
   89MPD2    C1 1356   1.531   4.335   1.992 -0.7278  0.2987 -0.3564
   89MPD2    C2 1357   1.511   4.471   1.971 -0.3294 -0.7658 -0.5957
   89MPD2    C3 1358   1.595   4.563   2.016  0.1695 -0.4176  0.3304
   89MPD2    C4 1359   1.690   4.527   2.112  0.4048 -0.2931 -1.6290
   89MPD2    C5 1360   1.713   4.392   2.132 -0.6635 -0.5944 -0.4483
   89MPD2     H 1361   1.432   4.508   1.906 -0.0031 -2.9139 -2.2310
   89MPD2    H1 1362   1.743   4.605   2.165  2.2313 -1.4081 -1.8016
   89MPD2    H2 1363   1.660   4.198   2.096  1.3189  0.1563  0.4767
   89MPD2    H3 1364   1.793   4.360   2.197 -1.2425  0.5013  0.8104
   89MPD2     N 1365   1.581   4.692   1.977  0.0039 -0.1333 -0.0198
   89MPD2    H5 1366   1.498   4.714   1.923 -1.1079  0.5617  1.9919
   89MPD2    N1 1367   1.445   4.240   1.919  0.0679  0.3835 -0.0926
   89MPD2    H7 1368   1.373   4.285   1.864  1.3339  0.8277 -1.3616
   90TCq2    C1 1369   1.679   0.064   1.999  0.2385  0.1318  0.6599
   90TCq2    O2 1370   1.794   0.052   2.045 -0.0965  0.1060  0.2515
   90TCq2    C2 1371   1.646   0.195   1.948 -0.1789 -0.4696  0.8842
   90TCq2    C3 1372   1.721   0.300   1.990  0.5028 -0.8727 -0.1175
   90TCq2    C4 1373   1.689   0.423   1.949  0.3319 -0.3066 -0.1856
   90TCq2    C5 1374   1.605   0.445   1.842 -0.0249  0.0601  0.4609
   90TCq2    C6 1375   1.535   0.336   1.795 -0.1615 -0.0716  0.2819
   90TCq2    C7 1376   1.545   0.212   1.852 -0.2168 -0.1858  0.0618
   90TCq2    C8 1377   1.455   0.348   1.680  0.4905 -0.2298  0.0629
   90TCq2    O4 1378   1.369   0.260   1.660 -0.2104 -0.3634 -0.0892
   90TCq2    C9 1379   1.772   0.530   2.003  0.1995  0.1051  0.4211
   90TCq2    O5 1380   1.866   0.506   2.084  0.0890 -0.0730 -0.0987
   90TCq2    O6 1381   1.737   0.648   1.964  0.0060  0.5347 -0.2687
   90TCq2    H2 1382   1.797   0.279   2.064 -0.0389 -0.8917  0.4304
   90TCq2    H3 1383   1.596   0.548   1.807 -0.0190 -0.6955 -1.8005
   90TCq2    H4 1384   1.503   0.133   1.791  0.9651  0.3769 -1.4791
   91TMC2    C1 1385   2.484   4.270  16.952  0.6008 -0.4609  0.3124
   91TMC2    C2 1386   2.531   4.384  16.892  0.0392 -0.3516  0.1674
   91TMC2    C3 1387   2.476   4.407  16.766 -0.0881 -0.2144 -0.0468
   91TMC2    C4 1388   2.378   4.198  16.903 -0.3908 -1.5223 -0.0098
   91TMC2    C5 1389   2.312   4.247  16.795  0.0581  0.2875  0.0737
   91TMC2    C6 1390   2.359   4.352  16.725 -0.3355 -0.5082  0.7334
   91TMC2     C 1391   2.570   4.210  17.055 -0.2162  0.4316  0.7036
   91TMC2     O 1392   2.521   4.112  17.117  0.3262 -0.0657  0.3913
   91TMC2     H 1393   2.593   4.452  16.948  0.4994 -1.2364  0.7399
   91TMC2    H1 1394   2.348   4.107  16.953  1.0067 -1.4652  0.9336
   91TMC2    H2 1395   2.318   4.392  16.632 -1.2416 -0.8352  0.9944
   91TMC2    C7 1396   2.193   4.164  16.752 -0.2877  0.6869  0.4534
   91TMC2    C8 1397   2.510   4.529  16.696  0.4217 -0.4617 -0.5148
   91TMC2    O1 1398   2.153   4.086  16.837 -0.2710  0.2911  0.7328
   91TMC2    O2 1399   2.426   4.592  16.632 -0.9897 -0.0322 -0.4564
   91TMC2    O5 1400   2.626   4.569  16.747  0.7146  0.4470  0.3197
   91TMC2    H5 1401   2.679   4.491  16.776  1.3314  1.2605  1.3441
   92MPD2     C 1402   2.818   4.124  17.206 -0.1218  1.0192  0.4409
   92MPD2    C1 1403   2.808   4.236  17.128  0.2685 -0.1595  0.1286
   92MPD2    C2 1404   2.912   4.323  17.129 -0.0315  0.5762 -0.1347
   92MPD2    C3 1405   3.027   4.292  17.199 -0.2156 -0.0636  0.4345
   92MPD2    C4 1406   3.032   4.185  17.281 -0.6442 -0.1127 -0.2485
   92MPD2    C5 1407   2.928   4.100  17.283 -0.3565  0.7574 -0.2709
   92MPD2     H 1408   2.904   4.411  17.066 -2.0065 -1.2551 -2.4365
   92MPD2    H1 1409   3.116   4.169  17.348 -1.3184 -0.8300  0.4161
   92MPD2    H2 1410   2.736   4.053  17.217 -0.7120  1.6573  0.1689
   92MPD2    H3 1411   2.940   4.012  17.345 -0.7848 -0.1150 -1.4393
   92MPD2     N 1412   3.151   4.366  17.189  0.7000 -0.2041  0.0156
   92MPD2    H5 1413   3.236   4.334  17.234 -0.7456  0.6084  3.3288
   92MPD2    N1 1414   2.689   4.274  17.060 -0.4677  0.3210 -0.0244
   92MPD2    H7 1415   2.702   4.344  16.988 -2.5795  1.9077  1.1475
   93MPD2     C 1416   0.193   4.709  14.181 -0.0366  0.3407  0.1192
   93MPD2    C1 1417   0.130   0.065  14.081 -1.0778 -0.1047  0.1836
   93MPD2    C2 1418   4.718   0.053  14.047  0.2083  0.0610 -0.2953
   93MPD2    C3 1419   4.643   4.676  14.105 -0.4520 -0.1117 -0.1494
   93MPD2    C4 1420   4.692   4.610  14.211  0.7606  0.1088 -0.5504
   93MPD2    C5 1421   0.100   4.621  14.238 -0.0668 -0.0923 -0.4397
   93MPD2     H 1422   4.674   0.119  13.973  2.3089  5.7700  3.5527
   93MPD2    H1 1423   4.623   4.551  14.271  2.9931 -1.8099  0.1296
   93MPD2    H2 1424   0.296   4.710  14.213  0.2560 -3.1423 -0.6878
   93MPD2    H3 1425   0.148   4.560  14.314 -1.7644 -2.4807 -1.2955
   93MPD2     N 1426   4.507   4.655  14.077 -0.1476  0.0797 -0.6444
   93MPD2    H5 1427   4.466   4.577  14.128 -0.9459  1.0381  0.1656
   93MPD2    N1 1428   0.200   0.168  14.009 -0.2444  0.0381 -0.4455
   93MPD2    H7 1429   0.154   0.215  13.931 -0.3600 -3.0262 -2.2033
   94TCq2    C1 1430   0.336   0.204  14.029 -0.1026  0.0597 -0.3238
   94TCq2    O2 1431   0.414   0.153  14.106  0.1207 -0.1724  0.3902
   94TCq2    C2 1432   0.385   0.302  13.941  0.2678  0.1408 -0.8239
   94TCq2    C3 1433   0.293   0.370  13.861 -0.2563 -0.3403  0.3271
   94TCq2    C4 1434   0.329   0.420  13.741  0.5902 -0.5640 -0.4025
   94TCq2    C5 1435   0.448   0.396  13.690 -0.0368 -0.5589  0.3148
   94TCq2    C6 1436   0.539   0.337  13.773  0.3862  0.6596 -0.7828
   94TCq2    C7 1437   0.513   0.289  13.897  0.1390  1.1695  0.5459
   94TCq2    C8 1438   0.638   0.251  13.708  0.4946 -0.3637 -0.0073
   94TCq2    O4 1439   0.741   0.219  13.766 -0.0385 -0.3077  0.2076
   94TCq2    C9 1440   0.230   0.497  13.662 -0.4601  0.2597 -0.2057
   94TCq2    O5 1441   0.113   0.469  13.686  0.1049  0.1470  0.5578
   94TCq2    O6 1442   0.262   0.534  13.548  0.6707  0.0401 -0.7704
   94TCq2    H2 1443   0.195   0.399  13.898  0.0710  1.7251 -0.3679
   94TCq2    H3 1444   0.473   0.420  13.587  2.1262  0.9710  1.2100
   94TCq2    H4 1445   0.576   0.212  13.941 -0.4156  1.0233  1.0974
   95TMC2    C1 1446   0.057   1.300  16.913 -0.2034 -0.1529 -0.5309
   95TMC2    C2 1447   0.096   1.174  16.962  1.0201  0.3086  0.0885
   95TMC2    C3 1448   0.078   1.149  17.094 -0.1626 -0.9697 -0.0281
   95TMC2    C4 1449   4.716   1.386  16.990  0.5857 -0.1982  0.2639
   95TMC2    C5 1450   4.692   1.347  17.124 -0.6209 -0.3780  0.4449
   95TMC2    C6 1451   0.015   1.232  17.180 -0.1052  0.8220 -0.4969
   95TMC2     C 1452   0.038   1.314  16.771  0.2986  0.1538 -0.0935
   95TMC2     O 1453   0.001   1.425  16.740  0.0411  0.1523 -0.0037
   95TMC2     H 1454   0.131   1.100  16.891 -0.9453 -0.1082 -0.4188
   95TMC2    H1 1455   4.678   1.477  16.944  1.9005  0.0766 -0.2880
   95TMC2    H2 1456   0.008   1.210  17.286  0.8697 -0.4968 -0.7124
   95TMC2    C7 1457   4.641   1.448  17.208 -0.2443 -0.0924 -0.4731
   95TMC2    C8 1458   0.078   1.012  17.129  0.3318 -0.2047  0.7468
   95TMC2    O1 1459   4.633   1.564  17.171 -0.4111  0.1662  0.2171
   95TMC2    O2 1460   0.136   0.931  17.066  0.0350  0.1565 -0.1546
   95TMC2    O5 1461   4.674   1.003  17.157 -0.5956  0.5361  0.1307
   95TMC2    H5 1462   4.633   1.067  17.219 -0.5041 -1.2712  2.0959
   96MPD2     C 1463   4.702   1.098  16.302 -0.0670  0.7588  0.8581
   96MPD2    C1 1464   0.044   1.217  16.338 -0.5944  0.7676  0.3014
   96MPD2    C2 1465   0.041   1.256  16.472 -0.5202 -0.6132 -1.1487
   96MPD2    C3 1466   4.710   1.174  16.568  0.0098 -0.0468  0.4080
   96MPD2    C4 1467   4.644   1.059  16.528  0.5645  0.2530  0.3298
   96MPD2    C5 1468   4.640   1.025  16.396  0.1554 -0.2990 -0.2760
   96MPD2     H 1469   0.099   1.339  16.511 -1.8842  0.0472 -0.5380
   96MPD2    H1 1470   4.601   0.987  16.597  2.7385 -1.2210  0.1147
   96MPD2    H2 1471   4.700   1.069  16.198 -0.2377 -0.2502  1.1381
   96MPD2    H3 1472   4.570   0.948  16.366  0.8052 -1.0475  0.1580
   96MPD2     N 1473   0.002   1.192  16.709 -0.8846 -0.1990 -0.5417
   96MPD2    H5 1474   4.715   1.110  16.768 -0.6541  0.4536  0.4005
   96MPD2    N1 1475   0.114   1.285  16.240  0.2880  0.1148 -0.1051
   96MPD2    H7 1476   0.098   1.254  16.145 -1.4906 -1.2327  0.6328
   97MPD2     C 1477   2.527   3.018   1.630 -0.4658  0.4003  0.6134
   97MPD2    C1 1478   2.488   3.119   1.552 -0.2219 -0.2566 -0.0294
   97MPD2    C2 1479   2.501   3.099   1.417 -0.2635 -1.3925  0.1226
   97MPD2    C3 1480   2.553   2.986   1.362  0.4092  0.0025 -0.1862
   97MPD2    C4 1481   2.577   2.883   1.446 -0.7998  0.1789  0.1187
   97MPD2    C5 1482   2.569   2.901   1.581 -0.4549 -0.3804 -0.0441
   97MPD2     H 1483   2.483   3.183   1.351 -2.8865 -1.2815  0.9895
   97MPD2    H1 1484   2.605   2.788   1.402 -1.0625 -0.0671  0.4831
   97MPD2    H2 1485   2.525   3.020   1.739  1.5566  1.2586  0.6317
   97MPD2    H3 1486   2.585   2.817   1.648  0.4667  0.3372  0.6434
   97MPD2     N 1487   2.566   2.961   1.224  0.4824 -0.3272  0.0792
   97MPD2    H5 1488   2.579   2.862   1.204  0.8970  0.0869 -1.6772
   97MPD2    N1 1489   2.444   3.237   1.623 -0.0492  0.1706 -0.5257
   97MPD2    H7 1490   2.433   3.226   1.724  1.4210 -1.1384 -0.5059
   98TCq2    C1 1491   2.555   3.048   1.122 -0.4280  0.2535 -0.4469
   98TCq2    O2 1492   2.531   3.167   1.124 -0.8858 -0.0106  0.3688
   98TCq2    C2 1493   2.564   2.972   1.000  0.0397  0.3969  0.0137
   98TCq2    C3 1494   2.539   2.833   1.010  0.4995 -0.4418  0.1262
   98TCq2    C4 1495   2.494   2.776   0.900  0.0655 -0.4503 -0.0600
   98TCq2    C5 1496   2.475   2.838   0.780 -0.5002  0.0802  0.7097
   98TCq2    C6 1497   2.497   2.971   0.778 -0.3821 -0.3138 -0.5517
   98TCq2    C7 1498   2.547   3.040   0.880  0.1437 -0.3395  0.2242
   98TCq2    C8 1499   2.477   3.033   0.644  0.2375  0.0082 -0.0390
   98TCq2    O4 1500   2.421   2.979   0.555 -0.0999 -0.1952  0.5393
   98TCq2    C9 1501   2.475   2.632   0.894 -0.1229 -0.3298 -0.0689
   98TCq2    O5 1502   2.519   2.577   0.789 -0.2598 -0.1448 -0.1312
   98TCq2    O6 1503   2.438   2.563   0.989 -0.0036 -0.0772  0.0688
   98TCq2    H2 1504   2.568   2.763   1.087  1.0050 -2.8698 -2.2813
   98TCq2    H3 1505   2.433   2.785   0.696 -2.2746 -0.3961  1.8945
   98TCq2    H4 1506   2.535   3.148   0.880  0.1213 -0.3424 -0.5257
   99MPD2     C 1507   1.140   1.240   1.635 -0.2077  0.2408  0.1410
   99MPD2    C1 1508   1.003   1.229   1.635 -0.3728  0.0584  1.0646
   99MPD2    C2 1509   0.939   1.171   1.526  0.6365  0.1428 -0.1967
   99MPD2    C3 1510   1.009   1.105   1.433  0.2530  0.4197 -0.0624
   99MPD2    C4 1511   1.147   1.096   1.446 -0.2616  0.4855 -0.4291
   99MPD2    C5 1512   1.208   1.164   1.546 -0.6999 -0.5958  0.2912
   99MPD2     H 1513   0.831   1.174   1.530  0.7368  1.0475  1.6201
   99MPD2    H1 1514   1.204   1.029   1.383  1.0323  0.0663  1.1828
   99MPD2    H2 1515   1.203   1.274   1.716 -0.3623 -1.6977  1.0865
   99MPD2    H3 1516   1.315   1.145   1.548 -0.4238  0.9168 -0.5135
   99MPD2     N 1517   0.940   1.032   1.332  0.1917 -0.1456 -0.3580
   99MPD2    H5 1518   0.841   1.051   1.318  0.2542  0.0400 -0.5625
   99MPD2    N1 1519   0.923   1.269   1.742 -0.2825  0.2854 -0.1924
   99MPD2    H7 1520   0.825   1.248   1.725  0.4257 -2.7862 -0.3136
  100TCq2    C1 1521   0.971   1.324   1.861  0.2032  0.1306  0.0636
  100TCq2    O2 1522   1.084   1.366   1.887  0.0858 -0.4763 -0.1155
  100TCq2    C2 1523   0.869   1.340   1.958  0.0921  0.4242 -0.1420
  100TCq2    C3 1524   0.910   1.386   2.080 -0.0854 -0.0004  0.1338
  100TCq2    C4 1525   0.813   1.409   2.170  0.1432  0.1620  0.0761
  100TCq2    C5 1526   0.684   1.374   2.143 -0.5682 -0.1847  0.0260
  100TCq2    C6 1527   0.648   1.314   2.025  0.4477  0.0592 -0.2539
  100TCq2    C7 1528   0.745   1.296   1.932  0.1199 -0.3951 -0.0661
  100TCq2    C8 1529   0.518   1.250   2.009  0.6115  0.4266 -0.3589
  100TCq2    O4 1530   0.499   1.191   1.906 -0.4766 -0.3783  0.1694
  100TCq2    C9 1531   0.836   1.461   2.306 -0.1744 -0.1593  0.1712
  100TCq2    O5 1532   0.754   1.435   2.396 -0.0930  0.0271  0.9699
  100TCq2    O6 1533   0.943   1.520   2.322 -1.0424 -0.0977  0.2648
  100TCq2    H2 1534   1.010   1.426   2.095  0.6577 -1.8968  0.3316
  100TCq2    H3 1535   0.614   1.400   2.221  0.3604 -0.9280  1.1143
  100TCq2    H4 1536   0.711   1.242   1.844  3.1178 -0.1734 -1.3753
  101MPD2     C 1537   1.765   2.078  13.429  1.1309  0.0260  0.1477
  101MPD2    C1 1538   1.679   2.162  13.506 -0.8257 -0.4212 -0.3610
  101MPD2    C2 1539   1.575   2.111  13.579 -0.1274 -0.3560  0.3654
  101MPD2    C3 1540   1.562   1.974  13.582  1.2004  0.2841  0.5016
  101MPD2    C4 1541   1.646   1.893  13.512  0.9638  0.3343 -0.2412
  101MPD2    C5 1542   1.747   1.944  13.434 -0.5777 -0.1141 -0.4278
  101MPD2     H 1543   1.507   2.171  13.638  1.3659  0.3800  1.3371
  101MPD2    H1 1544   1.641   1.786  13.528  1.8855  0.3773  0.3544
  101MPD2    H2 1545   1.851   2.108  13.371  0.7168 -0.4215 -0.6990
  101MPD2    H3 1546   1.821   1.876  13.394  0.0820  0.0536  0.5094
  101MPD2     N 1547   1.453   1.928  13.657 -0.2658 -0.8641  0.7390
  101MPD2    H5 1548   1.386   1.989  13.704  0.6350  1.5920 -1.1691
  101MPD2    N1 1549   1.703   2.305  13.486  0.3023  0.6248  0.1415
  101MPD2    H7 1550   1.774   2.335  13.419  0.6003 -0.5177 -0.0522
  102TCq2    C1 1551   1.927   2.650  13.289 -0.1280  0.2968 -0.7116
  102TCq2    O2 1552   1.978   2.538  13.279 -0.3563  0.4190  0.0270
  102TCq2    C2 1553   1.837   2.678  13.399  0.2518  0.5893  0.7320
  102TCq2    C3 1554   1.736   2.768  13.374  0.8618  0.1200 -0.3460
  102TCq2    C4 1555   1.611   2.743  13.418 -0.2983  0.3302 -0.1041
  102TCq2    C5 1556   1.566   2.630  13.485  0.3558 -0.3010 -0.4625
  102TCq2    C6 1557   1.670   2.542  13.506 -1.0479  0.6604 -0.6512
  102TCq2    C7 1558   1.803   2.565  13.470 -0.0273 -0.0775 -0.0010
  102TCq2    C8 1559   1.629   2.406  13.545 -0.1764  0.3773 -0.8156
  102TCq2    O4 1560   1.525   2.397  13.614  0.4651  0.6587 -0.1851
  102TCq2    C9 1561   1.524   2.853  13.401  0.4510 -0.2949  0.0245
  102TCq2    O5 1562   1.572   2.966  13.430 -0.6455 -0.2187  0.2453
  102TCq2    O6 1563   1.401   2.826  13.388 -0.4769  0.2851 -0.5258
  102TCq2    H2 1564   1.762   2.855  13.315  1.5581 -0.1897 -0.4936
  102TCq2    H3 1565   1.465   2.599  13.506  0.6736 -1.2674 -0.3924
  102TCq2    H4 1566   1.872   2.489  13.502 -2.4782 -0.3718  4.5719
  103TMC2    C1 1567   0.207   2.131  12.459  0.7664 -0.0071  0.1839
  103TMC2    C2 1568   0.303   2.026  12.449 -0.1576 -0.0281  0.1297
  103TMC2    C3 1569   0.339   1.950  12.559 -0.4509 -0.4680 -0.1575
  103TMC2    C4 1570   0.152   2.154  12.579 -0.4465 -0.1900 -0.7092
  103TMC2    C5 1571   0.201   2.076  12.681 -0.4438  0.7038  0.0653
  103TMC2    C6 1572   0.296   1.978  12.683  0.2449  0.3949  0.5106
  103TMC2     C 1573   0.125   2.174  12.345 -0.6447  0.4500 -1.1026
  103TMC2     O 1574   0.005   2.145  12.349 -0.8599  0.0626 -0.6414
  103TMC2     H 1575   0.328   1.984  12.352  0.9577 -0.5677  0.6437
  103TMC2    H1 1576   0.081   2.234  12.596 -0.2582 -0.2052  0.1571
  103TMC2    H2 1577   0.337   1.926  12.768  0.1572  0.9063  0.8637
  103TMC2    C7 1578   0.159   2.116  12.818  0.5048  0.5105 -0.4445
  103TMC2    C8 1579   0.399   1.824  12.533 -0.2175  0.5201  0.5508
  103TMC2    O1 1580   0.244   2.101  12.910  0.3796  0.2495  0.2999
  103TMC2    O2 1581   0.385   1.753  12.436 -0.4132  0.2292  0.1249
  103TMC2    O5 1582   0.496   1.806  12.622  0.0508  0.6576  0.0317
  103TMC2    H5 1583   0.501   1.878  12.689 -0.4508  0.7856 -0.0645
  104MPD2     C 1584   0.209   2.399  12.062 -0.4369 -0.0233 -0.3127
  104MPD2    C1 1585   0.140   2.310  12.134 -0.1796 -0.3555 -0.1770
  104MPD2    C2 1586   0.008   2.286  12.090  1.0137 -0.3789 -0.0686
  104MPD2    C3 1587   4.668   2.361  12.000 -0.2662  0.4220  0.4949
  104MPD2    C4 1588   0.020   2.440  11.923 -0.3378 -0.0144 -0.1585
  104MPD2    C5 1589   0.155   2.463  11.954 -0.7378  0.5577  0.0968
  104MPD2     H 1590   4.668   2.218  12.142 -0.2699  1.8506  1.2127
  104MPD2    H1 1591   4.705   2.484  11.833  0.1670  1.1600  0.1827
  104MPD2    H2 1592   0.316   2.409  12.076 -0.5966 -1.1155  1.7478
  104MPD2    H3 1593   0.204   2.533  11.887  0.6218  1.3322  1.9275
  104MPD2     N 1594   4.536   2.329  11.968 -0.2629  0.0392 -0.2045
  104MPD2    H5 1595   4.503   2.244  12.012 -0.0365  0.8510  1.5181
  104MPD2    N1 1596   0.200   2.246  12.251  0.1213  0.5883 -0.5003
  104MPD2    H7 1597   0.293   2.277  12.278  0.4614 -1.7868  1.0523
  105MPD2     C 1598   1.303   1.501   0.330  0.0935 -0.4760 -0.3988
  105MPD2    C1 1599   1.207   1.591   0.280  0.9944  0.1294  0.4922
  105MPD2    C2 1600   1.123   1.655   0.373 -0.1802  0.5030 -0.0900
  105MPD2    C3 1601   1.160   1.662   0.508 -0.2058  0.8579  0.6147
  105MPD2    C4 1602   1.279   1.596   0.542 -0.4428  0.5016  0.3311
  105MPD2    C5 1603   1.341   1.510   0.458  0.9460  0.3493  0.1471
  105MPD2     H 1604   1.035   1.705   0.334 -0.9943 -1.5993 -0.9517
  105MPD2    H1 1605   1.323   1.616   0.639 -1.2749 -0.6123  0.9274
  105MPD2    H2 1606   1.363   1.446   0.259 -1.0993 -2.8803  0.4500
  105MPD2    H3 1607   1.435   1.467   0.490 -0.4867 -3.1530 -0.2971
  105MPD2     N 1608   1.091   1.738   0.605  0.8352  0.0016  0.1832
  105MPD2    H5 1609   1.009   1.790   0.573 -0.5144 -1.3421  1.4442
  105MPD2    N1 1610   1.176   1.604   0.139 -0.5324  0.2702 -0.8998
  105MPD2    H7 1611   1.117   1.684   0.117  0.0099 -0.0608 -3.6277
  106TCq2    C1 1612   1.106   1.733   0.735  0.2226 -0.2249 -0.1479
  106TCq2    O2 1613   1.170   1.651   0.808  0.0267  0.0128  0.3076
  106TCq2    C2 1614   1.030   1.831   0.810 -0.3478 -0.2045 -0.1600
  106TCq2    C3 1615   0.993   1.947   0.747  0.1661  0.2098 -0.0699
  106TCq2    C4 1616   0.903   2.032   0.808 -0.7611  0.7020 -0.3154
  106TCq2    C5 1617   0.852   2.000   0.927 -0.0512 -0.3163 -0.7817
  106TCq2    C6 1618   0.889   1.881   0.989  0.8389  0.1052  0.0028
  106TCq2    C7 1619   0.986   1.797   0.936  0.5864  0.0605  0.2292
  106TCq2    C8 1620   0.803   1.832   1.097 -0.0010  1.0643  0.4169
  106TCq2    O4 1621   0.816   1.713   1.128 -0.0925  0.3168 -0.0997
  106TCq2    C9 1622   0.873   2.159   0.741 -0.2231 -0.1560  0.1835
  106TCq2    O5 1623   0.884   2.153   0.617 -0.3141 -0.0884 -0.3264
  106TCq2    O6 1624   0.832   2.252   0.811 -0.2160 -0.0546  0.1126
  106TCq2    H2 1625   1.029   1.990   0.654  2.2417 -0.3569  0.4657
  106TCq2    H3 1626   0.792   2.078   0.972  0.3170  0.1564 -1.1054
  106TCq2    H4 1627   1.009   1.699   0.976 -2.2774 -0.6763  0.0607
  107TMC2    C1 1628   1.929   1.451  11.822  0.0071 -0.0161  0.3453
  107TMC2    C2 1629   1.913   1.587  11.800  0.3576  0.2568  0.2022
  107TMC2    C3 1630   1.948   1.634  11.675  0.8299 -0.6747  0.4240
  107TMC2    C4 1631   1.994   1.371  11.734  0.2974 -0.3729 -0.4170
  107TMC2    C5 1632   2.031   1.424  11.612 -0.0130  0.7101  0.7355
  107TMC2    C6 1633   2.009   1.554  11.580  0.2497  0.5291 -0.4125
  107TMC2     C 1634   1.925   1.405  11.958 -0.5364  0.0928  0.0529
  107TMC2     O 1635   2.004   1.317  11.996 -0.1906  0.0280  0.0441
  107TMC2     H 1636   1.864   1.650  11.873  0.0248 -1.1648  1.2005
  107TMC2    H1 1637   2.029   1.274  11.769  0.7020  0.0214  0.2772
  107TMC2    H2 1638   2.029   1.581  11.477  0.3116 -0.3714 -0.6359
  107TMC2    C7 1639   2.110   1.347  11.523 -0.1158  0.0523  0.1016
  107TMC2    C8 1640   1.882   1.752  11.612 -0.0307  0.0996 -0.2813
  107TMC2    O1 1641   2.190   1.415  11.459 -0.2829 -0.0514 -0.8830
  107TMC2    O2 1642   1.893   1.777  11.490  0.4687  0.0676 -1.0003
  107TMC2    O5 1643   1.842   1.836  11.710  0.5369 -0.5155  0.2437
  107TMC2    H5 1644   1.785   1.788  11.774 -0.2373 -0.5346 -0.4696
  108MPD2     C 1645   1.711   1.549  12.224  0.7134 -0.3062 -0.0794
  108MPD2    C1 1646   1.804   1.457  12.169  0.0820  0.5063  0.2873
  108MPD2    C2 1647   1.849   1.351  12.253 -0.3684  0.4349  0.2806
  108MPD2    C3 1648   1.819   1.341  12.387  0.1147 -1.1871  0.1114
  108MPD2    C4 1649   1.736   1.437  12.438  0.0560  0.0129  0.7462
  108MPD2    C5 1650   1.675   1.536  12.356  0.2557  0.2384 -0.7231
  108MPD2     H 1651   1.898   1.273  12.196 -3.4287 -0.9055 -0.5568
  108MPD2    H1 1652   1.711   1.428  12.543  0.1866  0.9577  0.8571
  108MPD2    H2 1653   1.667   1.628  12.165 -0.3721 -1.3289 -0.6345
  108MPD2    H3 1654   1.615   1.616  12.399 -1.1943 -2.2585  1.9184
  108MPD2     N 1655   1.858   1.240  12.473  0.5889  0.0511 -0.0354
  108MPD2    H5 1656   1.824   1.240  12.569 -1.7284  3.0151 -0.8413
  108MPD2    N1 1657   1.830   1.468  12.027  0.3193 -0.5527  0.2833
  108MPD2    H7 1658   1.762   1.526  11.978  0.5428 -0.5900 -0.0651
  109MPD2     C 1659   1.940   3.088   2.884  0.1420 -0.7442  0.4675
  109MPD2    C1 1660   1.980   3.141   2.762 -0.2175  0.0592  0.9039
  109MPD2    C2 1661   2.109   3.181   2.737 -0.4385  0.3318  0.0246
  109MPD2    C3 1662   2.202   3.164   2.835 -0.4365 -0.1991 -0.3207
  109MPD2    C4 1663   2.169   3.104   2.957 -0.6856 -0.1331 -0.5979
  109MPD2    C5 1664   2.037   3.071   2.978 -0.2844  0.2545 -0.1152
  109MPD2     H 1665   2.137   3.211   2.636  1.9982 -1.2613  0.2190
  109MPD2    H1 1666   2.238   3.088   3.039  0.6364  0.2912 -1.6300
  109MPD2    H2 1667   1.843   3.055   2.918 -0.8835  1.7212 -0.0295
  109MPD2    H3 1668   2.003   3.041   3.077 -1.9671 -1.8043 -1.3288
  109MPD2     N 1669   2.332   3.210   2.807 -0.4970  0.2612 -0.1771
  109MPD2    H5 1670   2.351   3.248   2.715 -4.6482  1.9333 -0.3545
  109MPD2    N1 1671   1.878   3.174   2.676  0.0671 -0.1141 -0.7221
  109MPD2    H7 1672   1.785   3.139   2.698 -0.1556 -0.0794 -1.6005
  110TCq2    C1 1673   2.434   3.204   2.896  0.0052 -0.0487  0.1409
  110TCq2    O2 1674   2.439   3.168   3.011 -0.2100  0.2249  0.2852
  110TCq2    C2 1675   2.552   3.249   2.830 -0.5513 -0.0586  0.2036
  110TCq2    C3 1676   2.657   3.275   2.910  0.3628  0.1687  0.2983
  110TCq2    C4 1677   2.760   3.337   2.850 -0.5847  0.2073 -0.3588
  110TCq2    C5 1678   2.773   3.363   2.711 -0.0745 -0.3424 -0.0483
  110TCq2    C6 1679   2.658   3.345   2.645  0.2026 -0.6854  0.6302
  110TCq2    C7 1680   2.551   3.285   2.697 -0.7082  0.1749  0.1613
  110TCq2    C8 1681   2.654   3.394   2.505  0.6159 -0.2315 -0.0175
  110TCq2    O4 1682   2.576   3.338   2.430 -0.3743 -0.3895 -0.5422
  110TCq2    C9 1683   2.880   3.363   2.935  0.5277  1.2297 -0.3401
  110TCq2    O5 1684   2.897   3.287   3.039  0.0201 -0.1103  0.0928
  110TCq2    O6 1685   2.968   3.444   2.887  0.4481 -0.5594  0.2065
  110TCq2    H2 1686   2.668   3.243   3.013 -1.5524 -0.7308  0.2119
  110TCq2    H3 1687   2.864   3.398   2.665 -0.1194 -1.4608 -0.9658
  110TCq2    H4 1688   2.474   3.249   2.630 -0.5987 -0.9072  0.6037
  111TMC2    C1 1689   1.786   2.883  11.937 -0.9669  0.2756 -0.3380
  111TMC2    C2 1690   1.691   2.913  12.040 -1.1358 -0.3995  0.0680
  111TMC2    C3 1691   1.717   2.851  12.157 -0.2424  0.3783  0.1903
  111TMC2    C4 1692   1.890   2.793  11.955  0.4284  0.6944  0.1538
  111TMC2    C5 1693   1.901   2.734  12.084  0.7281  0.3373 -0.0538
  111TMC2    C6 1694   1.817   2.763  12.182 -0.6477  0.5907  0.3953
  111TMC2     C 1695   1.763   2.929  11.801  0.7568 -0.1713  0.5418
  111TMC2     O 1696   1.832   2.880  11.708 -0.2762 -0.3547  0.2168
  111TMC2     H 1697   1.606   2.978  12.021 -2.2255 -2.0969 -0.8959
  111TMC2    H1 1698   1.956   2.768  11.872  0.7432 -0.9285  0.8884
  111TMC2    H2 1699   1.829   2.714  12.278  1.2531  0.6552  0.1853
  111TMC2    C7 1700   2.003   2.647  12.130  0.6916 -0.3553 -0.1269
  111TMC2    C8 1701   1.614   2.852  12.264 -0.2968 -0.3586 -0.0610
  111TMC2    O1 1702   1.985   2.587  12.233 -0.1326  0.3338 -0.0752
  111TMC2    O2 1703   1.524   2.931  12.255 -0.8971 -0.8235  0.4441
  111TMC2    O5 1704   1.598   2.720  12.299 -0.0909  0.0437 -0.5294
  111TMC2    H5 1705   1.668   2.653  12.286 -1.1737 -1.5191  1.6932
  112MPD2     C 1706   1.443   3.146  11.467 -0.2607 -0.1740  0.9061
  112MPD2    C1 1707   1.542   3.056  11.447 -0.5781  0.2837  0.0497
  112MPD2    C2 1708   1.625   3.017  11.547  0.1327  0.2363 -0.0810
  112MPD2    C3 1709   1.601   3.064  11.676 -0.1447  0.1717 -0.1315
  112MPD2    C4 1710   1.489   3.144  11.696  0.1949  0.3044 -0.0954
  112MPD2    C5 1711   1.409   3.187  11.592  0.5081 -0.3336  0.5481
  112MPD2     H 1712   1.703   2.949  11.515 -1.8624 -2.0098 -0.1492
  112MPD2    H1 1713   1.466   3.192  11.791 -1.4745 -0.4439 -0.1268
  112MPD2    H2 1714   1.372   3.162  11.386 -0.3085  2.1161  1.3880
  112MPD2    H3 1715   1.326   3.254  11.615 -0.0794 -1.0424  0.4996
  112MPD2     N 1716   1.673   3.025  11.792  0.3315  0.2816 -0.1466
  112MPD2    H5 1717   1.646   3.069  11.880  0.8995 -1.2894  0.8257
  112MPD2    N1 1718   1.575   3.009  11.318 -0.1362  0.0190  0.2189
  112MPD2    H7 1719   1.649   2.939  11.317 -1.6760 -1.5800 -0.0937
  113MPD2     C 1720   0.028   1.112   1.476  0.2081  0.0048 -0.2235
  113MPD2    C1 1721   4.659   1.208   1.497  0.7902  0.3451 -0.2404
  113MPD2    C2 1722   4.555   1.212   1.409 -0.1601 -0.1977 -0.6786
  113MPD2    C3 1723   4.546   1.128   1.305 -0.7288 -0.5117  0.0990
  113MPD2    C4 1724   4.645   1.035   1.280 -0.0273  0.4805  0.0921
  113MPD2    C5 1725   0.020   1.030   1.366  0.4289  0.3305 -0.7462
  113MPD2     H 1726   4.472   1.279   1.428 -0.8989 -0.6375 -2.3372
  113MPD2    H1 1727   4.639   0.973   1.190 -1.9580 -0.3795  0.8123
  113MPD2    H2 1728   0.113   1.092   1.540  1.2259 -1.6642 -2.1100
  113MPD2    H3 1729   0.097   0.957   1.345  0.7966 -0.2597  2.5600
  113MPD2     N 1730   4.438   1.134   1.211  0.0861  0.0283  0.1025
  113MPD2    H5 1731   4.445   1.075   1.128 -0.9834  2.2902 -1.5844
  113MPD2    N1 1732   4.647   1.282   1.616  0.2300 -0.2616  0.5031
  113MPD2    H7 1733   4.563   1.338   1.625  0.3642  0.2744 -1.5870
  114TCq2    C1 1734   4.318   1.205   1.220  0.0052  0.2167  0.1377
  114TCq2    O2 1735   4.283   1.280   1.309  0.2016 -0.6397  0.3143
  114TCq2    C2 1736   4.222   1.170   1.118  0.1592 -0.2616  0.6740
  114TCq2    C3 1737   4.175   1.271   1.036 -0.3701  0.3902  0.7747
  114TCq2    C4 1738   4.133   1.244   0.908 -0.6627 -1.1441 -0.5431
  114TCq2    C5 1739   4.105   1.116   0.873 -0.0418  0.1520 -0.0135
  114TCq2    C6 1740   4.141   1.012   0.959  0.0958 -0.3500 -0.5639
  114TCq2    C7 1741   4.212   1.040   1.073  0.0778  0.0057  0.3472
  114TCq2    C8 1742   4.088   0.879   0.920  0.3718 -0.5861 -0.2557
  114TCq2    O4 1743   4.061   0.864   0.803  0.4119  0.0335 -0.3661
  114TCq2    C9 1744   4.089   1.349   0.825  0.3058 -0.0114 -0.4717
  114TCq2    O5 1745   4.101   1.464   0.864 -0.0177  0.3685 -0.0474
  114TCq2    O6 1746   4.044   1.321   0.708 -0.1478  0.3840  0.2358
  114TCq2    H2 1747   4.196   1.372   1.071  2.8870  0.0329 -0.0907
  114TCq2    H3 1748   4.055   1.092   0.780 -0.7332 -0.3602  0.4860
  114TCq2    H4 1749   4.242   0.965   1.145 -2.0199 -0.0487  1.1752
  115TMC2    C1 1750   0.708   3.698   0.065  0.0834 -0.0197  0.2123
  115TMC2    C2 1751   0.822   3.659   0.141 -0.5773  0.0195 -0.0605
  115TMC2    C3 1752   0.919   3.745   0.165 -0.2595  0.2742  0.0416
  115TMC2    C4 1753   0.691   3.830   0.027  0.3100  0.0676  0.0796
  115TMC2    C5 1754   0.795   3.916   0.063 -0.0601 -0.1689 -0.3221
  115TMC2    C6 1755   0.898   3.878   0.149  0.2630 -0.0213 -0.1664
  115TMC2     C 1756   0.596   3.605   0.062 -0.0557  0.3330 -0.0020
  115TMC2     O 1757   0.619   3.489   0.092  0.0542  0.1655 -0.3830
  115TMC2     H 1758   0.828   3.554   0.166 -0.4922 -0.8400 -3.6995
  115TMC2    H1 1759   0.612   3.851  17.660  0.5795 -0.0970 -0.2713
  115TMC2    H2 1760   0.975   3.946   0.181 -3.0262  2.7375  1.8945
  115TMC2    C7 1761   0.787   4.057   0.016 -0.1165 -0.4941 -0.0472
  115TMC2    C8 1762   1.048   3.702   0.206  0.4618 -0.1136  0.0290
  115TMC2    O1 1763   0.855   4.142   0.073  0.5463  0.1547  0.0491
  115TMC2    O2 1764   1.148   3.769   0.187  0.0293  0.5969 -0.3326
  115TMC2    O5 1765   1.031   3.617   0.308 -0.3976 -0.1713 -0.3293
  115TMC2    H5 1766   0.942   3.603   0.347 -0.9249  0.5419 -1.2762
  116MPD2     C 1767   0.127   3.512  17.618 -0.2021 -0.0182 -0.0669
  116MPD2    C1 1768   0.213   3.424  17.680 -0.2271  0.1245 -0.0879
  116MPD2    C2 1769   0.332   3.475   0.018  0.6971  0.0992  0.1136
  116MPD2    C3 1770   0.366   3.606  17.692 -0.7951 -0.3864  0.5807
  116MPD2    C4 1771   0.275   3.694  17.633  0.0605  0.3743  0.2358
  116MPD2    C5 1772   0.156   3.639  17.589 -0.3406 -0.2149  0.0168
  116MPD2     H 1773   0.407   3.411   0.064 -0.4503 -0.6309  0.9572
  116MPD2    H1 1774   0.298   3.795  17.602 -1.1925  0.5424 -0.1616
  116MPD2    H2 1775   0.037   3.463  17.582 -1.4408  1.1063  1.4998
  116MPD2    H3 1776   0.086   3.705  17.538  0.3774 -0.5027 -1.3166
  116MPD2     N 1777   0.484   3.665   0.015  0.5523  0.2800 -0.3232
  116MPD2    H5 1778   0.498   3.763  17.700  0.6215 -0.2629 -3.0847
  116MPD2    N1 1779   0.156   3.295   0.010  0.4896  0.1712 -0.4893
  116MPD2    H7 1780   0.059   3.274  17.690  1.1082 -3.4222  0.1278
  117TMC2    C1 1781   4.051   0.293  14.081 -0.1417  0.7280 -0.0101
  117TMC2    C2 1782   4.121   0.222  14.171  0.2092 -0.6506  0.1940
  117TMC2    C3 1783   4.222   0.292  14.234 -0.3894 -1.4396  0.6279
  117TMC2    C4 1784   4.083   0.421  14.044  0.1180  0.2251 -0.9039
  117TMC2    C5 1785   4.194   0.477  14.099 -0.1344 -0.3850  0.4339
  117TMC2    C6 1786   4.264   0.413  14.197  0.0542 -0.3778  0.6442
  117TMC2     C 1787   3.910   0.254  14.077 -0.9634  0.1739  0.2914
  117TMC2     O 1788   3.879   0.135  14.076  0.2269  0.3557  0.3562
  117TMC2     H 1789   4.097   0.117  14.186  0.9384 -1.0215 -1.2037
  117TMC2    H1 1790   4.025   0.473  13.969  1.9801  1.5147 -1.4339
  117TMC2    H2 1791   4.356   0.451  14.239  0.0012  0.6895 -0.1839
  117TMC2    C7 1792   4.218   0.614  14.057 -0.1728 -0.2472 -0.0694
  117TMC2    C8 1793   4.314   0.210  14.317 -0.1443 -0.0050 -0.5940
  117TMC2    O1 1794   4.256   0.686  14.144 -0.3765 -0.0000 -0.5595
  117TMC2    O2 1795   4.313   0.087  14.302 -0.1751  0.1507  0.2208
  117TMC2    O5 1796   4.317   0.269  14.436  0.5188  0.4248  0.0869
  117TMC2    H5 1797   4.294   0.364  14.441 -0.1738  0.1701  1.6713
  118MPD2     C 1798   4.164   0.773  13.727 -0.1048 -0.5852  0.5584
  118MPD2    C1 1799   4.203   0.768  13.856  0.3617 -0.0635  0.3135
  118MPD2    C2 1800   4.253   0.887  13.915  0.3339  0.4091 -0.0586
  118MPD2    C3 1801   4.278   1.002  13.838 -0.0860 -0.3969  0.4357
  118MPD2    C4 1802   4.250   0.998  13.702  0.0176 -0.2763  0.1304
  118MPD2    C5 1803   4.190   0.885  13.651  0.3384 -0.0694 -0.2935
  118MPD2     H 1804   4.261   0.894  14.023 -0.0186  1.8051 -0.1117
  118MPD2    H1 1805   4.255   1.088  13.643 -2.0062  0.7070  1.4812
  118MPD2    H2 1806   4.126   0.682  13.681 -2.0628  0.3136  0.4309
  118MPD2    H3 1807   4.167   0.881  13.545 -0.8279 -2.9887  0.0811
  118MPD2     N 1808   4.328   1.122  13.891 -0.6457  0.2540  0.3959
  118MPD2    H5 1809   4.346   1.202  13.830 -0.5154 -0.0613  0.0177
  118MPD2    N1 1810   4.194   0.643  13.924 -0.5267 -0.3146 -0.3494
  118MPD2    H7 1811   4.156   0.559  13.881 -0.2028  0.5080 -2.2799
  119MPD2     C 1812   2.844   1.919  14.323  0.0577 -0.1367 -0.0797
  119MPD2    C1 1813   2.709   1.957  14.307  1.0523  0.5464  0.0164
  119MPD2    C2 1814   2.663   1.980  14.174 -1.1281  0.0169  1.2624
  119MPD2    C3 1815   2.736   1.938  14.069 -0.5703 -0.0546 -0.4352
  119MPD2    C4 1816   2.865   1.888  14.090  0.1485  0.0444 -0.1199
  119MPD2    C5 1817   2.921   1.891  14.214  0.3211  0.3596  0.3064
  119MPD2     H 1818   2.562   2.020  14.171 -1.4668 -0.7506  2.1921
  119MPD2    H1 1819   2.931   1.858  14.009  1.7116  0.1543  1.1070
  119MPD2    H2 1820   2.887   1.901  14.421  0.8099  7.1935  0.9192
  119MPD2    H3 1821   3.014   1.835  14.221 -0.4586 -0.9841 -0.0111
  119MPD2     N 1822   2.684   1.941  13.939 -0.2711  0.2294 -0.0621
  119MPD2    H5 1823   2.736   1.878  13.879 -1.0844 -1.4904  1.0065
  119MPD2    N1 1824   2.629   1.976  14.419  0.1778 -0.0615 -0.5828
  119MPD2    H7 1825   2.680   1.984  14.507  0.5104 -2.1058 -0.5814
  120TCq2    C1 1826   2.560   1.981  13.895 -0.3928  0.6042 -0.0786
  120TCq2    O2 1827   2.494   2.067  13.947  0.2804  0.1980 -0.1658
  120TCq2    C2 1828   2.504   1.910  13.782  0.7632 -0.8046 -0.4540
  120TCq2    C3 1829   2.570   1.797  13.730  0.0588 -0.5373 -0.7713
  120TCq2    C4 1830   2.497   1.702  13.664  1.4350 -0.6759 -0.3392
  120TCq2    C5 1831   2.358   1.708  13.655  0.3251  0.2169 -0.2081
  120TCq2    C6 1832   2.299   1.823  13.711 -0.6374  0.2133 -0.5810
  120TCq2    C7 1833   2.372   1.925  13.770  0.0057 -0.1332 -0.8697
  120TCq2    C8 1834   2.152   1.825  13.739  0.2124  0.6683  0.4614
  120TCq2    O4 1835   2.100   1.922  13.691 -0.1779 -0.0065  0.4436
  120TCq2    C9 1836   2.568   1.608  13.586 -0.2685 -0.3227  0.3613
  120TCq2    O5 1837   2.697   1.610  13.595  0.7499  0.0429 -1.1312
  120TCq2    O6 1838   2.502   1.518  13.531  0.1455  0.0755 -0.2864
  120TCq2    H2 1839   2.677   1.784  13.743  0.1386  2.7583  1.9571
  120TCq2    H3 1840   2.309   1.629  13.600  0.7357 -0.7636  0.8418
  120TCq2    H4 1841   2.313   2.004  13.814 -2.6239 -2.2722 -0.5750
  121TMC2    C1 1842   4.123   3.358  14.537 -0.2085 -0.0714  0.5168
  121TMC2    C2 1843   4.145   3.237  14.593 -0.4284  0.1975  0.4739
  121TMC2    C3 1844   4.051   3.144  14.557 -0.7678 -0.0405  0.6788
  121TMC2    C4 1845   4.025   3.373  14.440  0.6586 -0.8380 -0.5634
  121TMC2    C5 1846   3.933   3.271  14.405  0.0205 -0.6513  0.1226
  121TMC2    C6 1847   3.959   3.147  14.460  0.1369 -0.6327 -0.2021
  121TMC2     C 1848   4.261   3.417  14.505 -0.3517 -0.2019  0.5371
  121TMC2     O 1849   4.347   3.385  14.587 -0.0387 -0.0901  0.3428
  121TMC2     H 1850   4.230   3.203  14.650  0.0288  2.0829  0.9135
  121TMC2    H1 1851   4.016   3.474  14.402  0.7046 -0.4798  0.3604
  121TMC2    H2 1852   3.888   3.068  14.442  0.0989 -0.7546  0.4576
  121TMC2    C7 1853   3.902   3.289  14.261 -1.0944 -0.9650 -0.7625
  121TMC2    C8 1854   4.083   3.005  14.599  0.2695  0.4101 -0.8433
  121TMC2    O1 1855   3.973   3.368  14.203 -0.3933  0.1837 -0.6630
  121TMC2    O2 1856   4.037   2.909  14.540  0.5610  0.1603  0.5892
  121TMC2    O5 1857   4.141   3.001  14.725 -0.4629  0.4186 -0.0241
  121TMC2    H5 1858   4.150   3.086  14.772  2.0995 -0.4242  0.9797
  122MPD2     C 1859   4.508   3.497  14.378  0.4811  0.2552  0.4771
  122MPD2    C1 1860   4.386   3.520  14.319  0.6542  0.6121 -0.7079
  122MPD2    C2 1861   4.367   3.580  14.200 -0.7607 -0.3828  0.2684
  122MPD2    C3 1862   4.479   3.614  14.126  0.5641  0.0881 -0.0751
  122MPD2    C4 1863   4.601   3.582  14.175  0.6152 -0.8091 -0.1014
  122MPD2    C5 1864   4.611   3.540  14.301 -0.4165 -0.0216  0.6259
  122MPD2     H 1865   4.267   3.601  14.161 -1.3469 -3.6564  0.0106
  122MPD2    H1 1866   4.694   3.584  14.118 -0.4179 -1.4958 -1.8087
  122MPD2    H2 1867   4.538   3.465  14.477 -1.9866 -2.0817  0.4599
  122MPD2    H3 1868   4.713   3.526  14.335 -0.3336  0.8999  0.7670
  122MPD2     N 1869   4.475   3.646  13.989  0.1779 -0.3207 -0.6730
  122MPD2    H5 1870   4.563   3.647  13.940  0.3267 -0.7131 -0.4112
  122MPD2    N1 1871   4.266   3.481  14.385  0.3571 -0.6637  0.1609
  122MPD2    H7 1872   4.180   3.486  14.331  0.4269 -0.8314  0.0330
  123MPD2     C 1873   1.401   1.824   9.903 -0.4864 -0.0045  0.0182
  123MPD2    C1 1874   1.317   1.714   9.903 -0.1557 -0.1272 -0.1089
  123MPD2    C2 1875   1.227   1.717   9.796 -0.2139  0.2879 -0.3477
  123MPD2    C3 1876   1.227   1.817   9.701 -0.4726 -0.3917  0.0496
  123MPD2    C4 1877   1.309   1.924   9.710  0.9174 -0.1363  0.2107
  123MPD2    C5 1878   1.395   1.930   9.815  0.0073 -0.0541 -0.0200
  123MPD2     H 1879   1.158   1.634   9.788 -0.9993  0.9589 -0.5280
  123MPD2    H1 1880   1.312   2.009   9.643  0.5832 -1.0343 -0.9455
  123MPD2    H2 1881   1.468   1.842   9.986  1.6909 -1.1305 -1.4786
  123MPD2    H3 1882   1.462   2.014   9.831 -4.2086  3.1936  0.6242
  123MPD2     N 1883   1.147   1.793   9.583  0.2471 -0.5996  0.2417
  123MPD2    H5 1884   1.123   1.694   9.574 -0.0833 -0.4398 -0.6152
  123MPD2    N1 1885   1.333   1.615  10.003  0.3362  0.1842  0.2262
  123MPD2    H7 1886   1.417   1.610  10.060  2.2840  2.6735 -2.4317
  124TCq2    C1 1887   1.162   1.866   9.467  0.3356 -0.0542 -0.0796
  124TCq2    O2 1888   1.204   1.981   9.453 -0.1807 -0.1934 -0.2142
  124TCq2    C2 1889   1.105   1.795   9.352 -0.3377 -0.2499  0.1230
  124TCq2    C3 1890   1.178   1.803   9.241 -0.4247 -0.2765  0.2103
  124TCq2    C4 1891   1.150   1.706   9.152 -0.2204  0.0249 -0.1194
  124TCq2    C5 1892   1.036   1.624   9.159 -0.4490  0.2788 -0.1033
  124TCq2    C6 1893   0.963   1.620   9.277 -0.4203  0.3452  0.7400
  124TCq2    C7 1894   0.991   1.713   9.370  0.8233  0.4848 -0.4266
  124TCq2    C8 1895   0.858   1.519   9.296 -0.1784 -0.2100  0.2150
  124TCq2    O4 1896   0.863   1.432   9.213  0.3563 -0.5468 -0.7373
  124TCq2    C9 1897   1.236   1.692   9.035  0.9194 -0.2306  0.2979
  124TCq2    O5 1898   1.216   1.591   8.956 -0.1839 -0.2125 -0.3700
  124TCq2    O6 1899   1.336   1.768   9.023  1.2166 -0.0273  0.1456
  124TCq2    H2 1900   1.265   1.867   9.239 -0.9513  0.4727  1.0304
  124TCq2    H3 1901   1.014   1.546   9.087  2.0720 -0.5710  0.0685
  124TCq2    H4 1902   0.938   1.712   9.464 -3.0655 -0.5375 -2.6548
  125TMC2    C1 1903   4.534   3.458   8.638 -0.4095  0.7666 -0.0282
  125TMC2    C2 1904   4.593   3.360   8.565 -0.2003 -0.9108 -0.2304
  125TMC2    C3 1905   4.602   3.243   8.630  0.0490  0.0291  0.5543
  125TMC2    C4 1906   4.491   3.435   8.773  0.1374  0.6183 -0.3053
  125TMC2    C5 1907   4.523   3.313   8.827 -0.1310  1.0887 -0.0118
  125TMC2    C6 1908   4.576   3.211   8.757 -0.0398 -0.2340 -0.3283
  125TMC2     C 1909   4.545   3.594   8.594  0.1028 -0.1472 -0.3435
  125TMC2     O 1910   4.479   3.675   8.661  0.0385  0.1309  0.2598
  125TMC2     H 1911   4.625   3.368   8.461 -1.0709  0.1967 -0.4132
  125TMC2    H1 1912   4.440   3.515   8.824  1.0405  0.0602  1.4689
  125TMC2    H2 1913   4.597   3.112   8.796 -2.7538 -0.8888 -0.5384
  125TMC2    C7 1914   4.516   3.311   8.972 -0.7749 -0.0208  0.4447
  125TMC2    C8 1915   4.695   3.154   8.560 -0.0818 -0.0412  0.2538
  125TMC2    O1 1916   4.494   3.415   9.031 -0.1505  0.2851  0.1637
  125TMC2    O2 1917   0.045   3.193   8.472  0.2545 -0.2707  0.4334
  125TMC2    O5 1918   4.640   3.032   8.571  0.4879 -0.6042  0.0836
  125TMC2    H5 1919   4.555   3.039   8.619 -0.6397 -1.8521 -1.7352
  126MPD1     C 1920   0.025   3.988   8.339  0.2776 -0.2687  0.6735
  126MPD1    C1 1921   0.081   3.872   8.287 -0.3023 -0.2328 -0.7641
  126MPD1    C2 1922   0.032   3.748   8.339  0.3865  0.0883  0.0337
  126MPD1    C3 1923   4.669   3.743   8.445  0.0571 -0.8398 -0.0805
  126MPD1    C4 1924   4.623   3.858   8.502 -0.4820 -0.1640 -0.7359
  126MPD1    C5 1925   4.660   3.976   8.442 -0.0292 -0.4895 -0.3356
  126MPD1     H 1926   0.063   3.653   8.298 -0.2849  0.1889 -0.6876
  126MPD1    H1 1927   4.560   3.867   8.590  2.6986 -1.2890  1.6605
  126MPD1    H2 1928   0.044   4.089   8.304  1.1746 -0.6822 -0.0188
  126MPD1    H3 1929   4.617   4.066   8.484 -1.2605 -0.5369 -1.4982
  126MPD1     N 1930   4.627   3.617   8.487 -0.5862  0.3232  0.2291
  126MPD1    H5 1931   4.666   3.537   8.438 -1.2529 -0.4877  1.0306
  126MPD1    N1 1932   0.165   3.872   8.173 -0.8313 -0.4362 -0.3145
  126MPD1    H6 1933   0.209   3.964   8.173  0.8043 -1.2348  0.4653
  126MPD1    H7 1934   0.225   3.790   8.172  0.3820  0.4449 -0.3184
  127MPD2     C 1935   0.030   1.426   9.744 -0.5652 -0.1935 -0.5938
  127MPD2    C1 1936   4.633   1.455   9.800 -0.0966  0.1926 -0.5603
  127MPD2    C2 1937   4.621   1.549   9.903  0.2123  0.0742 -0.3160
  127MPD2    C3 1938   0.015   1.614   9.953 -0.1752 -0.9255  0.4763
  127MPD2    C4 1939   0.142   1.579   9.894 -0.2286 -0.2041 -1.1679
  127MPD2    C5 1940   0.146   1.500   9.780 -0.3360 -0.3808  0.5083
  127MPD2     H 1941   4.526   1.584   9.944 -0.2613  0.4310 -1.7355
  127MPD2    H1 1942   0.239   1.616   9.926  0.0224 -0.9353 -1.0990
  127MPD2    H2 1943   0.041   1.361   9.658 -1.2421 -0.7427 -0.2604
  127MPD2    H3 1944   0.245   1.491   9.738 -1.2834  1.3284 -2.0881
  127MPD2     N 1945   4.722   1.706  10.059  0.6859  0.0461  0.2429
  127MPD2    H5 1946   4.626   1.738  10.071  0.5846 -0.2310  0.1624
  127MPD2    N1 1947   4.521   1.390   9.745 -0.1108  0.4746  0.6095
  127MPD2    H7 1948   4.542   1.322   9.672  2.1942  1.8219  0.0169
  128TCq2    C1 1949   4.390   1.404   9.772 -0.2573 -0.0408  0.0988
  128TCq2    O2 1950   4.328   1.491   9.833  0.1718  0.2921  0.3837
  128TCq2    C2 1951   4.303   1.307   9.705  0.2955 -0.4325  0.5502
  128TCq2    C3 1952   4.164   1.310   9.729 -0.1945 -0.0292 -0.2475
  128TCq2    C4 1953   4.086   1.210   9.680 -0.7948 -0.1996  0.2461
  128TCq2    C5 1954   4.135   1.105   9.607  0.3867 -0.2762 -0.3864
  128TCq2    C6 1955   4.272   1.106   9.594  0.4718 -0.4196 -0.5520
  128TCq2    C7 1956   4.355   1.197   9.638 -0.0774  0.7569  0.1772
  128TCq2    C8 1957   4.331   0.991   9.530  0.2743  1.2476  0.3029
  128TCq2    O4 1958   4.430   1.018   9.466 -0.1082  0.9161  0.0308
  128TCq2    C9 1959   3.937   1.210   9.709  0.2609 -0.3401  0.1728
  128TCq2    O5 1960   3.887   1.281   9.799  0.4009  0.0123  0.0259
  128TCq2    O6 1961   3.875   1.138   9.629  0.3305 -0.2011  0.0740
  128TCq2    H2 1962   4.122   1.381   9.799  0.1632  1.8389 -1.9394
  128TCq2    H3 1963   4.069   1.028   9.568 -1.1933  0.0155  1.6873
  128TCq2    H4 1964   4.461   1.177   9.630 -0.5126 -0.8708 -1.3881
  129MPD2     C 1965   2.743   2.554   1.803  0.2833  1.0106  0.6072
  129MPD2    C1 1966   2.725   2.672   1.866 -0.1439  0.1216 -0.1702
  129MPD2    C2 1967   2.790   2.781   1.815 -0.4284 -0.3290 -0.3813
  129MPD2    C3 1968   2.856   2.772   1.693 -0.7073  0.6843  0.4693
  129MPD2    C4 1969   2.865   2.658   1.627 -0.3196  0.2486 -0.4107
  129MPD2    C5 1970   2.813   2.549   1.689  0.0952 -0.4499  0.1695
  129MPD2     H 1971   2.779   2.878   1.861  2.7791 -0.3843  0.4985
  129MPD2    H1 1972   2.923   2.645   1.536 -1.1921 -1.0250 -0.7909
  129MPD2    H2 1973   2.708   2.458   1.839 -1.7026  1.4234 -0.2459
  129MPD2    H3 1974   2.813   2.457   1.632  1.4483  0.0028 -0.5594
  129MPD2     N 1975   2.893   2.897   1.635 -0.1034 -0.0638 -0.0592
  129MPD2    H5 1976   2.889   2.982   1.690 -1.3066  1.8309 -3.0591
  129MPD2    N1 1977   2.654   2.688   1.985 -0.4958  0.6270 -0.4453
  129MPD2    H7 1978   2.675   2.776   2.030  2.6966  0.2070 -1.1056
  130TCq2    C1 1979   2.591   2.595   2.053 -0.2523  0.6660 -0.5109
  130TCq2    O2 1980   2.529   2.497   2.015  0.1795  0.1113 -0.0570
  130TCq2    C2 1981   2.557   2.645   2.184 -0.0494  0.1560 -0.9623
  130TCq2    C3 1982   2.661   2.692   2.263  0.6856 -0.0740 -0.0453
  130TCq2    C4 1983   2.643   2.716   2.399  0.6737  0.3370 -0.6398
  130TCq2    C5 1984   2.521   2.688   2.458 -0.5076 -0.1100 -0.0982
  130TCq2    C6 1985   2.418   2.645   2.379  0.8464 -0.6214  0.0301
  130TCq2    C7 1986   2.437   2.613   2.245 -0.3849  0.1142 -0.0245
  130TCq2    C8 1987   2.275   2.664   2.412  0.2653 -0.7456  0.0402
  130TCq2    O4 1988   2.189   2.648   2.327 -0.1219  0.3697  0.5287
  130TCq2    C9 1989   2.757   2.774   2.479 -0.0310  0.2929  0.3470
  130TCq2    O5 1990   2.729   2.793   2.597  0.0589  0.2302  0.2607
  130TCq2    O6 1991   2.871   2.776   2.426  0.8212 -0.1643 -0.3855
  130TCq2    H2 1992   2.763   2.694   2.227  0.6894 -2.6760 -0.1966
  130TCq2    H3 1993   2.510   2.700   2.565 -1.9830 -1.6282 -0.0792
  130TCq2    H4 1994   2.349   2.585   2.187 -1.1417  0.4563  0.9600
  131MPD2     C 1995   2.092   1.483   9.985 -0.0019  0.6276 -0.6823
  131MPD2    C1 1996   1.990   1.535   9.911 -0.1287 -0.0747 -0.0056
  131MPD2    C2 1997   1.868   1.489   9.925 -0.1076  0.2958 -0.1732
  131MPD2    C3 1998   1.845   1.384  10.010  0.7751  0.8131 -0.2456
  131MPD2    C4 1999   1.953   1.317  10.065  0.7010 -0.3154 -0.1908
  131MPD2    C5 2000   2.079   1.364  10.058  0.0555 -0.1058 -0.2245
  131MPD2     H 2001   1.782   1.534   9.877  0.0995  1.8042  0.8664
  131MPD2    H1 2002   1.928   1.239  10.136  0.5729 -0.9869 -0.9758
  131MPD2    H2 2003   2.192   1.524   9.975  0.0786 -0.2090 -3.3033
  131MPD2    H3 2004   2.157   1.324  10.121  0.3839  0.9786  0.0599
  131MPD2     N 2005   1.704   1.352  10.034 -0.4696  0.2209 -0.3948
  131MPD2    H5 2006   1.633   1.398   9.977  0.7143 -0.8839 -2.7586
  131MPD2    N1 2007   1.990   1.659   9.843  0.3545  0.4190  0.0550
  131MPD2    H7 2008   1.901   1.696   9.811  0.4746  0.4058 -0.2966
  132TCq2    C1 2009   2.144   2.225   9.841 -0.2632  0.4295 -0.3806
  132TCq2    O2 2010   2.115   2.323   9.779 -0.3437  0.2651 -0.0781
  132TCq2    C2 2011   2.074   2.106   9.808 -0.5825 -0.0151  0.0312
  132TCq2    C3 2012   1.960   2.127   9.739 -0.2311 -0.8164 -0.3391
  132TCq2    C4 2013   1.901   2.013   9.699  0.3192 -0.4915 -0.3786
  132TCq2    C5 2014   1.954   1.888   9.720  0.4986  0.5871 -0.6617
  132TCq2    C6 2015   2.060   1.877   9.796  0.0201 -0.9550  0.7964
  132TCq2    C7 2016   2.129   1.984   9.839 -0.3021 -0.0309 -0.4222
  132TCq2    C8 2017   2.103   1.748   9.844  0.8578  0.8985 -0.8112
  132TCq2    O4 2018   2.212   1.732   9.893  0.0126 -0.1721 -0.0006
  132TCq2    C9 2019   1.784   2.020   9.620  0.0523 -0.2368 -0.3643
  132TCq2    O5 2020   1.728   1.910   9.601 -0.4336  0.1562  0.3939
  132TCq2    O6 2021   1.760   2.133   9.564  0.5528  0.6476  0.5517
  132TCq2    H2 2022   1.926   2.227   9.714  0.5077 -0.3277  0.5819
  132TCq2    H3 2023   1.905   1.810   9.663  0.1952 -0.6325  1.2722
  132TCq2    H4 2024   2.227   1.974   9.886 -0.7280  2.3832  0.9495
  133MPD2     C 2025   0.931   1.856   8.818 -0.0294 -0.2665 -0.0729
  133MPD2    C1 2026   0.869   1.869   8.934 -0.7097 -0.0351  0.7246
  133MPD2    C2 2027   0.914   1.965   9.020  0.4236 -0.0788  0.1826
  133MPD2    C3 2028   1.025   2.045   8.992  0.1452  0.5410 -0.4850
  133MPD2    C4 2029   1.087   2.027   8.877  0.0995  0.1878 -0.3936
  133MPD2    C5 2030   1.045   1.930   8.789 -0.1137 -0.1702 -0.5118
  133MPD2     H 2031   0.867   1.969   9.118  1.9848 -0.5294  0.9485
  133MPD2    H1 2032   1.176   2.085   8.852 -0.6106  0.7501 -1.6164
  133MPD2    H2 2033   0.903   1.783   8.744  0.8466  0.7115 -1.3569
  133MPD2    H3 2034   1.096   1.931   8.693  1.1776 -0.8230  0.1768
  133MPD2     N 2035   1.081   2.148   9.078 -0.6397 -0.7020 -1.1625
  133MPD2    H5 2036   1.136   2.222   9.035 -3.0764  0.6010 -2.0282
  133MPD2    N1 2037   0.763   1.784   8.953  0.0960 -0.3101 -0.5142
  133MPD2    H7 2038   0.736   1.720   8.880 -0.6185 -1.1219  0.4536
  134TCq2    C1 2039   0.674   1.779   9.054  1.0881  0.6460 -0.2393
  134TCq2    O2 2040   0.661   1.855   9.147  0.0654  0.1366 -0.4670
  134TCq2    C2 2041   0.579   1.673   9.037  0.9468  0.2024  0.6305
  134TCq2    C3 2042   0.616   1.566   8.955 -0.0221 -0.1893 -0.1042
  134TCq2    C4 2043   0.542   1.458   8.961  0.0794  0.0492  0.7007
  134TCq2    C5 2044   0.436   1.445   9.043 -0.1809  0.1090 -0.6522
  134TCq2    C6 2045   0.399   1.553   9.117  1.0796  0.5477  0.1910
  134TCq2    C7 2046   0.466   1.672   9.109 -0.3393 -0.4462  0.7250
  134TCq2    C8 2047   0.279   1.552   9.199 -0.3005 -0.0667  0.6825
  134TCq2    O4 2048   0.259   1.647   9.272 -0.1751 -1.0866 -0.1387
  134TCq2    C9 2049   0.580   1.349   8.873  0.3591  0.4637 -0.1702
  134TCq2    O5 2050   0.698   1.355   8.828 -0.2055 -0.3848 -0.1228
  134TCq2    O6 2051   0.497   1.263   8.840 -0.3370 -0.3109  0.3259
  134TCq2    H2 2052   0.709   1.545   8.905  0.1571 -2.8505  1.3245
  134TCq2    H3 2053   0.396   1.346   9.062  0.9434 -0.3030 -0.4503
  134TCq2    H4 2054   0.442   1.760   9.169 -1.5841 -0.7806  0.7126
  135MPD2     C 2055   4.381   3.336  10.052 -0.3602  0.0416 -0.2765
  135MPD2    C1 2056   4.372   3.440   9.949  0.6467  0.2132  0.6391
  135MPD2    C2 2057   4.478   3.442   9.856 -0.2228 -0.4858  0.6276
  135MPD2    C3 2058   4.575   3.344   9.854 -0.8916 -0.3204 -0.4943
  135MPD2    C4 2059   4.580   3.243   9.950 -0.0306 -0.1770 -0.0677
  135MPD2    C5 2060   4.489   3.248  10.052 -0.8866 -0.5087 -0.6280
  135MPD2     H 2061   4.479   3.518   9.778  1.1756 -2.3945 -1.1959
  135MPD2    H1 2062   4.648   3.158   9.949  0.0083 -0.1307 -1.2971
  135MPD2    H2 2063   4.294   3.316  10.113  0.1207  0.8715  0.6852
  135MPD2    H3 2064   4.487   3.165  10.122  1.4238  0.6500  0.8293
  135MPD2     N 2065   4.681   3.326   9.754  0.0314 -0.4809  0.4488
  135MPD2    H5 2066   0.038   3.281   9.792  1.6054  1.9264 -0.1006
  135MPD2    N1 2067   4.270   3.534   9.927 -0.5294 -0.6847 -0.7931
  135MPD2    H7 2068   4.287   3.590   9.844  2.6670  0.0671  0.3588
  136TCq2    C1 2069   4.161   3.537  10.009 -0.3911  0.1988  0.2347
  136TCq2    O2 2070   4.123   3.463  10.101 -0.0440 -0.2794 -0.3184
  136TCq2    C2 2071   4.075   3.646   9.989 -0.4358  0.6114 -0.3557
  136TCq2    C3 2072   4.124   3.759   9.923  0.3627  0.2818  0.0413
  136TCq2    C4 2073   4.037   3.862   9.914 -0.8706 -0.1782  0.0244
  136TCq2    C5 2074   3.918   3.867   9.977  0.7256  0.0178 -0.4611
  136TCq2    C6 2075   3.881   3.758  10.048  0.1872  0.2848 -0.4491
  136TCq2    C7 2076   3.959   3.650  10.062 -0.2105  0.5424  0.0797
  136TCq2    C8 2077   3.736   3.752  10.096 -0.8802  0.2081  0.0274
  136TCq2    O4 2078   3.650   3.824  10.052  0.1484 -0.0345  0.5188
  136TCq2    C9 2079   4.083   3.992   9.860  0.6191  0.1215 -0.0767
  136TCq2    O5 2080   4.000   4.081   9.842  0.7862  0.5498 -0.0083
  136TCq2    O6 2081   4.202   3.994   9.828 -0.0932 -0.3552 -0.2332
  136TCq2    H2 2082   4.222   3.761   9.877  0.9598  0.8733  1.3381
  136TCq2    H3 2083   3.854   3.954   9.971  2.3108  1.1326 -1.0748
  136TCq2    H4 2084   3.925   3.559  10.111  0.2085  1.1424  1.5032
  137MPD2     C 2085   3.919   1.525  10.024 -0.1991  0.1715 -0.4663
  137MPD2    C1 2086   3.837   1.573  10.121 -0.5872  0.6633 -0.0703
  137MPD2    C2 2087   3.854   1.711  10.148  0.1275  0.1273  0.2484
  137MPD2    C3 2088   3.960   1.784  10.101  0.2219 -1.8670 -0.1773
  137MPD2    C4 2089   4.047   1.730  10.010 -0.0034 -0.1991 -0.1976
  137MPD2    C5 2090   4.016   1.602   9.967  0.0592  0.2005 -0.3144
  137MPD2     H 2091   3.795   1.770  10.216  0.3070  1.5526 -0.8200
  137MPD2    H1 2092   4.138   1.778   9.977 -0.5926  2.5396  2.2129
  137MPD2    H2 2093   3.922   1.422   9.989 -2.0018 -0.9852  2.8150
  137MPD2    H3 2094   4.084   1.561   9.893  0.6447 -0.4830  0.6123
  137MPD2     N 2095   3.984   1.913  10.156 -0.0096 -0.1413  0.3736
  137MPD2    H5 2096   3.921   1.946  10.229 -0.8912 -1.7281  0.3318
  137MPD2    N1 2097   3.733   1.491  10.173 -0.2203  0.2487 -0.5719
  137MPD2    H7 2098   3.730   1.395  10.141 -2.9931  0.5305 -1.1950
  138TCq2    C1 2099   3.629   1.533  10.256 -0.3796 -0.3260  0.4970
  138TCq2    O2 2100   3.587   1.641  10.285  0.4059 -0.1504  0.4804
  138TCq2    C2 2101   3.555   1.419  10.306 -0.2633 -0.3059 -0.0713
  138TCq2    C3 2102   3.628   1.303  10.314 -0.3185  0.5336 -0.2720
  138TCq2    C4 2103   3.574   1.199  10.390 -0.3342  0.3152  0.8923
  138TCq2    C5 2104   3.450   1.216  10.449  0.8698 -1.0050  0.6038
  138TCq2    C6 2105   3.381   1.335  10.440 -0.3297 -0.0011  0.6410
  138TCq2    C7 2106   3.436   1.436  10.363 -0.0874 -0.1257  0.3742
  138TCq2    C8 2107   3.251   1.346  10.499  0.2738  0.2153  0.4851
  138TCq2    O4 2108   3.207   1.240  10.539  0.1315 -0.0133  0.2947
  138TCq2    C9 2109   3.650   1.075  10.402 -0.4122 -0.2877  0.7558
  138TCq2    O5 2110   3.767   1.072  10.359  0.2616  0.0977 -0.2052
  138TCq2    O6 2111   3.609   0.991  10.486  0.1198  0.2983  0.2716
  138TCq2    H2 2112   3.716   1.273  10.259 -1.1609 -1.6819 -0.4200
  138TCq2    H3 2113   3.405   1.126  10.489 -0.2753 -0.6130  0.1750
  138TCq2    H4 2114   3.380   1.528  10.345 -1.8147 -0.8569  1.9551
  139TMC2    C1 2115   4.065   1.536  13.795  0.0377  0.4480 -0.2768
  139TMC2    C2 2116   4.093   1.585  13.665  1.1142  0.2044  0.1828
  139TMC2    C3 2117   4.082   1.720  13.647  0.1645 -0.0691 -0.1605
  139TMC2    C4 2118   4.004   1.617  13.886  1.4705 -0.0720  0.2431
  139TMC2    C5 2119   4.005   1.751  13.863  0.2535 -0.5066 -0.4898
  139TMC2    C6 2120   4.025   1.795  13.738 -0.2925  0.2502  0.2762
  139TMC2     C 2121   4.030   1.400  13.797 -0.3798  0.2375 -0.0184
  139TMC2     O 2122   3.978   1.365  13.688 -0.2095  0.1199  0.0707
  139TMC2     H 2123   4.140   1.514  13.597  1.0598  0.3207  0.0237
  139TMC2    H1 2124   3.994   1.577  13.986  0.1167 -1.7651 -0.5698
  139TMC2    H2 2125   4.004   1.899  13.716  3.9163  1.3319  1.2894
  139TMC2    C7 2126   3.909   1.815  13.946 -0.1982  0.5963  0.5515
  139TMC2    C8 2127   4.107   1.768  13.516 -0.0612 -0.1755 -0.4582
  139TMC2    O1 2128   3.812   1.854  13.882 -0.4053 -0.3339  0.5891
  139TMC2    O2 2129   4.041   1.719  13.430 -0.0660  0.2988  0.1792
  139TMC2    O5 2130   4.148   1.901  13.526 -0.2670 -0.1769 -0.2586
  139TMC2    H5 2131   4.200   1.923  13.606  2.0111  2.6796 -2.5220
  140MPD2     C 2132   3.960   1.187  14.080 -0.4262 -1.1305  0.0970
  140MPD2    C1 2133   3.969   1.216  13.946  0.1413  0.0210 -0.8931
  140MPD2    C2 2134   3.921   1.133  13.846  0.5873 -0.0059 -0.6494
  140MPD2    C3 2135   3.880   1.005  13.881  0.2625 -0.4201  0.2579
  140MPD2    C4 2136   3.879   0.971  14.016  0.0154 -0.7916  0.3366
  140MPD2    C5 2137   3.909   1.064  14.112  0.0661 -0.3575  0.5319
  140MPD2     H 2138   3.926   1.158  13.741 -0.7293  0.9735 -0.4698
  140MPD2    H1 2139   3.847   0.875  14.054  0.3814 -0.8597  0.4657
  140MPD2    H2 2140   4.015   1.244  14.154  0.5927  1.2033 -2.4671
  140MPD2    H3 2141   3.894   1.031  14.214 -2.2257  0.1954  0.3663
  140MPD2     N 2142   3.826   0.923  13.783  0.0208 -0.2147 -0.2984
  140MPD2    H5 2143   3.803   0.961  13.692  0.4313 -0.7264 -0.6205
  140MPD2    N1 2144   4.021   1.346  13.921  0.1737  0.0584 -0.2247
  140MPD2    H7 2145   4.062   1.391  14.002  1.8914  1.3983 -1.8455
  141TCq2    C1 2146   0.163   2.274  14.375  0.1009  0.6081  0.1164
  141TCq2    O2 2147   0.106   2.359  14.306 -0.2327  0.2330 -0.0709
  141TCq2    C2 2148   0.150   2.284  14.515 -0.1056  0.2482  0.2837
  141TCq2    C3 2149   0.215   2.192  14.596  0.2474  0.0542 -0.2781
  141TCq2    C4 2150   0.246   2.227  14.724 -0.1020  0.7122  0.5815
  141TCq2    C5 2151   0.215   2.353  14.762 -0.0670 -0.2862 -0.2865
  141TCq2    C6 2152   0.132   2.435  14.686  0.5223 -0.0416 -0.0983
  141TCq2    C7 2153   0.100   2.407  14.561 -0.3187 -0.9204  1.1119
  141TCq2    C8 2154   0.156   2.572  14.723  0.1685 -0.7091  0.3315
  141TCq2    O4 2155   0.204   2.592  14.834  0.6162 -0.4996 -0.4935
  141TCq2    C9 2156   0.318   2.139  14.810 -0.0156  0.8252 -0.0426
  141TCq2    O5 2157   0.305   2.015  14.798  0.0024  0.2965 -0.1165
  141TCq2    O6 2158   0.393   2.200  14.895  0.4967 -0.6046  0.6361
  141TCq2    H2 2159   0.238   2.095  14.554  1.4701 -0.8712  2.4899
  141TCq2    H3 2160   0.242   2.374  14.865  2.6977 -2.8972 -0.4433
  141TCq2    H4 2161   0.040   2.468  14.494 -0.8496 -1.3764  1.1830
  142MPD2     C 2162   1.256   0.426   9.631  0.2334  0.1256 -0.2667
  142MPD2    C1 2163   1.144   0.406   9.703 -0.4002  0.2213 -0.3865
  142MPD2    C2 2164   1.022   0.459   9.648 -0.6579 -0.0573  0.6225
  142MPD2    C3 2165   1.030   0.547   9.549  0.7135  0.7100  0.2667
  142MPD2    C4 2166   1.142   0.572   9.476  0.5648 -0.0063  0.5390
  142MPD2    C5 2167   1.253   0.511   9.520 -0.3667 -0.1889 -0.6143
  142MPD2     H 2168   0.925   0.450   9.696 -1.1405 -0.1984 -0.3774
  142MPD2    H1 2169   1.147   0.643   9.394  1.4373 -1.3278 -0.5479
  142MPD2    H2 2170   1.352   0.381   9.652  0.8660  1.0609 -1.1883
  142MPD2    H3 2171   1.341   0.511   9.457 -0.2617 -0.8806 -0.4698
  142MPD2     N 2172   0.912   0.605   9.502  0.1847 -0.3349 -0.0606
  142MPD2    H5 2173   0.925   0.677   9.431  2.1662  1.3823  2.0539
  142MPD2    N1 2174   1.150   0.321   9.810  0.7204 -0.2817  0.4382
  142MPD2    H7 2175   1.241   0.281   9.829 -0.3022 -2.7000  0.2594
  143TCq2    C1 2176   0.781   0.585   9.543 -0.0179 -0.1032 -0.3133
  143TCq2    O2 2177   0.731   0.485   9.597  0.5066  0.0064 -0.3434
  143TCq2    C2 2178   0.680   0.678   9.490 -0.7260  0.5126  0.2052
  143TCq2    C3 2179   0.568   0.631   9.431  0.2996 -0.0591 -0.2484
  143TCq2    C4 2180   0.487   0.718   9.365  0.2561  0.3751 -0.2059
  143TCq2    C5 2181   0.523   0.847   9.339 -0.4494  0.0387  0.2238
  143TCq2    C6 2182   0.646   0.889   9.391 -0.3121 -0.6436 -0.1753
  143TCq2    C7 2183   0.723   0.806   9.473  0.2211 -0.0708  0.1464
  143TCq2    C8 2184   0.675   1.030   9.420  0.6327  0.4768  0.7277
  143TCq2    O4 2185   0.787   1.075   9.451 -0.2556  0.3891 -0.4097
  143TCq2    C9 2186   0.374   0.664   9.297 -0.6878  0.1886 -0.8782
  143TCq2    O5 2187   0.330   0.734   9.200  0.1628 -0.1547 -0.2476
  143TCq2    O6 2188   0.344   0.543   9.321 -0.2077  0.0679 -0.2531
  143TCq2    H2 2189   0.542   0.526   9.439  2.2282 -0.5235 -0.0723
  143TCq2    H3 2190   0.472   0.914   9.271  1.4840  0.2458 -1.0124
  143TCq2    H4 2191   0.813   0.842   9.524 -0.2421  1.3788 -0.0463
  144MPD2     C 2192   4.191   0.203   0.965 -0.2385 -0.4163 -0.3410
  144MPD2    C1 2193   4.237   0.093   0.899 -0.1325  0.3411  0.0418
  144MPD2    C2 2194   4.369   0.063   0.902 -0.1234  0.0320 -0.2252
  144MPD2    C3 2195   4.462   0.135   0.972 -0.1924  0.6868 -0.3597
  144MPD2    C4 2196   4.417   0.249   1.035 -0.5255 -0.5871 -0.4484
  144MPD2    C5 2197   4.283   0.283   1.025  0.2108  0.0049 -0.2984
  144MPD2     H 2198   4.403   4.699   0.852 -1.2548  0.5902 -1.9967
  144MPD2    H1 2199   4.486   0.317   1.084 -0.8555 -1.8408  1.7527
  144MPD2    H2 2200   4.086   0.228   0.955 -0.9566 -2.7252  1.2722
  144MPD2    H3 2201   4.247   0.379   1.060 -3.1571 -0.9633 -1.1175
  144MPD2     N 2202   4.605   0.111   0.982 -0.4272 -1.0567  0.2388
  144MPD2    H5 2203   4.656   0.186   1.028 -0.1015 -0.6163 -0.8409
  144MPD2    N1 2204   4.152   0.017   0.816 -0.2683 -0.2514 -0.0324
  144MPD2    H7 2205   4.201   4.685   0.749 -0.6813  0.0188 -0.5629
  145TCq2    C1 2206   4.667   0.003   0.927  0.1209 -0.6073  0.0713
  145TCq2    O2 2207   4.615   4.622   0.904  0.0569 -0.3325  0.9358
  145TCq2    C2 2208   0.087   4.726   0.926 -0.3471 -0.0060 -0.8421
  145TCq2    C3 2209   0.154   4.633   0.857 -0.2994 -0.0866 -0.0348
  145TCq2    C4 2210   0.284   4.612   0.880  0.1240  0.1750  0.2094
  145TCq2    C5 2211   0.354   4.679   0.978  0.0692 -0.8108 -0.5846
  145TCq2    C6 2212   0.289   0.050   1.047  0.0701 -0.2539  0.1000
  145TCq2    C7 2213   0.158   0.077   1.023  0.5287 -0.3553  0.3139
  145TCq2    C8 2214   0.374   0.149   1.123 -0.7724  0.2626 -0.2872
  145TCq2    O4 2215   0.473   0.105   1.169 -0.1487  0.1738 -0.4507
  145TCq2    C9 2216   0.348   4.500   0.818  0.3124  0.4694  0.5786
  145TCq2    O5 2217   0.300   4.456   0.713 -0.2180  0.0454 -0.2408
  145TCq2    O6 2218   0.454   4.464   0.863  0.3594 -0.1652  0.3313
  145TCq2    H2 2219   0.102   4.564   0.792  1.4082 -1.4768  0.0726
  145TCq2    H3 2220   0.457   4.651   0.995  0.7187  2.1797  0.4322
  145TCq2    H4 2221   0.096   0.139   1.087  1.2491 -0.4251  1.0705
  146TMC2    C1 2222   1.455   3.309  12.495  0.9717 -0.3054  0.1280
  146TMC2    C2 2223   1.420   3.334  12.367  0.3812 -0.1071  0.6962
  146TMC2    C3 2224   1.511   3.309  12.268  0.2646  0.4549  0.3709
  146TMC2    C4 2225   1.575   3.251  12.539  0.3277  0.6956 -0.1588
  146TMC2    C5 2226   1.656   3.220  12.438  0.2193  0.4895  0.5640
  146TMC2    C6 2227   1.629   3.245  12.299 -0.0037 -0.0448 -0.0756
  146TMC2     C 2228   1.353   3.332  12.598 -0.1055  0.0604 -0.4160
  146TMC2     O 2229   1.233   3.347  12.570 -0.3204 -0.0942 -0.4340
  146TMC2     H 2230   1.319   3.369  12.349  0.4633 -0.3464 -0.1828
  146TMC2    H1 2231   1.583   3.202  12.635  2.0905 -0.3061 -0.8253
  146TMC2    H2 2232   1.693   3.213  12.218  1.4256  1.3654  0.5057
  146TMC2    C7 2233   1.772   3.137  12.468  0.1125  0.3206 -0.5009
  146TMC2    C8 2234   1.457   3.282  12.134  0.6875 -0.5656  0.3404
  146TMC2    O1 2235   1.820   3.077  12.369 -0.2948 -0.2871  0.3011
  146TMC2    O2 2236   1.451   3.376  12.052  0.4154 -0.1370  0.0067
  146TMC2    O5 2237   1.451   3.149  12.114 -0.7182  0.1027  0.2398
  146TMC2    H5 2238   1.487   3.088  12.182 -1.7485  0.4730  1.1188
  147MPD2     C 2239   2.230   3.168  12.680 -0.0713  0.7672  0.7199
  147MPD2    C1 2240   2.132   3.202  12.776 -0.2203 -0.1064 -0.0252
  147MPD2    C2 2241   1.998   3.204  12.746 -0.2402 -0.3912 -0.3616
  147MPD2    C3 2242   1.959   3.162  12.619 -0.2917  0.2097  0.7995
  147MPD2    C4 2243   2.054   3.131  12.526 -0.1535 -0.0879 -0.0588
  147MPD2    C5 2244   2.194   3.134  12.558 -0.4531 -0.5125 -0.2455
  147MPD2     H 2245   1.920   3.247  12.807  0.4964 -1.2090  1.1656
  147MPD2    H1 2246   2.034   3.094  12.426 -0.0062  0.3534 -0.2548
  147MPD2    H2 2247   2.337   3.155  12.686  0.2120  2.5986 -0.4368
  147MPD2    H3 2248   2.269   3.111  12.483  0.2072  1.0739 -0.0788
  147MPD2     N 2249   1.826   3.160  12.597 -0.2498 -0.4391  0.5760
  147MPD2    H5 2250   1.759   3.210  12.654 -0.6025 -0.0005 -0.2343
  147MPD2    N1 2251   2.182   3.227  12.904 -0.1626  0.3969  0.2348
  147MPD2    H7 2252   2.282   3.232  12.918  0.2644  0.3571 -2.6558
  148MPD2     C 2253   1.701   2.690  10.436  0.3120  0.7394  0.2568
  148MPD2    C1 2254   1.742   2.578  10.495  0.0005  0.2349 -0.4160
  148MPD2    C2 2255   1.705   2.451  10.444  0.2726 -0.5129 -0.4472
  148MPD2    C3 2256   1.612   2.435  10.346 -0.1825 -0.0166 -0.0748
  148MPD2    C4 2257   1.566   2.550  10.289 -0.2534 -0.2488  0.7447
  148MPD2    C5 2258   1.615   2.672  10.327  0.1019  0.0168 -0.3847
  148MPD2     H 2259   1.747   2.367  10.497 -0.4229  0.2319  1.2945
  148MPD2    H1 2260   1.487   2.548  10.214  0.8097  2.3626 -0.4276
  148MPD2    H2 2261   1.723   2.793  10.461  1.7673  0.2720  0.9178
  148MPD2    H3 2262   1.572   2.761  10.284 -0.2102  0.8888  1.7336
  148MPD2     N 2263   1.567   2.314  10.295 -0.0885 -0.0391  0.1587
  148MPD2    H5 2264   1.490   2.319  10.229  1.8494 -1.1463 -2.1680
  148MPD2    N1 2265   1.833   2.575  10.608  0.0286  0.0135  0.3377
  148MPD2    H7 2266   1.880   2.487  10.629 -1.2758 -1.0814 -1.2755
  149TCq2    C1 2267   1.847   2.679  10.698  0.2764  0.3648 -0.6320
  149TCq2    O2 2268   1.794   2.788  10.695  0.8149 -0.2973  0.7546
  149TCq2    C2 2269   1.941   2.643  10.799 -0.3971  0.0494  0.4756
  149TCq2    C3 2270   2.024   2.733  10.841  0.6412 -0.0716  0.5958
  149TCq2    C4 2271   2.073   2.732  10.969  0.2324  0.1775  0.1986
  149TCq2    C5 2272   2.044   2.622  11.053 -0.4324 -0.6064  0.5944
  149TCq2    C6 2273   1.960   2.528  11.002 -0.1147  0.7212 -0.3796
  149TCq2    C7 2274   1.912   2.534  10.873  0.1931  0.4289 -0.3994
  149TCq2    C8 2275   1.950   2.401  11.071  0.1664  0.3229 -0.5601
  149TCq2    O4 2276   1.932   2.302  10.999 -0.0217 -0.1069  0.3812
  149TCq2    C9 2277   2.190   2.810  10.996  0.1480 -0.4090  0.1331
  149TCq2    O5 2278   2.247   2.787  11.102 -0.1219  0.3993 -0.3558
  149TCq2    O6 2279   2.253   2.862  10.900 -0.0813  0.2339 -0.6434
  149TCq2    H2 2280   2.053   2.808  10.768 -1.4453 -0.1344 -0.2919
  149TCq2    H3 2281   2.102   2.592  11.140 -0.4928 -1.0154  0.4922
  149TCq2    H4 2282   1.835   2.467  10.838  0.4353  1.0067 -2.0471
  150MPD2     C 2283   3.097   1.682  12.355 -0.4480 -0.3589  0.1283
  150MPD2    C1 2284   3.174   1.646  12.251  0.1837  0.0824  0.3392
  150MPD2    C2 2285   3.314   1.654  12.261  0.5900  0.7519 -0.0901
  150MPD2    C3 2286   3.376   1.695  12.377 -0.3439  0.7613  0.0241
  150MPD2    C4 2287   3.296   1.733  12.484  0.1735  0.1827 -0.4043
  150MPD2    C5 2288   3.160   1.731  12.470 -1.0060 -1.0637 -0.0788
  150MPD2     H 2289   3.379   1.630  12.178  0.4377 -0.5195  0.1609
  150MPD2    H1 2290   3.336   1.777  12.575  0.4147 -0.4922 -0.1829
  150MPD2    H2 2291   2.990   1.672  12.344 -0.2975  0.1821 -1.7391
  150MPD2    H3 2292   3.100   1.770  12.552  1.2620 -0.1373  1.1425
  150MPD2     N 2293   3.514   1.713  12.382  0.0528 -0.3475 -0.1402
  150MPD2    H5 2294   3.568   1.682  12.302  0.7087 -1.5397  0.7624
  150MPD2    N1 2295   3.099   1.606  12.137 -0.3622 -0.6559 -0.3369
  150MPD2    H7 2296   3.001   1.583  12.150  0.4431 -2.8878  1.7212
  151TCq2    C1 2297   3.588   1.771  12.486  0.5094 -0.6689  0.3523
  151TCq2    O2 2298   3.561   1.819  12.595  0.8738 -0.2480 -0.3306
  151TCq2    C2 2299   3.728   1.785  12.447 -0.1003  0.2750  0.0767
  151TCq2    C3 2300   3.783   1.714  12.349 -0.5987  0.0649 -0.0934
  151TCq2    C4 2301   3.914   1.680  12.347  0.3243 -0.5627 -0.9564
  151TCq2    C5 2302   4.003   1.726  12.440  0.0255 -0.2367 -0.4431
  151TCq2    C6 2303   3.950   1.803  12.533 -0.9875  0.3806 -0.4078
  151TCq2    C7 2304   3.814   1.827  12.546  0.1441  0.3526 -0.4948
  151TCq2    C8 2305   4.035   1.871  12.623  0.1026 -0.7076 -0.0550
  151TCq2    O4 2306   4.000   1.983  12.654 -0.3812  0.2827  0.5807
  151TCq2    C9 2307   3.961   1.609  12.231 -0.4935  0.2219 -0.0699
  151TCq2    O5 2308   4.080   1.623  12.205 -0.0326  0.7914  0.2105
  151TCq2    O6 2309   3.883   1.541  12.156 -0.0754 -0.0159  0.3437
  151TCq2    H2 2310   3.726   1.667  12.269 -1.5481  0.8426  0.1141
  151TCq2    H3 2311   4.109   1.705  12.428 -0.0721 -0.7823 -0.3718
  151TCq2    H4 2312   3.786   1.882  12.636  0.3011  0.6342 -0.6199
  152MPD2     C 2313   3.317   1.250  12.228 -0.5507 -0.4183 -0.1270
  152MPD2    C1 2314   3.294   1.287  12.360  0.8899  0.2845 -0.0129
  152MPD2    C2 2315   3.162   1.310  12.398  1.1551  0.1079 -0.4434
  152MPD2    C3 2316   3.062   1.288  12.300 -0.5270 -0.1558 -0.1543
  152MPD2    C4 2317   3.087   1.256  12.169 -0.0798  0.0051  0.4805
  152MPD2    C5 2318   3.217   1.238  12.135 -0.0763 -0.2975 -0.1468
  152MPD2     H 2319   3.146   1.360  12.493  0.4336  0.9174 -0.9916
  152MPD2    H1 2320   3.007   1.248  12.096 -0.6263  0.2100  1.0585
  152MPD2    H2 2321   3.418   1.254  12.189  0.3703  0.0890  2.2912
  152MPD2    H3 2322   3.229   1.221  12.029 -2.5912 -2.6624 -0.0694
  152MPD2     N 2323   2.920   1.317  12.338  0.4063 -0.6049 -0.8926
  152MPD2    H5 2324   2.853   1.330  12.263 -0.3428 -2.7554 -0.5967
  152MPD2    N1 2325   3.408   1.316  12.440  0.3658  0.1596 -0.2334
  152MPD2    H7 2326   3.493   1.297  12.388  0.4840  1.3017 -0.4360
  153TCq2    C1 2327   3.417   1.360  12.571 -0.3546  0.1634  0.6338
  153TCq2    O2 2328   3.326   1.380  12.654 -0.0405 -0.3030 -0.2637
  153TCq2    C2 2329   3.552   1.376  12.625  0.6426 -0.3455 -0.3408
  153TCq2    C3 2330   3.651   1.300  12.576 -0.3848 -0.3118  0.5201
  153TCq2    C4 2331   3.782   1.325  12.621 -0.7786 -0.3093 -0.1004
  153TCq2    C5 2332   3.800   1.401  12.732  0.3526 -0.2803  0.7588
  153TCq2    C6 2333   3.690   1.457  12.788 -0.6496  1.0307 -0.0715
  153TCq2    C7 2334   3.561   1.447  12.740 -0.1918 -0.3001 -0.4163
  153TCq2    C8 2335   3.702   1.577  12.870  0.2232 -0.1319 -0.1772
  153TCq2    O4 2336   3.601   1.635  12.904  0.5219 -0.5908  0.7376
  153TCq2    C9 2337   3.896   1.259  12.559 -0.1676 -0.3998 -0.4786
  153TCq2    O5 2338   3.876   1.189  12.455  0.4961  0.4706  0.2314
  153TCq2    O6 2339   3.992   1.244  12.646  0.1105 -0.1740  0.0510
  153TCq2    H2 2340   3.642   1.233  12.491 -0.5951 -0.5253  0.7106
  153TCq2    H3 2341   3.903   1.410  12.761 -0.0466  1.0846  1.7216
  153TCq2    H4 2342   3.477   1.494  12.791  0.4750  0.5219 -0.0689
  154MPD2     C 2343   0.272   2.038   0.909  0.2408  0.3242  0.3995
  154MPD2    C1 2344   0.144   1.992   0.906 -0.1077  0.0150  0.4698
  154MPD2    C2 2345   0.060   2.032   1.001  0.3563  0.4657  0.4391
  154MPD2    C3 2346   0.096   2.122   1.099 -0.6875 -0.8703  0.7361
  154MPD2    C4 2347   0.217   2.180   1.090 -0.0943 -0.1314  0.4308
  154MPD2    C5 2348   0.306   2.140   0.990  0.3232 -0.0249  0.0728
  154MPD2     H 2349   4.686   1.990   1.007 -0.0383  0.8803 -2.9195
  154MPD2    H1 2350   0.257   2.251   1.162  1.8366 -1.0422  0.2721
  154MPD2    H2 2351   0.346   2.009   0.835  0.8189  0.5316  0.8955
  154MPD2    H3 2352   0.405   2.182   0.982  1.5032 -3.0822 -1.1977
  154MPD2     N 2353   0.009   2.144   1.207 -0.2797 -0.0562 -0.5798
  154MPD2    H5 2354   4.659   2.078   1.218 -0.3832  0.0927 -0.3867
  154MPD2    N1 2355   0.124   1.876   0.822 -0.6073  0.3005  0.2041
  154MPD2    H7 2356   0.196   1.868   0.751  0.3351 -0.3500  1.2202
  155TCq2    C1 2357   0.013   1.795   0.833  0.1762 -0.2743 -0.2329
  155TCq2    O2 2358   4.639   1.806   0.901  0.2448  0.3312  0.8163
  155TCq2    C2 2359   0.038   1.677   0.749  0.1413  0.1902  0.5364
  155TCq2    C3 2360   4.651   1.610   0.731 -0.6812 -0.1188 -0.6102
  155TCq2    C4 2361   4.651   1.492   0.663  0.1302 -0.5602 -1.1007
  155TCq2    C5 2362   0.037   1.430   0.610 -0.0632  0.0851 -0.0723
  155TCq2    C6 2363   0.156   1.498   0.637 -0.6781 -0.0280 -0.1807
  155TCq2    C7 2364   0.158   1.622   0.709  0.6893 -0.3544  0.6434
  155TCq2    C8 2365   0.274   1.447   0.578  0.5859  0.4021 -0.3982
  155TCq2    O4 2366   0.291   1.326   0.554 -0.4295  0.4143 -0.3955
  155TCq2    C9 2367   4.526   1.431   0.639 -0.7533 -0.7106  0.4430
  155TCq2    O5 2368   4.529   1.324   0.573  0.3747 -0.3642 -0.1741
  155TCq2    O6 2369   4.427   1.502   0.646  0.1319  0.1546 -0.5390
  155TCq2    H2 2370   4.551   1.648   0.750  0.1395  0.6766  2.0804
  155TCq2    H3 2371   0.046   1.345   0.543  2.4629  0.8455 -0.7086
  155TCq2    H4 2372   0.250   1.673   0.735 -0.6683  2.5267 -0.2038
  156MPD2     C 2373   4.020   3.793  12.673 -0.3081  0.4304  0.0389
  156MPD2    C1 2374   3.988   3.869  12.562 -0.3396  0.0732 -0.6308
  156MPD2    C2 2375   3.969   4.002  12.568  0.7902 -0.3353  0.0232
  156MPD2    C3 2376   3.988   4.069  12.685  0.2111  0.6773  0.3397
  156MPD2    C4 2377   4.030   4.001  12.795  0.4779  0.4679 -0.3015
  156MPD2    C5 2378   4.040   3.859  12.794 -0.3366  0.6846  0.4214
  156MPD2     H 2379   3.950   4.064  12.481 -0.3617 -0.6443  0.0520
  156MPD2    H1 2380   4.066   4.044  12.887  3.1961 -1.1365 -0.6124
  156MPD2    H2 2381   4.033   3.685  12.675 -1.4275  0.3287  1.5190
  156MPD2    H3 2382   4.069   3.803  12.883  0.2631 -1.2937 -1.0099
  156MPD2     N 2383   3.970   4.208  12.688 -0.5126 -0.2035 -0.2318
  156MPD2    H5 2384   3.938   4.247  12.600  1.1500 -0.1203 -0.7913
  156MPD2    N1 2385   3.974   3.792  12.445 -0.9946  0.0255 -0.4985
  156MPD2    H7 2386   4.015   3.699  12.444 -0.8786  0.0621  2.0355
  157TCq2    C1 2387   3.911   3.832  12.334  0.7732  0.0658 -0.4883
  157TCq2    O2 2388   3.847   3.934  12.315 -0.3398  0.3071  0.0741
  157TCq2    C2 2389   3.915   3.732  12.233  1.1024 -0.3618 -0.2732
  157TCq2    C3 2390   3.891   3.605  12.261  0.0912 -0.1443 -0.2334
  157TCq2    C4 2391   3.840   3.521  12.169  0.2164 -0.3356  0.5142
  157TCq2    C5 2392   3.806   3.564  12.045 -0.0233  0.2484 -0.7166
  157TCq2    C6 2393   3.832   3.696  12.012  0.5414  0.1186 -0.0555
  157TCq2    C7 2394   3.888   3.782  12.105  0.0961 -0.2981 -0.2037
  157TCq2    C8 2395   3.824   3.741  11.880 -0.2777  0.1014 -0.1791
  157TCq2    O4 2396   3.912   3.822  11.843 -0.3926 -0.5202 -0.1661
  157TCq2    C9 2397   3.807   3.384  12.199  0.0254 -0.2628  0.6230
  157TCq2    O5 2398   3.758   3.315  12.105  0.1837  0.2745 -0.4704
  157TCq2    O6 2399   3.866   3.334  12.298  0.1231 -0.3896 -0.1139
  157TCq2    H2 2400   3.892   3.568  12.363  0.5768 -2.8685 -1.2136
  157TCq2    H3 2401   3.785   3.493  11.966 -0.9243  0.9813 -1.1502
  157TCq2    H4 2402   3.915   3.885  12.085 -0.4714 -0.4342 -1.6494
  158TMC2    C1 2403   3.769   2.934  13.598  0.1276 -0.4593  0.4070
  158TMC2    C2 2404   3.770   3.045  13.521 -0.2139  0.0091  0.0609
  158TMC2    C3 2405   3.655   3.093  13.462  0.5259 -0.1639 -0.2061
  158TMC2    C4 2406   3.648   2.870  13.623  0.1748 -0.5910  0.0532
  158TMC2    C5 2407   3.536   2.926  13.568  0.3584 -0.1274 -0.0748
  158TMC2    C6 2408   3.535   3.029  13.479 -0.4500  0.5465  0.5013
  158TMC2     C 2409   3.886   2.931  13.684 -0.5995  0.1990 -0.1326
  158TMC2     O 2410   3.981   2.992  13.643  0.0100  0.1374 -0.4756
  158TMC2     H 2411   3.858   3.103  13.496 -0.7213  0.5496 -0.4945
  158TMC2    H1 2412   3.652   2.778  13.680  2.1217 -0.9105 -0.5888
  158TMC2    H2 2413   3.448   3.068  13.428 -0.8327 -0.8205  0.1084
  158TMC2    C7 2414   3.419   2.839  13.566 -0.5930 -0.9425  0.0519
  158TMC2    C8 2415   3.658   3.226  13.408  0.2256 -0.0681  0.0698
  158TMC2    O1 2416   3.340   2.862  13.479 -0.1705  0.0730 -0.3009
  158TMC2    O2 2417   3.753   3.275  13.347  0.2327 -1.1304  0.3967
  158TMC2    O5 2418   3.545   3.285  13.447 -0.3765 -0.0325 -0.2608
  158TMC2    H5 2419   3.498   3.249  13.525 -0.1125  1.3393  0.5172
  159MPD2     C 2420   4.089   2.909  14.158 -0.2651 -0.2409  0.8789
  159MPD2    C1 2421   3.959   2.869  14.177  0.0204 -0.1374 -0.2008
  159MPD2    C2 2422   3.882   2.877  14.058  0.4623 -0.0554  0.0451
  159MPD2    C3 2423   3.939   2.897  13.932 -0.9698 -0.4613 -0.1886
  159MPD2    C4 2424   4.072   2.915  13.919 -0.5708 -0.0423 -0.1614
  159MPD2    C5 2425   4.147   2.925  14.034  0.0425 -0.1066 -0.4902
  159MPD2     H 2426   3.773   2.871  14.056  0.3695  0.4623  3.3963
  159MPD2    H1 2427   4.121   2.933  13.824 -1.6107  1.9524 -0.3246
  159MPD2    H2 2428   4.142   2.926  14.251  2.5035 -0.0672 -0.7065
  159MPD2    H3 2429   4.253   2.948  14.038 -0.5173  2.3738 -0.2318
  159MPD2     N 2430   3.855   2.885  13.815  0.6991 -0.4620  0.8060
  159MPD2    H5 2431   3.758   2.862  13.834  1.0646 -1.5118  1.3642
  159MPD2    N1 2432   3.906   2.836  14.303 -0.0058 -0.4539 -0.0374
  159MPD2    H7 2433   3.964   2.833  14.386  1.1820 -1.8126 -0.9048
  160TMC2    C1 2434   3.431   0.420   1.487 -0.6613  0.3672  0.2905
  160TMC2    C2 2435   3.528   0.384   1.572  0.3091  0.1066 -0.2788
  160TMC2    C3 2436   3.652   0.410   1.527  0.6354  0.1043 -0.5305
  160TMC2    C4 2437   3.449   0.459   1.358 -0.1911 -0.1526 -0.8614
  160TMC2    C5 2438   3.577   0.471   1.313 -1.4456  0.3644 -0.0586
  160TMC2    C6 2439   3.684   0.451   1.399  0.3146 -0.2203 -0.5935
  160TMC2     C 2440   3.314   0.485   1.546 -0.1193  0.0559  0.0966
  160TMC2     O 2441   3.265   0.446   1.650  0.0917  0.0360 -0.0524
  160TMC2     H 2442   3.508   0.397   1.678  2.9623 -1.5125  0.4124
  160TMC2    H1 2443   3.370   0.490   1.290 -2.6426 -1.0024  1.5506
  160TMC2    H2 2444   3.787   0.466   1.368  0.9600  1.3764  2.3343
  160TMC2    C7 2445   3.593   0.548   1.190  0.4657  0.5830  0.3528
  160TMC2    C8 2446   3.764   0.379   1.622 -0.3812 -0.7019  0.0305
  160TMC2    O1 2447   3.544   0.502   1.088  0.2674 -0.5462 -0.0644
  160TMC2    O2 2448   3.876   0.431   1.614  0.2339 -0.2311  0.0106
  160TMC2    O5 2449   3.755   0.248   1.645  0.6572  0.6928 -0.3898
  160TMC2    H5 2450   3.667   0.218   1.676  1.3359 -1.5878 -0.6801
  161MPD2     C 2451   3.059   0.649   1.590  0.0858  0.8760 -0.6604
  161MPD2    C1 2452   3.162   0.681   1.503 -0.3020  0.5992  0.3050
  161MPD2    C2 2453   3.145   0.801   1.431 -0.3368 -0.2521 -0.1181
  161MPD2    C3 2454   3.033   0.880   1.427 -0.2786 -0.4995  0.2424
  161MPD2    C4 2455   2.928   0.831   1.497  0.2237 -1.1745  1.1230
  161MPD2    C5 2456   2.945   0.722   1.583  0.0873 -0.6189 -0.2980
  161MPD2     H 2457   3.228   0.822   1.365 -0.4845  0.6016 -0.0293
  161MPD2    H1 2458   2.829   0.874   1.503  1.0220  0.9217 -0.4866
  161MPD2    H2 2459   3.053   0.558   1.648 -0.7789  0.7258 -0.9822
  161MPD2    H3 2460   2.859   0.702   1.646 -0.0812  0.7187 -0.0979
  161MPD2     N 2461   3.005   0.998   1.344  0.1591 -0.5187  0.2962
  161MPD2    H5 2462   2.916   1.047   1.352 -0.7361 -2.4330  2.2237
  161MPD2    N1 2463   3.282   0.607   1.487 -0.2177 -0.3445 -0.0485
  161MPD2    H7 2464   3.353   0.646   1.426 -0.0726  2.5074  1.9398
  162TMC2    C1 2465   1.696   3.328   1.519 -0.3639  0.3809 -0.0876
  162TMC2    C2 2466   1.747   3.455   1.510 -0.1529 -0.7272  0.5514
  162TMC2    C3 2467   1.697   3.556   1.586 -0.0894 -0.0654 -0.2980
  162TMC2    C4 2468   1.618   3.292   1.622  0.0795 -0.1035 -0.2262
  162TMC2    C5 2469   1.593   3.392   1.716 -0.2734  0.6283  0.0457
  162TMC2    C6 2470   1.615   3.523   1.693 -0.2436  0.0930  0.1856
  162TMC2     C 2471   1.754   3.221   1.438  0.0337  0.3333 -0.2110
  162TMC2     O 2472   1.734   3.108   1.482  0.0460 -0.0778 -0.2937
  162TMC2     H 2473   1.828   3.471   1.440  0.4608 -0.9230  1.2176
  162TMC2    H1 2474   1.597   3.189   1.646 -0.7011 -0.0119 -0.5329
  162TMC2    H2 2475   1.590   3.601   1.764 -0.2138  1.2055 -1.0239
  162TMC2    C7 2476   1.473   3.364   1.794 -0.6786  0.4361  0.5929
  162TMC2    C8 2477   1.766   3.683   1.589 -0.4516 -0.0503  0.2371
  162TMC2    O1 2478   1.382   3.445   1.800 -0.2355 -0.0336  0.4659
  162TMC2    O2 2479   1.876   3.694   1.540  0.3108 -0.2868 -0.3608
  162TMC2    O5 2480   1.672   3.775   1.583  0.4015  0.5168 -0.0779
  162TMC2    H5 2481   1.581   3.739   1.576  0.9218 -0.4855 -1.5676
  163MPD2     C 2482   1.812   3.030   0.976  0.3835 -1.3823  0.3204
  163MPD2    C1 2483   1.761   2.971   1.086 -0.3205  0.2095 -0.0028
  163MPD2    C2 2484   1.753   3.041   1.204  0.4516  0.3360 -0.8719
  163MPD2    C3 2485   1.784   3.177   1.200 -1.0150  0.6513 -0.6568
  163MPD2    C4 2486   1.831   3.235   1.082 -0.5967  0.1393  0.4604
  163MPD2    C5 2487   1.850   3.164   0.976 -0.4802 -0.2873 -0.5138
  163MPD2     H 2488   1.704   2.993   1.287  2.9679 -0.3312  0.2089
  163MPD2    H1 2489   1.849   3.341   1.076 -0.3533  0.2041  2.4580
  163MPD2    H2 2490   1.823   2.967   0.888 -1.5968 -0.5531 -0.5347
  163MPD2    H3 2491   1.887   3.207   0.884 -0.8222 -2.2894 -1.5897
  163MPD2     N 2492   1.764   3.262   1.304  0.0175 -0.6645  0.5216
  163MPD2    H5 2493   1.773   3.362   1.290 -0.7359 -0.6155  0.4015
  163MPD2    N1 2494   1.733   2.839   1.075  0.1038  0.0724  0.1711
  163MPD2    H7 2495   1.739   2.798   0.983 -2.7646 -1.2369  0.5525
  164TCq2    C1 2496   2.302   2.131  11.670  0.0573  0.5777 -0.3488
  164TCq2    O2 2497   2.293   2.085  11.781  0.3276  0.0723  0.0098
  164TCq2    C2 2498   2.283   2.270  11.651  0.1575 -0.6650 -0.2779
  164TCq2    C3 2499   2.348   2.345  11.553 -0.6649  0.8582 -0.2081
  164TCq2    C4 2500   2.317   2.477  11.548  0.0176 -0.0797 -0.4457
  164TCq2    C5 2501   2.226   2.526  11.638  0.0705  0.2530  0.7337
  164TCq2    C6 2502   2.164   2.452  11.731 -0.7009 -0.0334  0.6866
  164TCq2    C7 2503   2.189   2.316  11.724 -0.2893  0.8179 -0.1768
  164TCq2    C8 2504   2.025   2.493  11.737 -0.3418  0.0598  0.2980
  164TCq2    O4 2505   1.996   2.596  11.682  0.1390 -0.4418 -0.4360
  164TCq2    C9 2506   2.360   2.554  11.432  0.3864 -0.3944  0.2253
  164TCq2    O5 2507   2.291   2.652  11.409 -0.0911  0.8500 -0.0910
  164TCq2    O6 2508   2.403   2.485  11.334  0.0897  0.5913 -0.0253
  164TCq2    H2 2509   2.422   2.313  11.480 -1.3634 -2.6150  0.6055
  164TCq2    H3 2510   2.211   2.634  11.637 -2.8999 -0.1742  0.3442
  164TCq2    H4 2511   2.147   2.244  11.793  1.2168  1.3295  1.2499
  165MPD2     C 2512   3.342   3.770   2.697 -0.8569  0.0897 -0.1252
  165MPD2    C1 2513   3.340   3.778   2.561  0.2794 -0.4707  0.1635
  165MPD2    C2 2514   3.437   3.835   2.487 -0.0886  0.4827 -0.2988
  165MPD2    C3 2515   3.533   3.916   2.549  0.4039 -0.2768 -0.4046
  165MPD2    C4 2516   3.533   3.925   2.683  0.1744  0.4657 -0.0920
  165MPD2    C5 2517   3.447   3.845   2.752 -0.6294  0.0921 -0.8892
  165MPD2     H 2518   3.430   3.838   2.379 -1.7246  0.8351 -0.1743
  165MPD2    H1 2519   3.616   3.977   2.730  0.4576 -1.6026  1.6607
  165MPD2    H2 2520   3.273   3.707   2.752 -0.6665  0.7077  0.8165
  165MPD2    H3 2521   3.460   3.845   2.860  0.4954 -0.7088 -1.0121
  165MPD2     N 2522   3.626   3.997   2.479  1.1931  0.1247  0.7245
  165MPD2    H5 2523   3.697   4.043   2.536  0.7576 -0.5905  1.8484
  165MPD2    N1 2524   3.225   3.709   2.517 -0.1432 -0.8076 -0.3216
  165MPD2    H7 2525   3.162   3.674   2.588 -0.9263  2.0744  0.3796
  166TCq2    C1 2526   3.639   4.012   2.342 -0.4476  0.5036  0.6289
  166TCq2    O2 2527   3.566   3.967   2.257 -0.3409 -0.3582  0.1320
  166TCq2    C2 2528   3.769   4.072   2.309  0.0444 -0.7680 -0.2582
  166TCq2    C3 2529   3.874   4.052   2.397 -0.2827 -0.8257 -0.8669
  166TCq2    C4 2530   4.000   4.093   2.366 -0.1379  0.8639 -0.7271
  166TCq2    C5 2531   4.011   4.169   2.250  0.4296  0.4148  0.4820
  166TCq2    C6 2532   3.910   4.179   2.158 -0.6980  0.5419 -0.3524
  166TCq2    C7 2533   3.789   4.130   2.190  0.3580  0.4751  0.2884
  166TCq2    C8 2534   3.923   4.264   2.050  0.3150 -0.0218 -0.0412
  166TCq2    O4 2535   4.035   4.307   2.024  0.0932  0.6229 -0.2553
  166TCq2    C9 2536   4.120   4.036   2.434 -0.1089  0.2295  0.9343
  166TCq2    O5 2537   4.080   3.943   2.516  0.3095 -0.5546 -0.1241
  166TCq2    O6 2538   4.232   4.085   2.398  0.5673 -0.1054 -0.0607
  166TCq2    H2 2539   3.864   3.996   2.489 -0.8805  0.4747 -0.1357
  166TCq2    H3 2540   4.110   4.201   2.221  0.3080  0.6978  0.3765
  166TCq2    H4 2541   3.705   4.124   2.121  1.3936 -0.1449 -0.9223
  167TMC2    C1 2542   1.362   2.098  13.310 -0.3374  0.4334 -1.0165
  167TMC2    C2 2543   1.254   2.107  13.395 -0.4275  0.2689  0.5408
  167TMC2    C3 2544   1.193   1.990  13.433  0.3017  0.4485  0.7451
  167TMC2    C4 2545   1.406   1.980  13.259 -0.3217 -0.6370  0.1896
  167TMC2    C5 2546   1.337   1.866  13.294 -0.0316 -0.3867 -0.0808
  167TMC2    C6 2547   1.229   1.873  13.382 -0.2749 -0.2237  0.4168
  167TMC2     C 2548   1.419   2.222  13.264 -0.2678 -0.1863 -0.1345
  167TMC2     O 2549   1.378   2.321  13.323 -0.7485 -0.2162  0.1653
  167TMC2     H 2550   1.220   2.204  13.430 -3.4277 -0.7565  0.4379
  167TMC2    H1 2551   1.476   1.990  13.177  0.2260  0.5763  0.7986
  167TMC2    H2 2552   1.170   1.786  13.409  0.5913 -1.5378 -1.8395
  167TMC2    C7 2553   1.348   1.735  13.219 -0.6169 -0.0212  0.0003
  167TMC2    C8 2554   1.054   2.001  13.481  0.2937 -0.6237 -0.2837
  167TMC2    O1 2555   1.268   1.650  13.246 -0.1434 -0.3075  0.2391
  167TMC2    O2 2556   1.028   2.112  13.523  0.1379  0.5208  0.0476
  167TMC2    O5 2557   0.961   1.946  13.390  0.3414 -0.0151  0.3015
  167TMC2    H5 2558   0.974   1.856  13.352 -1.7884  0.2354 -1.0197
  168MPD2     C 2559   1.552   2.455  13.137 -0.2729 -0.2645 -0.1044
  168MPD2    C1 2560   1.566   2.319  13.093  0.0936 -0.0039 -0.2651
  168MPD2    C2 2561   1.642   2.289  12.982 -0.0308  0.5803 -0.3230
  168MPD2    C3 2562   1.709   2.393  12.921 -0.1566 -0.3576  0.1903
  168MPD2    C4 2563   1.693   2.527  12.956 -0.3490 -0.4945 -0.1943
  168MPD2    C5 2564   1.619   2.553  13.069  1.0817  0.0701 -0.2253
  168MPD2     H 2565   1.648   2.186  12.946 -1.4328  0.3699  0.0513
  168MPD2    H1 2566   1.755   2.608  12.919  1.3669 -1.3880  0.7396
  168MPD2    H2 2567   1.496   2.485  13.226  0.4631  3.1655 -0.7982
  168MPD2    H3 2568   1.611   2.653  13.111 -1.1037  0.0331 -0.5786
  168MPD2     N 2569   1.792   2.377  12.804 -0.6377  0.1039 -0.0785
  168MPD2    H5 2570   1.809   2.464  12.755 -0.5389  0.7124  1.0295
  168MPD2    N1 2571   1.505   2.214  13.158 -0.4261 -0.4362 -0.0364
  168MPD2    H7 2572   1.527   2.127  13.109 -1.6528  1.1197 -3.3952
  169MPD1     C 2573   0.482   4.722   9.454  0.5799 -0.3480 -0.3123
  169MPD1    C1 2574   0.542   0.115   9.427 -0.2960 -0.1321  0.6110
  169MPD1    C2 2575   0.480   0.234   9.465 -0.2446 -0.6351  0.2121
  169MPD1    C3 2576   0.344   0.234   9.516 -0.1530 -0.2091  0.3403
  169MPD1    C4 2577   0.286   0.108   9.523  0.2854  0.1026 -0.4592
  169MPD1    C5 2578   0.353   4.717   9.505  0.3487  0.7287  0.1644
  169MPD1     H 2579   0.537   0.326   9.467 -2.6879  0.9264 -1.8469
  169MPD1    H1 2580   0.190   0.085   9.568  0.2168 -0.0855 -0.7051
  169MPD1    H2 2581   0.535   4.631   9.429  0.7126 -0.6897  1.2042
  169MPD1    H3 2582   0.305   4.626   9.539 -1.1856  1.8875  1.0989
  169MPD1     N 2583   0.269   0.351   9.544 -0.2125  0.1586  1.2393
  169MPD1    H5 2584   0.309   0.442   9.526  0.3456 -0.3693 -0.2465
  169MPD1    N1 2585   0.667   0.116   9.365  0.4032  0.3055  0.0698
  169MPD1    H6 2586   0.676   0.026   9.318 -0.7392  0.1289  0.1732
  169MPD1    H7 2587   0.682   0.186   9.293 -0.3492 -0.6433 -1.0033
  170MPD1     C 2588   3.047   4.612  12.892  0.7190  0.1921 -0.4766
  170MPD1    C1 2589   2.922   4.557  12.858 -0.2811  0.2633 -0.2119
  170MPD1    C2 2590   2.830   4.530  12.960  0.4312 -0.5556  0.1193
  170MPD1    C3 2591   2.858   4.553  13.094  0.0680  0.2214 -0.2888
  170MPD1    C4 2592   2.988   4.604  13.122  0.2636  0.1245  0.4519
  170MPD1    C5 2593   3.074   4.634  13.019 -0.0465  0.5599 -0.1946
  170MPD1     H 2594   2.733   4.489  12.937  0.0218  0.7855 -0.5326
  170MPD1    H1 2595   3.023   4.640  13.219 -2.0648  2.0697  0.5720
  170MPD1    H2 2596   3.123   4.637  12.818 -0.9547  0.0376 -2.2506
  170MPD1    H3 2597   3.171   4.679  13.038 -0.1501  1.4477 -1.7579
  170MPD1     N 2598   2.761   4.546  13.192 -0.1638 -0.8155  0.0905
  170MPD1    H5 2599   2.665   4.536  13.161 -0.2121  0.8535 -0.2681
  170MPD1    N1 2600   2.884   4.549  12.723 -0.1661 -0.8936 -0.5091
  170MPD1    H6 2601   2.824   4.467  12.712 -1.6288  0.4061 -2.4666
  170MPD1    H7 2602   2.963   4.553  12.659  1.5103 -2.2864  1.4981
  171MPD1     C 2603   0.702   0.724  15.648  0.1048 -0.7299 -0.1272
  171MPD1    C1 2604   0.766   0.621  15.583  0.2642 -0.2393 -0.4003
  171MPD1    C2 2605   0.848   0.528  15.652 -0.4768 -0.1315 -0.3712
  171MPD1    C3 2606   0.882   0.552  15.785 -1.1731 -0.3822 -0.3585
  171MPD1    C4 2607   0.819   0.659  15.846  0.9815 -0.0969  0.5979
  171MPD1    C5 2608   0.731   0.743  15.780  0.1448 -0.5096  0.3929
  171MPD1     H 2609   0.894   0.446  15.599  1.8340  1.5431 -0.9507
  171MPD1    H1 2610   0.835   0.673  15.952  1.7712  1.9324  0.2111
  171MPD1    H2 2611   0.632   0.791  15.600 -1.4482 -0.8112  2.0546
  171MPD1    H3 2612   0.690   0.826  15.837 -2.2582 -1.1573 -0.3778
  171MPD1     N 2613   0.962   0.468  15.873  0.1453 -0.0179  0.0385
  171MPD1    H5 2614   0.975   0.505  15.966 -0.7521  0.6027 -0.0880
  171MPD1    N1 2615   0.716   0.584  15.452  0.3041  0.5172  0.3005
  171MPD1    H6 2616   0.796   0.539  15.406 -1.3206 -3.2673  1.1390
  171MPD1    H7 2617   0.692   0.663  15.394 -0.0488  1.4715  1.7529
  172MPD1     C 2618   4.375   4.212   0.784 -1.0994 -0.0935  0.0434
  172MPD1    C1 2619   4.318   4.332   0.827 -0.1040  0.8681 -0.0277
  172MPD1    C2 2620   4.354   4.447   0.759  0.2978 -0.1666  0.0330
  172MPD1    C3 2621   4.464   4.444   0.674 -0.5949 -0.0745 -0.1871
  172MPD1    C4 2622   4.525   4.325   0.645  0.1745 -0.3584 -0.8043
  172MPD1    C5 2623   4.477   4.212   0.699  0.5909  0.9113 -0.3614
  172MPD1     H 2624   4.312   4.542   0.788 -2.5323 -1.7515  1.1702
  172MPD1    H1 2625   4.610   4.325   0.578 -0.5414  0.4349 -1.6927
  172MPD1    H2 2626   4.349   4.114   0.822 -2.6604  0.4231  0.3462
  172MPD1    H3 2627   4.539   4.124   0.692 -0.5203  0.1495 -0.5405
  172MPD1     N 2628   4.526   4.566   0.621  0.4703 -0.5046 -0.4043
  172MPD1    H5 2629   4.625   4.555   0.602  0.8259  0.6394  0.8428
  172MPD1    N1 2630   4.210   4.334   0.915  0.1359  0.0510 -0.0424
  172MPD1    H6 2631   4.199   4.409   0.983 -0.8501  0.9085 -1.1416
  172MPD1    H7 2632   4.201   4.249   0.970 -1.6167 -0.1085 -0.5711
  173MPD1     C 2633   2.214   0.646  14.357 -0.1724 -0.3645 -0.2124
  173MPD1    C1 2634   2.292   0.538  14.390 -0.1061 -0.3536  0.5511
  173MPD1    C2 2635   2.221   0.418  14.405 -0.4580  0.5043 -0.7376
  173MPD1    C3 2636   2.085   0.408  14.375 -0.0425  0.7120  0.1095
  173MPD1    C4 2637   2.015   0.516  14.330 -0.8926  0.2853  0.2757
  173MPD1    C5 2638   2.085   0.630  14.319 -0.1712 -0.3612 -0.1036
  173MPD1     H 2639   2.272   0.334  14.449 -1.2799  0.1295 -0.5012
  173MPD1    H1 2640   1.911   0.508  14.298 -0.9286 -0.6343  0.6038
  173MPD1    H2 2641   2.257   0.746  14.355  0.3062 -0.5953 -1.2626
  173MPD1    H3 2642   2.047   0.717  14.267  0.4087 -0.1946 -0.2544
  173MPD1     N 2643   2.026   0.278  14.387 -0.1033 -0.5177 -0.2474
  173MPD1    H5 2644   2.090   0.209  14.425 -0.2726 -0.0127  0.9504
  173MPD1    N1 2645   2.422   0.563  14.442 -0.2902 -0.1327 -0.3082
  173MPD1    H6 2646   2.462   0.653  14.417 -1.7388  1.1070  1.7884
  173MPD1    H7 2647   2.484   0.484  14.427 -0.5079 -0.4123  0.2478
  174MPD1     C 2648   2.397   4.219  14.295 -0.0790  0.1107  0.2230
  174MPD1    C1 2649   2.323   4.198  14.404 -0.4443  0.5163 -0.4219
  174MPD1    C2 2650   2.220   4.286  14.426 -0.4046 -0.2302 -0.0178
  174MPD1    C3 2651   2.211   4.402  14.357  0.4353  0.1107 -0.1746
  174MPD1    C4 2652   2.293   4.422  14.247  0.2162 -0.0825 -0.8918
  174MPD1    C5 2653   2.376   4.324  14.210 -0.3003  0.8586 -0.6583
  174MPD1     H 2654   2.148   4.263  14.503 -0.1199  1.6978  0.8339
  174MPD1    H1 2655   2.274   4.508  14.183 -0.8123  0.3625  0.0036
  174MPD1    H2 2656   2.474   4.153  14.256 -0.8209 -1.6140  1.6578
  174MPD1    H3 2657   2.424   4.333  14.113 -0.7515 -3.1001 -1.2224
  174MPD1     N 2658   2.115   4.504  14.380 -0.0062 -0.4310 -0.2991
  174MPD1    H5 2659   2.118   4.583  14.316  0.3610  2.3073  3.0591
  174MPD1    N1 2660   2.334   4.073  14.473 -0.2433 -0.1805 -0.2701
  174MPD1    H6 2661   2.307   4.082  14.571  1.1529  1.5396 -0.0496
  174MPD1    H7 2662   2.424   4.026  14.474 -0.2284 -0.1961 -1.8847
  175MPD1     C 2663   4.548   0.906  15.550 -0.3011 -0.4557  0.4014
  175MPD1    C1 2664   4.633   0.797  15.568 -0.3345 -0.1661  1.0778
  175MPD1    C2 2665   4.616   0.710  15.677  0.3502  0.4707 -0.3662
  175MPD1    C3 2666   4.507   0.723  15.764 -0.0126 -0.5392 -0.2517
  175MPD1    C4 2667   4.415   0.824  15.733 -0.4918 -1.1153  0.5224
  175MPD1    C5 2668   4.434   0.913  15.628 -0.3256 -1.2677 -0.0451
  175MPD1     H 2669   4.693   0.633  15.670 -1.0743 -0.8803 -1.1974
  175MPD1    H1 2670   4.328   0.843  15.794 -0.9595 -1.0010 -0.1803
  175MPD1    H2 2671   4.561   0.980  15.471  3.4973  0.3969  1.7983
  175MPD1    H3 2672   4.366   0.997  15.617 -0.2300 -0.9663  1.6807
  175MPD1     N 2673   4.477   0.633  15.870  0.3075  0.1098  0.1742
  175MPD1    H5 2674   4.387   0.638  15.917 -0.1697  0.7668 -0.7948
  175MPD1    N1 2675   0.025   0.779  15.489  0.0216 -0.2954  0.1726
  175MPD1    H6 2676   0.016   0.824  15.398  0.8388  3.3334  1.9090
  175MPD1    H7 2677   0.031   0.679  15.472 -2.6665 -0.6767  1.4358
  176MPD1     C 2678   1.082   2.574   0.280  0.7581  0.0318  0.4185
  176MPD1    C1 2679   1.020   2.681   0.227  0.5086 -0.2613  0.3151
  176MPD1    C2 2680   1.095   2.782   0.177  0.1631 -0.0231 -0.8306
  176MPD1    C3 2681   1.232   2.796   0.206  0.4583  0.6967  0.1615
  176MPD1    C4 2682   1.291   2.685   0.282  0.1563  0.3063  0.5537
  176MPD1    C5 2683   1.217   2.576   0.307  0.2686  0.4933 -0.3135
  176MPD1     H 2684   1.045   2.860   0.122  1.8310  1.6274 -0.0190
  176MPD1    H1 2685   1.399   2.687   0.296  0.4365 -0.7305 -1.4233
  176MPD1    H2 2686   1.016   2.496   0.315  0.2995 -0.2032 -0.9494
  176MPD1    H3 2687   1.277   2.494   0.345  0.7080  0.9692  0.0193
  176MPD1     N 2688   1.300   2.906   0.150  0.2839 -0.4494  0.5926
  176MPD1    H5 2689   1.244   2.973   0.098  0.1925 -1.1875 -0.2529
  176MPD1    N1 2690   0.892   2.667   0.179 -0.6681 -0.0694  0.5857
  176MPD1    H6 2691   0.844   2.614   0.251  0.7232 -1.7780  0.2440
  176MPD1    H7 2692   0.854   2.759   0.156 -3.0577 -1.2537 -0.1264
  177MPD1     C 2693   0.052   1.706  11.030 -0.4715 -0.3147 -0.8176
  177MPD1    C1 2694   0.151   1.795  10.996 -0.3034 -0.0685 -0.4118
  177MPD1    C2 2695   0.150   1.851  10.868 -0.5776  0.3840  0.3400
  177MPD1    C3 2696   0.048   1.819  10.781  0.2031  0.2551 -0.1587
  177MPD1    C4 2697   4.672   1.726  10.818  0.3291  0.1555 -0.2942
  177MPD1    C5 2698   4.683   1.666  10.941  0.0052 -0.4089  0.3802
  177MPD1     H 2699   0.219   1.929  10.837  0.2473  0.2038  1.7124
  177MPD1    H1 2700   4.585   1.699  10.759  0.4036 -1.5951  0.3745
  177MPD1    H2 2701   0.051   1.659  11.127 -0.7740 -0.1959 -0.7602
  177MPD1    H3 2702   4.602   1.600  10.970  0.1245 -0.1695  1.2721
  177MPD1     N 2703   0.045   1.877  10.652 -0.0610 -0.5685 -0.2569
  177MPD1    H5 2704   0.128   1.935  10.638 -0.9074  1.3751  2.8135
  177MPD1    N1 2705   0.260   1.838  11.081  0.4125  0.1114 -0.0261
  177MPD1    H6 2706   0.348   1.817  11.035  1.7226  2.7701  1.2997
  177MPD1    H7 2707   0.252   1.938  11.097  1.0646  0.2766 -0.7637
  178MPD1     C 2708   1.834   3.540   0.744  0.0950  0.0132 -0.8783
  178MPD1    C1 2709   1.959   3.579   0.706 -0.3259  0.2460  0.6473
  178MPD1    C2 2710   2.012   3.522   0.592  0.1838  0.0199  0.1462
  178MPD1    C3 2711   1.940   3.434   0.512 -0.1894  0.1166  0.8190
  178MPD1    C4 2712   1.813   3.399   0.553  0.7507 -0.4685 -0.1569
  178MPD1    C5 2713   1.759   3.449   0.669  0.1755  0.4344 -0.1030
  178MPD1     H 2714   2.113   3.551   0.566  0.1661 -0.5696 -0.5786
  178MPD1    H1 2715   1.752   3.332   0.493 -0.6241 -0.0392  0.7717
  178MPD1    H2 2716   1.788   3.579   0.834  1.0941  0.5591 -0.6064
  178MPD1    H3 2717   1.662   3.416   0.702 -0.3421  1.4583 -0.6094
  178MPD1     N 2718   1.997   3.376   0.391 -0.3503 -0.3995  0.6404
  178MPD1    H5 2719   1.927   3.343   0.326 -0.7339 -0.3156  1.0077
  178MPD1    N1 2720   2.039   3.661   0.790  0.2988 -0.7460 -0.0854
  178MPD1    H6 2721   2.115   3.701   0.736 -0.0053 -2.0365 -1.4652
  178MPD1    H7 2722   1.987   3.738   0.832 -2.0460 -1.0914 -2.3195
  179MPD1     C 2723   1.600   2.265  15.638  0.6134 -0.5281  0.1064
  179MPD1    C1 2724   1.666   2.251  15.763 -0.3766 -0.3545  0.8943
  179MPD1    C2 2725   1.679   2.123  15.806 -0.7558 -0.0330  0.4948
  179MPD1    C3 2726   1.671   2.016  15.721  0.6616  0.1211 -0.2846
  179MPD1    C4 2727   1.622   2.037  15.596 -0.3689 -0.5567 -0.3276
  179MPD1    C5 2728   1.578   2.160  15.556 -0.1853  0.7143  0.0163
  179MPD1     H 2729   1.695   2.106  15.912 -0.7629  1.9621  0.7988
  179MPD1    H1 2730   1.608   1.953  15.530 -0.2286 -3.2536  3.0458
  179MPD1    H2 2731   1.578   2.366  15.606 -0.8894  0.1921  3.3730
  179MPD1    H3 2732   1.526   2.165  15.462 -0.0979  0.8604 -0.0248
  179MPD1     N 2733   1.689   1.883  15.760 -0.5264  0.3078 -0.1693
  179MPD1    H5 2734   1.675   1.814  15.687  3.0581  0.4607 -1.0231
  179MPD1    N1 2735   1.689   2.364  15.837  0.2830  0.3987 -0.0551
  179MPD1    H6 2736   1.696   2.446  15.777 -0.1094  0.4467 -0.0376
  179MPD1    H7 2737   1.770   2.356  15.899  2.1205 -0.5317 -2.5889
  180MPD1     C 2738   1.271   2.460  15.606  0.6169 -0.3998 -0.0916
  180MPD1    C1 2739   1.307   2.579  15.544 -0.2547  0.3532  0.2667
  180MPD1    C2 2740   1.314   2.583  15.403  0.0373 -0.1479  0.2215
  180MPD1    C3 2741   1.273   2.471  15.330  0.1617  0.2784  0.4346
  180MPD1    C4 2742   1.234   2.360  15.394 -0.3582 -0.5285  0.4236
  180MPD1    C5 2743   1.228   2.352  15.531  0.0382 -0.0203 -0.4101
  180MPD1     H 2744   1.342   2.677  15.357 -0.4974  0.6515  1.5207
  180MPD1    H1 2745   1.208   2.276  15.331 -0.1376 -0.0469 -0.3108
  180MPD1    H2 2746   1.274   2.445  15.713 -1.6717  0.5692  0.1109
  180MPD1    H3 2747   1.186   2.267  15.583  0.2741  0.9993  1.4635
  180MPD1     N 2748   1.272   2.483  15.189  1.0642 -0.2066 -0.8998
  180MPD1    H5 2749   1.285   2.578  15.156  0.3595 -1.0725 -3.7037
  180MPD1    N1 2750   1.348   2.682  15.629 -1.1464  0.1151 -0.3240
  180MPD1    H6 2751   1.325   2.780  15.610 -1.9572  0.0844  0.4997
  180MPD1    H7 2752   1.320   2.666  15.726 -2.0653  1.3477 -0.3816
  181MPD1     C 2753   4.223   3.786  10.665 -0.5800  0.9381 -0.4866
  181MPD1    C1 2754   4.264   3.916  10.695  0.0158 -0.4639 -0.7365
  181MPD1    C2 2755   4.383   3.954  10.627  0.2206  0.1690  0.3639
  181MPD1    C3 2756   4.461   3.867  10.552 -0.7007 -0.0586 -0.2754
  181MPD1    C4 2757   4.432   3.736  10.550 -0.1171  0.0996  0.5149
  181MPD1    C5 2758   4.313   3.701  10.602  0.0953 -0.0203 -0.1733
  181MPD1     H 2759   4.408   4.059  10.627 -1.4806  0.5533 -2.7345
  181MPD1    H1 2760   4.496   3.671  10.491 -0.9175  1.4781 -1.8855
  181MPD1    H2 2761   4.133   3.739  10.703  0.6518 -1.7697 -0.8868
  181MPD1    H3 2762   4.277   3.599  10.594  0.2756 -0.0522 -0.5818
  181MPD1     N 2763   4.583   3.902  10.483 -0.0849  0.3465  0.7577
  181MPD1    H5 2764   4.651   3.831  10.458  0.7006  2.1953 -2.3605
  181MPD1    N1 2765   4.181   4.003  10.764  0.2850 -0.1975 -0.8804
  181MPD1    H6 2766   4.235   4.057  10.831 -0.3433 -1.3117  0.5279
  181MPD1    H7 2767   4.108   3.951  10.813  0.0035  1.0410 -0.0077
  182MPD1     C 2768   0.351   3.786   1.787  0.0962 -0.1624  0.8338
  182MPD1    C1 2769   0.336   3.709   1.676 -0.1399 -0.5980 -0.6084
  182MPD1    C2 2770   0.236   3.752   1.591 -0.2368  0.5251 -0.0445
  182MPD1    C3 2771   0.139   3.846   1.627 -0.0704  1.1164 -0.1063
  182MPD1    C4 2772   0.153   3.903   1.752  0.5305 -0.0245  0.0946
  182MPD1    C5 2773   0.265   3.877   1.823 -0.2815  0.4981 -0.4903
  182MPD1     H 2774   0.238   3.705   1.494  2.0030  1.0660 -0.2660
  182MPD1    H1 2775   0.081   3.973   1.791 -0.0898 -1.2946  1.2219
  182MPD1    H2 2776   0.435   3.773   1.853 -0.4121 -2.8390  0.9598
  182MPD1    H3 2777   0.285   3.937   1.911  1.1990 -0.9187  0.1363
  182MPD1     N 2778   0.037   3.898   1.539 -0.0029  0.0803  0.0123
  182MPD1    H5 2779   4.701   3.973   1.567 -1.4933 -0.9558 -0.4884
  182MPD1    N1 2780   0.435   3.620   1.625  0.0857 -0.2625 -0.3752
  182MPD1    H6 2781   0.480   3.568   1.699 -0.1397  1.6671  1.1015
  182MPD1    H7 2782   0.383   3.549   1.573 -0.0624  0.2642 -0.9470
  183MPD1     C 2783   1.175   0.258   9.257 -0.7267  0.0712  0.5399
  183MPD1    C1 2784   1.050   0.310   9.269 -0.3546  0.4822  0.1307
  183MPD1    C2 2785   0.970   0.266   9.368 -0.5862 -0.3369  0.1266
  183MPD1    C3 2786   1.017   0.183   9.466 -0.3898 -0.4624  0.1528
  183MPD1    C4 2787   1.146   0.135   9.460  0.2472 -0.7590 -0.4408
  183MPD1    C5 2788   1.224   0.171   9.354  0.1815 -0.0205  0.4714
  183MPD1     H 2789   0.866   0.295   9.373 -1.3957 -3.4117  1.2077
  183MPD1    H1 2790   1.180   0.067   9.538  0.9429  0.9180  0.7376
  183MPD1    H2 2791   1.241   0.277   9.173 -2.2650 -0.3395 -0.7461
  183MPD1    H3 2792   1.328   0.143   9.348 -0.0701 -0.3925 -1.9008
  183MPD1     N 2793   0.912   0.141   9.565 -0.2770 -0.4807  0.0733
  183MPD1    H5 2794   0.815   0.167   9.550 -0.2277 -0.0204  0.5625
  183MPD1    N1 2795   0.992   0.366   9.155  0.1790  0.4452  0.1166
  183MPD1    H6 2796   1.058   0.437   9.123  1.1909 -1.2620 -1.5540
  183MPD1    H7 2797   0.905   0.412   9.181  1.2198  2.2829  0.3273
  184MPD1     C 2798   3.637   1.454  10.765  0.0396 -0.1276  0.1899
  184MPD1    C1 2799   3.688   1.585  10.754  0.2005  0.1102  0.5492
  184MPD1    C2 2800   3.791   1.609  10.665 -0.0227 -0.6230  0.2968
  184MPD1    C3 2801   3.863   1.504  10.605  0.9207  0.4270 -0.6772
  184MPD1    C4 2802   3.809   1.377  10.630  0.1036 -0.9693 -0.5095
  184MPD1    C5 2803   3.705   1.350  10.711 -0.3346  0.9764 -0.7332
  184MPD1     H 2804   3.827   1.710  10.654 -1.4267  0.0775  2.1767
  184MPD1    H1 2805   3.851   1.288  10.587  3.8381  1.6642 -2.2745
  184MPD1    H2 2806   3.550   1.447  10.829  0.7059 -0.3536  1.0639
  184MPD1    H3 2807   3.672   1.247  10.722  0.0124  0.8179 -1.1759
  184MPD1     N 2808   3.964   1.514  10.504  0.4325 -0.0101  0.6512
  184MPD1    H5 2809   3.985   1.437  10.441  1.8928  1.7330 -1.0106
  184MPD1    N1 2810   3.612   1.689  10.806  0.3751 -0.0124  0.7513
  184MPD1    H6 2811   3.653   1.780  10.790  2.4335 -1.4765 -2.2988
  184MPD1    H7 2812   3.560   1.678  10.893  0.9245 -1.8224  0.8652
  185MPD1     C 2813   4.508   0.943  10.046  0.0515 -0.2676  0.0285
  185MPD1    C1 2814   4.386   0.979   9.998 -0.2598  0.3812 -0.8215
  185MPD1    C2 2815   4.334   1.102  10.034 -0.1425 -0.1604 -0.0914
  185MPD1    C3 2816   4.415   1.200  10.102  0.5719  1.2119  0.4969
  185MPD1    C4 2817   4.542   1.162  10.148 -0.1789 -0.2252 -0.0577
  185MPD1    C5 2818   4.587   1.037  10.111 -0.0283 -0.2460 -0.3437
  185MPD1     H 2819   4.232   1.134  10.015 -0.0587  0.2028  0.0635
  185MPD1    H1 2820   4.610   1.217  10.211 -1.1788  1.9694 -0.9075
  185MPD1    H2 2821   4.551   0.848  10.019  2.5051  1.0536 -0.7278
  185MPD1    H3 2822   4.683   1.002  10.148  0.5493 -0.4105 -1.9817
  185MPD1     N 2823   4.375   1.328  10.152 -0.3356  0.6944  0.0545
  185MPD1    H5 2824   4.442   1.384  10.202  0.7587 -0.3154 -0.2845
  185MPD1    N1 2825   4.305   0.882   9.933 -0.4470  0.8241 -0.3446
  185MPD1    H6 2826   4.355   0.810   9.881 -0.2110  1.0040 -0.3655
  185MPD1    H7 2827   4.235   0.922   9.870 -1.1935 -0.4860 -0.3386
  186MPD1     C 2828   2.354   1.203  16.785 -0.1046  0.2867 -0.4215
  186MPD1    C1 2829   2.432   1.288  16.722  0.1812  0.0311 -0.4176
  186MPD1    C2 2830   2.397   1.425  16.718 -0.8570 -0.9659  0.2951
  186MPD1    C3 2831   2.285   1.462  16.787  0.4146  0.0830  0.0872
  186MPD1    C4 2832   2.204   1.367  16.856  0.3050 -0.0657  0.1264
  186MPD1    C5 2833   2.244   1.239  16.851  0.8202 -0.4873 -0.4357
  186MPD1     H 2834   2.457   1.487  16.653  1.7384 -1.8570  1.8206
  186MPD1    H1 2835   2.113   1.391  16.912  0.4636 -1.8253  1.1220
  186MPD1    H2 2836   2.376   1.097  16.790 -0.1580  0.4381  2.7245
  186MPD1    H3 2837   2.177   1.172  16.903  1.3794  0.5299  1.6101
  186MPD1     N 2838   2.240   1.593  16.785 -0.0404 -0.5928 -0.4303
  186MPD1    H5 2839   2.157   1.611  16.840 -0.2554  0.2913 -1.0282
  186MPD1    N1 2840   2.538   1.230  16.645  0.3066  0.5608 -0.6419
  186MPD1    H6 2841   2.606   1.301  16.620 -0.5776  1.2894 -0.9650
  186MPD1    H7 2842   2.567   1.145  16.694  2.4922  1.0380 -1.1253
  187MPD1     C 2843   1.969   3.616  17.627 -0.1205  0.5836  0.3685
  187MPD1    C1 2844   1.970   3.726   0.007  0.1827 -0.4945 -0.5906
  187MPD1    C2 2845   1.852   3.804   0.016 -0.2613 -0.6285 -0.2963
  187MPD1    C3 2846   1.733   3.767  17.649 -0.0740 -0.4701  0.5696
  187MPD1    C4 2847   1.739   3.657  17.566 -0.5616  0.0908  0.5981
  187MPD1    C5 2848   1.852   3.584  17.559  0.7192 -0.1720  1.4756
  187MPD1     H 2849   1.846   3.888   0.084 -0.2588  1.1975 -2.5577
  187MPD1    H1 2850   1.657   3.631  17.501 -0.2697 -0.2641  0.3745
  187MPD1    H2 2851   2.058   3.558  17.604 -0.3518 -0.3331  1.7482
  187MPD1    H3 2852   1.849   3.502  17.488 -0.4590  0.7176  0.5034
  187MPD1     N 2853   1.610   3.838  17.659 -0.5487 -0.1047  0.5608
  187MPD1    H5 2854   1.531   3.802  17.606  0.8979 -0.9750 -1.0157
  187MPD1    N1 2855   2.091   3.765   0.076 -0.4780  0.1611  0.1961
  187MPD1    H6 2856   2.083   3.820   0.162  0.0259  1.0268 -0.3086
  187MPD1    H7 2857   2.162   3.693   0.084  3.1045  3.6311  0.1679
  188MPD1     C 2858   1.304   3.822  10.093  0.7060 -1.1578  0.4505
  188MPD1    C1 2859   1.443   3.812  10.116  0.1260  0.4737 -0.1812
  188MPD1    C2 2860   1.507   3.695  10.133 -0.1668 -0.1924 -0.1670
  188MPD1    C3 2861   1.429   3.587  10.134  0.5151  0.0569  0.3273
  188MPD1    C4 2862   1.290   3.585  10.119 -0.1103 -0.2088  0.3430
  188MPD1    C5 2863   1.234   3.707  10.105  0.0594 -0.8602  0.0274
  188MPD1     H 2864   1.615   3.698  10.144 -0.0938 -1.5690 -0.5588
  188MPD1    H1 2865   1.226   3.500  10.139  0.1583 -1.4774 -4.2865
  188MPD1    H2 2866   1.245   3.913  10.083  1.0157 -0.9065  0.9237
  188MPD1    H3 2867   1.126   3.713  10.115 -0.0735 -1.6644 -0.9640
  188MPD1     N 2868   1.493   3.459  10.142 -0.1951 -0.0132  0.5659
  188MPD1    H5 2869   1.436   3.375  10.136  0.1229 -0.2513  0.8701
  188MPD1    N1 2870   1.526   3.932  10.101  0.0278 -0.0720  0.1200
  188MPD1    H6 2871   1.614   3.918  10.150  0.3262 -0.5677 -0.5515
  188MPD1    H7 2872   1.486   4.025  10.112 -0.6183 -0.3492  0.1071
  189MPD1     C 2873   3.578   4.051   0.922  0.0886 -1.1653  0.0440
  189MPD1    C1 2874   3.464   4.127   0.921  0.2227 -0.5357  0.1797
  189MPD1    C2 2875   3.356   4.087   0.845 -0.0431 -0.5660 -0.4686
  189MPD1    C3 2876   3.376   3.988   0.753  0.2889 -0.2954  0.3339
  189MPD1    C4 2877   3.496   3.926   0.735 -0.1030 -0.4922  1.2059
  189MPD1    C5 2878   3.592   3.952   0.833  0.4704  0.1700 -0.2501
  189MPD1     H 2879   3.256   4.119   0.873  0.2177  2.2230 -2.6817
  189MPD1    H1 2880   3.514   3.850   0.660 -1.9857 -0.8389  1.1088
  189MPD1    H2 2881   3.667   4.074   0.980 -1.3633  2.1439  0.9611
  189MPD1    H3 2882   3.679   3.887   0.836  0.9186  0.6891 -2.3768
  189MPD1     N 2883   3.260   3.944   0.680  0.3820 -0.4799 -0.5372
  189MPD1    H5 2884   3.176   4.001   0.681  1.0276  0.4882 -2.2710
  189MPD1    N1 2885   3.450   4.221   1.020 -0.0501 -0.0827  1.0563
  189MPD1    H6 2886   3.389   4.297   0.990  0.8646  0.3504  0.3055
  189MPD1    H7 2887   3.538   4.262   1.050  1.1760 -2.4174  0.6993
  190MPD1     C 2888   1.271   2.598  15.951 -0.6160 -0.1274 -0.0721
  190MPD1    C1 2889   1.399   2.550  15.950 -0.0600 -0.0105 -0.1346
  190MPD1    C2 2890   1.502   2.643  15.962 -0.3995 -0.0637 -0.0128
  190MPD1    C3 2891   1.475   2.779  15.957  0.7149 -0.1454 -0.1083
  190MPD1    C4 2892   1.345   2.827  15.945 -0.2723  0.1269  1.1171
  190MPD1    C5 2893   1.245   2.731  15.936  0.3789  0.1697  0.5048
  190MPD1     H 2894   1.600   2.601  15.979  0.3651  2.7401  2.6675
  190MPD1    H1 2895   1.318   2.931  15.935 -0.3458 -0.0914 -0.8039
  190MPD1    H2 2896   1.188   2.528  15.952 -1.5180  0.9407 -2.2504
  190MPD1    H3 2897   1.141   2.752  15.912  0.3013  0.4821  1.1047
  190MPD1     N 2898   1.584   2.872  15.976 -0.3055 -0.0726 -0.0428
  190MPD1    H5 2899   1.678   2.833  15.972  0.4381  1.5184  1.8821
  190MPD1    N1 2900   1.430   2.416  15.962  0.2721  0.3586 -0.2432
  190MPD1    H6 2901   1.514   2.395  15.909 -0.3693  2.0674 -1.8879
  190MPD1    H7 2902   1.357   2.358  15.922  0.8737  0.9105 -2.1310
  191MPD1     C 2903   2.233   3.556  12.641 -0.9050 -0.2601  0.3404
  191MPD1    C1 2904   2.215   3.630  12.758  0.1394 -0.1249 -0.0779
  191MPD1    C2 2905   2.157   3.754  12.757 -0.5606  0.0787 -0.1346
  191MPD1    C3 2906   2.118   3.808  12.637  0.2341  0.0368  0.3078
  191MPD1    C4 2907   2.148   3.733  12.518  0.2727  0.1858  0.0934
  191MPD1    C5 2908   2.199   3.608  12.519 -0.1669  0.4290  0.4302
  191MPD1     H 2909   2.154   3.815  12.846 -4.2433  0.8113 -0.7663
  191MPD1    H1 2910   2.121   3.768  12.419 -2.1459  0.2828  0.7885
  191MPD1    H2 2911   2.264   3.453  12.649 -1.7725 -0.4498  1.1895
  191MPD1    H3 2912   2.210   3.548  12.430  0.7375  1.4105 -0.1100
  191MPD1     N 2913   2.041   3.932  12.635 -0.6976 -0.6696 -0.5511
  191MPD1    H5 2914   2.036   3.984  12.721  2.3192  2.5020 -2.2913
  191MPD1    N1 2915   2.243   3.562  12.878 -0.0004 -0.0472  0.5313
  191MPD1    H6 2916   2.320   3.496  12.871 -0.5024 -0.7468  1.6415
  191MPD1    H7 2917   2.268   3.630  12.949 -1.3152  0.6782  0.3098
  192MPD1     C 2918   1.580   4.601  13.156  0.9503  0.4214  0.8894
  192MPD1    C1 2919   1.567   4.465  13.133  0.5087  0.2553  0.4997
  192MPD1    C2 2920   1.612   4.411  13.015  0.3299 -0.7370 -0.0500
  192MPD1    C3 2921   1.670   4.499  12.926  0.2162  0.4531  0.5306
  192MPD1    C4 2922   1.681   4.630  12.950  0.2482 -0.6820 -0.3453
  192MPD1    C5 2923   1.642   4.683  13.068  0.5679 -0.3740 -0.2657
  192MPD1     H 2924   1.597   4.309  12.981  1.6463 -1.2319  0.8442
  192MPD1    H1 2925   1.734   4.700  12.887  2.4255 -0.8240  1.3278
  192MPD1    H2 2926   1.535   4.647  13.243 -0.0461  1.5317 -0.2029
  192MPD1    H3 2927   1.660   0.062  13.091  2.2651 -0.2271 -2.2664
  192MPD1     N 2928   1.729   4.446  12.808 -0.3717  0.8751  0.2481
  192MPD1    H5 2929   1.776   4.521  12.758  0.8688  0.1044  0.2485
  192MPD1    N1 2930   1.490   4.386  13.218  0.6717  0.0798 -0.4543
  192MPD1    H6 2931   1.496   4.416  13.315  1.0998  0.4667 -0.5975
  192MPD1    H7 2932   1.526   4.291  13.218  1.7491  0.4845 -0.2859
  193MPD1     C 2933   0.873   0.264   0.022  1.1051 -0.3509  0.3893
  193MPD1    C1 2934   0.895   0.222  17.599 -0.7473 -0.5822 -0.3761
  193MPD1    C2 2935   0.916   0.324  17.497 -0.0688  0.1172  0.0392
  193MPD1    C3 2936   0.940   0.454  17.528 -0.3546  0.4615 -0.1107
  193MPD1    C4 2937   0.928   0.489  17.657  0.0467 -0.2220  0.0297
  193MPD1    C5 2938   0.893   0.399   0.048 -0.4727 -0.4397 -0.9252
  193MPD1     H 2939   0.915   0.285  17.395 -1.2213  0.6546 -0.1532
  193MPD1    H1 2940   0.962   0.585  17.694 -0.8085  0.4470 -0.8991
  193MPD1    H2 2941   0.835   0.201   0.102  2.1953  1.4215  2.3172
  193MPD1    H3 2942   0.890   0.429   0.153  0.6379 -2.1801 -0.3975
  193MPD1     N 2943   0.986   0.550  17.430  0.3126 -0.5843 -0.3026
  193MPD1    H5 2944   0.980   0.650  17.446 -0.8384 -0.9268  1.4053
  193MPD1    N1 2945   0.871   0.095  17.557 -0.1679 -0.4095  0.2203
  193MPD1    H6 2946   0.900   0.021  17.621 -0.1417  0.7116  1.5099
  193MPD1    H7 2947   0.905   0.077  17.462 -2.7461 -1.3999 -0.4943
  194MPD1     C 2948   3.368   2.692  16.479  0.4216  0.3160 -0.7223
  194MPD1    C1 2949   3.351   2.689  16.617 -0.7372  0.4545 -1.0101
  194MPD1    C2 2950   3.417   2.594  16.694 -0.4082  0.4143  0.0504
  194MPD1    C3 2951   3.502   2.505  16.636 -0.2485  0.4249 -0.3090
  194MPD1    C4 2952   3.525   2.513  16.496 -0.1020  0.5279 -0.4167
  194MPD1    C5 2953   3.458   2.605  16.417  0.5387  0.5971  0.4468
  194MPD1     H 2954   3.392   2.573  16.797 -0.7071  0.9564  0.0918
  194MPD1    H1 2955   3.595   2.443  16.451 -0.1100  1.8784 -2.5468
  194MPD1    H2 2956   3.320   2.757  16.407 -0.8099 -2.3850 -2.3138
  194MPD1    H3 2957   3.483   2.610  16.312 -0.3285  2.1927  0.3143
  194MPD1     N 2958   3.573   2.403  16.707 -0.0245  0.7451  0.4508
  194MPD1    H5 2959   3.638   2.341  16.659 -0.1453  2.3061 -1.6846
  194MPD1    N1 2960   3.249   2.770  16.677  0.1234 -0.0219  0.2935
  194MPD1    H6 2961   3.283   2.786  16.772  0.3434 -0.1327  0.2332
  194MPD1    H7 2962   3.237   2.861  16.633 -1.1268 -0.3754 -0.1052
  195MPD1     C 2963   0.923   0.148   0.404 -0.4548 -0.2925 -0.0865
  195MPD1    C1 2964   0.826   0.056   0.371  0.3542  0.1681 -0.5430
  195MPD1    C2 2965   0.852   4.652   0.377 -0.3322 -0.0674  0.2086
  195MPD1    C3 2966   0.974   4.595   0.406  0.0972  0.1199 -0.6739
  195MPD1    C4 2967   1.065   4.692   0.443  0.1305 -0.5604 -0.7394
  195MPD1    C5 2968   1.042   0.104   0.452  0.5328  0.5013 -0.8967
  195MPD1     H 2969   0.765   4.593   0.351 -1.8936  2.6543 -0.7768
  195MPD1    H1 2970   1.164   4.658   0.472 -0.8097 -2.5741  0.0809
  195MPD1    H2 2971   0.900   0.253   0.394  0.6397 -0.4646 -4.5017
  195MPD1    H3 2972   1.110   0.170   0.505  0.8900  0.2282 -1.0188
  195MPD1     N 2973   0.985   4.454   0.404  0.2498 -0.5415  0.2055
  195MPD1    H5 2974   0.903   4.400   0.382 -0.3392 -0.2139  1.5995
  195MPD1    N1 2975   0.712   0.095   0.295 -0.5981  0.2553 -0.4355
  195MPD1    H6 2976   0.679   0.191   0.304  2.5467  0.9956  2.9839
  195MPD1    H7 2977   0.635   0.029   0.284 -1.8811  1.8173 -0.7418
  196MPD1     C 2978   4.668   2.930   1.353  0.2349  0.3760  0.0947
  196MPD1    C1 2979   4.719   2.907   1.224 -0.2325  0.7595  0.2894
  196MPD1    C2 2980   0.092   3.003   1.184  0.8188 -0.9307 -0.5514
  196MPD1    C3 2981   0.117   3.115   1.253  0.1840  0.6176  0.0341
  196MPD1    C4 2982   0.065   3.135   1.380  0.1279  0.1569 -0.6052
  196MPD1    C5 2983   4.702   3.047   1.421 -0.1340 -0.6728 -1.0300
  196MPD1     H 2984   0.153   2.989   1.096 -0.4069  2.4875 -1.9539
  196MPD1    H1 2985   0.088   3.222   1.440 -2.3617  0.3947  0.0154
  196MPD1    H2 2986   4.593   2.866   1.398  0.7527  0.8620  1.6625
  196MPD1    H3 2987   4.651   3.078   1.513  1.1548 -1.8546  0.0739
  196MPD1     N 2988   0.204   3.220   1.201 -0.5743  0.1732 -0.5983
  196MPD1    H5 2989   0.213   3.304   1.256 -1.3564 -1.9846  2.8287
  196MPD1    N1 2990   4.699   2.786   1.154  0.0983 -0.4913 -0.2031
  196MPD1    H6 2991   4.610   2.739   1.168 -0.4380  1.9104  4.5835
  196MPD1    H7 2992   4.713   2.787   1.054  1.2434  2.3139 -0.0295
  197MPD1     C 2993   4.183   0.182  17.640  0.0393  0.1499  0.0959
  197MPD1    C1 2994   4.307   0.197  17.694  0.3089 -0.9410  0.2772
  197MPD1    C2 2995   4.387   0.294  17.635  0.3369  0.1449  0.2626
  197MPD1    C3 2996   4.370   0.348  17.511  0.1037 -0.5996  0.2541
  197MPD1    C4 2997   4.249   0.317  17.449  0.4450 -0.3892 -0.9646
  197MPD1    C5 2998   4.157   0.228  17.515  0.3121  0.4337 -0.6224
  197MPD1     H 2999   4.484   0.309  17.679  1.2080  1.0439 -2.0067
  197MPD1    H1 3000   4.216   0.362  17.357 -1.5730  1.5587  0.7056
  197MPD1    H2 3001   4.099   0.129  17.684 -0.4382  0.2280 -0.7168
  197MPD1    H3 3002   4.058   0.200  17.479  0.9878  0.0505 -2.1888
  197MPD1     N 3003   4.458   0.428  17.440 -0.0177 -0.0970  0.4673
  197MPD1    H5 3004   4.443   0.442  17.341  1.8823  0.1073  0.2147
  197MPD1    N1 3005   4.328   0.149   0.115 -0.7894 -0.8438  0.5581
  197MPD1    H6 3006   4.270   0.067   0.132 -1.8678 -0.3823 -0.9671
  197MPD1    H7 3007   4.425   0.130   0.137 -0.2896  0.7953 -0.2897
  198MPD1     C 3008   1.943   4.027  15.225 -0.3720  0.2133 -0.7912
  198MPD1    C1 3009   2.000   4.147  15.274 -0.0360  1.4823 -0.2761
  198MPD1    C2 3010   1.972   4.182  15.402 -0.2477  0.1561  0.6417
  198MPD1    C3 3011   1.873   4.125  15.478  0.1969  0.8456  0.5439
  198MPD1    C4 3012   1.815   4.013  15.425 -0.4561  0.8224  0.1251
  198MPD1    C5 3013   1.857   3.956  15.309 -0.7458 -0.4106 -0.9188
  198MPD1     H 3014   2.035   4.259  15.444 -0.1922 -0.1427  1.1111
  198MPD1    H1 3015   1.747   3.949  15.480  1.4263 -1.2899  0.0220
  198MPD1    H2 3016   1.962   3.986  15.127  1.0648  1.7823 -1.1706
  198MPD1    H3 3017   1.808   3.864  15.282 -0.2943 -1.0119  0.2975
  198MPD1     N 3018   1.838   4.193  15.598 -0.1413 -0.1838 -0.4440
  198MPD1    H5 3019   1.900   4.268  15.628 -1.7054  0.1892  1.8310
  198MPD1    N1 3020   2.095   4.203  15.191  0.0387 -0.3123  0.2376
  198MPD1    H6 3021   2.102   4.304  15.195  1.1043 -0.3183 -1.2782
  198MPD1    H7 3022   2.082   4.179  15.093  2.8695 -0.7796 -0.0453
  199MPD1     C 3023   3.790   3.960   9.338  0.3506 -0.4160  0.5916
  199MPD1    C1 3024   3.828   4.085   9.298 -0.7685 -0.1349 -0.2731
  199MPD1    C2 3025   3.880   4.173   9.392 -0.1971  0.4833 -0.3132
  199MPD1    C3 3026   3.903   4.138   9.521 -0.1682  0.2789  0.1183
  199MPD1    C4 3027   3.871   4.007   9.558  0.2942 -0.4204  0.2627
  199MPD1    C5 3028   3.821   3.923   9.466 -0.0343  0.6195 -1.3765
  199MPD1     H 3029   3.908   4.273   9.359 -1.8828  0.8624 -0.5772
  199MPD1    H1 3030   3.880   3.985   9.664 -2.8410 -1.8817  0.2161
  199MPD1    H2 3031   3.752   3.898   9.257  1.1222 -1.6953  1.2167
  199MPD1    H3 3032   3.803   3.821   9.498  1.6892  1.2010  1.4316
  199MPD1     N 3033   3.944   4.236   9.619  0.1065 -0.2632 -0.1252
  199MPD1    H5 3034   3.972   4.197   9.709 -1.8424  2.1472  1.5350
  199MPD1    N1 3035   3.785   4.132   9.173 -0.0324  0.2784 -0.0218
  199MPD1    H6 3036   3.793   4.064   9.098  0.6322  0.0340  0.2740
  199MPD1    H7 3037   3.833   4.218   9.148  1.2557 -0.3528  0.3105
  200MPD1     C 3038   2.362   4.634  15.090 -0.3422 -0.2818 -0.1873
  200MPD1    C1 3039   2.445   4.582  14.994 -0.4084  0.0795  0.2935
  200MPD1    C2 3040   2.538   4.666  14.934  0.5034 -0.0788  0.4651
  200MPD1    C3 3041   2.559   0.067  14.988 -0.0756  0.4417  0.0911
  200MPD1    C4 3042   2.474   0.112  15.081 -0.6862 -0.4953 -0.8822
  200MPD1    C5 3043   2.379   0.033  15.134  0.4386  1.2146  0.7036
  200MPD1     H 3044   2.602   4.627  14.856 -0.5114 -1.4216  0.2903
  200MPD1    H1 3045   2.476   0.209  15.129  0.5967  0.6518 -3.2438
  200MPD1    H2 3046   2.274   4.577  15.117 -0.3404  0.3697  1.2081
  200MPD1    H3 3047   2.308   0.078  15.202 -2.9979  1.3600 -2.9420
  200MPD1     N 3048   2.661   0.144  14.925 -0.6808  0.0395  0.2227
  200MPD1    H5 3049   2.720   0.106  14.852  1.2231  0.4418  1.5707
  200MPD1    N1 3050   2.395   4.468  14.936  0.7629 -0.2853  0.1225
  200MPD1    H6 3051   2.357   4.415  15.014 -0.2721 -0.8543 -0.7730
  200MPD1    H7 3052   2.468   4.414  14.890  1.9602  0.3107  1.3357
  201MPD1     C 3053   0.313   4.550  12.657 -0.6969 -0.5544 -0.5182
  201MPD1    C1 3054   0.352   4.498  12.536  0.2426  0.1418 -0.0588
  201MPD1    C2 3055   0.438   4.389  12.541 -0.6415  0.4255 -0.1207
  201MPD1    C3 3056   0.505   4.354  12.661 -0.8766  0.1318  0.2762
  201MPD1    C4 3057   0.483   4.432  12.771 -0.1971 -0.5680 -0.4343
  201MPD1    C5 3058   0.387   4.532  12.771 -0.3357  0.0006 -0.1717
  201MPD1     H 3059   0.448   4.331  12.450 -2.0823  2.2068 -1.4055
  201MPD1    H1 3060   0.533   4.413  12.865 -0.4958 -1.0373 -0.3668
  201MPD1    H2 3061   0.225   4.613  12.657 -0.8407 -0.7547 -0.3849
  201MPD1    H3 3062   0.372   4.585  12.865 -0.1310  1.9030 -1.2177
  201MPD1     N 3063   0.583   4.232  12.658 -0.2442 -0.3993  0.0314
  201MPD1    H5 3064   0.581   4.174  12.575  0.7393 -0.7534  0.2553
  201MPD1    N1 3065   0.276   4.537  12.420 -0.3362 -0.3601 -0.4791
  201MPD1    H6 3066   0.248   4.635  12.421  1.5458  0.1565  0.9222
  201MPD1    H7 3067   0.333   4.522  12.337 -0.6586 -2.4018 -0.3159
  202MPD1     C 3068   1.801   4.237  10.605  0.0876 -0.7521  0.0389
  202MPD1    C1 3069   1.756   4.234  10.472 -0.3096  0.2910 -0.3366
  202MPD1    C2 3070   1.616   4.215  10.459 -0.9039  0.5171  0.5993
  202MPD1    C3 3071   1.545   4.148  10.561  0.5740 -0.0742 -0.1907
  202MPD1    C4 3072   1.611   4.120  10.679  0.3007 -0.1094 -0.2731
  202MPD1    C5 3073   1.734   4.169  10.701 -0.1010 -0.7168  0.0446
  202MPD1     H 3074   1.585   4.243  10.359 -0.4992  1.7042  0.8049
  202MPD1    H1 3075   1.556   4.076  10.761  1.4050 -1.0028 -0.0155
  202MPD1    H2 3076   1.897   4.286  10.613  0.4224 -1.3277 -0.3912
  202MPD1    H3 3077   1.778   4.143  10.797  0.8404  0.9638  0.0548
  202MPD1     N 3078   1.418   4.088  10.534 -0.0871  0.0309  0.0443
  202MPD1    H5 3079   1.383   4.025  10.606 -0.1443  0.9650  0.8383
  202MPD1    N1 3080   1.824   4.320  10.379  0.5424  0.1970  0.3714
  202MPD1    H6 3081   1.925   4.329  10.387  0.7892 -1.8198 -0.3779
  202MPD1    H7 3082   1.805   4.301  10.281  1.8907  1.2570 -0.0779
  203MPD1     C 3083   4.023   0.515  12.879  0.7862  0.0456 -0.2535
  203MPD1    C1 3084   4.033   0.426  12.770 -0.5053  0.2895  0.1461
  203MPD1    C2 3085   4.071   0.291  12.793  0.7519 -0.1014 -0.9137
  203MPD1    C3 3086   4.104   0.250  12.923 -0.2537 -0.6924 -0.2524
  203MPD1    C4 3087   4.090   0.346  13.025  0.4040 -0.0130  0.8596
  203MPD1    C5 3088   4.047   0.468  13.003  0.1681  0.5148 -0.5274
  203MPD1     H 3089   4.096   0.222  12.714  1.7304 -1.4564  0.5715
  203MPD1    H1 3090   4.098   0.314  13.128  0.7579 -1.0364  0.5174
  203MPD1    H2 3091   3.993   0.617  12.858  1.8929  0.5540  0.6167
  203MPD1    H3 3092   4.030   0.530  13.090  1.1386 -0.7255  0.5413
  203MPD1     N 3093   4.174   0.128  12.939  0.0139 -0.4524  0.4319
  203MPD1    H5 3094   4.189   0.068  12.859  2.7184  0.5024  0.2172
  203MPD1    N1 3095   4.008   0.476  12.640  0.6802  0.0635  0.6018
  203MPD1    H6 3096   3.955   0.563  12.635 -0.6308 -0.8399 -1.2452
  203MPD1    H7 3097   3.979   0.411  12.568  0.3652  1.6997 -0.7374
  204MPD1     C 3098   2.918   0.936   0.356 -0.4418 -0.5465  0.8203
  204MPD1    C1 3099   3.052   0.988   0.342 -0.6528  0.0574  0.1132
  204MPD1    C2 3100   3.138   0.953   0.241  0.1879  0.3381 -0.1531
  204MPD1    C3 3101   3.098   0.854   0.151 -0.2608 -0.6722 -0.6824
  204MPD1    C4 3102   2.974   0.793   0.171  1.2080  0.3028 -0.5905
  204MPD1    C5 3103   2.885   0.842   0.266 -0.0014 -0.5389  0.5138
  204MPD1     H 3104   3.231   1.009   0.230 -0.4146  0.9276 -2.1250
  204MPD1    H1 3105   2.945   0.708   0.110  0.6189 -1.5061  2.2175
  204MPD1    H2 3106   2.848   0.977   0.427 -1.7264 -0.5853 -0.4283
  204MPD1    H3 3107   2.793   0.787   0.284  1.2859 -2.9698 -0.2007
  204MPD1     N 3108   3.202   0.802   0.066 -0.0071  0.4207 -0.5072
  204MPD1    H5 3109   3.295   0.841   0.058 -0.1781  0.8248 -0.5313
  204MPD1    N1 3110   3.099   1.085   0.434 -0.0887 -0.1714 -0.7020
  204MPD1    H6 3111   3.064   1.091   0.529 -0.8545 -0.8249 -0.9430
  204MPD1    H7 3112   3.201   1.090   0.435 -0.1734  1.6201 -1.8626
  205MPD1     C 3113   4.272   4.371  16.757  0.4240 -0.1127  0.3086
  205MPD1    C1 3114   4.292   4.278  16.857 -0.2425  0.1067 -0.5709
  205MPD1    C2 3115   4.202   4.265  16.965 -0.0654  0.3686  0.1140
  205MPD1    C3 3116   4.101   4.367  16.982 -0.2645 -0.3127  0.5877
  205MPD1    C4 3117   4.087   4.462  16.883 -0.2942  1.4951  0.1856
  205MPD1    C5 3118   4.163   4.455  16.771  1.0576  0.1085 -0.2683
  205MPD1     H 3119   4.214   4.184  17.037  0.5240  1.9853  1.8338
  205MPD1    H1 3120   4.007   4.534  16.898 -0.3306  0.6618  3.9434
  205MPD1    H2 3121   4.328   4.374  16.664 -0.0883 -0.7346 -0.0219
  205MPD1    H3 3122   4.148   4.525  16.690  0.3979 -0.7017 -0.8390
  205MPD1     N 3123   4.017   4.374  17.090 -0.2638 -0.2417 -0.5956
  205MPD1    H5 3124   3.932   4.430  17.089 -0.1439 -0.0873 -3.1949
  205MPD1    N1 3125   4.382   4.166  16.839 -0.0570  0.1836 -0.2139
  205MPD1    H6 3126   4.462   4.186  16.779 -0.6535 -0.3633 -1.1987
  205MPD1    H7 3127   4.408   4.116  16.924 -0.1667 -1.5102 -1.1678
  206MPD1     C 3128   3.358   2.884  17.089 -0.4003  0.3472 -0.2247
  206MPD1    C1 3129   3.437   2.801  17.012 -0.1341 -0.2762 -0.0152
  206MPD1    C2 3130   3.491   2.851  16.898  0.6730  0.4440  0.3858
  206MPD1    C3 3131   3.445   2.972  16.847 -0.1819  0.1713  0.8081
  206MPD1    C4 3132   3.349   3.044  16.916  0.0680  0.1438  0.3770
  206MPD1    C5 3133   3.311   3.000  17.044  0.1554  0.0673 -0.8235
  206MPD1     H 3134   3.577   2.803  16.851 -0.7002 -0.6703 -0.9598
  206MPD1    H1 3135   3.323   3.141  16.876 -3.2407 -0.7375  0.4300
  206MPD1    H2 3136   3.322   2.854  17.187  1.0356  0.2253  0.2763
  206MPD1    H3 3137   3.259   3.063  17.115  0.3104 -1.7890  0.9209
  206MPD1     N 3138   3.484   3.014  16.720  0.1447  0.2292 -0.6780
  206MPD1    H5 3139   3.449   3.102  16.684 -2.0325  0.4807  1.9962
  206MPD1    N1 3140   3.476   2.682  17.065 -0.4245  0.2515 -0.1466
  206MPD1    H6 3141   3.412   2.634  17.128  0.9283  0.0161  1.0606
  206MPD1    H7 3142   3.498   2.603  17.005 -1.6616 -1.9199  2.2835
  207MPD1     C 3143   0.710   4.238  10.404 -0.2834  0.4015  0.4713
  207MPD1    C1 3144   0.653   4.323  10.309 -0.1569  0.3066 -0.2837
  207MPD1    C2 3145   0.736   4.421  10.250  0.1439  0.1637 -0.0582
  207MPD1    C3 3146   0.869   4.434  10.283 -0.3170  0.1660  0.1097
  207MPD1    C4 3147   0.917   4.344  10.376 -1.1182  0.0736  0.6576
  207MPD1    C5 3148   0.841   4.247  10.436  0.1327  0.2471 -0.3859
  207MPD1     H 3149   0.684   4.488  10.183  3.0000  1.3700 -1.0732
  207MPD1    H1 3150   1.018   4.352  10.416 -0.7274 -2.5007  0.1782
  207MPD1    H2 3151   0.649   4.167  10.459 -2.5441  0.0508 -2.4748
  207MPD1    H3 3152   0.884   4.183  10.512 -1.2340 -0.5478 -0.2868
  207MPD1     N 3153   0.956   4.528  10.222 -0.0164  0.2737 -0.0254
  207MPD1    H5 3154   1.053   4.522  10.254  0.0546 -0.4326 -0.3792
  207MPD1    N1 3155   0.516   4.328  10.278 -0.5315  0.2159  0.4242
  207MPD1    H6 3156   0.501   4.391  10.199 -2.4985 -1.7706 -0.8025
  207MPD1    H7 3157   0.479   4.235  10.261 -1.9658  0.5110  1.8819
  208MPD1     C 3158   0.200   4.129  17.589  0.3179  0.3550  0.6697
  208MPD1    C1 3159   0.175   4.161   0.016  0.1948 -0.4423  0.2801
  208MPD1    C2 3160   0.080   4.090   0.086  0.7998  0.6515 -0.5354
  208MPD1    C3 3161   0.023   3.978   0.036  0.6053 -0.0219 -0.4484
  208MPD1    C4 3162   0.058   3.943  17.616  0.3050  0.4049 -0.1214
  208MPD1    C5 3163   0.143   4.019  17.540  0.2693 -0.1286  0.0999
  208MPD1     H 3164   0.049   4.121   0.185  0.9617 -2.8951  0.5911
  208MPD1    H1 3165   0.001   3.867  17.564 -0.8733  2.1876 -1.4551
  208MPD1    H2 3166   0.254   4.197  17.525  0.6776  1.9682  2.6977
  208MPD1    H3 3167   0.162   3.996  17.436 -1.8488 -0.3414 -0.2373
  208MPD1     N 3168   4.651   3.910   0.112  0.7306 -0.0002  0.2767
  208MPD1    H5 3169   4.630   3.946   0.205  0.8714  0.4764  0.1253
  208MPD1    N1 3170   0.221   4.286   0.065  0.0895 -0.2001 -0.2955
  208MPD1    H6 3171   0.302   4.333   0.025 -1.2856  1.3961 -1.2162
  208MPD1    H7 3172   0.231   4.287   0.166 -1.1071 -0.9578 -0.1669
  209MPD1     C 3173   1.357   4.174  11.066  0.3686 -0.5686  0.0630
  209MPD1    C1 3174   1.323   4.239  10.952  0.5450 -0.6007 -0.7219
  209MPD1    C2 3175   1.414   4.311  10.879 -0.6526 -0.5999  0.7644
  209MPD1    C3 3176   1.541   4.329  10.932 -0.1850  0.3326 -0.5628
  209MPD1    C4 3177   1.579   4.261  11.047  1.3500 -0.2630 -0.2157
  209MPD1    C5 3178   1.488   4.185  11.103  0.3645 -0.3719  0.4985
  209MPD1     H 3179   1.385   4.371  10.793  1.1433  0.3650  0.8379
  209MPD1    H1 3180   1.671   4.274  11.103 -0.0168  3.3706  1.2447
  209MPD1    H2 3181   1.282   4.137  11.136  0.5509  0.2648  0.7086
  209MPD1    H3 3182   1.513   4.128  11.191 -1.6070  0.4448  1.6027
  209MPD1     N 3183   1.634   4.413  10.876 -0.4160 -0.3506 -0.0524
  209MPD1    H5 3184   1.596   4.463  10.796  0.4346  2.5312  1.3715
  209MPD1    N1 3185   1.191   4.229  10.907 -0.3821  0.1012  0.0164
  209MPD1    H6 3186   1.127   4.247  10.984  0.2121  0.8179  0.3352
  209MPD1    H7 3187   1.172   4.301  10.838  3.5477  0.4072 -0.7455
  210MPD1     C 3188   2.192   0.597  10.878 -0.0376  0.6753 -0.2389
  210MPD1    C1 3189   2.147   0.525  10.983  0.3282  0.0745  0.6144
  210MPD1    C2 3190   2.084   0.399  10.965  0.1907  0.2716  0.1175
  210MPD1    C3 3191   2.068   0.356  10.833  0.7112  0.2983  0.5760
  210MPD1    C4 3192   2.119   0.430  10.737 -0.1276  0.0405 -0.4686
  210MPD1    C5 3193   2.179   0.551  10.747 -0.1083 -0.5793  0.4904
  210MPD1     H 3194   2.030   0.359  11.051  0.3506 -1.8395 -0.7579
  210MPD1    H1 3195   2.124   0.384  10.639  2.0661 -0.7588  0.0189
  210MPD1    H2 3196   2.235   0.694  10.900  1.0486  0.0362  0.4282
  210MPD1    H3 3197   2.232   0.609  10.672 -0.7723 -0.0751  0.4158
  210MPD1     N 3198   2.016   0.225  10.805 -0.2094 -0.1112 -0.2007
  210MPD1    H5 3199   1.993   0.208  10.708  0.9993 -0.3005 -0.4564
  210MPD1    N1 3200   2.150   0.588  11.109  0.4034  0.1282 -0.0902
  210MPD1    H6 3201   2.233   0.646  11.111  0.6583 -0.2284 -0.5207
  210MPD1    H7 3202   2.151   0.512  11.177 -1.5917  2.1363  2.2177
  211MPD1     C 3203   3.810   3.905  17.195 -0.3909 -0.0576 -0.7057
  211MPD1    C1 3204   3.684   3.916  17.245  0.5704  0.2079  0.7738
  211MPD1    C2 3205   3.613   4.028  17.206  0.8466  0.4884 -0.2986
  211MPD1    C3 3206   3.670   4.135  17.133 -0.3126 -0.1966  0.5635
  211MPD1    C4 3207   3.796   4.117  17.089 -0.2956  0.8956 -0.5573
  211MPD1    C5 3208   3.867   4.010  17.124  0.5056 -0.4110  0.2523
  211MPD1     H 3209   3.508   4.034  17.235  0.6886 -0.3909 -0.6971
  211MPD1    H1 3210   3.850   4.190  17.029  1.4847  0.1692  0.1676
  211MPD1    H2 3211   3.870   3.816  17.210 -0.3579 -0.2204 -1.8151
  211MPD1    H3 3212   3.971   4.004  17.094  0.4019  0.1253 -0.2087
  211MPD1     N 3213   3.589   4.248  17.109 -0.3687 -0.6529  0.1378
  211MPD1    H5 3214   3.505   4.255  17.166 -0.7548 -0.1975 -0.4807
  211MPD1    N1 3215   3.632   3.804  17.303 -0.3739 -0.3403 -0.2547
  211MPD1    H6 3216   3.709   3.767  17.359  0.3385  1.3187 -0.1402
  211MPD1    H7 3217   3.562   3.830  17.372  0.8005  1.0823  0.3971
  212MPD1     C 3218   2.884   3.113  16.765 -0.5873  0.0575 -0.1074
  212MPD1    C1 3219   2.780   3.134  16.850  0.3598 -0.1288 -0.2800
  212MPD1    C2 3220   2.722   3.023  16.907  0.1099 -0.2294  0.0530
  212MPD1    C3 3221   2.767   2.890  16.886 -0.5006 -0.2577  0.3570
  212MPD1    C4 3222   2.860   2.872  16.791  0.2172  0.2012 -0.2632
  212MPD1    C5 3223   2.915   2.981  16.732  0.4281 -0.2125  0.3193
  212MPD1     H 3224   2.638   3.034  16.975 -0.5755  0.4071 -0.8969
  212MPD1    H1 3225   2.886   2.772  16.758 -0.8712 -0.1043 -0.1951
  212MPD1    H2 3226   2.940   3.196  16.724 -2.3892  2.6751  2.7728
  212MPD1    H3 3227   2.979   2.960  16.646  0.4355 -2.1693  0.8108
  212MPD1     N 3228   2.714   2.776  16.940  0.1611 -0.5541 -0.2149
  212MPD1    H5 3229   2.776   2.698  16.920  1.3410  0.4328 -0.3393
  212MPD1    N1 3230   2.758   3.265  16.899  0.4443  0.4792 -0.1841
  212MPD1    H6 3231   2.772   3.331  16.823  0.7267  1.4068  0.6785
  212MPD1    H7 3232   2.668   3.284  16.944  0.3450 -0.1987 -0.0955
  213MPD1     C 3233   1.104   3.489  16.193 -0.8290 -0.1828 -0.1311
  213MPD1    C1 3234   0.985   3.464  16.123  0.0138 -0.0403  0.4830
  213MPD1    C2 3235   0.996   3.444  15.986 -0.1539  0.4292 -1.1878
  213MPD1    C3 3236   1.112   3.485  15.919 -0.2333  0.0373  0.0463
  213MPD1    C4 3237   1.219   3.542  15.988  0.2326  0.2719  0.1383
  213MPD1    C5 3238   1.216   3.532  16.127  0.5458 -0.0967  0.0413
  213MPD1     H 3239   0.913   3.407  15.927 -0.6735 -1.5465  0.7722
  213MPD1    H1 3240   1.302   3.597  15.947 -0.3800 -1.3009 -3.2265
  213MPD1    H2 3241   1.102   3.499  16.301  1.0852 -2.1501  0.0816
  213MPD1    H3 3242   1.302   3.563  16.185  0.3170 -1.5428  1.1411
  213MPD1     N 3243   1.110   3.463  15.775  0.3094  0.0675 -0.2711
  213MPD1    H5 3244   1.035   3.415  15.725  1.4619 -1.3017 -0.6995
  213MPD1    N1 3245   0.885   3.395  16.184  0.3002 -0.0578 -0.3988
  213MPD1    H6 3246   0.858   3.431  16.275 -1.9810  0.4034 -1.2659
  213MPD1    H7 3247   0.807   3.382  16.119  1.1054  1.5257 -1.6743
  214MPD1     C 3248   0.727   2.891  15.085 -0.5215  0.5232 -0.2704
  214MPD1    C1 3249   0.720   2.903  15.221 -0.1566  0.0931 -0.4280
  214MPD1    C2 3250   0.791   3.005  15.275 -0.3336  0.4801 -0.2931
  214MPD1    C3 3251   0.861   3.096  15.200 -0.6449  0.1882  0.2127
  214MPD1    C4 3252   0.862   3.077  15.062  0.0889  0.0677 -0.6372
  214MPD1    C5 3253   0.798   2.971  15.010 -0.2609  0.2776 -0.6408
  214MPD1     H 3254   0.795   3.022  15.382 -1.1648  1.1406 -0.3639
  214MPD1    H1 3255   0.908   3.140  14.986 -0.4768 -1.9681 -2.6736
  214MPD1    H2 3256   0.680   2.804  15.040  0.4438 -0.0365 -0.2031
  214MPD1    H3 3257   0.793   2.965  14.902  1.2106  1.1602 -0.7522
  214MPD1     N 3258   0.940   3.195  15.255  0.0678 -0.2282  0.1747
  214MPD1    H5 3259   1.005   3.238  15.190 -0.3615 -0.8837 -0.6924
  214MPD1    N1 3260   0.676   2.795  15.306 -0.4910  0.3545 -0.4066
  214MPD1    H6 3261   0.614   2.725  15.265 -1.3173  0.2328  1.0563
  214MPD1    H7 3262   0.634   2.841  15.387 -0.2596 -0.8710  0.4180
  215MPD1     C 3263   0.541   4.141  11.309  0.0477  0.1404  0.0243
  215MPD1    C1 3264   0.577   4.204  11.425  0.1523 -0.5032 -0.9689
  215MPD1    C2 3265   0.710   4.242  11.426  0.4231  0.3098  0.0129
  215MPD1    C3 3266   0.798   4.229  11.321  0.5929  0.9248  0.4493
  215MPD1    C4 3267   0.752   4.176  11.200  0.1326  0.6684 -0.3614
  215MPD1    C5 3268   0.627   4.128  11.199  0.5271 -0.2459  0.3593
  215MPD1     H 3269   0.746   4.287  11.518  0.5790 -0.0344  0.1201
  215MPD1    H1 3270   0.818   4.148  11.118 -0.6929  0.5460 -0.9747
  215MPD1    H2 3271   0.437   4.110  11.301  0.4023 -1.3151  1.1108
  215MPD1    H3 3272   0.604   4.066  11.113 -0.8068  0.1628  0.4135
  215MPD1     N 3273   0.933   4.265  11.343  0.1583  0.7665 -0.0813
  215MPD1    H5 3274   0.959   4.291  11.437 -0.8482  2.2434 -0.2120
  215MPD1    N1 3275   0.491   4.210  11.534  0.0103  0.0348  0.4539
  215MPD1    H6 3276   0.514   4.286  11.598 -0.6111 -1.0098  1.9119
  215MPD1    H7 3277   0.396   4.231  11.502 -0.8308 -0.3192  2.7428
  216MPD1     C 3278   3.521   1.261  17.043 -0.0818  0.4224  0.0142
  216MPD1    C1 3279   3.550   1.350  17.142 -0.7344 -0.3592 -0.1817
  216MPD1    C2 3280   3.442   1.397  17.209  0.6332 -0.7131  0.1222
  216MPD1    C3 3281   3.313   1.356  17.186 -0.3695 -0.2852 -0.8247
  216MPD1    C4 3282   3.287   1.265  17.085 -0.5881  0.3740  0.1735
  216MPD1    C5 3283   3.390   1.210  17.021 -0.0614  0.7241  0.1123
  216MPD1     H 3284   3.470   1.478  17.275 -0.0453 -1.1522  0.9539
  216MPD1    H1 3285   3.188   1.225  17.063  0.2423 -0.9512 -1.1874
  216MPD1    H2 3286   3.601   1.230  16.977 -0.9349  0.4450 -1.0339
  216MPD1    H3 3287   3.370   1.133  16.947 -0.2975  1.4292 -0.5541
  216MPD1     N 3288   3.207   1.413  17.259  0.4619 -0.0311  0.2304
  216MPD1    H5 3289   3.233   1.461  17.344 -0.0469 -2.7440  1.9291
  216MPD1    N1 3290   3.676   1.407  17.153 -0.1322  0.2056  0.0180
  216MPD1    H6 3291   3.755   1.359  17.110  0.6409  1.4177  0.1024
  216MPD1    H7 3292   3.695   1.429  17.251 -0.8276 -0.7114  0.3603
  217MPD1     C 3293   0.171   3.478   8.680 -0.4510  0.1515  0.1717
  217MPD1    C1 3294   0.122   3.559   8.777  0.1547 -0.5365 -0.1841
  217MPD1    C2 3295   0.121   3.515   8.904 -0.3391  0.1509  0.3231
  217MPD1    C3 3296   0.152   3.389   8.940 -0.6246 -0.1266 -0.0235
  217MPD1    C4 3297   0.206   3.306   8.841 -0.4301  0.2135 -0.0762
  217MPD1    C5 3298   0.209   3.351   8.710  0.5290 -0.6982  0.1213
  217MPD1     H 3299   0.079   3.582   8.977 -2.2475 -1.3913  0.6463
  217MPD1    H1 3300   0.238   3.204   8.857  2.0337  0.7568 -1.4302
  217MPD1    H2 3301   0.173   3.513   8.578 -0.5124 -2.4367 -0.7057
  217MPD1    H3 3302   0.243   3.287   8.630  0.6841  0.5045 -0.7751
  217MPD1     N 3303   0.140   3.342   9.074  0.4422  0.0269  0.2904
  217MPD1    H5 3304   0.158   3.247   9.104 -0.7513  0.3482  2.0337
  217MPD1    N1 3305   0.085   3.686   8.751  0.4152  0.1238 -0.4996
  217MPD1    H6 3306   0.012   3.714   8.816  0.3793 -0.4007 -0.3091
  217MPD1    H7 3307   0.049   3.704   8.657  1.1822 -0.3989 -0.8897
  218MPD1     C 3308   1.975   0.621  12.188 -0.6575 -0.4111  0.1702
  218MPD1    C1 3309   2.000   0.552  12.072 -0.6784 -0.6746  0.6025
  218MPD1    C2 3310   1.934   0.431  12.047  0.7288  0.2622 -0.0372
  218MPD1    C3 3311   1.846   0.377  12.142 -0.1011  0.2576 -0.7937
  218MPD1    C4 3312   1.819   0.447  12.260 -0.1770  0.3825  0.6715
  218MPD1    C5 3313   1.888   0.562  12.278  0.2755  1.0380  0.2011
  218MPD1     H 3314   1.946   0.384  11.950 -1.7352 -0.4637  0.0045
  218MPD1    H1 3315   1.770   0.396  12.342  0.3303  0.9580  1.3357
  218MPD1    H2 3316   2.019   0.718  12.205 -1.4408  0.2310 -1.5324
  218MPD1    H3 3317   1.866   0.616  12.369 -2.7002  1.4788 -0.7646
  218MPD1     N 3318   1.789   0.251  12.113 -0.8263 -0.1823  0.0293
  218MPD1    H5 3319   1.817   0.208  12.025 -0.9499 -0.8565  0.3241
  218MPD1    N1 3320   2.068   0.606  11.960  0.2414 -0.3056 -0.3026
  218MPD1    H6 3321   2.126   0.688  11.975  0.0766 -0.1335 -0.6161
  218MPD1    H7 3322   2.120   0.537  11.906  3.3981  1.5198  0.3913
  219MPD1     C 3323   1.699   4.260  11.423 -0.1686  0.7360  0.5516
  219MPD1    C1 3324   1.733   4.392  11.428  0.2728  0.1070  0.3600
  219MPD1    C2 3325   1.726   4.463  11.548 -0.8607 -0.1593 -0.2758
  219MPD1    C3 3326   1.657   4.400  11.657  0.2787 -0.6454 -0.1323
  219MPD1    C4 3327   1.617   4.270  11.635  0.5335 -0.8256 -0.3516
  219MPD1    C5 3328   1.640   4.201  11.526  0.1756  0.7677 -0.2085
  219MPD1     H 3329   1.763   4.565  11.550  1.2111 -0.9116 -0.1084
  219MPD1    H1 3330   1.564   4.214  11.711 -0.2986  2.9651  1.8475
  219MPD1    H2 3331   1.714   4.196  11.337 -0.2712  0.9025  0.4105
  219MPD1    H3 3332   1.593   4.104  11.509  1.7059  0.0166 -0.1560
  219MPD1     N 3333   1.641   4.458  11.786  0.3262 -0.4490 -0.7214
  219MPD1    H5 3334   1.616   4.393  11.860  2.4335  3.0601  3.1030
  219MPD1    N1 3335   1.785   4.453  11.310  0.0855 -0.0490 -0.2194
  219MPD1    H6 3336   1.775   4.400  11.223 -0.6057  1.0078 -0.7869
  219MPD1    H7 3337   1.741   4.543  11.295 -0.9617 -0.8259 -1.8342
  220MPD1     C 3338   1.882   0.642   9.956 -0.4108  0.6165 -0.6280
  220MPD1    C1 3339   1.924   0.577  10.070  0.3361  0.2790 -1.6989
  220MPD1    C2 3340   1.832   0.510  10.149  0.3146 -0.1595  0.4415
  220MPD1    C3 3341   1.694   0.503  10.114 -0.8829  0.5401 -1.0674
  220MPD1    C4 3342   1.652   0.567   9.997  0.2111 -0.4096 -0.2446
  220MPD1    C5 3343   1.745   0.644   9.929 -0.6103  0.7928  1.0241
  220MPD1     H 3344   1.858   0.450  10.235 -1.1176 -1.6180 -0.1513
  220MPD1    H1 3345   1.547   0.585   9.978  0.3468  1.5445  0.8780
  220MPD1    H2 3346   1.951   0.705   9.902  0.4198  0.4171  0.2093
  220MPD1    H3 3347   1.719   0.710   9.848 -1.0993 -2.5776 -1.5642
  220MPD1     N 3348   1.616   0.423  10.194  0.4762  0.0519  0.5784
  220MPD1    H5 3349   1.656   0.388  10.281  0.6935 -5.0000 -1.5533
  220MPD1    N1 3350   2.055   0.565  10.092 -0.4180  0.2240  0.3840
  220MPD1    H6 3351   2.076   0.580  10.191 -0.5901  0.1358  0.4349
  220MPD1    H7 3352   2.101   0.641  10.043 -1.6684  0.4889 -0.3593
  221MPD1     C 3353   2.593   4.306  16.208 -0.4509 -0.3450  0.1123
  221MPD1    C1 3354   2.653   4.330  16.329 -0.3639  0.6689 -0.0071
  221MPD1    C2 3355   2.675   4.229  16.423  0.2603 -0.2409 -0.2237
  221MPD1    C3 3356   2.643   4.102  16.388  0.0880 -0.4003 -0.0672
  221MPD1    C4 3357   2.582   4.071  16.265 -0.5123 -0.2664  0.0972
  221MPD1    C5 3358   2.563   4.174  16.173 -0.7687 -0.0939 -0.3616
  221MPD1     H 3359   2.717   4.260  16.518  0.8618 -1.2108 -0.1677
  221MPD1    H1 3360   2.554   3.973  16.229  0.6296  0.2213 -2.1249
  221MPD1    H2 3361   2.579   4.387  16.138 -0.7424  0.2622  0.8766
  221MPD1    H3 3362   2.522   4.150  16.076 -1.1428 -2.5762  0.4168
  221MPD1     N 3363   2.668   3.993  16.474 -0.2607  0.2412 -0.5241
  221MPD1    H5 3364   2.626   3.903  16.456  0.2438 -0.2630  0.7709
  221MPD1    N1 3365   2.673   4.466  16.363  0.4894  0.2062  0.0634
  221MPD1    H6 3366   2.681   4.511  16.272 -2.0150 -0.8364 -0.6765
  221MPD1    H7 3367   2.753   4.483  16.424  1.9257 -0.6348 -1.5961
  222MPD1     C 3368   3.114   2.571  16.925 -0.5314 -0.0153 -0.1604
  222MPD1    C1 3369   3.061   2.454  16.969  0.2833 -0.1450 -0.9601
  222MPD1    C2 3370   3.009   2.447  17.095 -0.6879  0.6121  0.0613
  222MPD1    C3 3371   2.991   2.561  17.170 -0.6086 -0.3111 -0.2368
  222MPD1    C4 3372   3.037   2.682  17.118 -0.3967  0.0526 -0.0033
  222MPD1    C5 3373   3.094   2.690  16.999 -0.2104  0.5779 -0.2409
  222MPD1     H 3374   2.971   2.354  17.134  0.7639 -0.6567 -1.5778
  222MPD1    H1 3375   3.033   2.774  17.176 -1.3429 -1.0266  1.6686
  222MPD1    H2 3376   3.172   2.577  16.834 -0.4562  0.0376 -0.1091
  222MPD1    H3 3377   3.153   2.772  16.959 -0.8412  1.2335  0.1837
  222MPD1     N 3378   2.925   2.566  17.295 -0.3118 -0.2307 -0.9370
  222MPD1    H5 3379   2.911   2.654  17.344 -2.1612 -1.5657  0.9494
  222MPD1    N1 3380   3.090   2.339  16.897  0.1147  0.4446  0.4929
  222MPD1    H6 3381   3.030   2.258  16.911 -0.0956  0.4350 -0.4596
  222MPD1    H7 3382   3.113   2.349  16.798  1.6607 -0.9765  0.7236
  223MPD1     C 3383   2.512   1.807   0.117  0.0101  0.6739 -0.9507
  223MPD1    C1 3384   2.587   1.815   0.004 -0.0956  0.8549 -0.2952
  223MPD1    C2 3385   2.627   1.946  17.669  0.2082 -0.4573 -0.0568
  223MPD1    C3 3386   2.570   2.059   0.015  0.5414  0.1614 -0.2645
  223MPD1    C4 3387   2.482   2.048   0.115 -0.4722  0.5292 -0.0684
  223MPD1    C5 3388   2.466   1.923   0.170 -0.2590  0.3191 -0.2428
  223MPD1     H 3389   2.700   1.957  17.590 -0.5219  1.0453 -0.5317
  223MPD1    H1 3390   2.416   2.128   0.148  0.2950  0.4881  1.5668
  223MPD1    H2 3391   2.493   1.713   0.168  1.2727  1.0332  0.1820
  223MPD1    H3 3392   2.405   1.906   0.258  2.0482 -2.4591  0.8110
  223MPD1     N 3393   2.613   2.182  17.661 -0.1008 -0.1587 -0.1660
  223MPD1    H5 3394   2.686   2.173  17.592 -0.8663  1.8384 -1.2427
  223MPD1    N1 3395   2.653   1.707  17.649  0.4910 -0.0213 -0.2584
  223MPD1    H6 3396   2.586   1.631  17.638 -0.8260  1.2244 -0.8717
  223MPD1    H7 3397   2.675   1.729  17.552  3.6766 -1.4204  0.1689
  224MPD1     C 3398   1.556   3.393   9.618  0.1655 -0.2454  0.6716
  224MPD1    C1 3399   1.517   3.510   9.683 -0.2968 -0.5219 -0.4144
  224MPD1    C2 3400   1.403   3.507   9.761 -0.0139  0.4132 -0.5495
  224MPD1    C3 3401   1.331   3.393   9.783 -0.2641  0.1687 -0.4104
  224MPD1    C4 3402   1.390   3.275   9.732 -0.0764  0.1823 -0.2100
  224MPD1    C5 3403   1.501   3.273   9.653  0.3603  0.5868  0.0935
  224MPD1     H 3404   1.371   3.603   9.802  0.6062 -0.1392  1.2354
  224MPD1    H1 3405   1.343   3.180   9.755  0.4589  0.2189  1.0238
  224MPD1    H2 3406   1.644   3.391   9.555 -0.5124  2.1912 -0.3264
  224MPD1    H3 3407   1.545   3.185   9.608 -2.2691 -0.1250 -1.0918
  224MPD1     N 3408   1.210   3.379   9.856 -0.1676  0.5136  0.4231
  224MPD1    H5 3409   1.179   3.286   9.882  2.7054 -0.5298  0.1128
  224MPD1    N1 3410   1.578   3.626   9.649 -0.0222 -0.0464  0.1842
  224MPD1    H6 3411   1.568   3.684   9.732 -1.1155 -1.3143  0.9291
  224MPD1    H7 3412   1.676   3.607   9.627 -0.1885 -0.9611  0.2571
  225MPD1     C 3413   1.518   0.703  12.871 -0.3555 -0.1696 -0.4900
  225MPD1    C1 3414   1.433   0.604  12.851  0.7069 -0.4217 -0.3863
  225MPD1    C2 3415   1.318   0.632  12.786 -0.1271  0.1896  0.3992
  225MPD1    C3 3416   1.276   0.756  12.754 -0.5253  0.2267 -0.4396
  225MPD1    C4 3417   1.367   0.850  12.775 -0.4655  0.4040 -0.3845
  225MPD1    C5 3418   1.489   0.832  12.830 -0.1981  0.3104 -0.2108
  225MPD1     H 3419   1.256   0.545  12.768 -0.0073  0.1462  0.2021
  225MPD1    H1 3420   1.351   0.952  12.744 -0.4752  0.3745 -0.4778
  225MPD1    H2 3421   1.614   0.697  12.920 -0.0736  1.5480 -0.7972
  225MPD1    H3 3422   1.555   0.918  12.841 -0.2658  0.3526 -0.1324
  225MPD1     N 3423   1.156   0.790  12.689  0.0483 -0.4513 -0.3849
  225MPD1    H5 3424   1.143   0.887  12.662 -2.0648 -0.4723  0.5161
  225MPD1    N1 3425   1.464   0.482  12.913 -0.0903  0.4050  0.3759
  225MPD1    H6 3426   1.458   0.399  12.853 -0.8555  0.8893 -0.2223
  225MPD1    H7 3427   1.563   0.481  12.937  0.6027 -1.4824 -2.5058
  226MPD1     C 3428   4.434   4.542  10.109 -0.4000  0.1919 -0.2240
  226MPD1    C1 3429   4.544   4.595  10.062  0.2983  0.2399 -0.1760
  226MPD1    C2 3430   4.552   0.006  10.045  0.5135 -0.1532 -0.2283
  226MPD1    C3 3431   4.458   0.088  10.104  0.6899 -0.1776 -0.0457
  226MPD1    C4 3432   4.348   0.039  10.162  0.9208 -0.2875  0.1744
  226MPD1    C5 3433   4.340   4.624  10.162  0.2907 -0.7206 -0.0722
  226MPD1     H 3434   4.640   0.044   9.994  0.0370  0.2852 -0.7213
  226MPD1    H1 3435   4.266   0.089  10.213  1.0796  1.3407 -1.1755
  226MPD1    H2 3436   4.402   4.438  10.106 -0.2569  0.1679 -1.0299
  226MPD1    H3 3437   4.246   4.591  10.204 -1.0447 -0.3058 -2.7851
  226MPD1     N 3438   4.493   0.226  10.101 -0.2834  0.7390  0.3760
  226MPD1    H5 3439   4.586   0.245  10.065 -0.2363  3.1868  1.7324
  226MPD1    N1 3440   4.632   4.506   9.992  0.1793 -0.7477 -0.6024
  226MPD1    H6 3441   4.722   4.554   9.985  0.7222 -1.8464 -1.2120
  226MPD1    H7 3442   4.641   4.416  10.037  1.6173  0.2764  1.1490
  227MPD1     C 3443   4.506   1.053  10.740 -0.3376 -0.2117 -0.2532
  227MPD1    C1 3444   4.623   1.003  10.706  0.7605 -0.1104  0.7966
  227MPD1    C2 3445   4.635   0.918  10.596 -0.5197 -0.2415  0.1162
  227MPD1    C3 3446   4.520   0.875  10.525  0.7138  0.1552  0.6093
  227MPD1    C4 3447   4.399   0.907  10.585  0.3873 -0.5862 -0.3414
  227MPD1    C5 3448   4.396   1.004  10.682  0.0245  0.1190 -0.7463
  227MPD1     H 3449   0.006   0.890  10.556 -1.1126 -0.9776 -0.7928
  227MPD1    H1 3450   4.305   0.880  10.537  0.3289 -1.8276  0.4964
  227MPD1    H2 3451   4.493   1.124  10.821 -0.5897 -0.3748 -0.1488
  227MPD1    H3 3452   4.306   1.046  10.727 -0.3103 -1.1738 -0.2230
  227MPD1     N 3453   4.538   0.794  10.417 -0.7919 -0.5660  0.4014
  227MPD1    H5 3454   4.634   0.771  10.393 -1.2429  0.5503 -2.4279
  227MPD1    N1 3455   0.006   1.052  10.766 -0.0668  0.3911 -0.0517
  227MPD1    H6 3456   0.074   0.976  10.767 -0.1526  0.3404  1.2780
  227MPD1    H7 3457   4.698   1.085  10.856  1.7905 -1.2272  1.2513
  228MPD1     C 3458   3.012   3.332  13.034 -0.2460  0.2563  0.4297
  228MPD1    C1 3459   2.927   3.437  13.027 -0.1415 -0.8069 -0.3384
  228MPD1    C2 3460   2.792   3.412  13.047 -0.6284  0.1531 -0.3158
  228MPD1    C3 3461   2.741   3.290  13.091  0.2927  0.2567 -0.5353
  228MPD1    C4 3462   2.829   3.186  13.086 -0.3972 -0.2161 -1.0056
  228MPD1    C5 3463   2.963   3.207  13.053  0.0485 -0.0589 -0.4346
  228MPD1     H 3464   2.723   3.496  13.048  1.7084  2.0691 -1.5941
  228MPD1    H1 3465   2.805   3.081  13.096 -0.8469 -0.3166 -3.0388
  228MPD1    H2 3466   3.117   3.342  13.009 -0.8820  1.0034 -1.9770
  228MPD1    H3 3467   3.026   3.119  13.059 -1.1474 -0.8545  0.3459
  228MPD1     N 3468   2.609   3.280  13.139  0.0074 -0.9232  0.6872
  228MPD1    H5 3469   2.547   3.360  13.128  1.7087  0.2446 -0.2914
  228MPD1    N1 3470   2.975   3.556  12.972 -0.1178  0.2915 -0.2255
  228MPD1    H6 3471   3.071   3.569  13.002 -0.5222  1.4169  0.5844
  228MPD1    H7 3472   2.932   3.642  13.007  0.1611  0.4040 -0.1636
  229MPD1     C 3473   2.738   2.135  14.711 -1.1477 -0.0541 -0.2902
  229MPD1    C1 3474   2.833   2.036  14.693  0.5688  0.0166  0.3586
  229MPD1    C2 3475   2.807   1.912  14.753 -0.8106 -0.2137 -0.0249
  229MPD1    C3 3476   2.699   1.892  14.842  1.3139 -0.4840 -0.4324
  229MPD1    C4 3477   2.608   1.994  14.850 -0.2677 -0.2095  0.4217
  229MPD1    C5 3478   2.626   2.116  14.786  0.3301  0.3700  0.1087
  229MPD1     H 3479   2.882   1.835  14.743 -0.8289 -0.1761 -0.4460
  229MPD1    H1 3480   2.520   1.993  14.913  0.0808 -1.5596  0.8748
  229MPD1    H2 3481   2.751   2.238  14.677 -3.2197 -0.0676 -1.1731
  229MPD1    H3 3482   2.548   2.191  14.795  0.0109 -0.1463  1.6886
  229MPD1     N 3483   2.661   1.774  14.911  0.3282 -0.2920 -0.3312
  229MPD1    H5 3484   2.569   1.774  14.955  0.1352 -1.7290 -0.7587
  229MPD1    N1 3485   2.932   2.049  14.592  0.2782  0.0990 -0.4153
  229MPD1    H6 3486   2.939   2.147  14.566 -2.6672 -0.1055 -1.9721
  229MPD1    H7 3487   3.024   2.016  14.621 -0.4470  0.4449  2.2718
  230MPD1     C 3488   2.348   1.294  15.753  0.2387  0.3551  0.8015
  230MPD1    C1 3489   2.447   1.215  15.705 -0.4131  0.1712 -0.4334
  230MPD1    C2 3490   2.504   1.229  15.579  0.7860  0.3799  0.3723
  230MPD1    C3 3491   2.467   1.338  15.501  0.4795 -0.7805 -0.7038
  230MPD1    C4 3492   2.371   1.423  15.561  0.2401  0.3081  0.1389
  230MPD1    C5 3493   2.314   1.399  15.684  0.5078 -0.0673  0.3020
  230MPD1     H 3494   2.584   1.163  15.548 -0.1908  0.7151 -2.8595
  230MPD1    H1 3495   2.336   1.513  15.512 -0.0308  0.6981  1.0457
  230MPD1    H2 3496   2.314   1.282  15.856  0.5358  1.1105  0.9817
  230MPD1    H3 3497   2.251   1.479  15.720  1.7507 -0.0583  2.4746
  230MPD1     N 3498   2.527   1.364  15.379  0.3733  0.3503  0.2477
  230MPD1    H5 3499   2.577   1.285  15.340  1.0494  1.1236 -0.4405
  230MPD1    N1 3500   2.466   1.094  15.771  0.0190 -0.2483 -0.5214
  230MPD1    H6 3501   2.447   1.107  15.870  0.0715  2.3193 -0.8454
  230MPD1    H7 3502   2.562   1.061  15.759  0.6512  1.3022  0.2573
  231MPD1     C 3503   0.879   3.677  15.747 -0.9671  0.2513 -0.1708
  231MPD1    C1 3504   0.831   3.668  15.618 -0.0193  0.6951 -0.2956
  231MPD1    C2 3505   0.882   3.742  15.523  0.2975 -0.0315  0.7493
  231MPD1    C3 3506   0.973   3.839  15.543  0.7291  0.6677 -0.1864
  231MPD1    C4 3507   1.031   3.854  15.672  0.1150 -0.1971 -0.3327
  231MPD1    C5 3508   0.977   3.774  15.772  0.0420  0.0123 -0.4016
  231MPD1     H 3509   0.852   3.725  15.420 -2.7982  0.3493  1.5725
  231MPD1    H1 3510   1.104   3.931  15.689  1.5352 -1.3943 -1.0579
  231MPD1    H2 3511   0.833   3.626  15.830 -1.5443  2.1771  0.6884
  231MPD1    H3 3512   1.014   3.776  15.874 -1.9681 -1.8014  0.3796
  231MPD1     N 3513   1.019   3.918  15.431  0.0028  0.2101 -0.6592
  231MPD1    H5 3514   0.965   3.906  15.346 -0.2470 -1.7756 -0.2156
  231MPD1    N1 3515   0.724   3.583  15.588  0.0449 -0.1500  0.2965
  231MPD1    H6 3516   0.721   3.565  15.488  0.5778 -3.9767  0.9429
  231MPD1    H7 3517   0.733   3.493  15.635  0.1416 -0.3176 -0.0454
  232MPD1     C 3518   3.142   0.986   0.785  0.3744  0.4686  0.7798
  232MPD1    C1 3519   3.036   0.905   0.747 -0.3471 -0.0639  0.3762
  232MPD1    C2 3520   2.917   0.970   0.718  0.2994  0.1477 -0.4929
  232MPD1    C3 3521   2.901   1.108   0.720 -0.4194 -0.7572 -0.4189
  232MPD1    C4 3522   3.015   1.185   0.753  0.0510  0.5416  0.3183
  232MPD1    C5 3523   3.129   1.118   0.790  0.9460  0.1439  0.9809
  232MPD1     H 3524   2.838   0.904   0.683  1.2111 -1.9897  1.5080
  232MPD1    H1 3525   3.006   1.293   0.759  0.0813  0.5097  0.9637
  232MPD1    H2 3526   3.223   0.936   0.836  0.2370  1.8476  2.3595
  232MPD1    H3 3527   3.208   1.181   0.829  1.8457 -0.1070 -0.4373
  232MPD1     N 3528   2.774   1.162   0.690  0.5148 -0.1393 -0.8248
  232MPD1    H5 3529   2.695   1.099   0.694 -0.0710  0.5692 -1.3266
  232MPD1    N1 3530   3.038   0.768   0.779 -0.2770 -0.2458  0.3335
  232MPD1    H6 3531   2.977   0.719   0.714  1.1403 -1.6200  0.0340
  232MPD1    H7 3532   3.129   0.734   0.748  0.0591  0.8186  0.1418
  233MPD1     C 3533   3.156   4.512   1.226  0.0724  0.4474  0.6358
  233MPD1    C1 3534   3.273   4.483   1.164 -0.6437  0.1190 -0.3805
  233MPD1    C2 3535   3.387   4.453   1.241  0.1433 -0.1867 -0.1250
  233MPD1    C3 3536   3.368   4.431   1.371  0.8142 -0.5427 -0.4777
  233MPD1    C4 3537   3.246   4.460   1.433 -0.3726 -0.2220 -0.2712
  233MPD1    C5 3538   3.141   4.508   1.363 -0.5942 -0.0072  0.6365
  233MPD1     H 3539   3.483   4.420   1.203  0.5562  0.7346  0.1174
  233MPD1    H1 3540   3.228   4.456   1.540  0.0067 -1.1173 -0.2412
  233MPD1    H2 3541   3.076   4.540   1.159 -0.3142 -2.6083 -0.1819
  233MPD1    H3 3542   3.046   4.532   1.409 -0.8506  0.8609 -0.3433
  233MPD1     N 3543   3.484   4.387   1.445 -0.1434  0.0167 -0.1510
  233MPD1    H5 3544   3.565   4.368   1.387 -1.8764 -0.2736 -2.4725
  233MPD1    N1 3545   3.280   4.487   1.022  0.1848  0.3917 -0.6862
  233MPD1    H6 3546   3.345   4.554   0.981 -0.6461 -0.9350 -4.1925
  233MPD1    H7 3547   3.187   4.496   0.981 -0.5201 -1.3095  0.5766
  234MPD1     C 3548   0.345   1.813   9.629  0.1497 -0.3289 -0.6649
  234MPD1    C1 3549   0.405   1.901   9.541  0.2990  0.0135  0.1011
  234MPD1    C2 3550   0.451   2.027   9.590  0.1360  0.3061 -0.6806
  234MPD1    C3 3551   0.440   2.062   9.725 -0.2692 -0.1970 -0.5934
  234MPD1    C4 3552   0.387   1.969   9.810  0.8446  0.0190  0.3611
  234MPD1    C5 3553   0.339   1.848   9.761  0.1352  0.3135 -0.0615
  234MPD1     H 3554   0.489   2.102   9.522 -0.1397  1.7865  0.8148
  234MPD1    H1 3555   0.386   1.984   9.918 -2.1931  2.3147 -0.0114
  234MPD1    H2 3556   0.312   1.717   9.590 -1.9387  0.1195 -0.0108
  234MPD1    H3 3557   0.299   1.778   9.834  1.2682  2.2394  2.4126
  234MPD1     N 3558   0.498   2.183   9.774 -0.6384 -0.0229 -0.1642
  234MPD1    H5 3559   0.527   2.253   9.706 -0.7133  0.8894  0.7534
  234MPD1    N1 3560   0.417   1.875   9.402  0.1728 -0.4706  0.0356
  234MPD1    H6 3561   0.358   1.803   9.362 -1.0258  0.0608  0.8689
  234MPD1    H7 3562   0.407   1.961   9.349 -1.6628 -0.7376 -0.0477
  235MPD1     C 3563   1.172   0.777  10.675 -0.1700  0.2551 -0.8803
  235MPD1    C1 3564   1.278   0.861  10.701  0.5761 -0.3909  0.2568
  235MPD1    C2 3565   1.326   0.954  10.610 -0.0800  0.0609  0.6215
  235MPD1    C3 3566   1.256   0.972  10.490  0.7334  0.6654 -0.8289
  235MPD1    C4 3567   1.150   0.883  10.462 -0.8431  0.0726  0.8651
  235MPD1    C5 3568   1.116   0.786  10.552  0.6797 -0.5055 -0.0116
  235MPD1     H 3569   1.418   1.008  10.630 -1.4244  0.8911  4.6345
  235MPD1    H1 3570   1.093   0.895  10.371 -0.1383 -1.7189  0.1799
  235MPD1    H2 3571   1.127   0.702  10.739 -1.3527 -0.4282 -2.5230
  235MPD1    H3 3572   1.019   0.739  10.543  0.9342 -1.0575  0.1141
  235MPD1     N 3573   1.292   1.080  10.409 -0.5090  0.2250 -0.1500
  235MPD1    H5 3574   1.362   1.142  10.449  0.4187  0.2332 -1.7830
  235MPD1    N1 3575   1.321   0.866  10.831  0.6127  0.4428  0.1691
  235MPD1    H6 3576   1.298   0.778  10.877 -0.5685  0.7724  0.2216
  235MPD1    H7 3577   1.420   0.884  10.846  1.1645 -0.6257 -2.0897
  236MPD1     C 3578   0.891   2.294   9.799 -0.4803 -1.1231 -1.3094
  236MPD1    C1 3579   0.923   2.154   9.800 -0.6067  0.6126  0.5194
  236MPD1    C2 3580   1.021   2.119   9.893 -1.2459 -1.1004  0.7213
  236MPD1    C3 3581   1.059   2.205   9.996  0.1485  0.0950 -0.0269
  236MPD1    C4 3582   1.019   2.334   9.997  0.2282 -0.3070 -0.7644
  236MPD1    C5 3583   0.929   2.376   9.900  0.6044  0.1221  0.6560
  236MPD1     H 3584   1.062   2.019   9.890 -0.5839 -0.7964 -0.3190
  236MPD1    H1 3585   1.067   2.405  10.064  0.8634 -1.8585  0.4002
  236MPD1    H2 3586   0.823   2.338   9.728  0.9830  1.1211 -1.3105
  236MPD1    H3 3587   0.907   2.482   9.893  2.9842  0.5812 -0.1016
  236MPD1     N 3588   1.165   2.167  10.086  0.2283 -0.6195 -0.3256
  236MPD1    H5 3589   1.207   2.230  10.154 -2.8346 -0.0033  0.9555
  236MPD1    N1 3590   0.911   2.069   9.686 -0.1722 -0.5176 -0.5446
  236MPD1    H6 3591   0.829   2.091   9.629  1.0694  0.9477 -1.7517
  236MPD1    H7 3592   0.907   1.972   9.717 -1.0340  0.3725  2.1924
  237MPD1     C 3593   0.940   0.154  15.142  0.0011  0.3006  0.0817
  237MPD1    C1 3594   0.920   0.073  15.253  0.6909 -0.6482  0.0190
  237MPD1    C2 3595   0.787   0.066  15.306  0.0434  0.3660 -0.1937
  237MPD1    C3 3596   0.681   0.119  15.233 -0.2891  0.1836  0.2830
  237MPD1    C4 3597   0.713   0.187  15.121  0.7921  0.1798 -0.5234
  237MPD1    C5 3598   0.839   0.202  15.075 -0.3192  0.2945  0.0575
  237MPD1     H 3599   0.769   0.002  15.391 -1.6358  0.2941 -0.6144
  237MPD1    H1 3600   0.640   0.231  15.054 -1.4783 -2.7391  0.0706
  237MPD1    H2 3601   1.039   0.161  15.098 -1.0675  1.2112 -2.1743
  237MPD1    H3 3602   0.850   0.249  14.978  0.7014 -0.7998 -0.3442
  237MPD1     N 3603   0.543   0.087  15.254 -0.0264 -0.0024  0.8413
  237MPD1    H5 3604   0.479   0.138  15.194 -0.0562 -0.9481  0.0555
  237MPD1    N1 3605   1.037   0.034  15.321  0.4015  0.4557 -0.3866
  237MPD1    H6 3606   1.127   0.032  15.272  1.3162  5.0748  1.1071
  237MPD1    H7 3607   1.028   4.687  15.391 -0.8460 -0.2332 -1.2584
  238MPD1     C 3608   2.199   4.174  14.834  0.3118 -0.4911  0.6493
  238MPD1    C1 3609   2.061   4.182  14.828  0.1047 -0.0982  0.1031
  238MPD1    C2 3610   1.987   4.070  14.849  0.2908  0.4760 -0.5780
  238MPD1    C3 3611   2.049   3.946  14.852 -0.5785  0.5764  0.0820
  238MPD1    C4 3612   2.188   3.945  14.863  0.5099  0.4153  0.1615
  238MPD1    C5 3613   2.259   4.058  14.857 -0.5892 -0.0608 -0.2473
  238MPD1     H 3614   1.881   4.087  14.831 -0.6267 -2.8695  1.6304
  238MPD1    H1 3615   2.247   3.854  14.862 -1.1939 -0.6882  0.3061
  238MPD1    H2 3616   2.262   4.262  14.826 -0.1037 -0.2542 -0.0613
  238MPD1    H3 3617   2.367   4.054  14.864 -0.5838  2.1614  0.7355
  238MPD1     N 3618   1.980   3.822  14.838  0.5591 -1.1661  0.0572
  238MPD1    H5 3619   2.040   3.741  14.829 -0.1089 -2.1537  4.1902
  238MPD1    N1 3620   1.994   4.309  14.822  0.0069 -0.0540  0.4058
  238MPD1    H6 3621   2.031   4.363  14.743 -1.7247 -0.5902 -0.7716
  238MPD1    H7 3622   2.024   4.366  14.901 -0.7656 -1.7832  1.9356
  239MPD1     C 3623   2.715   3.835  14.662 -0.1946  0.0898 -0.2291
  239MPD1    C1 3624   2.642   3.910  14.751 -0.0808 -0.6304  0.7040
  239MPD1    C2 3625   2.617   4.037  14.712 -0.2373  0.2134  0.6688
  239MPD1    C3 3626   2.660   4.094  14.593 -0.1059  0.0313  0.6219
  239MPD1    C4 3627   2.731   4.013  14.503 -0.3663 -0.0725 -0.6073
  239MPD1    C5 3628   2.755   3.887  14.542 -0.0940  0.1605 -0.1873
  239MPD1     H 3629   2.560   4.091  14.786  1.1393  5.1001 -1.8820
  239MPD1    H1 3630   2.752   4.035  14.399 -0.1436 -1.3124 -0.8358
  239MPD1    H2 3631   2.740   3.731  14.679 -0.1777 -0.0260 -0.9809
  239MPD1    H3 3632   2.816   3.829  14.472 -0.8960 -1.7802  0.7174
  239MPD1     N 3633   2.632   4.223  14.546 -0.1088  0.1485 -0.3845
  239MPD1    H5 3634   2.691   4.260  14.472  0.5058 -1.9269 -0.9388
  239MPD1    N1 3635   2.573   3.841  14.855  0.1664  0.0424 -0.2924
  239MPD1    H6 3636   2.557   3.899  14.937 -4.8966 -0.7474 -0.6916
  239MPD1    H7 3637   2.626   3.760  14.887  0.6848  0.5875  0.2234
  240MPD1     C 3638   2.450   4.040  13.316  0.1705 -0.1112 -0.9349
  240MPD1    C1 3639   2.355   4.094  13.390  0.0222  0.7942  0.0144
  240MPD1    C2 3640   2.339   4.051  13.520 -0.4108 -0.9182 -0.8537
  240MPD1    C3 3641   2.429   3.968  13.577  0.4676  0.3246  0.5434
  240MPD1    C4 3642   2.524   3.913  13.493 -0.8040 -0.6076 -0.0628
  240MPD1    C5 3643   2.537   3.948  13.369  0.3128  0.4702  0.2001
  240MPD1     H 3644   2.266   4.099  13.585  0.9162  1.3415 -1.0272
  240MPD1    H1 3645   2.603   3.845  13.523 -1.4226 -1.1338  0.3805
  240MPD1    H2 3646   2.459   4.054  13.209  2.8863 -0.2861 -0.7356
  240MPD1    H3 3647   2.628   3.916  13.320 -0.1665 -0.2699 -0.1912
  240MPD1     N 3648   2.416   3.941  13.714 -0.3752  0.0200  0.3752
  240MPD1    H5 3649   2.340   3.984  13.766  0.5656  0.1090  1.6858
  240MPD1    N1 3650   2.266   4.186  13.331 -0.0656  0.0580  0.3860
  240MPD1    H6 3651   2.235   4.255  13.399 -0.3562 -1.1270  1.4740
  240MPD1    H7 3652   2.299   4.231  13.246 -0.7765  0.3481  0.2607
  241MPD1     C 3653   2.967   3.436  14.414 -0.3437 -1.0983 -0.1357
  241MPD1    C1 3654   2.847   3.465  14.484  0.0350  0.8670  0.1004
  241MPD1    C2 3655   2.749   3.531  14.417 -0.0052 -0.6533  0.1161
  241MPD1    C3 3656   2.756   3.557  14.279  0.1930  0.4138  0.7807
  241MPD1    C4 3657   2.872   3.515  14.205 -0.0806 -0.1149 -0.8758
  241MPD1    C5 3658   2.978   3.461  14.278 -0.2159 -0.4973  0.3115
  241MPD1     H 3659   2.656   3.550  14.470  0.9423  0.3938  1.4145
  241MPD1    H1 3660   2.886   3.535  14.099  0.0352 -0.1216 -0.8613
  241MPD1    H2 3661   3.050   3.390  14.468  1.1370  0.3004 -1.2244
  241MPD1    H3 3662   3.066   3.430  14.224 -0.9372 -2.5939  0.3491
  241MPD1     N 3663   2.658   3.623  14.204 -0.0511  0.0397  0.2016
  241MPD1    H5 3664   2.673   3.623  14.104 -1.7132 -1.6020 -0.0419
  241MPD1    N1 3665   2.852   3.452  14.620  0.0165 -0.1274  0.7050
  241MPD1    H6 3666   2.763   3.439  14.667  0.0840  0.1609  0.9145
  241MPD1    H7 3667   2.929   3.395  14.653  0.2262 -0.2142  0.0695
  242MPD1     C 3668   1.834   2.493  16.354 -1.0925  0.1092  0.9234
  242MPD1    C1 3669   1.863   2.589  16.255 -0.8323  0.4502 -0.0334
  242MPD1    C2 3670   1.906   2.553  16.127 -0.2761  0.4893 -0.4748
  242MPD1    C3 3671   1.941   2.421  16.103 -0.0844 -0.4496  0.6653
  242MPD1    C4 3672   1.921   2.325  16.201  0.2931  0.7724 -0.0175
  242MPD1    C5 3673   1.868   2.365  16.324  0.6300 -0.1302  0.3425
  242MPD1     H 3674   1.930   2.639  16.066  1.3656  0.9260  0.8019
  242MPD1    H1 3675   1.937   2.220  16.184  0.8829  0.6053  1.5918
  242MPD1    H2 3676   1.795   2.505  16.455 -1.2474 -2.1136  1.1194
  242MPD1    H3 3677   1.862   2.287  16.399  0.4811  0.3436  0.8166
  242MPD1     N 3678   1.987   2.364  15.986 -0.5053  0.0488 -0.2267
  242MPD1    H5 3679   2.012   2.266  15.992  0.9312  0.4603  0.4052
  242MPD1    N1 3680   1.821   2.723  16.272 -0.0975 -0.7811  0.1656
  242MPD1    H6 3681   1.880   2.786  16.219  0.0895  0.2800  1.6393
  242MPD1    H7 3682   1.818   2.748  16.370  0.0974  1.3320 -0.3681
  243MPD1     C 3683   3.397   1.690   0.891  0.8404  0.2001 -0.4726
  243MPD1    C1 3684   3.271   1.742   0.862  0.1899  0.2896  0.1087
  243MPD1    C2 3685   3.207   1.687   0.753 -1.1075 -0.0901 -0.2272
  243MPD1    C3 3686   3.268   1.589   0.675  0.2428 -0.1272  0.0685
  243MPD1    C4 3687   3.399   1.554   0.706  0.9966 -0.3657  0.2372
  243MPD1    C5 3688   3.466   1.602   0.808  0.2883  0.0286 -0.1619
  243MPD1     H 3689   3.107   1.721   0.729 -0.9551 -0.1589 -0.9758
  243MPD1    H1 3690   3.432   1.469   0.647 -0.2625 -0.0592 -0.9218
  243MPD1    H2 3691   3.459   1.723   0.973  0.7016 -1.3349  0.2485
  243MPD1    H3 3692   3.566   1.571   0.837 -0.4861 -0.8152  1.6053
  243MPD1     N 3693   3.196   1.535   0.560 -0.4102  0.2767 -0.5084
  243MPD1    H5 3694   3.101   1.565   0.539  0.4879  1.1935 -3.3139
  243MPD1    N1 3695   3.212   1.835   0.947  0.0832  1.0482  0.1808
  243MPD1    H6 3696   3.217   1.811   1.046  3.0769  1.1421  0.0448
  243MPD1    H7 3697   3.118   1.856   0.914 -0.1786 -3.1131 -1.7615
  244MPD1     C 3698   2.363   1.591   0.417  0.1394 -0.5025 -0.2516
  244MPD1    C1 3699   2.462   1.670   0.472  0.0406 -0.5840  0.3499
  244MPD1    C2 3700   2.587   1.629   0.459  0.4446 -0.2222  0.0082
  244MPD1    C3 3701   2.620   1.525   0.369 -0.4727 -0.9991  0.7032
  244MPD1    C4 3702   2.518   1.453   0.308 -0.0366  0.0074 -0.0669
  244MPD1    C5 3703   2.393   1.486   0.334 -0.3024  0.0478 -0.1492
  244MPD1     H 3704   2.663   1.689   0.508  0.2633  2.0416 -2.5157
  244MPD1    H1 3705   2.539   1.363   0.251  0.9215  1.0396 -1.3445
  244MPD1    H2 3706   2.259   1.612   0.439  0.1700  0.2747 -0.8757
  244MPD1    H3 3707   2.314   1.432   0.283  0.6283 -1.3466 -0.1055
  244MPD1     N 3708   2.755   1.484   0.357 -0.4094 -0.0265 -0.0939
  244MPD1    H5 3709   2.821   1.530   0.418 -0.8059  1.1702 -0.5617
  244MPD1    N1 3710   2.427   1.788   0.540 -0.4057 -0.1377  0.0016
  244MPD1    H6 3711   2.468   1.789   0.633 -0.0374 -2.2066 -0.1266
  244MPD1    H7 3712   2.327   1.805   0.552 -1.1259 -3.6341 -0.9612
  245MPD1     C 3713   4.684   1.604  13.501 -0.5506 -0.9185  0.4962
  245MPD1    C1 3714   4.704   1.713  13.587  0.0598  0.9404 -0.8610
  245MPD1    C2 3715   0.101   1.767  13.584  0.0637  0.0720 -0.1839
  245MPD1    C3 3716   0.202   1.720  13.498 -0.3350 -0.6599  0.7873
  245MPD1    C4 3717   0.177   1.619  13.407  0.2916  0.0585 -0.5607
  245MPD1    C5 3718   0.052   1.562  13.411 -0.5524  0.3414 -0.1271
  245MPD1     H 3719   0.115   1.854  13.646 -1.8514  1.4801 -1.7189
  245MPD1    H1 3720   0.252   1.589  13.335 -0.3524 -0.3730 -1.0603
  245MPD1    H2 3721   4.587   1.556  13.496 -1.0130  0.2928 -2.0859
  245MPD1    H3 3722   0.023   1.484  13.341 -1.0091 -1.0121  1.5855
  245MPD1     N 3723   0.330   1.767  13.503  0.1363 -0.2855  1.1473
  245MPD1    H5 3724   0.393   1.735  13.430 -2.0662 -1.1957 -0.3275
  245MPD1    N1 3725   4.601   1.765  13.666 -0.3836  0.2299  0.4923
  245MPD1    H6 3726   4.524   1.703  13.687 -1.6625  0.7180 -2.7142
  245MPD1    H7 3727   4.628   1.804  13.756 -1.0581  1.2163  0.2708
  246MPD1     C 3728   4.578   1.328   9.384  0.1061 -0.8537 -0.0199
  246MPD1    C1 3729   4.632   1.249   9.289  0.8101  1.0707  0.2006
  246MPD1    C2 3730   0.025   1.287   9.233 -0.9229  0.5803  0.0433
  246MPD1    C3 3731   0.088   1.402   9.269 -0.3028 -0.2272  0.0055
  246MPD1    C4 3732   0.032   1.475   9.373  0.4240  0.1041  0.0007
  246MPD1    C5 3733   4.637   1.440   9.427  0.7904  0.0831 -0.2502
  246MPD1     H 3734   0.068   1.236   9.147 -1.1803  0.6846 -0.1505
  246MPD1    H1 3735   0.076   1.566   9.413  0.1138 -0.5924  1.9167
  246MPD1    H2 3736   4.486   1.298   9.432 -0.9846  1.1812 -0.8242
  246MPD1    H3 3737   4.607   1.491   9.517  2.6969  1.2429 -0.2749
  246MPD1     N 3738   0.204   1.437   9.193 -0.4639 -0.3793  0.0019
  246MPD1    H5 3739   0.222   1.378   9.113  0.8457 -2.0295  1.5074
  246MPD1    N1 3740   4.553   1.151   9.228 -0.1312 -0.4698  0.2594
  246MPD1    H6 3741   4.494   1.097   9.290  2.7892 -2.4210  1.3516
  246MPD1    H7 3742   4.610   1.089   9.170  0.5122  1.6338 -1.3479
  247MPD1     C 3743   4.553   1.638  17.682  0.2368  0.2949  0.5724
  247MPD1    C1 3744   4.627   1.688  17.576 -0.7298  0.0097  0.6519
  247MPD1    C2 3745   4.649   1.603  17.462 -0.3230  0.1471  0.8861
  247MPD1    C3 3746   4.592   1.479  17.446 -0.1483  0.5602 -0.1785
  247MPD1    C4 3747   4.527   1.435  17.556  0.9507 -0.3269 -0.0725
  247MPD1    C5 3748   4.508   1.507  17.669 -0.2108  0.1905 -0.0025
  247MPD1     H 3749   4.692   1.655  17.378 -0.2803  1.2136  1.5527
  247MPD1    H1 3750   4.469   1.343  17.551  0.1237  0.0362  2.7652
  247MPD1    H2 3751   4.526   1.694   0.067  1.9551  2.1970 -0.1186
  247MPD1    H3 3752   4.438   1.473   0.039  0.2330  1.5779  1.0609
  247MPD1     N 3753   4.588   1.399  17.327 -0.0993  0.3786  0.0547
  247MPD1    H5 3754   4.568   1.300  17.328 -1.6335  0.6886  1.6415
  247MPD1    N1 3755   4.649   1.824  17.571 -0.7663 -0.3240 -0.4117
  247MPD1    H6 3756   0.005   1.845  17.514 -1.0027  0.0266 -0.6249
  247MPD1    H7 3757   4.660   1.875  17.659  0.4874 -1.4818  0.1058
  248MPD1     C 3758   0.613   1.523   0.223 -0.5933  0.4831  0.8743
  248MPD1    C1 3759   0.540   1.639   0.237  0.3355 -0.6106 -0.1087
  248MPD1    C2 3760   0.468   1.656   0.349  0.1787  0.8382  1.5076
  248MPD1    C3 3761   0.443   1.548   0.433  0.6492 -0.4727 -0.2244
  248MPD1    C4 3762   0.523   1.440   0.422  0.0781  0.3163 -0.3776
  248MPD1    C5 3763   0.610   1.433   0.319  0.3560  0.3095  0.1729
  248MPD1     H 3764   0.413   1.747   0.368 -0.0413  0.5559  2.2517
  248MPD1    H1 3765   0.522   1.368   0.503  3.1459  0.7317  0.0380
  248MPD1    H2 3766   0.688   1.518   0.145  0.1970  0.1321  1.6474
  248MPD1    H3 3767   0.678   1.349   0.321  0.6870  0.5999  0.9339
  248MPD1     N 3768   0.340   1.560   0.525 -0.4802 -0.2416 -0.6147
  248MPD1    H5 3769   0.292   1.649   0.530 -0.6651 -0.4499  1.0613
  248MPD1    N1 3770   0.562   1.742   0.143  0.4391 -0.1112 -0.1813
  248MPD1    H6 3771   0.478   1.799   0.130  0.6489  0.2795  0.1917
  248MPD1    H7 3772   0.605   1.706   0.058  2.4144  0.7590  0.4671
  249MPD1     C 3773   2.352   1.026  10.063  0.8260  0.3114  0.0106
  249MPD1    C1 3774   2.274   1.072   9.964 -0.3142  0.1022  0.1321
  249MPD1    C2 3775   2.135   1.044   9.979  1.0507  0.5511  0.4638
  249MPD1    C3 3776   2.079   0.986  10.096 -0.0645 -0.2908 -0.3801
  249MPD1    C4 3777   2.168   0.946  10.199  0.6632  0.2387  1.0855
  249MPD1    C5 3778   2.303   0.976  10.176 -0.3005 -0.0824 -0.3381
  249MPD1     H 3779   2.070   1.076   9.898  2.2503  1.0440 -0.3015
  249MPD1    H1 3780   2.139   0.903  10.293  1.3422  0.5506  1.4412
  249MPD1    H2 3781   2.460   1.033  10.058  0.6908  2.8502  0.6516
  249MPD1    H3 3782   2.370   0.938  10.253 -0.0563  0.3325 -0.3411
  249MPD1     N 3783   1.936   0.966  10.103  0.4556  0.0832  0.1090
  249MPD1    H5 3784   1.875   0.996  10.027 -0.9360  0.2953  1.3201
  249MPD1    N1 3785   2.328   1.125   9.842  0.0939 -0.4974  0.0902
  249MPD1    H6 3786   2.265   1.196   9.805  0.8348 -0.0286 -0.2695
  249MPD1    H7 3787   2.421   1.165   9.846  0.0547 -0.2504 -1.4949
  250MPD2     C 3788   2.935   1.038  13.412 -0.0456  0.0118  0.3990
  250MPD2    C1 3789   2.972   1.059  13.277 -0.0955  0.3235  0.7444
  250MPD2    C2 3790   2.984   0.957  13.190  0.4163  0.6003  0.1032
  250MPD2    C3 3791   2.933   0.827  13.225 -0.1711  0.4911  0.5274
  250MPD2    C4 3792   2.900   0.802  13.364  0.2679 -0.0957 -0.0483
  250MPD2    C5 3793   2.895   0.913  13.452  0.3843 -0.3722  1.0061
  250MPD2     H 3794   3.042   0.965  13.099 -1.0988  1.0300 -0.8293
  250MPD2    H1 3795   2.873   0.700  13.390  1.9586 -0.4458  0.3622
  250MPD2    H2 3796   2.938   1.124  13.477  2.2062 -1.3968  2.1568
  250MPD2    H3 3797   2.863   0.898  13.555  1.1679  0.3273  1.3455
  250MPD2     N 3798   2.935   0.719  13.136  0.6461  0.2476 -0.2894
  250MPD2    H5 3799   2.943   0.629  13.184 -1.2946 -0.0003 -0.4108
  250MPD2    N1 3800   3.010   1.192  13.247  0.0631  0.3617 -0.3396
  250MPD2    H7 3801   3.016   1.269  13.312 -0.0443 -2.3615  2.8596
  251TMC3    C1 3802   3.121   1.345  13.120  0.7001  0.6469  0.4787
  251TMC3    C2 3803   3.140   1.404  13.240  0.1486  0.6567  0.3995
  251TMC3    C3 3804   3.270   1.444  13.269  0.1941  0.5466  0.1765
  251TMC3    C4 3805   3.217   1.339  13.020 -0.2737 -0.3305 -0.3391
  251TMC3    C5 3806   3.348   1.353  13.068  0.2072  0.2968 -0.0135
  251TMC3    C6 3807   3.374   1.417  13.184 -0.2165  0.0794 -0.2620
  251TMC3     C 3808   3.041   1.228  13.122  0.3038 -0.1663  0.3360
  251TMC3     O 3809   3.020   1.175  13.014 -0.2119 -0.2506  0.2841
  251TMC3     H 3810   3.058   1.437  13.303 -0.4135  0.1286 -0.0566
  251TMC3    H1 3811   3.184   1.313  12.920 -0.2421  2.7562 -1.1712
  251TMC3    H2 3812   3.474   1.428  13.225 -0.2975  1.6368 -0.4899
  251TMC3    C7 3813   3.425   1.231  13.065  0.3440  0.1126 -0.1234
  251TMC3    C8 3814   3.293   1.511  13.392 -0.1106 -0.0048 -0.4728
  251TMC3    O1 3815   3.542   1.226  13.100 -0.4816 -0.1744 -0.0881
  251TMC3    O2 3816   3.199   1.505  13.470  0.2640  0.0076  0.1411
  252TMC3    C1 3817   0.089   0.494   9.594 -0.5439 -0.5956 -0.0089
  252TMC3    C2 3818   0.173   0.592   9.633 -0.2787  0.2918  0.4868
  252TMC3    C3 3819   0.116   0.701   9.701 -0.0351  0.6331 -0.2172
  252TMC3    C4 3820   4.681   0.497   9.621  0.5891 -0.0943 -0.0756
  252TMC3    C5 3821   4.629   0.605   9.685 -0.0884 -0.8137  0.4721
  252TMC3    C6 3822   4.710   0.709   9.728  0.2932 -0.0903 -0.0335
  252TMC3     C 3823   0.137   0.356   9.588 -0.2471  0.0934  0.1252
  252TMC3     O 3824   0.055   0.266   9.603 -0.2072 -0.8314 -0.7638
  252TMC3     H 3825   0.277   0.594   9.603 -0.9065  0.2132 -1.7305
  252TMC3    H1 3826   4.615   0.429   9.568 -0.8893  0.4424  1.0800
  252TMC3    H2 3827   4.659   0.804   9.730 -0.8024 -0.6526 -0.9626
  252TMC3    C7 3828   4.495   0.599   9.743 -1.0966  0.4068  0.3468
  252TMC3    C8 3829   0.190   0.821   9.696  0.0171 -0.4355 -0.1968
  252TMC3    O1 3830   4.463   0.691   9.810  0.3067  0.5196  0.1053
  252TMC3    O2 3831   0.267   0.819   9.601  0.5638 -0.7010 -0.4345
  253MPD2     C 3832   0.145   0.343  15.599  0.5099 -0.1577  0.1805
  253MPD2    C1 3833   0.013   0.329  15.598 -0.2710 -0.7709  0.2202
  253MPD2    C2 3834   4.679   0.259  15.698 -0.4282 -0.3216  0.9090
  253MPD2    C3 3835   0.023   0.191  15.795 -0.1283  0.6045 -0.1551
  253MPD2    C4 3836   0.163   0.206  15.795  0.9120  0.0602 -0.4904
  253MPD2    C5 3837   0.223   0.285  15.699  0.3552  0.7584 -0.0791
  253MPD2     H 3838   4.571   0.260  15.712 -0.6085 -2.4247 -0.2597
  253MPD2    H1 3839   0.218   0.160  15.875  2.0520  1.1044 -0.6712
  253MPD2    H2 3840   0.196   0.402  15.524  0.3665  0.8969  0.9205
  253MPD2    H3 3841   0.330   0.306  15.703  0.6716 -0.5986 -1.4863
  253MPD2     N 3842   4.685   0.101  15.893 -0.1683 -0.6917 -0.2501
  253MPD2    H5 3843   0.015   0.058  15.966 -1.6281 -0.8366  0.7790
  253MPD2    N1 3844   4.643   0.389  15.512  0.3431  0.8994 -0.2415
  253MPD2    H7 3845   4.547   0.358  15.525  0.3734  0.2619 -1.5743
  254TMC3    C1 3846   4.510   4.698  15.993 -0.2976  0.2089 -0.1450
  254TMC3    C2 3847   4.376   4.654  15.982  0.2644 -0.4263 -0.0936
  254TMC3    C3 3848   4.325   4.592  16.093 -0.6851 -0.6135  0.5375
  254TMC3    C4 3849   4.589   4.670  16.103  0.4247 -0.6247  0.2031
  254TMC3    C5 3850   4.535   4.585  16.197 -0.1172 -0.1106  0.0346
  254TMC3    C6 3851   4.399   4.573  16.201  0.2722 -0.1047  0.9339
  254TMC3     C 3852   4.555   0.056  15.882  0.2730  0.9143  0.1168
  254TMC3     O 3853   4.464   0.096  15.807  1.1324  0.0184  0.5267
  254TMC3     H 3854   4.316   4.670  15.893 -1.7710 -1.9499  1.0208
  254TMC3    H1 3855   4.688   4.711  16.119 -0.0266  0.6487 -0.3389
  254TMC3    H2 3856   4.353   4.506  16.273 -0.3088  0.3362  0.9724
  254TMC3    C7 3857   4.619   4.531  16.301  0.3623  0.6023  0.3755
  254TMC3    C8 3858   4.191   4.637  16.121  0.4092 -0.3925  0.2068
  254TMC3    O1 3859   4.573   4.469  16.399 -0.1565  0.0642 -0.0852
  254TMC3    O2 3860   4.119   4.655  16.020  0.7060  0.3203 -0.6000
  255MPD2     C 3861   3.685   2.500  10.809  0.5229  0.6643 -0.1967
  255MPD2    C1 3862   3.710   2.573  10.690  0.4245  0.0220 -0.2851
  255MPD2    C2 3863   3.812   2.529  10.602 -0.3069 -0.2291  0.2871
  255MPD2    C3 3864   3.882   2.419  10.628  0.0317 -0.2119 -0.0674
  255MPD2    C4 3865   3.866   2.350  10.748  0.0791  0.7358  0.1567
  255MPD2    C5 3866   3.764   2.390  10.836 -0.5357  0.1721 -0.3496
  255MPD2     H 3867   3.835   2.575  10.506  1.5678  0.9301  1.2872
  255MPD2    H1 3868   3.918   2.255  10.754  0.9983  1.3026  1.1191
  255MPD2    H2 3869   3.602   2.531  10.871  0.5221  0.6949 -0.2134
  255MPD2    H3 3870   3.748   2.329  10.924  0.7176  0.9407  0.4020
  255MPD2     N 3871   3.980   2.383  10.525 -0.1756  0.2625 -0.5121
  255MPD2    H5 3872   3.991   2.438  10.441  1.6521  0.0859 -0.3937
  255MPD2    N1 3873   3.637   2.692  10.672 -0.2249  0.4710  0.4263
  255MPD2    H7 3874   3.571   2.705  10.748 -0.7706 -2.2877  0.4310
  256TMC3    C1 3875   3.553   2.885  10.567 -0.1401  1.0571  0.4528
  256TMC3    C2 3876   3.593   3.008  10.531  0.2558  0.0698  0.0177
  256TMC3    C3 3877   3.510   3.115  10.542 -0.3891 -0.9907  0.1666
  256TMC3    C4 3878   3.422   2.859  10.605 -0.0292 -0.1706 -0.1544
  256TMC3    C5 3879   3.346   2.968  10.623  0.2068  1.1818 -0.7876
  256TMC3    C6 3880   3.385   3.102  10.602  0.5916 -0.5175  0.6101
  256TMC3     C 3881   3.657   2.785  10.573  0.2351  0.2657 -0.3850
  256TMC3     O 3882   3.758   2.809  10.506  0.0630  0.3151 -0.4492
  256TMC3     H 3883   3.697   3.029  10.508  0.2365  0.4596  0.2812
  256TMC3    H1 3884   3.389   2.759  10.628 -2.6584  1.0743  1.4053
  256TMC3    H2 3885   3.324   3.190  10.620  0.7643 -0.5923  1.5180
  256TMC3    C7 3886   3.203   2.964  10.643  0.1003 -0.9257 -0.4046
  256TMC3    C8 3887   3.538   3.218  10.446  0.5468 -0.1559 -0.3369
  256TMC3    O1 3888   3.157   3.064  10.701  0.2385 -0.1608  0.2678
  256TMC3    O2 3889   3.641   3.207  10.383 -0.2211  0.5891 -0.0179
  257MPD2     C 3890   2.200   0.440  13.219  0.8229 -0.4643  0.1454
  257MPD2    C1 3891   2.250   0.365  13.119  0.0947 -0.1419 -0.1066
  257MPD2    C2 3892   2.301   0.240  13.149 -0.3724 -0.7166 -0.5326
  257MPD2    C3 3893   2.292   0.191  13.281  0.1577  0.4392  0.8527
  257MPD2    C4 3894   2.249   0.270  13.377 -0.6860 -0.3901  0.8927
  257MPD2    C5 3895   2.203   0.395  13.345  0.8391 -0.6429 -0.2278
  257MPD2     H 3896   2.347   0.187  13.067  0.2985 -0.0490 -0.5835
  257MPD2    H1 3897   2.245   0.233  13.479  1.3099  0.4916  1.3017
  257MPD2    H2 3898   2.160   0.540  13.208  0.2135 -0.4022  2.8441
  257MPD2    H3 3899   2.172   0.464  13.423  0.6580 -0.3557 -0.5573
  257MPD2     N 3900   2.355   0.066  13.311  0.0946  0.0825 -0.2368
  257MPD2    H5 3901   2.414   0.027  13.239 -0.5427 -1.8246  0.2765
  257MPD2    N1 3902   2.220   0.426  12.994 -0.5239  0.7901  0.0812
  257MPD2    H7 3903   2.181   0.520  12.992  1.3806  1.6078  0.5420
  258TMC3    C1 3904   2.465   4.621  13.458 -0.1481 -0.3264 -0.0521
  258TMC3    C2 3905   2.565   4.613  13.373 -0.2442  0.7724  0.8360
  258TMC3    C3 3906   2.671   4.533  13.404 -0.3413 -0.0346  0.2956
  258TMC3    C4 3907   2.470   4.566  13.586 -0.2107 -0.2021 -0.1945
  258TMC3    C5 3908   2.578   4.492  13.614  0.4375  0.0779  0.8367
  258TMC3    C6 3909   2.685   4.480  13.530  0.1735 -0.0039  0.0040
  258TMC3     C 3910   2.354   4.721  13.432 -0.2506  0.3284  0.0797
  258TMC3     O 3911   2.282   0.013  13.529  0.0395  0.2510  0.7528
  258TMC3     H 3912   2.560   4.653  13.272 -1.2837  2.2509  1.4781
  258TMC3    H1 3913   2.382   4.561  13.650  0.8591 -0.0167  1.2890
  258TMC3    H2 3914   2.767   4.410  13.544  0.7146  0.2310 -1.9702
  258TMC3    C7 3915   2.563   4.413  13.726 -0.8331  0.0259 -0.3312
  258TMC3    C8 3916   2.788   4.537  13.328  0.9665 -0.8681  0.4845
  258TMC3    O1 3917   2.452   4.378  13.759  0.4077  0.1771  0.2148
  258TMC3    O2 3918   2.893   4.530  13.393 -0.1352 -0.0772 -0.3299
  259MPD2     C 3919   0.867   2.199   1.303 -0.1384  0.4042 -0.1969
  259MPD2    C1 3920   0.913   2.089   1.376  0.0076 -0.5346 -0.1199
  259MPD2    C2 3921   1.014   2.008   1.321  0.4629  0.1804 -0.2787
  259MPD2    C3 3922   1.081   2.053   1.210  0.0243  0.4441 -1.0114
  259MPD2    C4 3923   1.045   2.169   1.150  0.6360 -0.0410 -0.4160
  259MPD2    C5 3924   0.935   2.239   1.194  0.3546 -0.2631  0.4848
  259MPD2     H 3925   1.043   1.922   1.380 -0.3446 -0.0039 -0.1467
  259MPD2    H1 3926   1.081   2.197   1.051 -0.2860  1.6669 -0.2694
  259MPD2    H2 3927   0.781   2.256   1.335  1.2222  2.9265 -1.0705
  259MPD2    H3 3928   0.892   2.302   1.118 -0.2045 -1.1082  0.0999
  259MPD2     N 3929   1.197   1.975   1.174 -0.1936 -0.1531  0.3727
  259MPD2    H5 3930   1.220   1.892   1.227 -1.7176 -0.3691  0.7083
  259MPD2    N1 3931   0.847   2.052   1.492 -0.6848  0.0791 -0.1113
  259MPD2    H7 3932   0.783   2.122   1.528 -1.4876 -0.0040 -1.3876
  260TMC3    C1 3933   1.413   1.930   1.085  0.2966 -0.0370 -0.1153
  260TMC3    C2 3934   1.538   1.969   1.057  0.5734  0.1744 -0.2237
  260TMC3    C3 3935   1.643   1.880   1.051  0.5154  0.7274  0.3880
  260TMC3    C4 3936   1.392   1.799   1.110 -0.8205  0.1770  0.1066
  260TMC3    C5 3937   1.497   1.708   1.104  0.1147  0.4502 -0.0222
  260TMC3    C6 3938   1.625   1.747   1.073 -0.0124  0.4540  0.4439
  260TMC3     C 3939   1.299   2.021   1.088 -0.5483 -0.3531  0.9538
  260TMC3     O 3940   1.317   2.134   1.044  0.2983 -0.1583 -0.0800
  260TMC3     H 3941   1.538   2.074   1.030 -2.7828  1.4737  4.8370
  260TMC3    H1 3942   1.295   1.751   1.113 -1.2115  1.0908  2.3087
  260TMC3    H2 3943   1.703   1.672   1.066  0.7035  1.0094  2.5372
  260TMC3    C7 3944   1.454   1.574   1.076  0.1872 -0.4798  0.2005
  260TMC3    C8 3945   1.774   1.940   1.012  0.2049  0.3147 -0.0580
  260TMC3    O1 3946   1.516   1.526   0.982 -0.2634  0.1508  0.2335
  260TMC3    O2 3947   1.778   2.064   0.994  0.4672 -0.1851  0.3603
  261MPD2     C 3948   2.844   0.173  12.487  0.9864  0.4104  0.2925
  261MPD2    C1 3949   2.860   0.309  12.480 -0.5533  0.1505 -0.7355
  261MPD2    C2 3950   2.832   0.374  12.362 -0.1896 -0.3840  1.2012
  261MPD2    C3 3951   2.787   0.303  12.248  0.6345  0.1119  0.0894
  261MPD2    C4 3952   2.763   0.166  12.269  0.0064  0.3427 -0.0397
  261MPD2    C5 3953   2.790   0.105  12.384  0.0982  0.4832  0.0379
  261MPD2     H 3954   2.845   0.482  12.355  1.7942 -0.5743  2.1250
  261MPD2    H1 3955   2.732   0.095  12.193 -1.2392  1.1177 -0.2593
  261MPD2    H2 3956   2.870   0.114  12.574 -2.6636 -2.4452 -0.5016
  261MPD2    H3 3957   2.772   4.725  12.397  3.0264  0.0023  0.1988
  261MPD2     N 3958   2.744   0.367  12.136  0.0076 -0.0768 -0.3293
  261MPD2    H5 3959   2.739   0.468  12.144 -1.1616 -0.2738  1.2819
  261MPD2    N1 3960   2.919   0.385  12.582  0.3352  0.0263  0.7610
  261MPD2    H7 3961   2.959   0.476  12.560  1.1664 -0.3881  0.5776
  262TMC3    C1 3962   2.660   0.390  11.914  0.4234  0.0635 -0.2863
  262TMC3    C2 3963   2.610   0.516  11.945 -0.3381  0.2395 -0.2636
  262TMC3    C3 3964   2.561   0.601  11.843  0.2989  0.7298 -0.2771
  262TMC3    C4 3965   2.656   0.333  11.786 -0.5945  0.4271  0.3400
  262TMC3    C5 3966   2.613   0.417  11.686  0.0046  0.2127  0.0368
  262TMC3    C6 3967   2.576   0.548  11.713 -0.2700  0.3128  0.3787
  262TMC3     C 3968   2.709   0.306  12.016 -0.1830  0.2969 -0.2203
  262TMC3     O 3969   2.716   0.185  11.990 -0.1322  0.1373  0.3576
  262TMC3     H 3970   2.596   0.541  12.050 -1.4318 -1.1202 -0.0806
  262TMC3    H1 3971   2.691   0.231  11.781 -0.9544  0.4425 -2.8648
  262TMC3    H2 3972   2.559   0.623  11.636 -0.1441 -0.1021 -0.0485
  262TMC3    C7 3973   2.679   0.389  11.561  0.4094 -0.5402 -0.1494
  262TMC3    C8 3974   2.556   0.745  11.851  0.4488 -0.2499 -0.6942
  262TMC3    O1 3975   2.723   0.274  11.541  0.4671  0.1469 -0.1344
  262TMC3    O2 3976   2.588   0.808  11.749 -0.7971  0.0895  0.3292
  263MPD2     C 3977   4.159   4.154  11.685 -0.6191  0.0273  0.0086
  263MPD2    C1 3978   4.232   4.267  11.707  0.2406 -0.6062 -0.2344
  263MPD2    C2 3979   4.238   4.363  11.599  0.8301  0.4499  0.2922
  263MPD2    C3 3980   4.163   4.351  11.485 -0.9508 -0.3276  0.1294
  263MPD2    C4 3981   4.109   4.233  11.459 -0.0712 -0.2175 -0.3885
  263MPD2    C5 3982   4.109   4.135  11.554 -0.2468 -0.2855 -0.0463
  263MPD2     H 3983   4.300   4.450  11.616  1.7393  0.5527 -3.5353
  263MPD2    H1 3984   4.049   4.209  11.372  0.9795  0.2395 -1.2415
  263MPD2    H2 3985   4.154   4.069  11.752 -0.3740 -0.0170 -0.0303
  263MPD2    H3 3986   4.064   4.038  11.538  1.4153 -1.4030  2.0764
  263MPD2     N 3987   4.168   4.453  11.390 -0.8305 -0.2757  1.0829
  263MPD2    H5 3988   4.200   4.544  11.422  0.3677 -0.0063 -0.8643
  263MPD2    N1 3989   4.312   4.269  11.820  0.0134 -0.1249 -0.2986
  263MPD2    H7 3990   4.300   4.194  11.887  2.0951 -0.3677 -0.2133
  264TMC3    C1 3991   4.160   4.568  11.193 -0.6240 -1.0887  0.0210
  264TMC3    C2 3992   4.096   4.677  11.246 -0.1820  0.3649  0.2779
  264TMC3    C3 3993   4.103   0.071  11.176 -0.2662 -0.1290  0.2119
  264TMC3    C4 3994   4.213   4.572  11.065 -0.0788  0.0604 -0.2433
  264TMC3    C5 3995   4.218   4.695  11.003 -0.0663  0.6980  0.3262
  264TMC3    C6 3996   4.163   0.086  11.057  0.0898  1.1429  0.2684
  264TMC3     C 3997   4.144   4.445  11.258  0.0750 -0.3336  0.1607
  264TMC3     O 3998   4.111   4.347  11.195  0.4644 -0.4054 -0.4797
  264TMC3     H 3999   4.042   4.680  11.340 -1.8489 -1.2661 -0.6309
  264TMC3    H1 4000   4.260   4.482  11.026  2.4442  1.1987  0.1396
  264TMC3    H2 4001   4.165   0.178  11.000  1.2723 -0.8457 -2.9633
  264TMC3    C7 4002   4.340   4.723  10.931  0.2260 -0.8799 -0.0384
  264TMC3    C8 4003   4.156   0.181  11.258  0.0358 -0.1159  0.2213
  264TMC3    O1 4004   4.380   4.625  10.865  0.3539 -0.5462 -0.9385
  264TMC3    O2 4005   4.261   0.223  11.210 -0.1195 -0.5833 -0.5878
  265MPD2     C 4006   1.344   4.467  15.867 -0.3143  0.9069 -0.2499
  265MPD2    C1 4007   1.399   4.583  15.807  0.8135 -0.6816  0.4567
  265MPD2    C2 4008   1.475   4.568  15.691  0.6828 -0.3082 -0.6601
  265MPD2    C3 4009   1.488   4.448  15.620 -0.3238 -0.2786  0.9569
  265MPD2    C4 4010   1.417   4.345  15.680  0.5977  0.0665  0.0080
  265MPD2    C5 4011   1.349   4.351  15.797 -0.0725  0.2552  0.0779
  265MPD2     H 4012   1.503   4.653  15.629 -0.6896  1.3072  0.9451
  265MPD2    H1 4013   1.452   4.248  15.646  1.9797  1.0396 -1.3940
  265MPD2    H2 4014   1.293   4.460  15.963 -0.1738  0.0621 -0.2332
  265MPD2    H3 4015   1.318   4.259  15.845  0.7234  0.8501  1.7524
  265MPD2     N 4016   1.560   4.429  15.497  0.0701  0.2489 -0.0973
  265MPD2    H5 4017   1.561   4.331  15.470 -1.4828 -0.1350  1.2148
  265MPD2    N1 4018   1.372   4.715  15.859  0.5162  0.2358  0.0059
  265MPD2    H7 4019   1.395   0.071  15.803  1.5076  0.4174  0.6722
  266TMC3    C1 4020   1.250   0.127  16.009 -0.8069  0.5363 -0.9131
  266TMC3    C2 4021   1.229   0.161  16.143 -0.4013 -1.0869 -0.4629
  266TMC3    C3 4022   1.133   0.258  16.166  0.4091 -0.4933  0.5195
  266TMC3    C4 4023   1.200   0.202  15.901 -0.3518  0.2209  0.6610
  266TMC3    C5 4024   1.116   0.304  15.940 -0.3709  0.2921  0.0196
  266TMC3    C6 4025   1.081   0.332  16.063 -0.1886  0.4186 -0.5148
  266TMC3     C 4026   1.324   0.004  15.985 -0.4068 -0.2719 -0.3349
  266TMC3     O 4027   1.343   4.663  16.085 -0.6602 -0.0389  0.2642
  266TMC3     H 4028   1.268   0.100  16.224  1.2857 -1.3623 -1.4920
  266TMC3    H1 4029   1.228   0.179  15.798 -0.5207 -1.1233  0.9157
  266TMC3    H2 4030   1.029   0.422  16.094 -1.7930 -1.2390  1.6133
  266TMC3    C7 4031   1.033   0.358  15.835 -0.1220  0.2103  0.1196
  266TMC3    C8 4032   1.114   0.302  16.304 -1.2568  0.4075  0.4299
  266TMC3    O1 4033   1.044   0.320  15.718 -0.4687 -0.2815 -0.3328
  266TMC3    O2 4034   1.110   0.217  16.390 -0.3652 -0.0872  0.3434
  267MPD2     C 4035   3.043   1.838   0.410  0.5125  0.5597  0.3130
  267MPD2    C1 4036   3.142   1.809   0.315  0.2093  0.4261 -0.0331
  267MPD2    C2 4037   3.105   1.739   0.203  0.2489 -0.7694 -0.2203
  267MPD2    C3 4038   2.974   1.708   0.172  0.4222 -0.2833  0.1714
  267MPD2    C4 4039   2.875   1.765   0.252  0.3058 -0.9588  0.0324
  267MPD2    C5 4040   2.910   1.815   0.374  1.0127  0.5538 -0.1853
  267MPD2     H 4041   3.179   1.711   0.128 -0.3608 -1.4141 -0.5831
  267MPD2    H1 4042   2.769   1.762   0.232 -0.5328 -0.2775  4.3126
  267MPD2    H2 4043   3.065   1.882   0.506 -0.0597 -0.9884  1.1509
  267MPD2    H3 4044   2.833   1.840   0.447  1.2025 -2.0899  0.8933
  267MPD2     N 4045   2.936   1.648   0.047 -0.1634  0.4272  0.3546
  267MPD2    H5 4046   2.838   1.648   0.019 -0.1650  2.4543  0.3263
  267MPD2    N1 4047   3.272   1.860   0.342 -0.1818 -0.4323 -0.2976
  267MPD2    H7 4048   3.281   1.928   0.417 -1.0534 -2.5740  1.7493
  268TMC3    C1 4049   3.489   1.928   0.308  0.1512  0.4611  0.0519
  268TMC3    C2 4050   3.538   2.015   0.219  0.0601 -0.4334 -0.1222
  268TMC3    C3 4051   3.596   2.129   0.270  0.2216  0.1397 -0.6235
  268TMC3    C4 4052   3.514   1.936   0.443 -0.2021 -0.6704 -0.8963
  268TMC3    C5 4053   3.587   2.041   0.485 -0.0106  0.5654 -0.4262
  268TMC3    C6 4054   3.625   2.148   0.402  0.4345  0.2303 -0.2804
  268TMC3     C 4055   3.376   1.858   0.250 -0.6924  0.1326  0.3834
  268TMC3     O 4056   3.394   1.803   0.142 -0.0271  0.1293  0.0608
  268TMC3     H 4057   3.497   2.009   0.118  0.0119 -0.6345 -0.0896
  268TMC3    H1 4058   3.476   1.860   0.511  1.2896  1.0006  1.8073
  268TMC3    H2 4059   3.652   2.248   0.435 -2.1009  0.9087 -0.2241
  268TMC3    C7 4060   3.583   2.079   0.621 -0.5523  0.4679  0.1169
  268TMC3    C8 4061   3.655   2.227   0.182 -0.3706  0.1165  0.4871
  268TMC3    O1 4062   3.557   2.199   0.637  0.3052 -0.2876 -0.6658
  268TMC3    O2 4063   3.678   2.337   0.233  0.1681  0.1660  0.2766
  269MPD2     C 4064   3.760   0.770  15.510 -0.3909 -0.0132  0.2988
  269MPD2    C1 4065   3.653   0.802  15.593 -0.0231  0.4568 -0.7325
  269MPD2    C2 4066   3.590   0.921  15.567  0.4732  0.2766 -0.9091
  269MPD2    C3 4067   3.636   1.008  15.476 -0.5024 -0.3690 -0.2787
  269MPD2    C4 4068   3.751   0.985  15.414  0.1445  0.2269  0.7337
  269MPD2    C5 4069   3.802   0.859  15.414 -0.4434  0.4385 -1.5463
  269MPD2     H 4070   3.497   0.947  15.614  1.9057  2.5091  0.6651
  269MPD2    H1 4071   3.791   1.054  15.340  1.5741 -1.2223  0.1584
  269MPD2    H2 4072   3.813   0.675  15.516  2.0262  1.3231  0.2987
  269MPD2    H3 4073   3.893   0.838  15.360  0.7918 -1.2583  1.1917
  269MPD2     N 4074   3.569   1.136  15.466  0.2429 -0.3212  0.4040
  269MPD2    H5 4075   3.501   1.155  15.540  2.2386 -2.3816  2.7672
  269MPD2    N1 4076   3.616   0.701  15.686  0.5275  0.5638 -0.7475
  269MPD2    H7 4077   3.670   0.616  15.701  0.5857  0.6077 -0.7083
  270TMC3    C1 4078   3.453   0.573  15.805 -0.2358  0.0984  0.5434
  270TMC3    C2 4079   3.319   0.536  15.814 -0.2332  0.2138  0.2031
  270TMC3    C3 4080   3.283   0.423  15.889  0.0476  0.2397 -0.0984
  270TMC3    C4 4081   3.555   0.499  15.861 -0.3123 -0.0691 -1.1142
  270TMC3    C5 4082   3.513   0.391  15.932 -0.4180  0.0235 -0.1076
  270TMC3    C6 4083   3.383   0.349  15.945 -0.2213 -0.0035 -0.2987
  270TMC3     C 4084   3.490   0.704  15.741  0.7654  0.1351 -0.1315
  270TMC3     O 4085   3.416   0.801  15.761  0.2411  0.1260 -0.5451
  270TMC3     H 4086   3.247   0.608  15.776  1.0633  2.2932  1.6493
  270TMC3    H1 4087   3.660   0.521  15.845 -0.3582 -0.0830 -1.4283
  270TMC3    H2 4088   3.359   0.251  15.982  1.1824 -0.4066 -0.4495
  270TMC3    C7 4089   3.607   0.286  15.959 -0.4037 -0.2853  0.7174
  270TMC3    C8 4090   3.190   0.346  15.818 -0.0948  0.3703  0.2424
  270TMC3    O1 4091   3.720   0.292  15.919 -0.1754 -0.1336  0.5004
  270TMC3    O2 4092   3.084   0.317  15.872 -0.3139  0.1779 -0.5155
  271MPD2     C 4093   3.042   0.258  14.006  0.1723 -0.3123 -0.4261
  271MPD2    C1 4094   2.964   0.231  14.117 -0.8176 -0.4370 -0.1987
  271MPD2    C2 4095   2.834   0.282  14.110  0.0205 -0.4842 -0.3664
  271MPD2    C3 4096   2.785   0.358  14.007  0.0510  0.0593  0.6577
  271MPD2    C4 4097   2.872   0.376  13.894 -0.8613 -0.0372 -0.0663
  271MPD2    C5 4098   2.990   0.321  13.901 -0.3539 -0.2838 -0.5764
  271MPD2     H 4099   2.770   0.248  14.191 -1.3363  3.4850  0.2215
  271MPD2    H1 4100   2.833   0.419  13.802 -1.9682 -0.0772  0.3863
  271MPD2    H2 4101   3.141   0.214  14.007  0.5126  0.4721  0.1263
  271MPD2    H3 4102   3.058   0.324  13.817  2.2508 -1.7393  1.4352
  271MPD2     N 4103   2.657   0.399  13.997  0.3870  0.3509 -0.3353
  271MPD2    H5 4104   2.633   0.456  13.916 -2.2668  0.4887  0.5251
  271MPD2    N1 4105   3.014   0.167  14.235 -0.3153  0.5845 -0.3743
  271MPD2    H7 4106   2.951   0.168  14.315  1.0353 -1.5833  0.7050
  272TMC3    C1 4107   3.148   0.034  14.372  0.5619  0.3107  0.2268
  272TMC3    C2 4108   3.275   0.001  14.386  0.0455  0.1040  0.8328
  272TMC3    C3 4109   3.315   4.673  14.505 -0.0045  0.3362 -0.4133
  272TMC3    C4 4110   3.052   0.010  14.462  0.1323 -0.0069  0.4606
  272TMC3    C5 4111   3.096   4.682  14.579 -0.5371 -0.6009  0.2926
  272TMC3    C6 4112   3.227   4.655  14.606 -0.3417 -0.2548  0.5863
  272TMC3     C 4113   3.118   0.079  14.237  0.4143  0.7807  0.9547
  272TMC3     O 4114   3.195   0.050  14.150 -0.4024  0.0386 -0.1036
  272TMC3     H 4115   3.346   0.024  14.307 -2.6215  0.4910 -1.4156
  272TMC3    H1 4116   2.950   0.037  14.437  0.1276 -1.2652 -0.9137
  272TMC3    H2 4117   3.241   4.608  14.703  0.6694 -0.5251  0.3062
  272TMC3    C7 4118   3.014   4.693  14.696 -0.6110 -0.1069 -0.2492
  272TMC3    C8 4119   3.452   4.640  14.528 -0.4752  0.7411  0.0472
  272TMC3    O1 4120   2.891   4.672  14.692  0.1864  0.2190 -0.0024
  272TMC3    O2 4121   3.517   4.633  14.427  0.1192 -0.5327 -0.7833
  273MPD2     C 4122   4.383   3.038  12.189 -0.2857  0.6877  0.1655
  273MPD2    C1 4123   4.509   3.092  12.185  0.0440  0.5441 -0.3792
  273MPD2    C2 4124   4.561   3.138  12.071 -0.2522  0.0405  0.0249
  273MPD2    C3 4125   4.493   3.124  11.951 -0.6342 -0.1743  1.1834
  273MPD2    C4 4126   4.364   3.076  11.954  0.2992 -0.2641 -0.4956
  273MPD2    C5 4127   4.305   3.047  12.076 -0.8134 -0.3341  0.0504
  273MPD2     H 4128   4.666   3.162  12.077 -0.7792  1.7925  2.2863
  273MPD2    H1 4129   4.310   3.070  11.860  0.6113  1.5200 -0.7770
  273MPD2    H2 4130   4.338   3.010  12.283  2.1303 -1.1238  0.7773
  273MPD2    H3 4131   4.203   3.013  12.088 -0.6104 -1.1459 -0.5040
  273MPD2     N 4132   4.540   3.176  11.828 -0.3616 -0.0106  0.2265
  273MPD2    H5 4133   4.484   3.177  11.744 -0.0941 -1.1813  0.0352
  273MPD2    N1 4134   4.583   3.098  12.307 -0.2083  0.0852  0.6240
  273MPD2    H7 4135   4.556   3.052  12.393 -1.2673 -0.8410 -0.2175
  274TMC3    C1 4136   4.687   3.280  11.674  0.2153 -0.0254  0.3144
  274TMC3    C2 4137   4.595   3.243  11.577 -0.3487  0.1417  0.4598
  274TMC3    C3 4138   4.630   3.275  11.444  0.2227  0.0864 -0.1371
  274TMC3    C4 4139   0.085   3.326  11.637 -0.0590  0.1200  0.7537
  274TMC3    C5 4140   0.108   3.367  11.507  0.1018  0.4656  0.2319
  274TMC3    C6 4141   0.027   3.331  11.409 -0.0169 -0.4649  0.1594
  274TMC3     C 4142   4.666   3.230  11.807 -0.3717 -0.2456 -0.5016
  274TMC3     O 4143   0.034   3.242  11.885  0.1623 -0.3247 -0.4682
  274TMC3     H 4144   4.496   3.210  11.605 -0.6325  0.6161  0.0170
  274TMC3    H1 4145   0.153   3.353  11.717  0.3761  0.3448  0.3062
  274TMC3    H2 4146   0.043   3.379  11.313 -1.1205 -2.5327 -1.0613
  274TMC3    C7 4147   0.166   3.494  11.498 -0.1101  0.2106  0.6333
  274TMC3    C8 4148   4.520   3.257  11.349 -0.5698 -0.4391 -0.8276
  274TMC3    O1 4149   0.249   3.510  11.407  0.4020 -0.4095 -0.0472
  274TMC3    O2 4150   4.418   3.216  11.396 -0.2303 -0.4353 -0.1877
  275MPD2     C 4151   4.348   1.284  14.605 -1.0292  0.1714 -0.6590
  275MPD2    C1 4152   4.253   1.256  14.696 -0.6271 -0.0269 -0.1060
  275MPD2    C2 4153   4.148   1.183  14.651  0.4572 -0.1898  0.2248
  275MPD2    C3 4154   4.137   1.134  14.521 -0.7138  0.2490  0.1594
  275MPD2    C4 4155   4.228   1.167  14.424  0.5409  0.4667 -0.6525
  275MPD2    C5 4156   4.335   1.242  14.471 -0.2244 -0.3502 -0.3595
  275MPD2     H 4157   4.072   1.167  14.726  0.5520 -0.4876  0.2568
  275MPD2    H1 4158   4.218   1.137  14.321 -1.4624  0.3984 -0.4337
  275MPD2    H2 4159   4.439   1.339  14.628 -1.9304  0.9609  1.1064
  275MPD2    H3 4160   4.420   1.257  14.405 -2.2636  1.1908 -2.6306
  275MPD2     N 4161   4.035   1.045  14.485  0.0511 -0.9593 -0.1210
  275MPD2    H5 4162   4.039   0.991  14.400 -1.9634 -0.0938 -0.7724
  275MPD2    N1 4163   4.261   1.283  14.832 -0.1507 -0.2931  0.7717
  275MPD2    H7 4164   4.186   1.247  14.889 -0.4322 -1.0739 -0.0778
  276TMC3    C1 4165   4.349   1.386  15.037 -0.2030  0.4198  0.1331
  276TMC3    C2 4166   4.227   1.384  15.089  0.1946  0.2204 -0.5549
  276TMC3    C3 4167   4.217   1.422  15.222  0.3723 -0.0560 -0.1065
  276TMC3    C4 4168   4.458   1.433  15.110  0.0384  0.1574 -0.2454
  276TMC3    C5 4169   4.446   1.458  15.241 -0.6863 -0.4115  0.1406
  276TMC3    C6 4170   4.325   1.462  15.296  0.1969  0.4386  0.7798
  276TMC3     C 4171   4.370   1.345  14.896 -0.2791  0.6735  0.6246
  276TMC3     O 4172   4.468   1.401  14.847 -0.1162  0.3109 -0.4892
  276TMC3     H 4173   4.134   1.353  15.043 -0.4068  0.5110  0.4533
  276TMC3    H1 4174   4.552   1.450  15.059  0.6046  1.1210  1.1156
  276TMC3    H2 4175   4.314   1.482  15.402  0.1114  0.4303  0.7722
  276TMC3    C7 4176   4.556   1.455  15.327  0.4694  0.2315  0.1728
  276TMC3    C8 4177   4.138   1.343  15.300  0.5492 -0.7880 -0.5331
  276TMC3    O1 4178   4.547   1.511  15.435 -0.0449  0.2685 -0.1687
  276TMC3    O2 4179   4.077   1.388  15.394 -0.1033  0.0339  0.4228
  277MPD2     C 4180   1.666   0.161  13.428  0.1173  0.0060 -0.2412
  277MPD2    C1 4181   1.553   0.220  13.474  0.0424  0.1257  0.2781
  277MPD2    C2 4182   1.455   0.132  13.523  0.6140 -0.0285 -0.2567
  277MPD2    C3 4183   1.480   4.726  13.553  0.2018 -0.7419  0.5844
  277MPD2    C4 4184   1.602   4.674  13.519  0.3710  0.6675 -0.8700
  277MPD2    C5 4185   1.692   0.025  13.456 -0.6279 -0.6659 -0.4923
  277MPD2     H 4186   1.355   0.168  13.545  0.4861 -0.2376 -0.4903
  277MPD2    H1 4187   1.635   4.572  13.529  2.3207  1.1124 -2.6758
  277MPD2    H2 4188   1.748   0.212  13.379  1.1430 -0.7484  0.6774
  277MPD2    H3 4189   1.787   4.705  13.433  0.8234  2.0753  0.1515
  277MPD2     N 4190   1.369   4.652  13.599  0.1697 -0.2636 -0.3125
  277MPD2    H5 4191   1.282   4.703  13.604  1.0287  1.5494 -3.6516
  277MPD2    N1 4192   1.537   0.357  13.455  0.0818 -0.2929 -0.0318
  277MPD2    H7 4193   1.620   0.395  13.410  0.6388  0.1015  1.2982
  278TMC3    C1 4194   1.276   4.427  13.633 -0.1992  0.5312  0.2809
  278TMC3    C2 4195   1.291   4.293  13.666 -0.4279 -0.3684  0.1979
  278TMC3    C3 4196   1.187   4.208  13.643  0.9101 -0.1771  0.1403
  278TMC3    C4 4197   1.154   4.483  13.601  0.2419  0.2500 -0.5526
  278TMC3    C5 4198   1.047   4.392  13.592 -0.0089  0.1204  0.2898
  278TMC3    C6 4199   1.061   4.262  13.620  0.3299 -0.8252 -0.0045
  278TMC3     C 4200   1.390   4.516  13.636  0.2999 -0.1265  0.1880
  278TMC3     O 4201   1.496   4.462  13.657  0.1030  0.0194 -0.0281
  278TMC3     H 4202   1.388   4.251  13.691 -1.1080 -2.6012 -0.9282
  278TMC3    H1 4203   1.147   4.588  13.575  1.0836  0.0659 -1.5377
  278TMC3    H2 4204   0.976   4.199  13.600  0.7829 -0.9204 -1.6668
  278TMC3    C7 4205   0.924   4.421  13.523  0.3920 -0.4612 -0.1132
  278TMC3    C8 4206   1.219   4.095  13.552 -0.8576 -0.0222 -0.1928
  278TMC3    O1 4207   0.865   4.329  13.472  0.0626 -0.2400  0.0605
  278TMC3    O2 4208   1.321   4.031  13.577 -0.7208 -0.3045  0.8041
  279MPD2     C 4209   0.248   4.619   0.236  0.1279 -0.0786  0.0607
  279MPD2    C1 4210   0.271   4.726   0.314 -0.6443 -0.5168 -0.0261
  279MPD2    C2 4211   0.355   0.101   0.274 -0.1310  0.5943  0.0089
  279MPD2    C3 4212   0.406   0.098   0.143 -1.0129 -0.4031 -0.1861
  279MPD2    C4 4213   0.371   4.718   0.062 -0.3850  0.4159  0.0271
  279MPD2    C5 4214   0.300   4.610   0.108 -0.3145 -0.7545 -0.2202
  279MPD2     H 4215   0.377   0.193   0.326  1.8732  0.5423 -0.7191
  279MPD2    H1 4216   0.404   4.713  17.664 -0.4166 -1.0874  0.0893
  279MPD2    H2 4217   0.177   4.546   0.275  0.0222  1.4793  2.6936
  279MPD2    H3 4218   0.269   4.524   0.050  1.4319 -1.1537 -0.5751
  279MPD2     N 4219   0.466   0.219   0.084 -0.5782 -0.1273 -0.1120
  279MPD2    H5 4220   0.495   0.217  17.691  0.4487  1.1756  0.1547
  279MPD2    N1 4221   0.205   4.722   0.435 -0.2729 -0.0820  0.5909
  279MPD2    H7 4222   0.156   4.636   0.457  0.8122 -0.4745  1.5063
  280TMC3    C1 4223   0.069   0.099   0.595 -0.1747 -0.3976 -0.3978
  280TMC3    C2 4224   4.687   0.021   0.547  0.3217  0.0709  0.2827
  280TMC3    C3 4225   4.562   0.061   0.573 -0.6135  0.1042 -0.7516
  280TMC3    C4 4226   0.047   0.205   0.675 -0.0527 -0.2782 -0.1180
  280TMC3    C5 4227   4.640   0.238   0.698 -0.2593  0.6204 -0.6412
  280TMC3    C6 4228   4.532   0.167   0.652 -0.0374 -0.7507 -0.1604
  280TMC3     C 4229   0.194   0.108   0.516 -0.3243  0.9304 -0.1039
  280TMC3     O 4230   0.257   0.213   0.521 -0.1768 -0.0637  0.2460
  280TMC3     H 4231   4.697   4.669   0.472 -0.8646 -0.6803  0.8932
  280TMC3    H1 4232   0.127   0.276   0.692 -0.1424 -0.1994 -0.0248
  280TMC3    H2 4233   4.430   0.193   0.675  0.6051  1.4251  0.1606
  280TMC3    C7 4234   4.619   0.384   0.719 -0.4068 -0.0893  0.0636
  280TMC3    C8 4235   4.458   4.682   0.594  0.0893 -0.6454 -0.0496
  280TMC3    O1 4236   4.708   0.447   0.771 -0.3814 -0.2042  0.0908
  280TMC3    O2 4237   4.343   4.712   0.612  0.3755  0.3299  0.2735
  281TMC3    C1 4238   3.740   0.716  13.683 -0.7699 -0.1419 -0.2135
  281TMC3    C2 4239   3.701   0.797  13.574  0.2013 -0.4117  0.6880
  281TMC3    C3 4240   3.609   0.748  13.489 -0.0312  0.6631 -0.0994
  281TMC3    C4 4241   3.682   0.596  13.714 -0.0011  0.1756 -0.0236
  281TMC3    C5 4242   3.582   0.565  13.628  0.5791 -0.1545 -0.7238
  281TMC3    C6 4243   3.543   0.628  13.518  0.3239  0.1578 -0.6259
  281TMC3     C 4244   3.798   0.789  13.798  0.7434 -0.1179  0.2830
  281TMC3     O 4245   3.835   0.718  13.887 -0.5138  0.5993  0.2054
  281TMC3     H 4246   3.755   0.889  13.556  2.1767 -1.2682  2.2402
  281TMC3    H1 4247   3.688   0.546  13.810  0.5433  1.9641  0.8691
  281TMC3    H2 4248   3.482   0.582  13.441 -1.3126  2.1845 -0.5463
  281TMC3    C7 4249   3.535   0.429  13.628 -0.2294  0.3718 -0.4208
  281TMC3    C8 4250   3.587   0.830  13.365  0.4557  0.3256 -0.5431
  281TMC3    O1 4251   3.430   0.395  13.572  0.0327  0.5204  0.2812
  281TMC3    O2 4252   3.629   0.944  13.361 -0.4540  0.0718  0.4030
  282MPD2     C 4253   1.185   1.730  15.314  0.6334 -0.4086 -0.1227
  282MPD2    C1 4254   1.056   1.687  15.336  0.7131 -0.5362  0.3547
  282MPD2    C2 4255   0.996   1.608  15.240  0.0998  0.7528  0.0526
  282MPD2    C3 4256   1.061   1.589  15.114  0.0109  0.1458  0.7902
  282MPD2    C4 4257   1.190   1.627  15.092  0.5568 -0.0836  0.4912
  282MPD2    C5 4258   1.250   1.694  15.195 -0.2169  0.1341 -0.9459
  282MPD2     H 4259   0.898   1.568  15.263 -1.2911  2.5053 -2.8250
  282MPD2    H1 4260   1.242   1.604  15.000  0.1419  1.4067 -0.1239
  282MPD2    H2 4261   1.248   1.779  15.387 -0.7119  1.7542 -0.3996
  282MPD2    H3 4262   1.344   1.748  15.190  0.7808 -1.6096 -0.9412
  282MPD2     N 4263   0.980   1.521  15.015 -0.4708 -0.5187 -0.1867
  282MPD2    H5 4264   0.898   1.475  15.052 -1.9839  1.4494 -1.0834
  282MPD2    N1 4265   0.988   1.724  15.453 -0.0545 -0.0831  0.4062
  282MPD2    H7 4266   0.905   1.668  15.470  0.3775 -0.8385  0.0367
  283TMC3    C1 4267   0.942   1.862  15.636 -0.7467 -0.0165  0.2659
  283TMC3    C2 4268   0.933   1.997  15.686  0.0153  0.7303 -0.1702
  283TMC3    C3 4269   0.855   2.023  15.795 -0.0039 -0.5671 -0.4053
  283TMC3    C4 4270   0.877   1.754  15.700  0.7314 -1.0751  0.1801
  283TMC3    C5 4271   0.783   1.796  15.795 -0.1121  0.1108  0.1726
  283TMC3    C6 4272   0.787   1.923  15.853 -0.5588 -0.0609  0.6461
  283TMC3     C 4273   1.029   1.834  15.525  0.6975 -0.0043  0.0124
  283TMC3     O 4274   1.105   1.927  15.500 -0.4157 -0.5683  0.2102
  283TMC3     H 4275   0.984   2.079  15.637  1.4869  0.0329  0.2198
  283TMC3    H1 4276   0.895   1.648  15.684  0.0417 -1.4696  1.9951
  283TMC3    H2 4277   0.736   1.950  15.945  0.0906 -0.4060  1.1177
  283TMC3    C7 4278   0.727   1.686  15.882  0.4215  0.2359 -0.5277
  283TMC3    C8 4279   0.861   2.150  15.863 -0.2519 -0.0110 -0.5718
  283TMC3    O1 4280   0.747   1.712  15.998  0.6642 -0.4801 -0.3660
  283TMC3    O2 4281   0.834   2.160  15.984  0.6485  0.3989  0.1394
  284MPD2     C 4282   4.428   1.527  12.339  0.2010 -0.7658  0.5874
  284MPD2    C1 4283   4.557   1.502  12.277  0.1164  0.1516  0.4653
  284MPD2    C2 4284   4.658   1.442  12.348 -0.1452  0.4081  0.2704
  284MPD2    C3 4285   4.641   1.395  12.477 -0.2832  0.1110  0.1974
  284MPD2    C4 4286   4.519   1.425  12.536 -0.3619  0.8036  0.0266
  284MPD2    C5 4287   4.423   1.496  12.469 -0.3200  0.2412  0.0425
  284MPD2     H 4288   0.011   1.408  12.281 -1.0902 -1.8618  0.3256
  284MPD2    H1 4289   4.502   1.388  12.637  0.1586 -2.2249 -1.0163
  284MPD2    H2 4290   4.351   1.587  12.291  1.1060 -0.7183 -0.8191
  284MPD2    H3 4291   4.336   1.528  12.525  0.5186  0.8299  1.0066
  284MPD2     N 4292   4.721   1.285  12.518  0.7547 -0.0938  0.5274
  284MPD2    H5 4293   4.681   1.229  12.593 -1.1088  2.8893  1.7918
  284MPD2    N1 4294   4.573   1.519  12.135 -0.4946  0.4319 -1.0867
  284MPD2    H7 4295   4.662   1.503  12.089 -1.1817  0.2077 -2.3413
  285TMC3    C1 4296   4.515   1.562  11.911  0.2739 -0.5430  0.2220
  285TMC3    C2 4297   4.571   1.446  11.874  0.8844  0.1366  0.0618
  285TMC3    C3 4298   4.671   1.438  11.785 -0.0922 -0.2207  0.0018
  285TMC3    C4 4299   4.541   1.679  11.845  0.0619 -0.1292 -0.0307
  285TMC3    C5 4300   4.635   1.675  11.746 -1.0370  0.8076  0.5151
  285TMC3    C6 4301   4.707   1.557  11.722  0.3616 -0.0464  0.5495
  285TMC3     C 4302   4.480   1.584  12.051  0.1567 -0.2372 -0.2937
  285TMC3     O 4303   4.394   1.666  12.078 -0.4109 -0.6864  0.0840
  285TMC3     H 4304   4.552   1.355  11.930 -0.5311  1.2217  1.3452
  285TMC3    H1 4305   4.514   1.776  11.886 -4.5014 -1.3689 -0.0972
  285TMC3    H2 4306   0.064   1.560  11.651 -1.1567  1.2724 -1.1667
  285TMC3    C7 4307   4.690   1.793  11.686  0.4368  0.3465  0.0746
  285TMC3    C8 4308   0.022   1.314  11.768 -0.4732 -0.5102 -0.3529
  285TMC3    O1 4309   0.088   1.796  11.676  0.5647 -0.7656 -0.5090
  285TMC3    O2 4310   4.689   1.214  11.805  0.3354 -0.7987  0.1212
  286MPD2     C 4311   4.617   0.087   1.785  0.0487 -0.0154 -0.3442
  286MPD2    C1 4312   4.557   4.725   1.695  0.0750 -0.0056 -0.5250
  286MPD2    C2 4313   4.624   4.608   1.659 -0.3888  0.1214  0.3454
  286MPD2    C3 4314   0.021   4.579   1.701  0.5734 -0.5402  0.1939
  286MPD2    C4 4315   0.075   4.673   1.794  0.1583 -0.0923  0.4983
  286MPD2    C5 4316   0.010   0.058   1.834 -0.0103  0.0546 -1.1533
  286MPD2     H 4317   4.579   4.558   1.574  0.8350 -1.9884  0.9380
  286MPD2    H1 4318   0.168   4.648   1.843  0.2158 -0.6836  0.0908
  286MPD2    H2 4319   4.568   0.178   1.816 -1.4851 -0.8761 -0.2181
  286MPD2    H3 4320   0.050   0.119   1.915 -1.1375 -1.4868  0.5604
  286MPD2     N 4321   0.098   4.469   1.662  0.2300  0.4418  0.9726
  286MPD2    H5 4322   0.196   4.468   1.690  0.7479  0.1139 -0.7932
  286MPD2    N1 4323   4.426   0.028   1.648  0.5524  0.0097  0.6425
  286MPD2    H7 4324   4.390   4.681   1.587  1.7004 -1.1862  1.3777
  287TMC3    C1 4325   0.157   4.271   1.537  0.3707  0.4579 -0.1772
  287TMC3    C2 4326   0.149   4.219   1.412  0.2063  0.1960  0.6196
  287TMC3    C3 4327   0.246   4.134   1.372 -0.6074  0.2456  0.3225
  287TMC3    C4 4328   0.249   4.231   1.626  0.5053  0.1789 -0.4199
  287TMC3    C5 4329   0.341   4.140   1.590  0.9681  0.1303  0.3040
  287TMC3    C6 4330   0.345   4.099   1.458  0.2444 -0.5760  0.3535
  287TMC3     C 4331   0.052   4.366   1.583  1.0091 -0.0982  0.3561
  287TMC3     O 4332   4.663   4.357   1.540 -0.1038 -0.0184 -0.3132
  287TMC3     H 4333   0.073   4.262   1.347  1.0863 -1.1347 -1.3159
  287TMC3    H1 4334   0.236   4.259   1.730 -1.3568 -2.0025 -0.0622
  287TMC3    H2 4335   0.416   4.025   1.422 -0.2618 -0.0964 -1.6284
  287TMC3    C7 4336   0.473   4.152   1.657 -0.3212  0.4615  0.1822
  287TMC3    C8 4337   0.239   4.068   1.242 -0.2757 -0.0168 -0.0892
  287TMC3    O1 4338   0.566   4.118   1.584 -0.0971  0.3336 -0.6472
  287TMC3    O2 4339   0.296   3.960   1.229 -0.4344 -0.7206 -0.4322
  288TMC3    C1 4340   1.931   4.620  14.476 -0.0600 -0.5596 -0.8431
  288TMC3    C2 4341   1.827   4.609  14.562 -0.0905 -0.0138  0.0850
  288TMC3    C3 4342   1.737   4.708  14.556 -0.9860  0.1827  0.3016
  288TMC3    C4 4343   1.963   0.015  14.413  0.9054  0.6555 -0.3777
  288TMC3    C5 4344   1.870   0.112  14.423  0.2909 -0.7697 -0.1650
  288TMC3    C6 4345   1.748   0.093  14.475  0.1233 -0.6724  0.4048
  288TMC3     C 4346   2.028   4.511  14.486  0.5116  0.4352 -0.2153
  288TMC3     O 4347   2.035   4.440  14.584  0.6731 -0.4476  0.1144
  288TMC3     H 4348   1.812   4.516  14.617 -1.7127 -1.0764 -2.1316
  288TMC3    H1 4349   2.056   0.035  14.360  1.0645  0.6139 -0.1154
  288TMC3    H2 4350   1.681   0.176  14.492  0.2155  0.2676 -3.9599
  288TMC3    C7 4351   1.895   0.246  14.374  0.6645 -0.3214  0.3599
  288TMC3    C8 4352   1.650   0.003  14.673  0.8988 -0.0388  0.6370
  288TMC3    O1 4353   1.800   0.308  14.339  0.8139  0.2005  0.4132
  288TMC3    O2 4354   1.611   0.118  14.696 -0.2333  0.3696  0.5359
  289MPD2     C 4355   1.982   3.953  14.449  0.1612  0.0491  0.7812
  289MPD2    C1 4356   1.996   3.901  14.324 -0.3683  0.0316 -0.8584
  289MPD2    C2 4357   1.891   3.835  14.261  0.1897  0.3331 -0.3587
  289MPD2    C3 4358   1.766   3.832  14.328  0.3347  1.2306  0.4643
  289MPD2    C4 4359   1.756   3.888  14.451 -0.8782 -0.8520 -0.0186
  289MPD2    C5 4360   1.865   3.936  14.510 -0.8319 -0.4491  0.4476
  289MPD2     H 4361   1.891   3.809  14.155  1.9516  2.7691 -0.9544
  289MPD2    H1 4362   1.662   3.887  14.506 -0.3478  1.8642  0.9354
  289MPD2    H2 4363   2.067   4.003  14.494  1.1981 -0.4341 -0.6469
  289MPD2    H3 4364   1.868   3.972  14.612  1.4634  0.6546 -0.0331
  289MPD2     N 4365   1.645   3.779  14.273  0.3041 -0.2254  0.0711
  289MPD2    H5 4366   1.562   3.792  14.328  0.8329  0.2448  0.7536
  289MPD2    N1 4367   2.117   3.924  14.259  0.0128 -0.3231  0.6922
  289MPD2    H7 4368   2.185   3.976  14.315 -0.5183  2.3174 -1.1492
  290TMC3    C1 4369   1.513   3.654  14.121  0.4855  0.4404  0.3984
  290TMC3    C2 4370   1.407   3.730  14.131  0.2124 -0.8844  0.4154
  290TMC3    C3 4371   1.285   3.678  14.107 -0.3545  0.1679 -0.2317
  290TMC3    C4 4372   1.505   3.520  14.098 -0.2630 -0.8021  0.4464
  290TMC3    C5 4373   1.385   3.466  14.082 -0.7001 -0.1999 -0.0643
  290TMC3    C6 4374   1.274   3.541  14.091 -0.3749  0.1933 -0.0633
  290TMC3     C 4375   1.643   3.708  14.153  0.3227 -0.5403  0.5121
  290TMC3     O 4376   1.740   3.654  14.095  0.0510  0.9007  0.1040
  290TMC3     H 4377   1.419   3.836  14.151 -0.1135 -0.4950 -1.5059
  290TMC3    H1 4378   1.597   3.464  14.086  1.0297  1.3705  0.2941
  290TMC3    H2 4379   1.177   3.497  14.074  0.1109 -0.6793 -0.5417
  290TMC3    C7 4380   1.372   3.318  14.085  0.0337 -0.2385  0.3774
  290TMC3    C8 4381   1.164   3.758  14.109  0.2086  0.5004  0.3958
  290TMC3    O1 4382   1.255   3.287  14.114  0.2975 -0.2737  0.2104
  290TMC3    O2 4383   1.057   3.694  14.107 -0.7858  0.3443  0.1152
  291MPD2     C 4384   0.449   3.794   0.351  1.0395 -0.9429  0.1623
  291MPD2    C1 4385   0.556   3.723   0.407 -0.2030  0.8854 -0.9719
  291MPD2    C2 4386   0.669   3.799   0.440 -1.2132  0.4519  0.1334
  291MPD2    C3 4387   0.684   3.928   0.398 -0.6058 -0.2555 -0.6995
  291MPD2    C4 4388   0.580   3.990   0.336  0.3864  0.0213  0.7311
  291MPD2    C5 4389   0.462   3.922   0.308 -0.8849  0.5086  0.3699
  291MPD2     H 4390   0.732   3.753   0.515 -2.7661  1.0927  1.8399
  291MPD2    H1 4391   0.584   4.094   0.306  0.1833  0.1490  1.1478
  291MPD2    H2 4392   0.358   3.737   0.339  0.1770  0.1582  1.5124
  291MPD2    H3 4393   0.376   3.961   0.255 -0.4087  3.7436  1.9628
  291MPD2     N 4394   0.803   4.001   0.430  0.0492 -0.1718 -0.8390
  291MPD2    H5 4395   0.804   4.093   0.389  1.1944  0.0595 -0.2727
  291MPD2    N1 4396   0.543   3.584   0.449 -0.7298 -0.5043  0.4931
  291MPD2    H7 4397   0.626   3.540   0.487  0.3780  2.4181  1.4935
  292TMC3    C1 4398   0.459   3.380   0.498  0.1619  0.9894  0.1398
  292TMC3    C2 4399   0.551   3.378   0.606  0.1216  0.6490  0.0373
  292TMC3    C3 4400   0.573   3.261   0.664  0.2485 -0.2878  0.3568
  292TMC3    C4 4401   0.389   3.267   0.463  0.2686  0.3264 -0.5274
  292TMC3    C5 4402   0.416   3.150   0.533 -0.3060 -0.0266 -0.4148
  292TMC3    C6 4403   0.519   3.149   0.624 -0.2384 -0.3703  0.1192
  292TMC3     C 4404   0.436   3.505   0.430 -0.0565  0.0441 -0.4032
  292TMC3     O 4405   0.328   3.511   0.368  0.5989  0.3687 -0.4916
  292TMC3     H 4406   0.608   3.466   0.633 -0.8302  1.1551  0.4120
  292TMC3    H1 4407   0.318   3.270   0.381  0.8709 -3.8994 -1.2040
  292TMC3    H2 4408   0.539   3.059   0.680 -0.9861 -0.6382 -0.0397
  292TMC3    C7 4409   0.366   3.019   0.485  0.5846  0.5080 -0.5302
  292TMC3    C8 4410   0.660   3.263   0.781  0.7350 -0.4837  0.2054
  292TMC3    O1 4411   0.454   2.933   0.491  0.1230 -0.1319 -0.6306
  292TMC3    O2 4412   0.756   3.341   0.775  0.3873 -0.3598 -0.6106
  293MPD2     C 4413   2.640   0.530  12.728 -0.2621 -0.4969 -0.2404
  293MPD2    C1 4414   2.588   0.406  12.766 -0.6649  0.2522  0.1564
  293MPD2    C2 4415   2.564   0.385  12.904 -0.4279 -0.1701 -0.2949
  293MPD2    C3 4416   2.600   0.481  12.995 -0.7439  0.5943  0.2237
  293MPD2    C4 4417   2.647   0.601  12.954  0.4579 -0.6859  0.4960
  293MPD2    C5 4418   2.664   0.624  12.822  0.0643 -0.0866 -1.1963
  293MPD2     H 4419   2.528   0.291  12.944 -1.7386  0.7354  0.6436
  293MPD2    H1 4420   2.696   0.670  13.021 -1.7891  0.5476  0.8736
  293MPD2    H2 4421   2.643   0.559  12.624  1.9669  2.7827  0.7519
  293MPD2    H3 4422   2.720   0.711  12.791 -0.4760  0.4898 -0.5734
  293MPD2     N 4423   2.591   0.445  13.131  0.3235 -0.1208 -0.3384
  293MPD2    H5 4424   2.570   0.348  13.149 -0.7781  0.1601 -0.1012
  293MPD2    N1 4425   2.559   0.326  12.658  0.1682  0.1512 -0.0784
  293MPD2    H7 4426   2.574   0.368  12.567  1.6677 -0.9642 -0.3338
  294TMC3    C1 4427   2.485   0.142  12.535  0.5991  0.2460 -0.1991
  294TMC3    C2 4428   2.458   0.010  12.534  0.0761 -0.6892 -0.5339
  294TMC3    C3 4429   2.412   4.677  12.420 -0.2044 -0.0188  1.0491
  294TMC3    C4 4430   2.485   0.222  12.420 -0.0335  0.5724  0.1574
  294TMC3    C5 4431   2.437   0.157  12.307  0.1495 -0.1907 -0.0580
  294TMC3    C6 4432   2.398   0.027  12.304  0.3459 -0.5084  0.7462
  294TMC3     C 4433   2.510   0.199  12.664  0.3202 -0.4970 -0.0351
  294TMC3     O 4434   2.479   0.143  12.770  0.1529  0.2045  0.1909
  294TMC3     H 4435   2.466   4.678  12.625  0.3670  1.6141  0.8963
  294TMC3    H1 4436   2.506   0.328  12.414 -1.6929  0.8696 -0.4761
  294TMC3    H2 4437   2.337   4.707  12.227  2.5488 -0.2874 -1.1150
  294TMC3    C7 4438   2.399   0.232  12.187 -0.0330 -0.0798  0.5127
  294TMC3    C8 4439   2.360   4.545  12.433 -0.5550  0.0664 -0.5910
  294TMC3    O1 4440   2.363   0.345  12.202  0.3947 -0.9368  0.5693
  294TMC3    O2 4441   2.332   4.523  12.548 -0.0400 -0.1746  0.0660
  295MPD2     C 4442   3.500   3.200   0.880 -0.8755 -0.3130 -0.6775
  295MPD2    C1 4443   3.362   3.199   0.844  0.5180 -1.0355 -0.1781
  295MPD2    C2 4444   3.267   3.174   0.942 -0.1594 -0.3296 -0.6454
  295MPD2    C3 4445   3.304   3.159   1.073 -0.1797 -0.1590 -0.0273
  295MPD2    C4 4446   3.442   3.153   1.107 -0.1497  0.7799 -0.6985
  295MPD2    C5 4447   3.533   3.167   1.008  0.1771 -0.6665  0.3745
  295MPD2     H 4448   3.161   3.166   0.922 -0.5400  1.0169  0.8523
  295MPD2    H1 4449   3.471   3.154   1.211 -1.1162  1.8579 -0.4340
  295MPD2    H2 4450   3.579   3.198   0.806  0.5941 -2.3518  0.9662
  295MPD2    H3 4451   3.639   3.154   1.027 -0.0102  0.2870  2.0596
  295MPD2     N 4452   3.210   3.141   1.179  0.0432  0.3322 -0.7151
  295MPD2    H5 4453   3.237   3.091   1.263 -2.2716 -0.4920 -0.4673
  295MPD2    N1 4454   3.313   3.224   0.709  0.4208  0.2294 -0.1347
  295MPD2    H7 4455   3.217   3.206   0.680  0.4174  0.2866 -0.1584
  296TMC3    C1 4456   3.004   3.155   1.277 -0.2466  0.2789 -0.1766
  296TMC3    C2 4457   2.897   3.243   1.290 -0.1568 -0.0313  0.1147
  296TMC3    C3 4458   2.821   3.224   1.404  0.6141  0.3104  0.6636
  296TMC3    C4 4459   3.041   3.060   1.365  0.4048  0.1795 -0.3994
  296TMC3    C5 4460   2.959   3.049   1.469  0.3702  0.7157 -0.1899
  296TMC3    C6 4461   2.849   3.128   1.494  0.6186 -0.0977  0.0405
  296TMC3     C 4462   3.082   3.180   1.160  0.3326  0.2056 -0.2752
  296TMC3     O 4463   3.027   3.258   1.084 -0.2728  0.4514  0.0166
  296TMC3     H 4464   2.874   3.321   1.218 -1.2844  1.0008  1.5980
  296TMC3    H1 4465   3.116   2.982   1.353  1.5681  1.0985  0.9999
  296TMC3    H2 4466   2.782   3.097   1.573 -0.7412  0.8911 -0.7466
  296TMC3    C7 4467   2.945   2.913   1.505  0.2030  0.4183 -0.6090
  296TMC3    C8 4468   2.771   3.354   1.452 -0.0321 -0.1785  0.3324
  296TMC3    O1 4469   2.974   2.830   1.419  0.3103  0.3552 -0.2238
  296TMC3    O2 4470   2.736   3.444   1.374 -0.1261  0.7335  0.6323
  297MPD2     C 4471   0.113   0.214  16.488 -0.3081 -0.1625  0.1593
  297MPD2    C1 4472   0.100   0.322  16.397 -0.1740 -0.1513  0.2427
  297MPD2    C2 4473   0.198   0.421  16.406  0.3919  0.0843  0.1632
  297MPD2    C3 4474   0.305   0.414  16.499 -0.2044  0.1323 -0.2591
  297MPD2    C4 4475   0.305   0.317  16.591  0.1125  0.0738 -0.7530
  297MPD2    C5 4476   0.216   0.214  16.583  0.4650  0.3879  0.2892
  297MPD2     H 4477   0.187   0.503  16.337  0.4654  0.1414  0.2191
  297MPD2    H1 4478   0.389   0.302  16.658  0.5023  0.9169 -1.0570
  297MPD2    H2 4479   0.041   0.133  16.491 -0.9405  0.3629 -1.2396
  297MPD2    H3 4480   0.223   0.135  16.657 -0.1116 -0.4014 -0.5011
  297MPD2     N 4481   0.408   0.506  16.482  0.1193 -0.2252 -0.8869
  297MPD2    H5 4482   0.409   0.560  16.396 -0.0384  2.0411  0.5308
  297MPD2    N1 4483   0.001   0.332  16.293  0.4595 -0.1749 -0.8288
  297MPD2    H7 4484   4.712   0.414  16.237  0.3358 -0.3923 -1.1137
  298TMC3    C1 4485   4.533   0.283  16.175  0.2501  0.8151  0.4749
  298TMC3    C2 4486   4.577   0.360  16.075  0.0210 -0.3651 -0.0567
  298TMC3    C3 4487   4.495   0.433  15.996  0.4349  0.6207  0.0248
  298TMC3    C4 4488   4.397   0.282  16.204 -0.5571  0.3249  0.7711
  298TMC3    C5 4489   4.315   0.367  16.130  0.6007  0.2644 -0.1856
  298TMC3    C6 4490   4.359   0.431  16.020 -0.2952 -0.0150 -0.1535
  298TMC3     C 4491   4.622   0.245  16.283  0.1859 -0.9051  0.3732
  298TMC3     O 4492   4.597   0.148  16.348  0.0271 -0.2368 -0.5710
  298TMC3     H 4493   4.685   0.364  16.061 -0.0226 -0.1087 -0.3158
  298TMC3    H1 4494   4.352   0.240  16.294  0.1827 -1.7557  0.1697
  298TMC3    H2 4495   4.298   0.504  15.967  0.5256  1.0042  0.3064
  298TMC3    C7 4496   4.224   0.443  16.210  0.2525  0.6497  0.4101
  298TMC3    C8 4497   4.557   0.527  15.907  0.0791  0.2768  0.1367
  298TMC3    O1 4498   4.278   0.516  16.290  0.0704  0.2508 -0.3415
  298TMC3    O2 4499   4.676   0.518  15.878  0.1071  0.4323  0.2516
  299MPD2     C 4500   1.261   0.254  11.195 -0.1758 -0.0970  0.5119
  299MPD2    C1 4501   1.249   0.375  11.133  0.0464 -0.7100 -0.5655
  299MPD2    C2 4502   1.172   0.391  11.024 -0.1335  0.5248 -0.1815
  299MPD2    C3 4503   1.103   0.282  10.968  1.1796  0.1635  0.0350
  299MPD2    C4 4504   1.122   0.159  11.020 -0.1055 -0.0784  0.3462
  299MPD2    C5 4505   1.193   0.148  11.140  0.6429  0.6396  0.5437
  299MPD2     H 4506   1.158   0.482  10.967 -2.2994  0.0362 -0.4418
  299MPD2    H1 4507   1.084   0.067  10.978 -0.0911  0.7020 -1.3493
  299MPD2    H2 4508   1.331   0.243  11.277  0.5367  0.3722 -0.0348
  299MPD2    H3 4509   1.200   0.056  11.197 -0.2036  0.2499  0.0373
  299MPD2     N 4510   1.015   0.283  10.860  0.2388  0.2520 -0.3760
  299MPD2    H5 4511   0.991   0.193  10.819  2.4764 -0.6222  0.2142
  299MPD2    N1 4512   1.330   0.478  11.186  0.0881  0.0603  0.2983
  299MPD2    H7 4513   1.392   0.451  11.261  2.1063  1.1164 -1.0083
  300TMC3    C1 4514   0.882   0.358  10.689 -0.5447  0.3567  0.1005
  300TMC3    C2 4515   0.850   0.466  10.614 -0.5069 -0.9784  0.0227
  300TMC3    C3 4516   0.722   0.474  10.571  0.5527  0.3303 -0.2380
  300TMC3    C4 4517   0.787   0.259  10.717 -0.3367 -0.1288 -0.3760
  300TMC3    C5 4518   0.665   0.267  10.660  0.4192  0.1796 -0.3343
  300TMC3    C6 4519   0.624   0.379  10.592  0.0781 -0.0110 -0.3517
  300TMC3     C 4520   0.963   0.399  10.803  0.4589 -0.1193  0.0935
  300TMC3     O 4521   0.965   0.517  10.841  0.1604 -0.8340 -0.3357
  300TMC3     H 4522   0.930   0.533  10.586 -1.5954  0.2506 -0.1557
  300TMC3    H1 4523   0.792   0.187  10.798 -1.0152  0.3346  0.0838
  300TMC3    H2 4524   0.523   0.369  10.554  0.0480  0.8348 -0.4862
  300TMC3    C7 4525   0.566   0.188  10.742 -0.4636 -0.3387 -0.6114
  300TMC3    C8 4526   0.684   0.611  10.531 -0.1808  0.2334 -0.6830
  300TMC3    O1 4527   0.598   0.074  10.760  0.3793  0.0881  0.1295
  300TMC3    O2 4528   0.768   0.698  10.537  0.0906 -0.7317  0.1366
  301MPD2     C 4529   3.237   1.936   1.273 -0.0677  0.6426  0.4804
  301MPD2    C1 4530   3.101   1.909   1.251 -0.5120 -0.0577 -0.3203
  301MPD2    C2 4531   3.066   1.785   1.222 -0.2187 -0.3004  0.4422
  301MPD2    C3 4532   3.154   1.673   1.214 -0.3601  0.1860 -0.9196
  301MPD2    C4 4533   3.283   1.704   1.239 -0.6519  0.0272  0.1977
  301MPD2    C5 4534   3.330   1.833   1.259 -0.1181  0.1220 -0.0011
  301MPD2     H 4535   2.960   1.774   1.200  0.3478 -0.4797 -2.2106
  301MPD2    H1 4536   3.357   1.626   1.224 -1.0443 -0.0668 -1.2275
  301MPD2    H2 4537   3.270   2.037   1.297  0.1658  0.8986 -0.9111
  301MPD2    H3 4538   3.430   1.856   1.293 -0.6055  0.1328  1.4203
  301MPD2     N 4539   3.116   1.541   1.170  0.3286 -0.1149  0.8951
  301MPD2    H5 4540   3.180   1.463   1.180  2.7796  1.5378 -2.1166
  301MPD2    N1 4541   3.003   2.004   1.224  0.0167  0.1879  0.1227
  301MPD2    H7 4542   2.914   1.977   1.185 -0.1814 -2.4258  2.3901
  302TMC3    C1 4543   2.969   1.365   1.114 -0.0413  0.5946 -0.0197
  302TMC3    C2 4544   3.058   1.272   1.172 -0.2720 -0.2762  0.1117
  302TMC3    C3 4545   3.018   1.142   1.171  0.2201  0.1067  0.3358
  302TMC3    C4 4546   2.849   1.327   1.055  0.1910 -0.0057  0.5144
  302TMC3    C5 4547   2.823   1.188   1.054  0.7160  0.0698  0.0222
  302TMC3    C6 4548   2.912   1.093   1.107 -0.6111  0.3796  0.1456
  302TMC3     C 4549   2.990   1.505   1.139 -0.0739 -0.0088  0.0926
  302TMC3     O 4550   2.895   1.576   1.111 -0.1751 -0.3183 -0.3062
  302TMC3     H 4551   3.151   1.302   1.217 -1.1939 -0.7292  2.3344
  302TMC3    H1 4552   2.773   1.395   1.019 -0.6421 -0.4606  1.4186
  302TMC3    H2 4553   2.885   0.988   1.112 -1.5487  0.5879 -0.5366
  302TMC3    C7 4554   2.685   1.146   1.028 -0.8564 -0.7805 -0.2473
  302TMC3    C8 4555   3.087   1.045   1.250 -0.4132 -0.8055 -0.1587
  302TMC3    O1 4556   2.673   1.034   0.980  0.2438 -0.3925  0.3212
  302TMC3    O2 4557   3.207   1.041   1.237 -0.3898  0.2571  0.6842
  303MPD2     C 4558   2.846   4.168  11.029  0.0169 -0.5786 -0.0889
  303MPD2    C1 4559   2.772   4.120  10.927  0.0408 -0.4596 -0.3573
  303MPD2    C2 4560   2.831   4.077  10.806 -0.1442 -0.3247  0.1790
  303MPD2    C3 4561   2.970   4.058  10.797 -0.1271  0.1347  0.4781
  303MPD2    C4 4562   3.041   4.091  10.917  0.5314  0.2651  0.3527
  303MPD2    C5 4563   2.980   4.143  11.027  0.4485  1.3553 -0.9525
  303MPD2     H 4564   2.761   4.046  10.729  2.2124 -0.6563 -1.8256
  303MPD2    H1 4565   3.149   4.091  10.907  0.6347  1.2840  1.4214
  303MPD2    H2 4566   2.799   4.206  11.119  0.4969  0.8290 -0.4457
  303MPD2    H3 4567   3.046   4.174  11.107  0.9617  0.4037 -1.0014
  303MPD2     N 4568   3.037   4.017  10.681 -0.3237 -1.0830  0.4875
  303MPD2    H5 4569   3.135   3.992  10.692  0.1724 -0.6421 -2.9896
  303MPD2    N1 4570   2.638   4.133  10.943  0.4819  0.2067 -0.3159
  303MPD2    H7 4571   2.613   4.191  11.022 -0.4295 -0.9606  0.2573
  304TMC3    C1 4572   2.411   4.129  10.904  0.1837 -0.5395 -0.6426
  304TMC3    C2 4573   2.400   4.260  10.949  0.4227 -0.4444  0.3813
  304TMC3    C3 4574   2.276   4.322  10.948  0.0885 -0.0438 -0.4250
  304TMC3    C4 4575   2.314   4.067  10.837  1.1527 -0.6605  0.4661
  304TMC3    C5 4576   2.195   4.135  10.822  0.5283 -0.4080  0.3076
  304TMC3    C6 4577   2.175   4.259  10.884 -0.0085  0.2943 -0.0549
  304TMC3     C 4578   2.541   4.087  10.866  0.5679 -0.4268 -0.3107
  304TMC3     O 4579   2.548   3.997  10.784 -0.1909 -0.2073  0.6420
  304TMC3     H 4580   2.489   4.320  10.961  1.0022 -1.1525 -0.4301
  304TMC3    H1 4581   2.331   3.975  10.783  0.6395  0.8774 -2.2919
  304TMC3    H2 4582   2.077   4.305  10.889  0.3190  0.7329  2.3635
  304TMC3    C7 4583   2.140   4.147  10.691 -0.2067 -0.9975 -0.3424
  304TMC3    C8 4584   2.295   4.455  10.908  0.3089  0.0673 -0.3407
  304TMC3    O1 4585   2.119   4.265  10.659  0.4271 -0.1363 -0.2003
  304TMC3    O2 4586   2.370   4.526  10.972 -0.4512  0.1422 -0.1694
  305MPD2     C 4587   0.977   1.809  14.554  0.4719  0.0680  0.8822
  305MPD2    C1 4588   1.087   1.879  14.501  0.6263  0.0088  0.0117
  305MPD2    C2 4589   1.106   1.883  14.366 -0.0365 -0.2601 -0.0125
  305MPD2    C3 4590   1.033   1.806  14.281  0.1242 -0.1957  0.0937
  305MPD2    C4 4591   0.921   1.741  14.336 -0.4730 -0.1411  0.5416
  305MPD2    C5 4592   0.897   1.741  14.471 -0.1856  0.1024 -0.0566
  305MPD2     H 4593   1.181   1.949  14.325 -0.1902  0.3501  0.6816
  305MPD2    H1 4594   0.860   1.681  14.269  0.2840 -0.5449  0.2182
  305MPD2    H2 4595   0.956   1.816  14.660 -1.8591 -1.7236  0.5301
  305MPD2    H3 4596   0.812   1.696  14.520 -1.2469  1.7255 -0.4099
  305MPD2     N 4597   1.048   1.808  14.139 -0.5472 -0.0390 -0.1597
  305MPD2    H5 4598   0.992   1.743  14.085  1.2188 -1.9155  0.2514
  305MPD2    N1 4599   1.180   1.921  14.597  0.1803 -0.0423 -0.5564
  305MPD2    H7 4600   1.156   1.902  14.694 -0.8443  0.6329 -0.6885
  306TMC3    C1 4601   1.379   2.010  14.697 -0.1935  0.3429 -0.3437
  306TMC3    C2 4602   1.395   1.897  14.777  0.2796  0.0662 -0.5948
  306TMC3    C3 4603   1.516   1.880  14.842 -0.2128  0.0818  0.3595
  306TMC3    C4 4604   1.482   2.102  14.687 -0.3264  0.2088  0.4467
  306TMC3    C5 4605   1.593   2.084  14.764 -0.2864 -0.1933  0.5090
  306TMC3    C6 4606   1.617   1.973  14.842  0.5687 -0.1243  0.1788
  306TMC3     C 4607   1.298   1.988  14.577 -0.4916  0.4119  0.3757
  306TMC3     O 4608   1.347   2.032  14.471 -0.0522  0.2683 -0.0271
  306TMC3     H 4609   1.317   1.822  14.779  1.9457 -1.6403  0.3972
  306TMC3    H1 4610   1.481   2.182  14.614 -1.6043 -2.0017 -1.9691
  306TMC3    H2 4611   1.714   1.956  14.886 -0.5040 -0.4112  2.4247
  306TMC3    C7 4612   1.621   2.208  14.830 -0.6198 -0.5958 -0.3362
  306TMC3    C8 4613   1.536   1.773  14.939  0.2255 -0.7108  0.0157
  306TMC3    O1 4614   1.581   2.314  14.777 -0.5564 -0.5093  0.2781
  306TMC3    O2 4615   1.554   1.659  14.898 -0.8240 -0.1079 -0.1587
  307MPD2     C 4616   3.828   4.329   0.900 -0.6546 -0.3809  0.0265
  307MPD2    C1 4617   3.747   4.365   0.801 -0.7011 -0.6418 -0.5778
  307MPD2    C2 4618   3.672   4.478   0.816  0.0195  0.2334 -0.2677
  307MPD2    C3 4619   3.689   4.558   0.927 -0.5031 -0.1239  0.6831
  307MPD2    C4 4620   3.770   4.523   1.027 -0.0344  0.2175  0.5938
  307MPD2    C5 4621   3.837   4.407   1.014  0.3188  0.1338  0.3096
  307MPD2     H 4622   3.599   4.500   0.739 -0.9982  0.0138  0.6450
  307MPD2    H1 4623   3.788   4.572   1.122 -0.8277 -1.6903  1.7200
  307MPD2    H2 4624   3.889   4.239   0.908 -2.2470 -1.3294  1.6187
  307MPD2    H3 4625   3.904   4.384   1.095  0.1883 -1.8974 -0.1481
  307MPD2     N 4626   3.594   4.664   0.944 -0.7540 -0.2538  0.1549
  307MPD2    H5 4627   3.527   4.677   0.869  0.7970  0.8119 -1.0682
  307MPD2    N1 4628   3.738   4.297   0.676  0.5913  0.7543 -0.8220
  307MPD2    H7 4629   3.684   4.352   0.610  1.1036  0.3743 -1.5497
  308TMC3    C1 4630   3.310   0.245   1.141 -0.2976 -0.1174  0.0518
  308TMC3    C2 4631   3.303   0.320   1.026 -0.0095 -0.4135  0.3130
  308TMC3    C3 4632   3.379   0.273   0.923 -0.5736 -0.1545 -0.0653
  308TMC3    C4 4633   3.388   0.137   1.157  0.2296  0.9961  0.6091
  308TMC3    C5 4634   3.460   0.100   1.046  0.0303 -0.2506  0.2097
  308TMC3    C6 4635   3.455   0.165   0.924  0.1195  0.4177  0.2955
  308TMC3     C 4636   3.206   0.269   1.248 -0.1595  0.5938  0.0480
  308TMC3     O 4637   3.214   0.190   1.342 -0.0997 -0.3537  0.3397
  308TMC3     H 4638   3.242   0.408   1.007  1.8244  1.0677  1.3168
  308TMC3    H1 4639   3.399   0.088   1.252 -2.4010 -0.3111  0.2149
  308TMC3    H2 4640   3.505   0.135   0.833 -1.7607 -0.9808 -0.2873
  308TMC3    C7 4641   3.569   4.725   1.063  0.4891 -0.3078  0.5744
  308TMC3    C8 4642   3.361   0.325   0.786 -0.1074  0.7258 -0.9397
  308TMC3    O1 4643   3.599   4.698   1.181 -0.0650  0.1791  0.6049
  308TMC3    O2 4644   3.347   0.245   0.692  0.1873 -0.5598 -0.0053
  309MPD2     C 4645   2.751   0.484   0.129  0.0209  0.0970  0.2976
  309MPD2    C1 4646   2.670   0.538   0.030  0.3443 -0.2272 -1.0504
  309MPD2    C2 4647   2.539   0.576   0.056 -0.3931 -0.3857 -0.2405
  309MPD2    C3 4648   2.490   0.557   0.182 -0.8393  0.2029  0.0026
  309MPD2    C4 4649   2.565   0.497   0.278  1.1662 -0.1654  0.6352
  309MPD2    C5 4650   2.699   0.468   0.257 -0.0745 -0.2817 -0.2643
  309MPD2     H 4651   2.480   0.621  17.681 -0.4799 -0.7244 -0.3664
  309MPD2    H1 4652   2.517   0.481   0.374  0.0483 -2.1722 -0.2620
  309MPD2    H2 4653   2.858   0.472   0.113  0.0252 -0.7989  0.9511
  309MPD2    H3 4654   2.765   0.429   0.333  1.6893 -0.0035 -1.6691
  309MPD2     N 4655   2.351   0.564   0.219  0.0052  0.1406 -0.1092
  309MPD2    H5 4656   2.320   0.541   0.312  0.5231 -0.5834 -0.1161
  309MPD2    N1 4657   2.736   0.548  17.610 -0.5552 -0.3030 -0.0419
  309MPD2    H7 4658   2.831   0.513  17.613  0.7756  3.3843  0.0990
  310TMC3    C1 4659   2.789   0.637  17.402 -0.1200 -0.6603  0.7528
  310TMC3    C2 4660   2.741   0.663  17.274  0.1541  0.7146  0.0217
  310TMC3    C3 4661   2.829   0.666  17.172  0.0774 -0.4165  0.2930
  310TMC3    C4 4662   2.924   0.627  17.430  0.3954 -0.3832 -0.1511
  310TMC3    C5 4663   3.010   0.638  17.320  1.1040  0.0575 -0.1697
  310TMC3    C6 4664   2.965   0.657  17.193  0.9552 -0.8185 -0.9054
  310TMC3     C 4665   2.689   0.608  17.502  0.0820  0.1624 -0.2999
  310TMC3     O 4666   2.580   0.653  17.482  0.4737  0.1746 -0.0659
  310TMC3     H 4667   2.635   0.674  17.258  0.0136  0.7231  0.9654
  310TMC3    H1 4668   2.949   0.591  17.529  1.7232 -0.7870 -0.6232
  310TMC3    H2 4669   3.031   0.640  17.109  0.7054 -2.7758 -0.7001
  310TMC3    C7 4670   3.129   0.563  17.318  0.0641  0.1591  0.0187
  310TMC3    C8 4671   2.778   0.707  17.036  0.9903  0.4832 -0.0289
  310TMC3    O1 4672   3.140   0.465  17.392  0.2375  0.2402  0.3755
  310TMC3    O2 4673   2.661   0.739  17.021 -0.1122 -0.3972  0.2057
  311MPD2     C 4674   0.478   1.744  13.013 -0.2677 -0.4702 -0.4006
  311MPD2    C1 4675   0.472   1.865  13.082 -0.1167 -0.5040 -0.1784
  311MPD2    C2 4676   0.350   1.905  13.133 -0.5884 -0.1938  0.3417
  311MPD2    C3 4677   0.241   1.827  13.121 -0.1107  0.4755  0.6781
  311MPD2    C4 4678   0.250   1.705  13.056  0.6992  0.2659  0.3470
  311MPD2    C5 4679   0.365   1.667  12.995 -0.3584  0.2766 -0.3791
  311MPD2     H 4680   0.346   2.006  13.171 -2.7727 -0.0398 -0.3312
  311MPD2    H1 4681   0.166   1.641  13.034  2.1423 -1.8661  1.0111
  311MPD2    H2 4682   0.564   1.710  12.957 -0.0402  0.9632 -0.9247
  311MPD2    H3 4683   0.376   1.569  12.950 -0.4051  0.4514 -0.7705
  311MPD2     N 4684   0.128   1.862  13.196 -0.3186 -0.1639 -0.6113
  311MPD2    H5 4685   0.142   1.933  13.267 -0.4330 -1.8831  1.1049
  311MPD2    N1 4686   0.587   1.952  13.095 -0.0329 -0.2056 -0.0629
  311MPD2    H7 4687   0.577   2.053  13.105  2.1372  0.0709 -0.6403
  312TMC3    C1 4688   4.612   1.852  13.254  0.0276 -0.5918  0.1993
  312TMC3    C2 4689   4.497   1.789  13.212  0.5900  0.1147  0.0033
  312TMC3    C3 4690   4.380   1.861  13.217 -0.4698 -0.3651  0.2040
  312TMC3    C4 4691   4.611   1.977  13.313 -0.2054  0.5443 -0.4202
  312TMC3    C5 4692   4.492   2.040  13.326 -0.6367 -0.0839  0.3004
  312TMC3    C6 4693   4.368   1.984  13.278 -0.2473  0.7849 -0.7942
  312TMC3     C 4694   0.002   1.806  13.172 -0.3506  0.2687 -0.4136
  312TMC3     O 4695   4.699   1.708  13.107 -0.5289 -0.3321  0.4297
  312TMC3     H 4696   4.491   1.691  13.166 -0.4523 -0.5362  1.5166
  312TMC3    H1 4697   4.703   2.028  13.340 -0.0497 -0.8587  1.6729
  312TMC3    H2 4698   4.275   2.037  13.296  1.2928  2.7482  1.3028
  312TMC3    C7 4699   4.476   2.143  13.425  0.6454  0.6331  0.4368
  312TMC3    C8 4700   4.256   1.795  13.167  0.8964 -0.9466 -0.6071
  312TMC3    O1 4701   4.400   2.235  13.390 -0.0145 -0.1386  0.3128
  312TMC3    O2 4702   4.260   1.672  13.178  0.2879  0.1417  0.2437
  313MPD2     C 4703   0.033   0.874  11.079  0.8113  0.6391  0.0366
  313MPD2    C1 4704   4.623   0.859  11.057  0.2888  1.2653 -0.2847
  313MPD2    C2 4705   4.582   0.774  10.957 -0.0342  0.0524  0.6294
  313MPD2    C3 4706   4.673   0.692  10.894  0.0686 -0.0549  0.0859
  313MPD2    C4 4707   0.088   0.704  10.915 -0.2489  0.3457 -0.1063
  313MPD2    C5 4708   0.123   0.798  11.011 -0.2329  0.6597 -0.4725
  313MPD2     H 4709   4.478   0.778  10.926  0.3009  2.4421 -0.1911
  313MPD2    H1 4710   0.156   0.641  10.859 -2.0512 -1.1175 -0.6643
  313MPD2    H2 4711   0.066   0.943  11.155  0.8681  0.1867  0.4222
  313MPD2    H3 4712   0.227   0.821  11.032 -0.2576  0.2668  0.0771
  313MPD2     N 4713   4.620   0.621  10.786 -0.5570 -0.0916 -0.5885
  313MPD2    H5 4714   4.519   0.619  10.791 -0.4565 -0.8955  1.2717
  313MPD2    N1 4715   4.524   0.948  11.106  0.8385  0.1014 -0.5264
  313MPD2    H7 4716   4.431   0.922  11.075  0.3292 -3.2448  3.8056
  314TMC3    C1 4717   4.430   1.098  11.260 -0.3443 -0.3400 -0.6032
  314TMC3    C2 4718   4.464   1.169  11.374  0.1585 -0.1077  0.3493
  314TMC3    C3 4719   4.478   1.301  11.370  0.5441  0.0786  0.8846
  314TMC3    C4 4720   4.381   1.174  11.155 -0.1928 -0.3685  0.1356
  314TMC3    C5 4721   4.389   1.307  11.148 -0.1104 -0.2693  0.4556
  314TMC3    C6 4722   4.440   1.371  11.255 -0.6274 -0.8724 -0.0717
  314TMC3     C 4723   4.537   1.012  11.225 -0.0146 -0.1044  0.4526
  314TMC3     O 4724   4.636   1.023  11.302 -0.1499  0.0925 -0.3950
  314TMC3     H 4725   4.512   1.119  11.457  1.7259 -0.1500 -0.5730
  314TMC3    H1 4726   4.366   1.118  11.063  1.2309 -3.6002  1.8745
  314TMC3    H2 4727   4.476   1.473  11.251  0.6708 -1.2570  1.5964
  314TMC3    C7 4728   4.444   1.357  11.019  0.2172 -0.2363  0.0414
  314TMC3    C8 4729   4.599   1.359  11.433  0.9194  0.2559  0.4018
  314TMC3    O1 4730   4.562   1.375  11.013 -0.1997  0.5396  0.1366
  314TMC3    O2 4731   4.593   1.481  11.445 -0.2501 -0.3515 -0.0478
  315MPD2     C 4732   3.707   0.322   0.233  0.1178 -0.1342  0.0541
  315MPD2    C1 4733   3.833   0.257   0.242  0.4183 -0.2882 -0.0000
  315MPD2    C2 4734   3.942   0.314   0.179  0.2664  0.0419 -0.1039
  315MPD2    C3 4735   3.926   0.423   0.097  0.1755 -0.7192  0.5182
  315MPD2    C4 4736   3.804   0.485   0.092  0.2282  0.2202 -0.1283
  315MPD2    C5 4737   3.695   0.435   0.154  0.2524 -0.1632 -0.2578
  315MPD2     H 4738   4.045   0.283   0.188 -0.0505 -0.5797  1.4066
  315MPD2    H1 4739   3.783   0.570   0.027 -0.7199 -0.1869 -0.3577
  315MPD2    H2 4740   3.620   0.282   0.284 -1.5922  2.7325 -0.5950
  315MPD2    H3 4741   3.605   0.490   0.130  0.4334  0.8062  1.3443
  315MPD2     N 4742   4.042   0.479   0.038 -0.2264 -0.8160 -0.0251
  315MPD2    H5 4743   4.126   0.435   0.075 -0.0623 -1.4590 -1.1759
  315MPD2    N1 4744   3.846   0.145   0.325 -0.2351  0.6480 -0.5231
  315MPD2    H7 4745   3.938   0.103   0.327  0.4043  1.8010 -5.0129
  316TMC3    C1 4746   4.177   0.624  17.628  0.0338  0.1593 -0.1294
  316TMC3    C2 4747   4.242   0.644   0.044 -0.9500 -0.0006 -0.2738
  316TMC3    C3 4748   4.347   0.726   0.038  0.1929  0.6434  0.1837
  316TMC3    C4 4749   4.202   0.694  17.512 -0.1613 -0.1892  0.4409
  316TMC3    C5 4750   4.312   0.774  17.514  0.7388 -0.5079 -0.3623
  316TMC3    C6 4751   4.391   0.784  17.627 -0.3284 -0.4537  0.7084
  316TMC3     C 4752   4.044   0.574  17.647  0.0284  0.1685  0.2605
  316TMC3     O 4753   3.959   0.643  17.593  0.2619  0.9133  0.6974
  316TMC3     H 4754   4.201   0.611   0.139  0.3487  2.5789  1.1869
  316TMC3    H1 4755   4.129   0.679  17.432  0.6327  1.7405 -0.6515
  316TMC3    H2 4756   4.479   0.846  17.620 -1.9798  1.5926 -1.9832
  316TMC3    C7 4757   4.368   0.825  17.391  0.1818  0.3877 -0.3469
  316TMC3    C8 4758   4.421   0.750   0.154 -0.3335 -0.1919  0.2490
  316TMC3    O1 4759   4.489   0.840  17.392 -0.4908  0.3830 -0.2745
  316TMC3    O2 4760   4.500   0.844   0.148  0.4833 -0.8097  0.2603
  317MPD2     C 4761   1.196   3.368  12.856 -0.8389 -0.9605 -0.0040
  317MPD2    C1 4762   1.330   3.370  12.843 -0.3037 -0.1894 -0.0233
  317MPD2    C2 4763   1.402   3.394  12.957  0.1996 -0.0633 -0.2433
  317MPD2    C3 4764   1.344   3.409  13.078  0.5123  0.1769  0.1500
  317MPD2    C4 4765   1.206   3.411  13.089  0.9815 -0.3604 -0.3908
  317MPD2    C5 4766   1.135   3.394  12.975  0.7685  0.3188 -0.2240
  317MPD2     H 4767   1.509   3.405  12.950  0.2328  1.1727  2.2225
  317MPD2    H1 4768   1.155   3.427  13.184 -1.9462 -0.0154 -2.0440
  317MPD2    H2 4769   1.132   3.362  12.769  1.3329 -0.5831 -1.6543
  317MPD2    H3 4770   1.027   3.384  12.986  0.6789 -0.0438 -1.3869
  317MPD2     N 4771   1.434   3.425  13.185 -0.0705  0.3919 -0.2541
  317MPD2    H5 4772   1.532   3.424  13.157 -0.1633 -0.1357 -0.5545
  317MPD2    N1 4773   1.406   3.356  12.722 -0.6356  0.6243  0.5360
  317MPD2    H7 4774   1.507   3.352  12.730 -0.3589  2.1152 -2.1818
  318TMC3    C1 4775   1.520   3.362  13.391  0.6819 -1.0771  0.7334
  318TMC3    C2 4776   1.551   3.248  13.328  0.2595 -0.0451  0.1959
  318TMC3    C3 4777   1.678   3.208  13.307 -0.6218  0.6003  0.2829
  318TMC3    C4 4778   1.615   3.454  13.407 -0.0939  0.4649  0.0803
  318TMC3    C5 4779   1.750   3.418  13.395 -0.0968 -0.1295 -0.6772
  318TMC3    C6 4780   1.786   3.292  13.345  1.0008 -0.0985 -0.2748
  318TMC3     C 4781   1.409   3.425  13.321  0.0638  0.1713 -0.1949
  318TMC3     O 4782   1.305   3.423  13.378 -0.3449  0.5373 -0.1568
  318TMC3     H 4783   1.475   3.171  13.327  0.2275 -0.0202  0.5465
  318TMC3    H1 4784   1.580   3.541  13.461 -1.3849  0.0945 -0.1543
  318TMC3    H2 4785   1.886   3.257  13.324  0.4293 -0.0470 -3.1800
  318TMC3    C7 4786   1.855   3.510  13.419 -0.2416 -0.0059  0.1775
  318TMC3    C8 4787   1.709   3.119  13.198  0.1623 -0.0463 -0.3717
  318TMC3    O1 4788   1.825   3.629  13.418 -0.5111 -0.5093  0.5342
  318TMC3    O2 4789   1.812   3.043  13.207  0.3343  0.1209 -0.4071
  319MPD2     C 4790   1.691   0.289  17.348  0.4124  0.1468 -0.2160
  319MPD2    C1 4791   1.756   0.170  17.329 -0.3348 -0.2210  0.2745
  319MPD2    C2 4792   1.723   0.095  17.212 -0.5708  0.0487 -0.3443
  319MPD2    C3 4793   1.624   0.138  17.125  0.3524  0.4530  0.2237
  319MPD2    C4 4794   1.556   0.256  17.164  1.0557 -0.0578  0.2897
  319MPD2    C5 4795   1.590   0.332  17.267  0.6126  0.2663  0.6979
  319MPD2     H 4796   1.771   4.725  17.195 -0.8611 -0.4293  1.4994
  319MPD2    H1 4797   1.468   0.280  17.104  0.6329  1.1861  1.4277
  319MPD2    H2 4798   1.712   0.346  17.438 -1.1101 -1.1368  0.9569
  319MPD2    H3 4799   1.544   0.428  17.284 -1.2801 -0.6202  0.5805
  319MPD2     N 4800   1.570   0.058  17.020 -0.2088 -0.1513  0.0428
  319MPD2    H5 4801   1.505   0.110  16.960 -0.9377 -0.5243  0.5091
  319MPD2    N1 4802   1.848   0.120  17.425 -0.2529  0.3016  0.4324
  319MPD2    H7 4803   1.886   0.026  17.419 -0.8121 -0.0188  2.0132
  320TMC3    C1 4804   1.546   4.620  16.863 -0.4870  0.0096 -0.0013
  320TMC3    C2 4805   1.530   4.700  16.761 -0.4156 -0.1983  0.0729
  320TMC3    C3 4806   1.481   4.649  16.640  0.0873  0.1928  0.4034
  320TMC3    C4 4807   1.525   4.483  16.853  0.0848 -1.0187 -0.6010
  320TMC3    C5 4808   1.470   4.438  16.732 -0.2863 -0.5142  0.2566
  320TMC3    C6 4809   1.451   4.518  16.622 -0.1364 -0.2116 -0.3265
  320TMC3     C 4810   1.607   4.661  16.984  0.1935 -0.2585  0.2006
  320TMC3     O 4811   1.676   4.586  17.052 -0.6360 -0.4296  0.2605
  320TMC3     H 4812   1.546   0.081  16.763 -2.6692  0.1422  0.0703
  320TMC3    H1 4813   1.562   4.423  16.935 -0.0335  1.6346  1.4036
  320TMC3    H2 4814   1.409   4.476  16.531  0.1236  1.4710 -1.2324
  320TMC3    C7 4815   1.461   4.300  16.707 -0.4230 -0.5035  0.0098
  320TMC3    C8 4816   1.508   0.010  16.528  0.3214  0.1632  0.2000
  320TMC3    O1 4817   1.445   4.271  16.589 -0.1372  0.0005  0.0091
  320TMC3    O2 4818   1.531   0.129  16.543 -0.2154 -0.6136  0.6488
  321TMC3    C1 4819   1.987   0.100  17.622 -0.1048  0.7085  0.1752
  321TMC3    C2 4820   1.971   4.686  17.623  0.8616 -0.4420  0.1142
  321TMC3    C3 4821   2.063   4.618  17.698  0.1554 -0.6509  0.3382
  321TMC3    C4 4822   2.065   0.170   0.009  0.3124  0.0883  0.6770
  321TMC3    C5 4823   2.160   0.092   0.074 -0.2794  0.2323 -0.4945
  321TMC3    C6 4824   2.159   4.677   0.072 -0.0647  0.1614  0.6886
  321TMC3     C 4825   1.895   0.185  17.540 -0.3506 -0.0772  0.2492
  321TMC3     O 4826   1.897   0.303  17.570 -0.2775  0.7371  0.0923
  321TMC3     H 4827   1.905   4.632  17.556  2.1876 -0.5937 -1.0561
  321TMC3    H1 4828   2.082   0.276  17.698  1.9367 -0.5000 -1.4684
  321TMC3    H2 4829   2.240   4.622   0.118 -0.7775 -0.3728  1.3019
  321TMC3    C7 4830   2.293   0.153   0.046  0.6118 -0.0628  0.1771
  321TMC3    C8 4831   2.141   4.514  17.630 -0.2225 -0.6810 -0.1870
  321TMC3    O1 4832   2.312   0.259   0.100 -0.1004 -0.5822  0.3114
  321TMC3    O2 4833   2.245   4.560  17.585 -0.2729 -0.5588  0.8900
  322MPD2     C 4834   1.365   1.525  13.971  1.0349  0.1780  0.5478
  322MPD2    C1 4835   1.295   1.473  14.076  0.4193 -0.1509 -0.1288
  322MPD2    C2 4836   1.258   1.343  14.065 -0.0102 -0.0608 -0.0112
  322MPD2    C3 4837   1.301   1.270  13.956 -0.6659 -0.2668  0.2778
  322MPD2    C4 4838   1.375   1.323  13.857 -0.1171  0.3526  0.1973
  322MPD2    C5 4839   1.400   1.453  13.857 -0.0831 -0.2683 -0.1752
  322MPD2     H 4840   1.218   1.296  14.154  1.7660 -1.7993 -0.1420
  322MPD2    H1 4841   1.389   1.267  13.765  1.2520  1.7229 -0.4306
  322MPD2    H2 4842   1.379   1.633  13.966 -1.3569  0.4845  0.6458
  322MPD2    H3 4843   1.435   1.506  13.769 -0.9413  1.0172  0.2633
  322MPD2     N 4844   1.274   1.135  13.963  0.1876  0.6377 -0.2262
  322MPD2    H5 4845   1.210   1.102  14.036  0.7218  0.4247  0.1444
  322MPD2    N1 4846   1.268   1.560  14.182 -0.0188  0.9555  0.2209
  322MPD2    H7 4847   1.313   1.649  14.165 -2.6137  1.9289 -1.5198
  323TMC3    C1 4848   1.293   1.600  14.415 -0.3987 -0.0351 -0.4414
  323TMC3    C2 4849   1.369   1.703  14.367  0.0831 -0.2497 -0.2949
  323TMC3    C3 4850   1.475   1.738  14.448 -0.2877  0.0328  0.3637
  323TMC3    C4 4851   1.318   1.526  14.528 -0.3899 -0.4191 -0.1395
  323TMC3    C5 4852   1.443   1.548  14.581  1.2815  0.5871  0.0442
  323TMC3    C6 4853   1.513   1.666  14.559  0.2225  0.5034  0.1576
  323TMC3     C 4854   1.224   1.519  14.311  0.4345  0.1888 -0.2266
  323TMC3     O 4855   1.179   1.406  14.334  0.0649 -0.6766 -0.3187
  323TMC3     H 4856   1.340   1.765  14.283 -0.4072 -0.0709  0.0074
  323TMC3    H1 4857   1.260   1.438  14.554  0.7383 -1.5552 -1.4023
  323TMC3    H2 4858   1.587   1.709  14.625 -0.6967 -0.8827  2.0937
  323TMC3    C7 4859   1.530   1.432  14.582 -0.0214  0.0532  0.3556
  323TMC3    C8 4860   1.587   1.808  14.394  0.0492 -0.1074 -0.0968
  323TMC3    O1 4861   1.472   1.326  14.576 -0.1248 -0.1697 -0.8948
  323TMC3    O2 4862   1.687   1.813  14.460  0.0758  0.3835 -0.3358
  324MPD2     C 4863   2.955   2.506  14.904  0.3286  0.0983  0.1816
  324MPD2    C1 4864   2.956   2.641  14.903 -0.8787  1.1005  0.1919
  324MPD2    C2 4865   2.833   2.709  14.885 -0.2952 -0.3414  0.6449
  324MPD2    C3 4866   2.714   2.636  14.891 -0.4843 -0.0216  0.1315
  324MPD2    C4 4867   2.717   2.496  14.900  0.4253  0.4564 -0.1822
  324MPD2    C5 4868   2.835   2.429  14.898  0.0530 -0.0249 -0.4470
  324MPD2     H 4869   2.829   2.817  14.893 -0.3641 -0.3339  0.5092
  324MPD2    H1 4870   2.629   2.435  14.912  2.0578 -2.0772 -1.2267
  324MPD2    H2 4871   3.041   2.444  14.924  0.7146  0.3285 -0.7737
  324MPD2    H3 4872   2.846   2.321  14.900  0.6998  0.0206 -1.5293
  324MPD2     N 4873   2.594   2.698  14.917 -0.0089 -0.5566 -0.1360
  324MPD2    H5 4874   2.524   2.637  14.958  0.5952  0.3567  2.2441
  324MPD2    N1 4875   3.081   2.711  14.922 -0.7212 -0.7537 -0.2749
  324MPD2    H7 4876   3.081   2.813  14.923 -0.4731 -0.7503 -0.4630
  325TMC3    C1 4877   2.436   2.856  14.952 -0.2759  0.2961  0.8929
  325TMC3    C2 4878   2.405   2.774  15.053 -0.0387 -0.1050 -0.7144
  325TMC3    C3 4879   2.276   2.743  15.077  0.4194 -0.1790 -0.2507
  325TMC3    C4 4880   2.345   2.927  14.879  0.5697  0.5231  0.4650
  325TMC3    C5 4881   2.210   2.902  14.908 -0.6667  0.5515  0.8325
  325TMC3    C6 4882   2.178   2.825  15.020  0.9956 -0.3638  0.2868
  325TMC3     C 4883   2.566   2.827  14.895 -0.8618 -0.5851 -0.0960
  325TMC3     O 4884   2.612   2.909  14.820 -0.1426  0.3354  0.1561
  325TMC3     H 4885   2.483   2.730  15.115 -1.3347 -0.2024  0.8496
  325TMC3    H1 4886   2.371   2.962  14.780 -0.7076  1.2332  0.3809
  325TMC3    H2 4887   2.075   2.804  15.043  0.7274  2.8470  2.0198
  325TMC3    C7 4888   2.114   2.910  14.792  0.0127  0.1408 -0.3407
  325TMC3    C8 4889   2.264   2.608  15.032  0.0885  0.5887  0.1303
  325TMC3    O1 4890   2.175   2.932  14.688 -0.8672 -0.4360 -0.1980
  325TMC3    O2 4891   2.360   2.536  15.004  0.1540 -0.1085  0.0280
  326MPD2     C 4892   3.897   3.578  11.265  0.1129 -0.3919  0.8218
  326MPD2    C1 4893   3.968   3.513  11.168 -0.3250  0.3144 -0.3826
  326MPD2    C2 4894   4.092   3.564  11.139 -0.1119 -0.1500  0.0755
  326MPD2    C3 4895   4.135   3.680  11.196  0.5469 -0.0391  0.9093
  326MPD2    C4 4896   4.062   3.740  11.299 -0.3668 -0.1886 -0.2021
  326MPD2    C5 4897   3.944   3.687  11.334  0.5239 -0.5729 -0.4587
  326MPD2     H 4898   4.153   3.517  11.063  0.0969  0.3833 -0.0813
  326MPD2    H1 4899   4.097   3.826  11.355  0.9647  0.1150 -1.5158
  326MPD2    H2 4900   3.803   3.546  11.307  0.4928 -1.2506  1.0164
  326MPD2    H3 4901   3.883   3.739  11.407  0.7866 -1.7038  0.5596
  326MPD2     N 4902   4.252   3.751  11.161 -0.5978 -0.2360 -0.9684
  326MPD2    H5 4903   4.269   3.836  11.215  0.5401 -1.6881  0.9396
  326MPD2    N1 4904   3.919   3.394  11.109 -0.5555  0.0066 -0.7067
  326MPD2    H7 4905   3.989   3.347  11.051 -1.6306 -1.7484 -0.5643
  327TMC3    C1 4906   3.790   3.233  11.021 -0.1077  0.5177 -0.0722
  327TMC3    C2 4907   3.741   3.287  10.904 -0.4111 -0.5438  0.2980
  327TMC3    C3 4908   3.778   3.239  10.786 -0.1327  0.2745 -0.1799
  327TMC3    C4 4909   3.894   3.149  11.028 -0.2596  0.4181  0.5530
  327TMC3    C5 4910   3.942   3.110  10.903 -0.9210  0.1097  0.5022
  327TMC3    C6 4911   3.885   3.156  10.784  0.2740  0.6691 -0.6244
  327TMC3     C 4912   3.793   3.334  11.120  0.0839 -0.8503  0.0479
  327TMC3     O 4913   3.690   3.377  11.170  0.5365  0.2146  0.0659
  327TMC3     H 4914   3.690   3.381  10.920  2.9299  1.2595  0.5269
  327TMC3    H1 4915   3.926   3.114  11.125  0.8910 -0.2092 -0.0521
  327TMC3    H2 4916   3.928   3.117  10.693 -3.4820 -1.3192 -1.5463
  327TMC3    C7 4917   4.080   3.075  10.887  0.1006 -0.3868 -0.0716
  327TMC3    C8 4918   3.780   3.342  10.681 -0.8530 -0.1451  0.0403
  327TMC3    O1 4919   4.116   3.042  10.776 -0.1276 -0.6767  0.1360
  327TMC3    O2 4920   3.878   3.348  10.605  0.2780  0.4672  0.1415
  328MPD2     C 4921   1.136   3.118  17.263 -0.1841 -0.1704 -0.1269
  328MPD2    C1 4922   1.199   3.214  17.338 -0.0571 -0.4564  0.8424
  328MPD2    C2 4923   1.190   3.353  17.304 -0.0427  0.1816  0.6192
  328MPD2    C3 4924   1.089   3.393  17.217  0.4880  0.6226  0.7852
  328MPD2    C4 4925   1.028   3.295  17.142 -0.7064  0.1120  0.3453
  328MPD2    C5 4926   1.048   3.159  17.170  0.1949 -0.4988  0.4379
  328MPD2     H 4927   1.237   3.437  17.354  1.9831 -0.1517 -0.7551
  328MPD2    H1 4928   0.954   3.313  17.064  0.5624  0.6927 -0.7224
  328MPD2    H2 4929   1.127   3.016  17.299 -3.5584 -0.2982 -1.3494
  328MPD2    H3 4930   0.984   3.084  17.124 -2.2536  0.4207  2.3090
  328MPD2     N 4931   1.058   3.524  17.192 -0.3696  0.7379  0.1144
  328MPD2    H5 4932   0.981   3.536  17.126  1.5817  3.2574 -1.6824
  328MPD2    N1 4933   1.288   3.171  17.442 -0.1064 -0.4759 -0.8870
  328MPD2    H7 4934   1.279   3.071  17.460 -2.3340  0.1141  1.2692
  329TMC3    C1 4935   1.456   3.197  17.620  0.0769 -0.0758 -0.2567
  329TMC3    C2 4936   1.538   3.282  17.686 -0.8034 -0.5014  0.0695
  329TMC3    C3 4937   1.589   3.243   0.103 -0.1931  0.0900  0.4808
  329TMC3    C4 4938   1.408   3.086  17.682  0.1947 -0.2315  1.1320
  329TMC3    C5 4939   1.466   3.048   0.101  0.0815 -0.6706 -0.3991
  329TMC3    C6 4940   1.567   3.118   0.151  0.5518 -0.4164 -0.0004
  329TMC3     C 4941   1.381   3.256  17.504  0.0626  0.1105 -0.8331
  329TMC3     O 4942   1.402   3.373  17.486  0.4620 -0.4486 -0.3877
  329TMC3     H 4943   1.573   3.377  17.647 -3.5902  0.3311 -0.3585
  329TMC3    H1 4944   1.335   3.021  17.634  1.9762 -0.5007 -1.1679
  329TMC3    H2 4945   1.615   3.086   0.243  1.9861 -0.8406 -0.9078
  329TMC3    C7 4946   1.428   2.930   0.169  0.0481 -0.3019 -0.0234
  329TMC3    C8 4947   1.648   3.349   0.173  0.6537 -0.0931  0.1137
  329TMC3    O1 4948   1.511   2.879   0.244 -0.2194  0.1730 -0.3900
  329TMC3    O2 4949   1.747   3.322   0.241 -0.0293  0.5570 -0.7885
  330TMC3    C1 4950   0.125   2.074  10.329 -0.0655  0.5440  0.3000
  330TMC3    C2 4951   0.131   1.988  10.223 -0.0858  0.2639  0.0166
  330TMC3    C3 4952   0.051   1.876  10.219  0.1371 -0.2777 -0.2155
  330TMC3    C4 4953   0.053   2.035  10.433 -0.7337 -0.0804 -0.4932
  330TMC3    C5 4954   4.707   1.919  10.430 -1.1972 -0.1402  0.6596
  330TMC3    C6 4955   4.697   1.842  10.319 -0.0692  0.1497 -0.0962
  330TMC3     C 4956   0.141   2.213  10.299  0.3871  0.5775 -0.4928
  330TMC3     O 4957   0.097   2.293  10.383  0.1536  0.2926  0.2180
  330TMC3     H 4958   0.195   2.010  10.139 -0.9321  1.5190 -0.2982
  330TMC3    H1 4959   0.044   2.101  10.519  3.1326  1.8702 -1.5828
  330TMC3    H2 4960   4.638   1.751  10.312  1.1227 -0.7103  1.1039
  330TMC3    C7 4961   4.679   1.853  10.552  0.1217  0.6100 -0.6404
  330TMC3    C8 4962   0.096   1.767  10.134  1.2054  0.0329 -0.2163
  330TMC3    O1 4963   4.585   1.776  10.541  0.3990 -0.4332  0.4633
  330TMC3    O2 4964   0.219   1.752  10.117  0.5644 -0.1341 -0.4022
  331MPD2     C 4965   2.775   1.564  13.255  0.8762  0.3175  0.5664
  331MPD2    C1 4966   2.871   1.608  13.168 -0.0128 -0.1570  0.3114
  331MPD2    C2 4967   2.860   1.574  13.033 -0.5379 -0.6916  0.2105
  331MPD2    C3 4968   2.757   1.501  12.987 -0.8179 -0.1072  0.3234
  331MPD2    C4 4969   2.674   1.450  13.077  0.4580  0.2177 -0.3864
  331MPD2    C5 4970   2.685   1.476  13.210  0.2287  0.1694 -0.2941
  331MPD2     H 4971   2.922   1.616  12.955  1.4200  0.6743  2.4868
  331MPD2    H1 4972   2.599   1.375  13.052  1.6346 -1.7054  1.8688
  331MPD2    H2 4973   2.770   1.600  13.357  1.0866  1.3831  0.2001
  331MPD2    H3 4974   2.614   1.434  13.280  2.1123 -0.1290  1.4312
  331MPD2     N 4975   2.730   1.492  12.847 -0.0560 -0.4503 -0.4610
  331MPD2    H5 4976   2.802   1.528  12.786  0.4615  0.0943  0.4753
  331MPD2    N1 4977   2.946   1.710  13.213  0.3239  0.1954  0.2904
  331MPD2    H7 4978   2.915   1.755  13.299  0.4153  0.6501  0.0808
  332TMC3    C1 4979   2.612   1.460  12.653  0.0945  0.0976  0.1379
  332TMC3    C2 4980   2.567   1.560  12.577  0.3180  0.0245 -0.1491
  332TMC3    C3 4981   2.607   1.551  12.449  0.2276 -0.7715  0.6151
  332TMC3    C4 4982   2.696   1.360  12.608  0.2661 -0.6733 -0.4034
  332TMC3    C5 4983   2.736   1.362  12.477  0.7455 -0.0911  0.4031
  332TMC3    C6 4984   2.686   1.453  12.393  0.6813 -0.3038 -0.3533
  332TMC3     C 4985   2.605   1.469  12.796  0.2411 -0.2432  0.1714
  332TMC3     O 4986   2.491   1.470  12.844 -0.2222 -0.1782  0.3498
  332TMC3     H 4987   2.502   1.638  12.614  1.2952  1.6714 -1.9083
  332TMC3    H1 4988   2.746   1.302  12.685 -2.6935 -0.6758  1.5321
  332TMC3    H2 4989   2.732   1.480  12.299 -0.5594 -1.4763 -1.2886
  332TMC3    C7 4990   2.875   1.333  12.465  0.9711  0.1464  0.8709
  332TMC3    C8 4991   2.631   1.674  12.392 -0.4676 -0.0646 -0.0886
  332TMC3    O1 4992   2.937   1.314  12.566  0.2174 -0.0585  0.2583
  332TMC3    O2 4993   2.667   1.773  12.454  0.0736  0.2536 -0.0655
  333MPD2     C 4994   2.731   1.579  11.515 -0.0442  0.2522 -0.6729
  333MPD2    C1 4995   2.772   1.457  11.480  0.4744 -0.0348  0.0934
  333MPD2    C2 4996   2.694   1.346  11.518 -0.4890  0.3622  0.1936
  333MPD2    C3 4997   2.594   1.364  11.603  0.6989  0.4045 -0.3388
  333MPD2    C4 4998   2.572   1.487  11.662  0.3854 -0.0692  0.3496
  333MPD2    C5 4999   2.637   1.596  11.606 -1.1109  0.0563 -0.1229
  333MPD2     H 5000   2.721   1.251  11.475  0.3057  0.6014  0.1648
  333MPD2    H1 5001   2.509   1.506  11.748 -0.1038 -0.0623 -0.0082
  333MPD2    H2 5002   2.785   1.668  11.486  0.0783  0.4710  0.2165
  333MPD2    H3 5003   2.600   1.693  11.638  0.5907 -0.1721  2.4978
  333MPD2     N 5004   2.517   1.248  11.624 -0.5806 -0.3242 -0.4281
  333MPD2    H5 5005   2.547   1.157  11.589 -0.7740 -0.5220 -0.0774
  333MPD2    N1 5006   2.878   1.444  11.385  0.6237  0.4917  0.5311
  333MPD2    H7 5007   2.917   1.535  11.366  0.4152  0.4241 -0.2038
  334TMC3    C1 5008   3.013   1.358  11.213 -0.2223 -0.4004  0.4709
  334TMC3    C2 5009   3.134   1.290  11.203  0.0057  0.0920  0.3103
  334TMC3    C3 5010   3.230   1.357  11.141 -0.5180 -0.4521 -0.2289
  334TMC3    C4 5011   2.986   1.478  11.143 -0.0488 -0.0509  0.0054
  334TMC3    C5 5012   3.077   1.523  11.050 -0.1570  0.4924  0.4464
  334TMC3    C6 5013   3.211   1.474  11.062  0.5194 -0.4670  0.4447
  334TMC3     C 5014   2.926   1.328  11.328  0.9087  0.3467  0.2757
  334TMC3     O 5015   2.927   1.210  11.356 -0.5835 -0.2586  0.1754
  334TMC3     H 5016   3.150   1.201  11.263 -0.1838 -0.7090 -0.8350
  334TMC3    H1 5017   2.884   1.517  11.149 -0.8783 -2.3048  0.4255
  334TMC3    H2 5018   3.286   1.529  11.007 -0.5537  0.0879 -0.4591
  334TMC3    C7 5019   3.053   1.660  10.996  0.0034  0.3294 -0.1202
  334TMC3    C8 5020   3.355   1.286  11.114  0.3302 -0.4041 -0.3618
  334TMC3    O1 5021   3.150   1.726  10.963 -0.0355 -0.4050 -0.3949
  334TMC3    O2 5022   3.351   1.167  11.089  0.0989 -0.6395  0.1594
  335TMC3    C1 5023   2.159   3.310   0.231 -0.0173  0.5249  0.1475
  335TMC3    C2 5024   2.061   3.248   0.153  0.4030  0.2945  0.2100
  335TMC3    C3 5025   2.083   3.252   0.015  0.6970  1.0759 -0.0268
  335TMC3    C4 5026   2.280   3.348   0.185 -0.1831 -0.3478  0.6168
  335TMC3    C5 5027   2.293   3.355   0.049 -0.6373 -0.2721  0.1310
  335TMC3    C6 5028   2.192   3.310  17.663 -0.0653  0.3275  0.3248
  335TMC3     C 5029   2.132   3.356   0.366  0.5751 -0.4968 -0.1181
  335TMC3     O 5030   2.230   3.372   0.437 -0.4114  0.1771 -0.0533
  335TMC3     H 5031   1.964   3.216   0.187  0.8078 -0.9198  0.2129
  335TMC3    H1 5032   2.356   3.382   0.254  1.4244  0.5652 -1.5808
  335TMC3    H2 5033   2.203   3.314  17.555  0.9991  0.3791  0.4356
  335TMC3    C7 5034   2.430   3.357  17.701  0.6033  0.3192 -0.2789
  335TMC3    C8 5035   1.983   3.206  17.634 -0.3908 -0.6326 -0.3023
  335TMC3    O1 5036   2.458   3.292  17.603 -0.1390 -0.1459 -0.5503
  335TMC3    O2 5037   1.968   3.256  17.519 -0.6445 -0.1449 -0.3941
  336MPD2     C 5038   1.924   1.363  16.442 -0.7951  0.4480 -0.3323
  336MPD2    C1 5039   1.884   1.303  16.331  0.6240  0.3553  0.1180
  336MPD2    C2 5040   1.880   1.166  16.339  0.2721  0.6579 -0.1665
  336MPD2    C3 5041   1.924   1.092  16.445  0.3865  0.7604  0.5029
  336MPD2    C4 5042   1.968   1.160  16.556  0.1348  0.3551 -0.0782
  336MPD2    C5 5043   1.966   1.294  16.547 -0.6469 -0.1983 -0.0944
  336MPD2     H 5044   1.848   1.113  16.249  1.6937 -0.3145 -0.1081
  336MPD2    H1 5045   2.009   1.119  16.648  0.0083  0.2399 -0.0732
  336MPD2    H2 5046   1.932   1.471  16.449  1.4410  0.3348 -1.5075
  336MPD2    H3 5047   1.992   1.356  16.633 -2.1831 -1.5451  1.3453
  336MPD2     N 5048   1.939   0.949  16.451 -0.0671  0.5418 -0.5027
  336MPD2    H5 5049   1.971   0.914  16.541  0.0637 -1.3027 -1.2709
  336MPD2    N1 5050   1.826   1.366  16.215 -0.2872 -0.0925  0.3844
  336MPD2    H7 5051   1.792   1.305  16.141  0.1787  0.5415 -0.3585
  337TMC3    C1 5052   1.758   1.527  16.057 -0.4226 -0.0674 -0.6244
  337TMC3    C2 5053   1.644   1.459  16.014  0.2365  0.1287 -0.4012
  337TMC3    C3 5054   1.583   1.518  15.902  0.3371  0.6015  1.0689
  337TMC3    C4 5055   1.797   1.644  15.993  0.1950 -0.8430  0.3109
  337TMC3    C5 5056   1.728   1.700  15.886  0.7946  0.1654  0.1689
  337TMC3    C6 5057   1.621   1.632  15.828 -0.0912 -0.0770 -0.1109
  337TMC3     C 5058   1.828   1.493  16.187 -0.7322 -0.2519 -0.0241
  337TMC3     O 5059   1.907   1.576  16.233 -0.1897 -0.0749 -0.0936
  337TMC3     H 5060   1.619   1.365  16.061  2.9875 -1.0545 -1.3599
  337TMC3    H1 5061   1.880   1.701  16.034  0.9846 -2.5200  1.0631
  337TMC3    H2 5062   1.566   1.669  15.742  0.7044 -1.2299 -1.1108
  337TMC3    C7 5063   1.736   1.838  15.879 -0.3799 -0.1130  0.6069
  337TMC3    C8 5064   1.456   1.460  15.864  0.5240 -0.1440 -0.8982
  337TMC3    O1 5065   1.796   1.902  15.964  0.2005  0.2304 -0.3957
  337TMC3    O2 5066   1.401   1.400  15.957  0.2078 -0.0992 -0.6639
  338MPD2     C 5067   2.099   1.146   1.518 -0.2184 -0.7379 -0.4514
  338MPD2    C1 5068   2.106   1.132   1.383 -0.7739  0.0876  0.0772
  338MPD2    C2 5069   1.994   1.170   1.316 -0.1822 -0.2213 -0.3881
  338MPD2    C3 5070   1.872   1.207   1.370  0.3700  0.5752  0.5749
  338MPD2    C4 5071   1.874   1.210   1.511 -0.0365 -0.4761 -0.3295
  338MPD2    C5 5072   1.988   1.183   1.580 -0.6551  0.1958  0.3698
  338MPD2     H 5073   1.999   1.183   1.208  0.4031  0.7426 -0.2486
  338MPD2    H1 5074   1.786   1.222   1.572 -1.5336  1.5903 -2.8631
  338MPD2    H2 5075   2.189   1.128   1.575 -1.0571  0.9240  1.4039
  338MPD2    H3 5076   1.982   1.175   1.687 -1.6585 -0.3258  0.2787
  338MPD2     N 5077   1.763   1.227   1.289 -0.6275  0.4783 -0.1852
  338MPD2    H5 5078   1.782   1.216   1.189  2.4324 -3.4270  0.7881
  338MPD2    N1 5079   2.216   1.093   1.314  0.1887  0.4717  0.0521
  338MPD2    H7 5080   2.198   1.082   1.215 -1.3629 -1.8223  0.5803
  339TMC3    C1 5081   1.537   1.195   1.219  0.0513 -0.3152 -0.8545
  339TMC3    C2 5082   1.485   1.069   1.232 -0.4007  0.1213 -0.0667
  339TMC3    C3 5083   1.471   0.993   1.122  0.0906  0.0376  0.5666
  339TMC3    C4 5084   1.587   1.235   1.104 -0.3474 -0.2756 -0.2362
  339TMC3    C5 5085   1.560   1.164   0.993  0.1227  0.3135 -0.3897
  339TMC3    C6 5086   1.507   1.035   0.996  0.6194  0.1646  0.7468
  339TMC3     C 5087   1.632   1.215   1.333  0.2164  0.1651 -0.3738
  339TMC3     O 5088   1.589   1.203   1.448  1.1806 -0.1706  0.1062
  339TMC3     H 5089   1.455   1.036   1.331  2.5232  1.4315  1.2447
  339TMC3    H1 5090   1.625   1.336   1.091  0.7732 -0.9514 -2.2301
  339TMC3    H2 5091   1.493   0.978   0.904  0.1516 -0.4528  1.2012
  339TMC3    C7 5092   1.664   1.191   0.897 -0.0553  0.2391 -0.0933
  339TMC3    C8 5093   1.420   0.857   1.144 -0.5789 -0.2010 -0.2123
  339TMC3    O1 5094   1.728   1.292   0.906  0.0588 -0.2400 -0.7538
  339TMC3    O2 5095   1.374   0.797   1.045 -0.2168 -0.5253 -0.4310
  340MPD2     C 5096   2.767   2.713  10.700  0.3889  0.3230  0.3669
  340MPD2    C1 5097   2.856   2.626  10.634  0.6760 -0.1809  0.4718
  340MPD2    C2 5098   2.975   2.679  10.590 -0.4526  0.0380 -0.8454
  340MPD2    C3 5099   3.012   2.810  10.628 -0.6102  1.2538  0.3158
  340MPD2    C4 5100   2.924   2.884  10.702 -0.2081 -0.7303 -0.2661
  340MPD2    C5 5101   2.799   2.841  10.728 -0.2202 -0.4814  0.5053
  340MPD2     H 5102   3.056   2.621  10.548  0.2284 -0.6088  1.3236
  340MPD2    H1 5103   2.946   2.980  10.747  0.1858 -0.9803  0.0749
  340MPD2    H2 5104   2.673   2.674  10.736 -0.4829  0.6246 -1.5894
  340MPD2    H3 5105   2.733   2.898  10.793 -1.4338  0.1903 -1.2852
  340MPD2     N 5106   3.145   2.851  10.603  0.2504  0.0010 -0.8913
  340MPD2    H5 5107   3.205   2.784  10.557 -1.9592 -1.2450 -1.9788
  340MPD2    N1 5108   2.817   2.488  10.623  0.0461 -0.2514  0.0587
  340MPD2    H7 5109   2.720   2.466  10.645 -0.0892 -0.0008 -0.2819
  341TMC3    C1 5110   2.827   2.274  10.563  0.4836 -0.0746 -0.6210
  341TMC3    C2 5111   2.727   2.282  10.475  0.2167 -0.4155 -0.4184
  341TMC3    C3 5112   2.675   2.173  10.415 -0.2210 -0.2994 -0.6938
  341TMC3    C4 5113   2.900   2.160  10.565 -0.2128  0.9107  0.5350
  341TMC3    C5 5114   2.854   2.052  10.493 -0.9277  0.4521  1.2344
  341TMC3    C6 5115   2.742   2.055  10.425  0.3709 -0.3010  1.0545
  341TMC3     C 5116   2.896   2.392  10.572 -0.4445 -0.3704 -0.1581
  341TMC3     O 5117   3.018   2.382  10.538 -0.3627 -0.7131 -0.6747
  341TMC3     H 5118   2.673   2.375  10.463  0.1181 -0.2645  1.2318
  341TMC3    H1 5119   2.993   2.157  10.620 -0.5370  2.3530  1.1715
  341TMC3    H2 5120   2.696   1.971  10.375 -2.3648  1.5085  0.5256
  341TMC3    C7 5121   2.929   1.932  10.511  0.3331  0.1985  0.3257
  341TMC3    C8 5122   2.570   2.185  10.314  0.2696 -0.0260 -0.2960
  341TMC3    O1 5123   3.042   1.936  10.561  0.3679  0.3491 -0.0306
  341TMC3    O2 5124   2.502   2.090  10.286 -0.7535 -0.5475 -0.2933
  342MPD2     C 5125   4.718   1.602   0.324 -0.5180  0.0234 -0.3958
  342MPD2    C1 5126   0.104   1.607   0.249  0.6371  0.0825  0.2440
  342MPD2    C2 5127   0.157   1.730   0.211  0.2102 -0.2061  0.0053
  342MPD2    C3 5128   0.103   1.847   0.260 -0.5984  0.2600 -0.4601
  342MPD2    C4 5129   4.713   1.838   0.338  0.2120  0.0123  0.3704
  342MPD2    C5 5130   4.664   1.716   0.377  0.5760 -0.3011  0.5787
  342MPD2     H 5131   0.253   1.731   0.162  0.0680  2.6724 -0.1847
  342MPD2    H1 5132   4.663   1.926   0.379  1.6169  1.2103 -0.4969
  342MPD2    H2 5133   4.671   1.508   0.353  0.2913 -1.3515 -3.4965
  342MPD2    H3 5134   4.569   1.703   0.427 -0.2051  2.4712 -0.1185
  342MPD2     N 5135   0.158   1.975   0.237  0.3597  0.5386  0.2729
  342MPD2    H5 5136   0.104   2.055   0.266  0.6197  1.1191 -0.8384
  342MPD2    N1 5137   0.170   1.490   0.195  0.6182 -0.1917 -0.0788
  342MPD2    H7 5138   0.252   1.495   0.135 -0.4883  3.4866 -1.3093
  343TMC3    C1 5139   0.243   1.282   0.147 -0.3818 -0.1680 -0.2541
  343TMC3    C2 5140   0.346   1.338   0.083  0.0207 -0.1518 -0.2679
  343TMC3    C3 5141   0.431   1.256   0.015  0.3037  0.7469  0.2701
  343TMC3    C4 5142   0.220   1.149   0.154  0.1215 -0.3813  0.6469
  343TMC3    C5 5143   0.312   1.066   0.092 -0.1190 -0.4393 -0.6406
  343TMC3    C6 5144   0.418   1.118   0.019  0.1645 -0.4959 -0.2336
  343TMC3     C 5145   0.149   1.360   0.228 -0.8705  0.6524 -0.4247
  343TMC3     O 5146   0.051   1.306   0.281 -0.4284  0.1391  0.4659
  343TMC3     H 5147   0.356   1.445   0.072 -3.3580 -0.0259 -2.1442
  343TMC3    H1 5148   0.131   1.108   0.202 -0.3433  1.9935  1.8156
  343TMC3    H2 5149   0.482   1.050  17.669  2.5663 -0.1571  2.1420
  343TMC3    C7 5150   0.297   0.922   0.098  0.7049 -0.4624  0.2734
  343TMC3    C8 5151   0.524   1.313  17.625  0.2861 -0.8102 -0.2792
  343TMC3    O1 5152   0.360   0.859   0.010  0.4148  0.2034  0.2898
  343TMC3    O2 5153   0.535   1.434  17.623 -0.3701  0.1992  0.1051
  344MPD2     C 5154   1.636   1.250  11.581  0.1522  0.5249 -0.8929
  344MPD2    C1 5155   1.625   1.208  11.446 -0.0412 -0.2921 -0.2214
  344MPD2    C2 5156   1.663   1.294  11.349 -0.1898  0.2795  0.8157
  344MPD2    C3 5157   1.700   1.428  11.372  0.4999 -0.4535  0.3287
  344MPD2    C4 5158   1.692   1.464  11.507  0.6585  0.2142 -0.1032
  344MPD2    C5 5159   1.659   1.385  11.606  0.3878  0.3032  0.1312
  344MPD2     H 5160   1.672   1.256  11.248 -0.0111  3.0863 -0.2395
  344MPD2    H1 5161   1.707   1.567  11.536 -2.1382  0.3287  0.9612
  344MPD2    H2 5162   1.628   1.177  11.660 -0.7937  0.7678 -0.7653
  344MPD2    H3 5163   1.657   1.421  11.708 -0.0389  0.1505  0.1756
  344MPD2     N 5164   1.760   1.519  11.285 -0.0453 -0.0925  0.0206
  344MPD2    H5 5165   1.795   1.604  11.327  1.9865  0.4486 -2.7441
  344MPD2    N1 5166   1.597   1.070  11.435  0.0650  0.4204  0.1941
  344MPD2    H7 5167   1.587   1.031  11.529 -0.4846 -2.0149 -0.8665
  345TMC3    C1 5168   1.867   1.597  11.090 -0.3057  0.1635 -0.5078
  345TMC3    C2 5169   1.940   1.692  11.165 -0.5377 -0.0730  0.4293
  345TMC3    C3 5170   2.016   1.785  11.104 -0.2103 -0.2232 -0.1321
  345TMC3    C4 5171   1.874   1.592  10.952 -0.4407  0.0940 -0.3693
  345TMC3    C5 5172   1.970   1.684  10.896 -0.0038  0.2489 -0.2760
  345TMC3    C6 5173   2.042   1.777  10.970 -0.8230 -0.0085 -0.1729
  345TMC3     C 5174   1.775   1.505  11.151  0.6661  0.1001  0.4372
  345TMC3     O 5175   1.735   1.418  11.081 -0.2920 -0.1492 -0.2562
  345TMC3     H 5176   1.934   1.690  11.273 -0.5117  1.6032  0.4644
  345TMC3    H1 5177   1.823   1.523  10.885  0.4504  0.1337 -1.0830
  345TMC3    H2 5178   2.096   1.856  10.918  0.8903 -0.4310  0.9809
  345TMC3    C7 5179   1.955   1.729  10.760  0.2633  0.0046  0.3970
  345TMC3    C8 5180   2.074   1.899  11.169 -0.8376  0.1342  0.9669
  345TMC3    O1 5181   1.967   1.847  10.739  0.2139  0.0877 -1.0076
  345TMC3    O2 5182   2.161   1.960  11.103 -0.2085 -0.2267 -0.0953
  346MPD2     C 5183   1.200   2.295  14.107 -0.1341  0.0924  0.2053
  346MPD2    C1 5184   1.298   2.380  14.148  0.3270 -0.1434  0.3288
  346MPD2    C2 5185   1.314   2.402  14.280 -0.9954 -0.7104 -0.2911
  346MPD2    C3 5186   1.247   2.333  14.376  0.0389  0.3239  0.5731
  346MPD2    C4 5187   1.157   2.238  14.337  0.2088  0.3164 -0.6661
  346MPD2    C5 5188   1.138   2.213  14.196  0.1863 -0.5491 -0.7554
  346MPD2     H 5189   1.397   2.464  14.311 -1.2925 -0.1858 -0.5488
  346MPD2    H1 5190   1.102   2.170  14.400 -0.1235 -0.2066 -1.5203
  346MPD2    H2 5191   1.170   2.273  14.004  2.4842 -0.4721 -0.4479
  346MPD2    H3 5192   1.069   2.134  14.167  1.1328 -2.3589  1.9040
  346MPD2     N 5193   1.270   2.379  14.505 -0.1317  0.1989 -0.1082
  346MPD2    H5 5194   1.332   2.459  14.503  0.0485  0.0558 -0.3367
  346MPD2    N1 5195   1.382   2.455  14.066 -1.0497 -0.3622  0.0890
  346MPD2    H7 5196   1.462   2.502  14.108  0.0920  0.0620 -2.5429
  347TMC3    C1 5197   1.263   2.418  14.733  0.1631 -0.5194  1.1013
  347TMC3    C2 5198   1.330   2.537  14.717 -0.3214 -0.0043  0.0009
  347TMC3    C3 5199   1.378   2.602  14.831 -0.6554  0.1204 -0.3499
  347TMC3    C4 5200   1.244   2.360  14.855  0.4340  0.0760  0.0713
  347TMC3    C5 5201   1.288   2.432  14.961 -0.2724 -0.4460 -0.2581
  347TMC3    C6 5202   1.359   2.548  14.959  0.0780  0.3879 -1.0196
  347TMC3     C 5203   1.209   2.340  14.623  0.3887  0.1023  0.6099
  347TMC3     O 5204   1.114   2.265  14.640  0.0510 -0.1727 -0.1928
  347TMC3     H 5205   1.345   2.577  14.618 -0.4977  1.9357  0.7593
  347TMC3    H1 5206   1.181   2.272  14.868  1.6729 -0.9284 -0.7400
  347TMC3    H2 5207   1.391   2.602  15.047 -2.3997 -1.8819  1.2957
  347TMC3    C7 5208   1.273   2.382  15.095  0.1461 -0.4006  0.4690
  347TMC3    C8 5209   1.493   2.693  14.821 -0.2774 -0.3387  0.5844
  347TMC3    O1 5210   1.278   2.259  15.118  0.5005 -0.5456 -0.5573
  347TMC3    O2 5211   1.531   2.740  14.927 -0.1796 -0.9889  0.3169
  348MPD2     C 5212   0.128   2.516  12.536 -0.6926  0.1634 -0.3371
  348MPD2    C1 5213   0.248   2.534  12.459 -0.1001 -0.1438 -0.3400
  348MPD2    C2 5214   0.239   2.604  12.344 -0.0640 -0.7736 -0.3381
  348MPD2    C3 5215   0.118   2.661  12.300 -0.6380 -0.0963 -0.3362
  348MPD2    C4 5216   0.004   2.656  12.382 -0.6397 -0.6076  0.2127
  348MPD2    C5 5217   0.011   2.576  12.494 -0.5687  0.2379 -0.4415
  348MPD2     H 5218   0.331   2.620  12.289  0.2892 -0.9901  0.1925
  348MPD2    H1 5219   4.637   2.701  12.350  0.9500  1.2848 -1.7427
  348MPD2    H2 5220   0.129   2.457  12.627  0.1991  0.8020  0.0663
  348MPD2    H3 5221   4.648   2.572  12.556  0.1433 -1.3542  0.4733
  348MPD2     N 5222   0.107   2.713  12.165 -0.2396  0.6377  0.0831
  348MPD2    H5 5223   0.192   2.711  12.110 -0.1390 -0.7321  0.2908
  348MPD2    N1 5224   0.377   2.471  12.489  0.0015  0.5598 -0.5378
  348MPD2    H7 5225   0.450   2.468  12.418 -1.0077  2.1630 -1.6410
  349TMC3    C1 5226   0.538   2.358  12.619  0.4337  1.3534  0.0200
  349TMC3    C2 5227   0.556   2.231  12.671 -0.6526  0.0167 -0.6603
  349TMC3    C3 5228   0.683   2.177  12.664 -0.3871  0.4974 -0.3916
  349TMC3    C4 5229   0.641   2.427  12.546  1.1599  0.1336  0.9965
  349TMC3    C5 5230   0.761   2.368  12.544 -0.9343  0.7010 -0.2752
  349TMC3    C6 5231   0.783   2.240  12.595  0.3222 -0.1364 -0.0500
  349TMC3     C 5232   0.399   2.396  12.603 -0.9349 -0.3887  0.4538
  349TMC3     O 5233   0.319   2.368  12.694 -0.2115  0.3590  0.5515
  349TMC3     H 5234   0.473   2.181  12.720  1.1646 -2.1489  0.1936
  349TMC3    H1 5235   0.617   2.530  12.525 -0.5859 -0.8798 -1.9944
  349TMC3    H2 5236   0.879   2.194  12.575  0.4232 -0.1571  0.4802
  349TMC3    C7 5237   0.842   2.410  12.435  0.2140  0.2854 -0.6165
  349TMC3    C8 5238   0.701   2.044  12.715 -0.7359  0.0717 -0.5538
  349TMC3    O1 5239   0.888   2.323  12.361 -0.5092 -0.2577 -0.3987
  349TMC3    O2 5240   0.604   1.998  12.775 -0.1511  0.1305  0.0723
  350MPD2     C 5241   0.269   4.593  10.158 -0.0086  0.7589  0.5545
  350MPD2    C1 5242   0.156   4.553  10.231 -0.1455  0.8544  0.5589
  350MPD2    C2 5243   0.073   4.650  10.274 -0.7450 -0.7505 -0.0576
  350MPD2    C3 5244   0.090   0.060  10.268 -0.7584  0.4089  0.0142
  350MPD2    C4 5245   0.204   0.100  10.200 -0.4579 -0.7672  0.1195
  350MPD2    C5 5246   0.288   0.008  10.134  0.9034  0.3625 -0.2103
  350MPD2     H 5247   4.711   4.621  10.330 -1.8765  0.8426 -1.0154
  350MPD2    H1 5248   0.237   0.203  10.204 -1.5979 -0.3556 -1.2722
  350MPD2    H2 5249   0.347   4.536  10.109 -0.0422  0.8597  0.3841
  350MPD2    H3 5250   0.369   0.051  10.077  0.7895  0.0953 -0.5704
  350MPD2     N 5251   4.716   0.141  10.326 -0.2518 -0.6323  0.1035
  350MPD2    H5 5252   4.646   0.093  10.382 -0.7521 -1.6294 -1.3716
  350MPD2    N1 5253   0.112   4.421  10.247 -0.0972  0.1670  0.0277
  350MPD2    H7 5254   0.031   4.399  10.304 -1.4030  2.9965 -0.7668
  351TMC3    C1 5255   0.106   4.182  10.208  0.8990 -0.6367 -0.0913
  351TMC3    C2 5256   0.168   4.079  10.137  0.5963 -0.2174  0.5401
  351TMC3    C3 5257   0.149   3.953  10.195 -0.3119 -0.3080 -0.4471
  351TMC3    C4 5258   0.045   4.161  10.325 -0.4869 -0.0890  0.7330
  351TMC3    C5 5259   0.018   4.037  10.373  0.1126 -0.4505  0.5280
  351TMC3    C6 5260   0.071   3.930  10.305  0.5248 -0.0169 -0.7068
  351TMC3     C 5261   0.162   4.315  10.177 -0.3621  0.3037  0.0736
  351TMC3     O 5262   0.244   4.321  10.092 -0.9008 -0.2590 -0.3012
  351TMC3     H 5263   0.232   4.101  10.052 -0.9854 -0.3822 -0.6865
  351TMC3    H1 5264   0.034   4.241  10.399 -0.5859  0.8401 -0.2838
  351TMC3    H2 5265   0.049   3.827  10.327 -0.6344  0.1045 -1.2985
  351TMC3    C7 5266   4.636   4.028  10.468 -0.2412 -0.2662  0.3931
  351TMC3    C8 5267   0.219   3.842  10.135  0.0638 -0.4443 -0.1838
  351TMC3    O1 5268   4.585   4.137  10.503 -0.2822  0.0686  0.7046
  351TMC3    O2 5269   0.258   3.751  10.208  0.2273 -0.1432  0.1785
  352MPD2     C 5270   2.318   2.591   1.619  0.1178 -0.6721  0.2845
  352MPD2    C1 5271   2.337   2.638   1.492 -0.3461 -0.1952  0.6733
  352MPD2    C2 5272   2.426   2.572   1.407  0.2949  0.2881 -0.1938
  352MPD2    C3 5273   2.505   2.469   1.449  0.5935 -0.1279 -0.7637
  352MPD2    C4 5274   2.485   2.426   1.576 -0.2305 -0.2063  0.7536
  352MPD2    C5 5275   2.387   2.476   1.656  0.3860  0.0914  0.1417
  352MPD2     H 5276   2.439   2.607   1.305 -0.0764 -3.0004 -1.3894
  352MPD2    H1 5277   2.540   2.342   1.616  1.4301  0.6916  0.3979
  352MPD2    H2 5278   2.246   2.621   1.695 -0.4280  0.0404 -0.5202
  352MPD2    H3 5279   2.380   2.433   1.755  0.6249 -0.3112 -0.0173
  352MPD2     N 5280   2.614   2.419   1.370 -0.0429  0.5225 -0.0575
  352MPD2    H5 5281   2.637   2.321   1.384 -0.0451  0.2873 -1.6533
  352MPD2    N1 5282   2.267   2.747   1.435 -0.6379 -0.5068 -0.7155
  352MPD2    H7 5283   2.266   2.757   1.334 -3.4118 -0.8075 -0.7125
  353TMC3    C1 5284   2.778   2.415   1.195 -0.1806  0.3265  0.0992
  353TMC3    C2 5285   2.872   2.333   1.254  0.5460 -0.3190 -0.5121
  353TMC3    C3 5286   2.894   2.216   1.193 -0.5545  0.3562  0.2084
  353TMC3    C4 5287   2.708   2.370   1.092  0.3888 -0.5061  0.8388
  353TMC3    C5 5288   2.713   2.242   1.043  0.0983  0.7457  0.5747
  353TMC3    C6 5289   2.814   2.161   1.092  0.0259 -0.5604 -0.1387
  353TMC3     C 5290   2.691   2.492   1.271  0.0184  0.4228 -0.0986
  353TMC3     O 5291   2.672   2.608   1.234  0.3859  0.2943 -0.1506
  353TMC3     H 5292   2.927   2.370   1.339  1.9798 -1.0897 -1.1039
  353TMC3    H1 5293   2.635   2.441   1.054  2.5006  1.5569  0.5661
  353TMC3    H2 5294   2.842   2.069   1.044  0.4712  0.5275 -1.9529
  353TMC3    C7 5295   2.579   2.173   1.055  1.3028 -0.1104  1.0634
  353TMC3    C8 5296   3.010   2.139   1.238  0.1838 -0.3535  0.4640
  353TMC3    O1 5297   2.582   2.052   1.075  0.8114 -0.0129 -0.7719
  353TMC3    O2 5298   3.097   2.207   1.293  0.3342 -0.0529  0.1688
  354TMC3    C1 5299   4.383   3.733  13.793 -0.2306 -0.1260 -0.4267
  354TMC3    C2 5300   4.326   3.852  13.758 -0.3070 -0.7902  0.0401
  354TMC3    C3 5301   4.311   3.879  13.622  0.2457 -0.1431 -0.3218
  354TMC3    C4 5302   4.424   3.644  13.695  0.0294 -0.1884  0.0696
  354TMC3    C5 5303   4.411   3.675  13.558  0.2007 -0.0338 -0.1189
  354TMC3    C6 5304   4.340   3.787  13.525  0.5248 -0.0308 -0.1060
  354TMC3     C 5305   4.364   3.696  13.931  0.1288 -0.2700  0.4090
  354TMC3     O 5306   4.252   3.716  13.978  0.3188 -0.0144 -0.3054
  354TMC3     H 5307   4.281   3.917  13.832  1.7385 -1.1090  1.5765
  354TMC3    H1 5308   4.491   3.563  13.723 -1.8260 -1.4644  0.8037
  354TMC3    H2 5309   4.313   3.801  13.421 -0.7890 -0.1852  0.2146
  354TMC3    C7 5310   4.463   3.591  13.451 -0.0761  0.0996  0.2330
  354TMC3    C8 5311   4.305   4.019  13.571  0.2251 -0.3716  0.0487
  354TMC3    O1 5312   4.478   3.474  13.480 -0.2542  0.1603 -0.2388
  354TMC3    O2 5313   4.313   4.033  13.451  0.5490 -0.2141 -0.2456
  355MPD2     C 5314   4.182   0.011  11.990 -0.1653 -0.5082  0.8075
  355MPD2    C1 5315   4.248   4.705  11.874 -0.1267  0.1564 -0.2529
  355MPD2    C2 5316   4.387   4.671  11.882 -0.2271  0.1972 -0.3093
  355MPD2    C3 5317   4.456   4.660  11.999  0.6736 -0.7450 -0.6349
  355MPD2    C4 5318   4.386   4.676  12.111  0.0375  0.2825 -0.9595
  355MPD2    C5 5319   4.251   4.709  12.108  0.2539 -0.1177  0.5122
  355MPD2     H 5320   4.445   4.647  11.794 -0.4384  1.9693 -0.9143
  355MPD2    H1 5321   4.427   4.666  12.211 -2.8623  0.4961  0.2529
  355MPD2    H2 5322   4.080   0.046  11.991 -0.2457 -0.7202  0.1863
  355MPD2    H3 5323   4.191   4.697  12.197  0.8081 -0.5363  0.8294
  355MPD2     N 5324   4.599   4.653  12.017 -0.6201 -0.0716 -0.0070
  355MPD2    H5 5325   4.633   4.647  12.112  0.8239  0.4769 -0.4868
  355MPD2    N1 5326   4.175   4.715  11.756  0.0266 -0.7896  0.3631
  355MPD2    H7 5327   4.075   4.707  11.771 -0.1409 -3.1240 -1.9794
  356TMC3    C1 5328   0.084   0.007  11.968 -0.6319 -0.4640 -0.7264
  356TMC3    C2 5329   0.170   0.052  11.876 -0.1147 -0.0836  0.6979
  356TMC3    C3 5330   0.282   0.116  11.920 -0.6096  0.8588  0.0349
  356TMC3    C4 5331   0.104   0.028  12.101 -0.5972  0.7153  0.2546
  356TMC3    C5 5332   0.219   0.098  12.134 -0.0170 -0.0178  0.5027
  356TMC3    C6 5333   0.318   0.139  12.051  0.4177 -0.0911 -0.2831
  356TMC3     C 5334   4.685   4.689  11.921 -0.5681  0.0273  0.5956
  356TMC3     O 5335   4.666   4.700  11.799 -0.7755  0.2763 -0.3116
  356TMC3     H 5336   0.154   0.032  11.771  2.2922  0.5479  0.2252
  356TMC3    H1 5337   0.035   0.001  12.180 -0.3913 -1.7872 -0.4180
  356TMC3    H2 5338   0.412   0.174  12.092  0.7656  0.3523 -1.4575
  356TMC3    C7 5339   0.232   0.133  12.272  0.1628  0.1344 -0.5681
  356TMC3    C8 5340   0.369   0.169  11.818  0.0734 -0.5250 -0.3928
  356TMC3    O1 5341   0.173   0.070  12.358  0.2957 -0.4150 -0.0528
  356TMC3    O2 5342   0.333   0.140  11.706 -0.3995 -0.3889  0.1914
  357MPD2     C 5343   4.314   4.519   1.175  0.4864  0.3569 -0.5530
  357MPD2    C1 5344   4.303   4.392   1.234  0.1891  0.8620  0.3659
  357MPD2    C2 5345   4.205   4.357   1.327  0.4853  0.2737  0.1150
  357MPD2    C3 5346   4.102   4.447   1.352  0.1588 -0.3465  0.5641
  357MPD2    C4 5347   4.100   4.569   1.279  0.1880  0.9084 -0.5560
  357MPD2    C5 5348   4.210   4.606   1.204  0.6162 -0.7221 -0.4120
  357MPD2     H 5349   4.194   4.261   1.375  0.6886 -0.0008 -0.3937
  357MPD2    H1 5350   4.021   4.644   1.287 -1.1259 -0.6158  0.6787
  357MPD2    H2 5351   4.391   4.544   1.104  0.3374  0.4935 -0.6673
  357MPD2    H3 5352   4.206   4.703   1.155  0.1530 -0.8883 -0.6970
  357MPD2     N 5353   3.989   4.415   1.431  0.0477 -0.6114  0.0498
  357MPD2    H5 5354   3.910   4.479   1.425 -0.6718 -1.6181 -1.3515
  357MPD2    N1 5355   4.409   4.301   1.207 -0.7272  0.3537  0.4162
  357MPD2    H7 5356   4.476   4.317   1.133 -0.6250 -0.3024  0.3666
  358TMC3    C1 5357   4.555   4.115   1.250 -1.1583  0.3058 -0.2046
  358TMC3    C2 5358   4.531   4.044   1.132  0.0435  0.2443 -0.8794
  358TMC3    C3 5359   4.561   3.911   1.121  0.2851 -0.2919 -1.0398
  358TMC3    C4 5360   4.607   4.042   1.351 -0.0867  0.3049  0.1181
  358TMC3    C5 5361   4.651   3.916   1.325  0.5957 -0.2223 -0.2051
  358TMC3    C6 5362   4.623   3.842   1.218 -0.3752 -0.0972 -0.0077
  358TMC3     C 5363   4.438   4.191   1.285 -0.2713  0.7667  0.8941
  358TMC3     O 5364   4.389   4.159   1.395 -0.2727 -0.1104 -0.0682
  358TMC3     H 5365   4.483   4.102   1.054 -0.2717  1.4335  0.2099
  358TMC3    H1 5366   4.645   4.095   1.437 -2.6296  1.4061  0.5629
  358TMC3    H2 5367   4.671   3.748   1.192 -0.6096  0.1662 -1.3655
  358TMC3    C7 5368   0.009   3.841   1.414 -0.4005 -0.7714  0.0501
  358TMC3    C8 5369   4.523   3.845   0.998 -0.4126  0.3360 -0.7067
  358TMC3    O1 5370   0.053   3.732   1.377  0.3689 -0.1350  0.5104
  358TMC3    O2 5371   4.495   3.911   0.902  0.1520  0.5590  0.3987
  359MPD2     C 5372   0.156   2.706  12.812  0.0985 -1.0639  0.1160
  359MPD2    C1 5373   0.078   2.824  12.781  0.1224 -0.1783 -0.3768
  359MPD2    C2 5374   4.698   2.854  12.866  0.3950  0.1782  1.2355
  359MPD2    C3 5375   4.672   2.769  12.981 -0.4023  0.2354 -0.6817
  359MPD2    C4 5376   0.024   2.660  12.999 -0.0798  0.0868 -0.8030
  359MPD2    C5 5377   0.137   2.636  12.927 -0.0705 -0.7901 -0.4761
  359MPD2     H 5378   4.651   2.949  12.843  1.2478  0.3031  0.0343
  359MPD2    H1 5379   0.002   2.594  13.082 -0.1060  0.6439 -0.3706
  359MPD2    H2 5380   0.248   2.685  12.760  0.7170 -0.4540  0.9738
  359MPD2    H3 5381   0.198   2.547  12.936 -1.0812 -1.7104 -2.7441
  359MPD2     N 5382   4.567   2.789  13.074  0.4096  0.4151  0.2092
  359MPD2    H5 5383   4.554   2.721  13.148 -0.0174  0.6854  0.3820
  359MPD2    N1 5384   0.107   2.910  12.674  0.3534 -0.1409  0.1396
  359MPD2    H7 5385   0.044   2.989  12.669 -0.6896 -0.9690  0.3372
  360TMC3    C1 5386   0.198   3.028  12.494  0.0611  0.2758  0.4530
  360TMC3    C2 5387   0.294   3.120  12.488  0.3384 -0.2435 -0.8425
  360TMC3    C3 5388   0.254   3.247  12.485  0.2590 -0.3279  0.5830
  360TMC3    C4 5389   0.072   3.052  12.462 -0.5311 -0.8860 -0.7098
  360TMC3    C5 5390   0.032   3.184  12.444  0.3963  0.4469 -1.3519
  360TMC3    C6 5391   0.129   3.280  12.457  0.1157  0.3205  0.7229
  360TMC3     C 5392   0.213   2.918  12.587 -0.1853  0.5498  0.6436
  360TMC3     O 5393   0.323   2.867  12.597  0.3649 -0.3075 -0.4806
  360TMC3     H 5394   0.394   3.101  12.524 -0.3429  0.6258  1.4952
  360TMC3    H1 5395   0.002   2.969  12.462 -1.2830 -0.2617 -2.8099
  360TMC3    H2 5396   0.099   3.379  12.426 -0.1956  0.5466  1.7588
  360TMC3    C7 5397   4.669   3.199  12.332  0.8874 -0.0770  0.6335
  360TMC3    C8 5398   0.341   3.359  12.468  0.0270  0.2648 -0.8149
  360TMC3    O1 5399   4.693   3.297  12.265  0.3547  0.0506 -0.3801
  360TMC3    O2 5400   0.287   3.467  12.495 -0.2305 -0.6618  0.1463
  361MPD2     C 5401   1.359   2.124  17.092 -0.9469 -0.4421 -0.7513
  361MPD2    C1 5402   1.315   2.138  17.219  0.6665  0.9165  0.5681
  361MPD2    C2 5403   1.361   2.053  17.323 -0.6810 -0.0725  1.0847
  361MPD2    C3 5404   1.435   1.942  17.291 -0.3627 -0.6817  0.3491
  361MPD2    C4 5405   1.461   1.924  17.157 -0.1600 -0.6018  0.1786
  361MPD2    C5 5406   1.440   2.021  17.066  0.4160  0.3826 -0.8408
  361MPD2     H 5407   1.331   2.072  17.426 -0.8089 -0.2954  1.0896
  361MPD2    H1 5408   1.513   1.834  17.125  0.9644  0.6894 -1.6211
  361MPD2    H2 5409   1.336   2.195  17.012  0.4887  1.3910  0.4402
  361MPD2    H3 5410   1.476   1.995  16.967  1.8006  0.7519 -0.4338
  361MPD2     N 5411   1.464   1.841  17.385  0.1011  0.2429  0.0000
  361MPD2    H5 5412   1.524   1.766  17.355  0.5850 -1.0584  4.1761
  361MPD2    N1 5413   1.222   2.242  17.255  0.0224 -0.6299  0.0617
  361MPD2    H7 5414   1.206   2.265  17.352 -0.6129  0.1272 -0.2214
  362TMC3    C1 5415   1.079   2.422  17.257  0.6398 -0.6804  0.3110
  362TMC3    C2 5416   0.973   2.363  17.320  0.9018  0.2222  0.0066
  362TMC3    C3 5417   0.858   2.438  17.346  0.0530  0.0005  0.6430
  362TMC3    C4 5418   1.063   2.548  17.207  0.6773 -0.5869 -0.3325
  362TMC3    C5 5419   0.940   2.614  17.220  0.0583 -0.2232 -0.6627
  362TMC3    C6 5420   0.841   2.562  17.303  0.3038 -0.7243 -0.5896
  362TMC3     C 5421   1.167   2.337  17.176 -0.3628  0.3192  0.8262
  362TMC3     O 5422   1.184   2.366  17.059 -0.1165 -0.0285 -0.4640
  362TMC3     H 5423   0.969   2.255  17.316  1.3001  0.2309 -0.6747
  362TMC3    H1 5424   1.152   2.593  17.164  0.1468 -1.2928 -2.1820
  362TMC3    H2 5425   0.745   2.611  17.316  2.0826  1.6935  3.4795
  362TMC3    C7 5426   0.902   2.732  17.137 -0.5357 -0.0257 -0.3426
  362TMC3    C8 5427   0.739   2.367  17.385 -0.4992  0.0950  0.0265
  362TMC3    O1 5428   0.784   2.765  17.134  0.1346 -0.0273 -0.4331
  362TMC3    O2 5429   0.716   2.269  17.320 -0.5532  0.3346  0.3930
  363TMC3    C1 5430   0.797   0.014   9.728  0.0052 -0.3045  0.0792
  363TMC3    C2 5431   0.767   4.611   9.746 -0.1987  0.1583 -0.0684
  363TMC3    C3 5432   0.638   4.582   9.780 -0.0122  0.4374  0.1251
  363TMC3    C4 5433   0.707   0.116   9.740  0.0955  0.7048  1.0906
  363TMC3    C5 5434   0.579   0.082   9.774 -0.3992 -0.6939  0.4831
  363TMC3    C6 5435   0.544   4.680   9.799  0.2822 -0.5828  0.4767
  363TMC3     C 5436   0.922   0.041   9.660  0.5076 -0.0151  0.5410
  363TMC3     O 5437   1.021   4.698   9.685 -0.2673  0.3694  0.2883
  363TMC3     H 5438   0.831   4.528   9.717  0.0326  0.9284 -1.7478
  363TMC3    H1 5439   0.728   0.216   9.705 -2.5450  0.3683 -1.4878
  363TMC3    H2 5440   0.448   4.655   9.843  0.2475  0.0892  0.7939
  363TMC3    C7 5441   0.491   0.188   9.823 -0.8845  0.5904  0.7608
  363TMC3    C8 5442   0.590   4.443   9.804  0.2772  0.4896  0.0114
  363TMC3    O1 5443   0.376   0.158   9.850 -0.1788 -0.6072 -0.1077
  363TMC3    O2 5444   0.475   4.415   9.769 -0.6150  0.1565 -0.3274
  364MPD2     C 5445   3.656   3.828  10.582  0.3255  0.1272  0.9558
  364MPD2    C1 5446   3.764   3.751  10.541 -0.4908  1.0807  0.7421
  364MPD2    C2 5447   3.770   3.614  10.571  0.5609 -0.2603  0.3320
  364MPD2    C3 5448   3.670   3.559  10.647  0.0534  0.6278  0.5106
  364MPD2    C4 5449   3.559   3.636  10.679  0.1968 -0.3868 -0.6378
  364MPD2    C5 5450   3.552   3.767  10.643  0.3047  0.1815  0.9160
  364MPD2     H 5451   3.854   3.555  10.535  0.4218 -0.9543  1.1402
  364MPD2    H1 5452   3.478   3.600  10.741  1.7186 -0.9266  1.0531
  364MPD2    H2 5453   3.654   3.936  10.573 -0.1789  0.0832  0.5080
  364MPD2    H3 5454   3.470   3.832  10.669  0.8633  1.4725 -0.5847
  364MPD2     N 5455   3.671   3.424  10.693 -0.1659 -0.1233 -0.1778
  364MPD2    H5 5456   3.588   3.390  10.740 -1.0882  2.9313  0.4090
  364MPD2    N1 5457   3.874   3.820  10.493 -0.5440 -0.1370 -0.3776
  364MPD2    H7 5458   3.873   3.917  10.522  1.2885 -0.4557  0.7218
  365TMC3    C1 5459   4.072   3.859  10.382  1.1249  0.3356 -0.0351
  365TMC3    C2 5460   4.170   3.814  10.295 -0.1389  0.0124 -0.2065
  365TMC3    C3 5461   4.264   3.902  10.243 -0.0671 -0.7947 -0.2366
  365TMC3    C4 5462   4.063   3.993  10.413 -0.0473 -0.3205 -0.1544
  365TMC3    C5 5463   4.160   4.077  10.357  0.1244  0.2444  0.2382
  365TMC3    C6 5464   4.261   4.036  10.278  0.0907 -0.0253  0.2552
  365TMC3     C 5465   3.980   3.763  10.427 -0.0903 -0.7184  0.3776
  365TMC3     O 5466   3.991   3.654  10.378 -0.0151  0.1554  0.2282
  365TMC3     H 5467   4.171   3.712  10.259 -0.8560 -0.1009  0.1056
  365TMC3    H1 5468   3.984   4.038  10.472  1.9658  1.5721  1.1367
  365TMC3    H2 5469   4.325   4.114  10.238  0.6883 -0.1247  1.0134
  365TMC3    C7 5470   4.188   4.208  10.421 -0.2797  0.4350  0.0922
  365TMC3    C8 5471   4.383   3.855  10.163 -0.0187  0.4761 -0.0083
  365TMC3    O1 5472   4.243   4.289  10.344 -0.9033 -0.6808 -0.3010
  365TMC3    O2 5473   4.446   3.938  10.098 -0.5297  0.2704 -0.2812
  366MPD2     C 5474   1.331   0.731  15.614  0.3790  0.4023  0.3173
  366MPD2    C1 5475   1.465   0.742  15.590  1.2417 -0.5210  0.3068
  366MPD2    C2 5476   1.538   0.630  15.560 -0.5320 -0.4553 -0.4551
  366MPD2    C3 5477   1.483   0.502  15.581  0.1310  0.1711  0.4490
  366MPD2    C4 5478   1.351   0.495  15.613 -0.0525  0.4123  0.1587
  366MPD2    C5 5479   1.274   0.606  15.622  0.0772 -0.2599  0.4070
  366MPD2     H 5480   1.645   0.638  15.550 -0.5187  0.7780  0.6383
  366MPD2    H1 5481   1.304   0.397  15.614  1.0801 -0.1427 -1.2640
  366MPD2    H2 5482   1.268   0.819  15.600 -0.1500 -0.0208  0.0443
  366MPD2    H3 5483   1.166   0.602  15.635 -0.1142  0.4172 -0.9627
  366MPD2     N 5484   1.565   0.382  15.558  0.4358  0.4424 -0.2372
  366MPD2    H5 5485   1.659   0.400  15.525  0.6389 -1.4446 -0.6694
  366MPD2    N1 5486   1.526   0.868  15.579  0.1120 -0.1732  0.6639
  366MPD2    H7 5487   1.617   0.869  15.533 -0.6845 -0.6514 -0.9395
  367TMC3    C1 5488   1.580   1.083  15.626  0.4471 -0.1419  0.5121
  367TMC3    C2 5489   1.617   1.164  15.725 -0.3407 -0.5137  0.3709
  367TMC3    C3 5490   1.734   1.228  15.711 -0.0698 -0.0694 -0.2787
  367TMC3    C4 5491   1.654   1.073  15.508  0.2385 -0.0786  0.0813
  367TMC3    C5 5492   1.769   1.144  15.491  0.6190 -0.1712 -0.0311
  367TMC3    C6 5493   1.812   1.218  15.596 -0.9897  0.4855 -0.4787
  367TMC3     C 5494   1.485   0.980  15.648 -0.2056  0.9809 -0.7951
  367TMC3     O 5495   1.416   0.988  15.751  0.4912  0.3146 -0.4076
  367TMC3     H 5496   1.547   1.170  15.808  3.1847  0.1129  3.3070
  367TMC3    H1 5497   1.620   1.030  15.415  3.5709 -1.4379 -0.5160
  367TMC3    H2 5498   1.906   1.269  15.582 -0.7196 -0.5641 -2.4691
  367TMC3    C7 5499   1.789   1.187  15.357  0.2279 -0.8470 -0.4209
  367TMC3    C8 5500   1.814   1.219  15.827  0.1214  0.0590  0.4933
  367TMC3    O1 5501   1.713   1.280  15.326  0.2718  0.3658 -0.5246
  367TMC3    O2 5502   1.790   1.116  15.893 -0.3182  0.7714 -0.0450
  368MPD2     C 5503   2.846   2.107  13.614 -0.2165  0.6428  0.4274
  368MPD2    C1 5504   2.881   2.184  13.503  0.7336 -0.9587  0.3793
  368MPD2    C2 5505   3.013   2.230  13.485 -0.0118 -0.5603  0.3834
  368MPD2    C3 5506   3.111   2.193  13.573 -0.1487 -0.0696  0.4421
  368MPD2    C4 5507   3.080   2.104  13.673  0.1641 -0.0690  0.1191
  368MPD2    C5 5508   2.948   2.073  13.700 -0.0720 -0.2789  0.0660
  368MPD2     H 5509   3.038   2.305  13.411 -2.0596  0.3954  0.6591
  368MPD2    H1 5510   3.160   2.070  13.737  1.0685  1.7647 -0.0181
  368MPD2    H2 5511   2.742   2.094  13.640  0.1961 -1.6139  0.8914
  368MPD2    H3 5512   2.914   2.016  13.785  0.2959 -2.3031 -1.1264
  368MPD2     N 5513   3.237   2.257  13.555 -0.0494  0.5738  0.7239
  368MPD2    H5 5514   3.238   2.331  13.485 -1.3047  1.6624  1.8331
  368MPD2    N1 5515   2.774   2.226  13.420 -0.2514  0.1770 -0.2723
  368MPD2    H7 5516   2.683   2.193  13.450 -0.1643  2.5821  2.6458
  369TMC3    C1 5517   2.657   2.312  13.233 -0.1545 -0.3748 -0.2558
  369TMC3    C2 5518   2.631   2.438  13.186 -0.1422 -0.0663  0.5373
  369TMC3    C3 5519   2.509   2.499  13.222 -0.5297 -0.5073  0.3458
  369TMC3    C4 5520   2.559   2.242  13.299 -0.3196  0.2804 -0.3326
  369TMC3    C5 5521   2.441   2.303  13.334 -0.1642  0.0055  0.1687
  369TMC3    C6 5522   2.417   2.435  13.304 -0.1083 -0.2641 -0.2606
  369TMC3     C 5523   2.786   2.298  13.300 -0.3622 -0.5170  0.0685
  369TMC3     O 5524   2.886   2.351  13.252  0.0195 -0.0547  0.5319
  369TMC3     H 5525   2.712   2.497  13.144 -1.5564  0.3052 -1.7076
  369TMC3    H1 5526   2.582   2.139  13.323 -1.1065  0.5030  1.3672
  369TMC3    H2 5527   2.325   2.489  13.325  0.9894  1.0141  1.2101
  369TMC3    C7 5528   2.395   2.253  13.457 -0.2777  0.3845 -0.4964
  369TMC3    C8 5529   2.469   2.627  13.160  0.2360 -0.4416  0.6712
  369TMC3    O1 5530   2.475   2.193  13.525  0.5909 -0.8171  0.5132
  369TMC3    O2 5531   2.398   2.700  13.230 -0.4084 -0.3373 -0.0451
  370TMC3    C1 5532   2.121   2.910  16.630  0.3981 -0.6961  0.4001
  370TMC3    C2 5533   2.084   2.826  16.732  0.0720 -0.1567 -0.1721
  370TMC3    C3 5534   2.066   2.690  16.703  0.4552  0.9514  0.7064
  370TMC3    C4 5535   2.145   2.873  16.501  0.9912 -0.1995 -0.2650
  370TMC3    C5 5536   2.147   2.738  16.480  0.1707 -0.4106 -0.0176
  370TMC3    C6 5537   2.100   2.649  16.574  0.1332  0.2746  0.0274
  370TMC3     C 5538   2.202   3.020  16.678  1.1159  0.0635  0.6416
  370TMC3     O 5539   2.274   2.996  16.771  0.1551 -0.3122  0.3864
  370TMC3     H 5540   2.084   2.864  16.834 -0.7423 -0.3222 -0.1059
  370TMC3    H1 5541   2.167   2.944  16.423 -0.0223  0.9766  0.5084
  370TMC3    H2 5542   2.096   2.541  16.562 -0.0041 -0.0345  2.8644
  370TMC3    C7 5543   2.162   2.685  16.346 -0.7359 -0.1201 -0.6552
  370TMC3    C8 5544   2.032   2.598  16.808  0.3416 -0.0860 -0.5127
  370TMC3    O1 5545   2.169   2.768  16.260  0.6345 -0.3512 -0.2990
  370TMC3    O2 5546   2.055   2.477  16.789 -0.4424 -0.1813 -0.2653
  371TMC3    C1 5547   3.506   1.353  15.418  0.4568  0.1963  0.1982
  371TMC3    C2 5548   3.403   1.321  15.501  1.5081  0.2657 -0.9483
  371TMC3    C3 5549   3.365   1.414  15.599  0.4579 -0.0935  0.2602
  371TMC3    C4 5550   3.568   1.478  15.433 -0.5660  0.2431 -0.0441
  371TMC3    C5 5551   3.530   1.564  15.530  0.6074 -0.9760  0.0080
  371TMC3    C6 5552   3.434   1.532  15.619  0.0793 -0.2672  0.2573
  371TMC3     C 5553   3.605   1.244  15.389  0.3053  0.1272 -0.4152
  371TMC3     O 5554   3.698   1.259  15.310  0.3004 -0.3534 -0.4464
  371TMC3     H 5555   3.346   1.229  15.497  0.8598  0.6376 -0.1237
  371TMC3    H1 5556   3.646   1.498  15.361  0.0990  0.4042  0.7265
  371TMC3    H2 5557   3.393   1.598  15.694  1.7452  1.7292 -0.5973
  371TMC3    C7 5558   3.617   1.686  15.551  0.5437  0.1713 -0.3696
  371TMC3    C8 5559   3.258   1.374  15.688  0.7044  0.5343  0.1860
  371TMC3    O1 5560   3.679   1.736  15.462  0.0454 -0.3051  0.2273
  371TMC3    O2 5561   3.223   1.258  15.682  0.7907 -0.1219 -0.0106
  372MPD2     C 5562   3.216   2.631  13.578 -0.6760 -0.4254  0.0688
  372MPD2    C1 5563   3.312   2.646  13.677  0.8265 -0.3845  1.1145
  372MPD2    C2 5564   3.305   2.557  13.788  0.3054 -0.0130  0.5012
  372MPD2    C3 5565   3.196   2.482  13.817 -0.6435 -0.3484  0.0241
  372MPD2    C4 5566   3.089   2.490  13.729 -0.3588 -0.0859  0.0804
  372MPD2    C5 5567   3.107   2.555  13.610 -0.1722  0.2289  0.2557
  372MPD2     H 5568   3.378   2.564  13.868  3.5623  1.8970 -2.6140
  372MPD2    H1 5569   2.991   2.447  13.746 -0.5484  1.2034  2.2549
  372MPD2    H2 5570   3.216   2.685  13.484 -0.0490 -2.5816 -1.1841
  372MPD2    H3 5571   3.014   2.562  13.554  2.4871  2.2251 -3.8653
  372MPD2     N 5572   3.198   2.384  13.922  0.0609  0.6410 -0.3327
  372MPD2    H5 5573   3.279   2.384  13.983 -0.1549  2.5095 -0.0368
  372MPD2    N1 5574   3.414   2.740  13.670 -0.1277 -0.0600  0.7965
  372MPD2    H7 5575   3.488   2.746  13.740  0.0738 -0.0767  0.5876
  373TMC3    C1 5576   3.144   2.213  14.061  0.4889  0.0022  0.0856
  373TMC3    C2 5577   3.063   2.196  14.165 -0.1216  0.1155  0.2315
  373TMC3    C3 5578   3.119   2.149  14.283 -0.2412  0.8017 -0.6110
  373TMC3    C4 5579   3.274   2.167  14.057  0.0550  0.0911  0.7582
  373TMC3    C5 5580   3.319   2.093  14.164  0.9880 -0.0450  0.0774
  373TMC3    C6 5581   3.246   2.087  14.281 -0.1736  0.3725 -0.3473
  373TMC3     C 5582   3.096   2.300  13.958  0.1639  0.3964 -0.3115
  373TMC3     O 5583   2.978   2.300  13.936  0.0281  0.3247 -0.6389
  373TMC3     H 5584   2.962   2.235  14.164 -0.6335 -1.1636  1.0704
  373TMC3    H1 5585   3.329   2.174  13.964 -2.5301  0.3626 -0.7787
  373TMC3    H2 5586   3.275   2.019  14.361 -2.0088 -0.0116 -0.0220
  373TMC3    C7 5587   3.443   2.020  14.150  0.1890 -0.1943 -0.4751
  373TMC3    C8 5588   3.138   2.258  14.378 -0.5768 -0.1637 -0.4194
  373TMC3    O1 5589   3.488   2.018  14.034 -0.2476 -0.1290  0.1411
  373TMC3    O2 5590   3.242   2.246  14.445  0.1078  0.9696 -0.2294
  374TMC3    C1 5591   4.114   1.631  10.357 -0.1191 -1.0738  0.4448
  374TMC3    C2 5592   4.214   1.725  10.360  0.2298 -0.4589  0.5056
  374TMC3    C3 5593   4.320   1.709  10.279  0.2318 -0.2139 -0.0134
  374TMC3    C4 5594   4.124   1.516  10.283  0.4702 -0.7841 -0.3917
  374TMC3    C5 5595   4.230   1.505  10.201 -0.6199  0.0580  0.4416
  374TMC3    C6 5596   4.323   1.602  10.193 -0.6562  0.2588  0.1290
  374TMC3     C 5597   4.016   1.635  10.468  1.3486  0.8108 -0.1127
  374TMC3     O 5598   4.012   1.741  10.527  0.0483  0.2532 -0.1135
  374TMC3     H 5599   4.203   1.815  10.419  1.6960  1.1889 -1.7509
  374TMC3    H1 5600   4.057   1.433  10.303  0.9453 -0.8714  0.8366
  374TMC3    H2 5601   4.401   1.593  10.118 -0.3169 -0.7248  0.5967
  374TMC3    C7 5602   4.246   1.375  10.140 -0.2283 -0.5693 -0.6335
  374TMC3    C8 5603   4.399   1.829  10.234 -0.5689 -0.1415  0.5570
  374TMC3    O1 5604   4.145   1.310  10.116  0.1979  0.0979 -0.1856
  374TMC3    O2 5605   4.447   1.828  10.117  0.3136 -0.1748 -0.1396
  375MPD2     C 5606   3.601   2.881  17.428  0.1064  0.7037 -0.2466
  375MPD2    C1 5607   3.532   2.998  17.401  0.1564 -0.2467  0.1484
  375MPD2    C2 5608   3.590   3.092  17.314 -0.4288 -0.7345  0.2869
  375MPD2    C3 5609   3.685   3.044  17.225 -0.2831 -0.5237 -0.2132
  375MPD2    C4 5610   3.739   2.918  17.248  0.0317  0.2682  0.1905
  375MPD2    C5 5611   3.708   2.843  17.362 -0.2571  0.8655 -0.2302
  375MPD2     H 5612   3.555   3.194  17.308 -1.2619 -1.0306  0.1992
  375MPD2    H1 5613   3.823   2.879  17.193  2.1571  0.3535  3.3816
  375MPD2    H2 5614   3.557   2.819  17.506  2.5229  1.5345  1.7677
  375MPD2    H3 5615   3.758   2.750  17.384 -0.3979  1.2914  1.9125
  375MPD2     N 5616   3.710   3.105  17.097 -0.3111 -0.2188 -0.3876
  375MPD2    H5 5617   3.763   3.045  17.035  1.0962 -0.0142  0.6056
  375MPD2    N1 5618   3.409   3.036  17.469 -0.1182  0.1930 -0.5828
  375MPD2    H7 5619   3.382   3.133  17.458 -2.3969 -0.1277  2.1897
  376TMC3    C1 5620   3.688   3.247  16.907  0.8661 -0.2271 -0.0892
  376TMC3    C2 5621   3.810   3.218  16.852  0.0998 -0.5929 -0.0322
  376TMC3    C3 5622   3.863   3.297  16.750  0.1698  0.1495  0.3068
  376TMC3    C4 5623   3.611   3.347  16.855 -0.2703  0.0525  1.1396
  376TMC3    C5 5624   3.667   3.426  16.757 -0.8244  0.2567 -0.2288
  376TMC3    C6 5625   3.785   3.390  16.692  0.3673 -0.3261  0.2334
  376TMC3     C 5626   3.656   3.218  17.047  0.5494  0.1121 -0.2358
  376TMC3     O 5627   3.568   3.290  17.102 -1.0027  1.1372 -0.2521
  376TMC3     H 5628   3.865   3.143  16.908 -0.2010 -0.2211  0.7726
  376TMC3    H1 5629   3.506   3.361  16.879 -0.2431  0.0348  1.2715
  376TMC3    H2 5630   3.821   3.458  16.616 -2.1326  1.1640  0.3853
  376TMC3    C7 5631   3.577   3.521  16.689 -0.4071  0.0679 -0.8774
  376TMC3    C8 5632   3.981   3.247  16.689 -0.0474 -0.0538 -0.3223
  376TMC3    O1 5633   3.614   3.560  16.575 -0.2562  0.4292  0.0562
  376TMC3    O2 5634   3.983   3.253  16.567  0.1301 -0.2376 -0.1359
  377MPD2     C 5635   2.122   2.769  12.830  0.5905 -0.1042  0.2659
  377MPD2    C1 5636   2.113   2.647  12.890 -0.6745 -1.0000 -0.2392
  377MPD2    C2 5637   2.052   2.629  13.017 -0.2801  0.2997 -0.2481
  377MPD2    C3 5638   2.015   2.750  13.083 -0.1123  0.1074  0.6022
  377MPD2    C4 5639   2.029   2.873  13.018  0.9590  0.7032 -0.3333
  377MPD2    C5 5640   2.084   2.873  12.896  0.1829 -0.2877 -0.7279
  377MPD2     H 5641   2.035   2.531  13.060 -0.7001  0.4297 -0.1252
  377MPD2    H1 5642   2.004   2.967  13.064  1.2559  0.0190  1.2278
  377MPD2    H2 5643   2.167   2.787  12.733  0.6001 -1.7883 -0.0543
  377MPD2    H3 5644   2.097   2.974  12.858 -1.2620  1.1354  2.4746
  377MPD2     N 5645   1.946   2.757  13.202  0.1162 -0.2236  1.0907
  377MPD2    H5 5646   1.898   2.841  13.231  0.0199  0.3379 -0.7139
  377MPD2    N1 5647   2.171   2.543  12.817  0.4726 -0.1019  0.1845
  377MPD2    H7 5648   2.193   2.570  12.722  3.1737 -0.2190  0.7584
  378TMC3    C1 5649   2.355   2.354  12.562  0.2454 -0.0457  0.4529
  378TMC3    C2 5650   2.243   2.355  12.647 -0.6241 -0.1618  0.0362
  378TMC3    C3 5651   2.267   2.340  12.779  0.2484  1.1566 -0.0895
  378TMC3    C4 5652   2.481   2.363  12.609  0.6336  0.1499  0.5917
  378TMC3    C5 5653   2.497   2.348  12.737 -0.0136 -0.7976  0.8584
  378TMC3    C6 5654   2.392   2.334  12.828  0.3456 -0.2477 -0.3295
  378TMC3     C 5655   2.317   2.350  12.422  0.2276  0.8313 -0.2920
  378TMC3     O 5656   2.199   2.319  12.400 -0.1694 -0.0341  0.3627
  378TMC3     H 5657   2.138   2.357  12.620 -1.2651  1.1009  2.5768
  378TMC3    H1 5658   2.566   2.382  12.545  1.1190 -2.4752  0.4288
  378TMC3    H2 5659   2.411   2.333  12.935  0.5797 -1.4277 -0.3830
  378TMC3    C7 5660   2.625   2.352  12.797 -0.2494 -0.5427  0.4109
  378TMC3    C8 5661   2.186   2.412  12.866 -0.3957 -0.3980  0.4253
  378TMC3    O1 5662   2.625   2.401  12.909 -0.1394 -0.1399  0.0057
  378TMC3    O2 5663   2.156   2.358  12.972  0.8897 -0.1423 -0.3951
  379MPD2     C 5664   2.851   0.776  16.537  0.0246 -0.3672  0.1883
  379MPD2    C1 5665   2.734   0.776  16.606  0.2216 -0.3404  0.2030
  379MPD2    C2 5666   2.736   0.757  16.744  0.2247 -0.6840  0.1366
  379MPD2    C3 5667   2.855   0.717  16.804  0.1884  0.2422 -0.0552
  379MPD2    C4 5668   2.968   0.703  16.727 -0.3870  0.3533 -0.1753
  379MPD2    C5 5669   2.964   0.735  16.600  0.4286  0.1871 -0.0949
  379MPD2     H 5670   2.645   0.774  16.801  1.1065  3.3635  0.3619
  379MPD2    H1 5671   3.070   0.689  16.761 -0.8544  4.5224  2.8945
  379MPD2    H2 5672   2.854   0.806  16.433  0.1015 -0.0901  0.2715
  379MPD2    H3 5673   3.056   0.726  16.544  0.3924  1.9193 -0.4225
  379MPD2     N 5674   2.873   0.690  16.942  0.2458 -0.5074  0.1742
  379MPD2    H5 5675   2.966   0.662  16.973 -0.2433 -0.9877  1.1963
  379MPD2    N1 5676   2.625   0.825  16.528 -0.1550 -0.2480 -0.7244
  379MPD2    H7 5677   2.640   0.821  16.428 -0.4199  2.2360 -0.8530
  380TMC3    C1 5678   2.404   0.858  16.474  0.6635  0.5597 -0.0918
  380TMC3    C2 5679   2.417   0.759  16.387 -0.0305  0.0909  0.1591
  380TMC3    C3 5680   2.339   0.762  16.276  0.1533  0.3225  0.7377
  380TMC3    C4 5681   2.323   0.968  16.459 -0.2029  0.0548 -0.1647
  380TMC3    C5 5682   2.252   0.983  16.343 -0.1067  0.0491 -0.0934
  380TMC3    C6 5683   2.265   0.880  16.252  0.5371  0.3006  0.5142
  380TMC3     C 5684   2.499   0.863  16.579  0.0794  0.3540  0.2957
  380TMC3     O 5685   2.458   0.898  16.687  0.1160  0.3220  0.5747
  380TMC3     H 5686   2.480   0.675  16.415 -1.5116 -1.1100 -0.1072
  380TMC3    H1 5687   2.328   1.053  16.527  2.3590 -0.2732  0.0771
  380TMC3    H2 5688   2.214   0.876  16.157 -0.6893  2.8046  1.0692
  380TMC3    C7 5689   2.256   1.124  16.292 -0.0280 -0.1077 -0.6874
  380TMC3    C8 5690   2.357   0.672  16.159  0.3589  0.0449 -1.0948
  380TMC3    O1 5691   2.338   1.206  16.329 -0.4408  0.3152  0.0673
  380TMC3    O2 5692   2.347   0.727  16.049  0.1682 -0.2182 -0.2208
  381TMC3    C1 5693   2.234   1.827  16.750  0.6244  0.0852  0.5481
  381TMC3    C2 5694   2.320   1.936  16.741 -0.7041  0.3072  0.6473
  381TMC3    C3 5695   2.290   2.045  16.816 -0.6894 -0.3127  0.2033
  381TMC3    C4 5696   2.122   1.819  16.829  0.1912 -0.2656 -0.1699
  381TMC3    C5 5697   2.106   1.928  16.911  0.4945  0.1413  0.0635
  381TMC3    C6 5698   2.191   2.038  16.912 -0.3145 -0.0728  0.5312
  381TMC3     C 5699   2.295   1.701  16.714 -0.0493  0.5614  0.1706
  381TMC3     O 5700   2.363   1.701  16.614  0.0570  0.4509 -0.0569
  381TMC3     H 5701   2.414   1.921  16.688 -0.4495  1.7980  0.6738
  381TMC3    H1 5702   2.046   1.742  16.842  1.4345 -1.2149  1.5135
  381TMC3    H2 5703   2.187   2.108  16.994 -1.2341 -0.7216  1.0494
  381TMC3    C7 5704   2.094   1.873  17.038 -0.1751  0.2826  0.7805
  381TMC3    C8 5705   2.389   2.155  16.803  0.7361 -0.4178 -0.1238
  381TMC3    O1 5706   2.123   1.757  17.049  0.1135  0.0044 -0.0676
  381TMC3    O2 5707   2.485   2.128  16.728  0.0813 -0.7654 -0.4089
  382MPD2     C 5708   1.122   4.677  17.423  0.0292  1.3197 -0.1695
  382MPD2    C1 5709   1.187   4.688  17.544 -0.0055 -0.2236  0.9676
  382MPD2    C2 5710   1.187   4.578  17.629 -0.2051 -0.5874 -0.4398
  382MPD2    C3 5711   1.135   4.457  17.585 -0.3630 -0.3951  0.0387
  382MPD2    C4 5712   1.060   4.453  17.473  0.6316  0.2424  0.2468
  382MPD2    C5 5713   1.050   4.566  17.397  0.1093 -0.0831 -0.6162
  382MPD2     H 5714   1.248   4.579   0.015  0.0481 -1.0428 -0.6071
  382MPD2    H1 5715   1.029   4.352  17.450 -2.0700  1.8022 -2.9811
  382MPD2    H2 5716   1.120   0.038  17.358  0.7305  0.8758 -0.7802
  382MPD2    H3 5717   1.009   4.561  17.297 -0.4093  1.0637 -0.4588
  382MPD2     N 5718   1.153   4.329  17.647  0.4083 -0.0835 -0.6420
  382MPD2    H5 5719   1.111   4.248  17.601  2.1004 -1.0262 -0.5183
  382MPD2    N1 5720   1.262   0.079  17.586 -0.1724 -0.0854  0.3731
  382MPD2    H7 5721   1.282   0.091  17.685 -2.5883  2.0521  0.6009
  383TMC3    C1 5722   1.279   4.160   0.036  0.3592  0.2127 -0.4820
  383TMC3    C2 5723   1.181   4.075  17.698  0.1639 -0.4773  0.0387
  383TMC3    C3 5724   1.223   3.950  17.663  0.3067 -0.1250  0.3217
  383TMC3    C4 5725   1.410   4.127   0.045  0.0151  0.7166 -0.2857
  383TMC3    C5 5726   1.446   3.995   0.022  0.0303 -1.0868  0.0502
  383TMC3    C6 5727   1.350   3.902  17.683 -0.7402  0.0477  0.0944
  383TMC3     C 5728   1.246   4.302   0.038 -0.2205 -0.7950  0.3846
  383TMC3     O 5729   1.329   4.377   0.084  0.5139 -0.3291 -0.4351
  383TMC3     H 5730   1.077   4.099  17.684  0.1620 -0.5739 -0.1149
  383TMC3    H1 5731   1.481   4.201   0.078 -0.9638  1.5724 -0.1022
  383TMC3    H2 5732   1.369   3.796  17.679  0.4543  0.1791  1.9467
  383TMC3    C7 5733   1.591   3.957   0.019 -0.6637 -0.0681  0.1523
  383TMC3    C8 5734   1.136   3.873  17.581 -0.8298  0.3441 -0.6383
  383TMC3    O1 5735   1.680   4.032   0.048  0.4540  0.0224 -0.4540
  383TMC3    O2 5736   1.064   3.930  17.496  0.3533 -0.1779  0.4024
  384MPD2     C 5737   3.089   0.635  11.529  0.3732  0.0408 -0.1731
  384MPD2    C1 5738   3.158   0.717  11.619 -0.9341 -0.8533  0.7051
  384MPD2    C2 5739   3.293   0.717  11.616 -0.3908  0.7960  0.0262
  384MPD2    C3 5740   3.367   0.629  11.538 -0.2835 -0.7222 -0.1724
  384MPD2    C4 5741   3.298   0.555  11.440 -0.3184  0.9133 -0.2124
  384MPD2    C5 5742   3.156   0.561  11.439 -0.0456 -0.2202 -0.9595
  384MPD2     H 5743   3.349   0.767  11.694  0.2839 -1.4015  0.9509
  384MPD2    H1 5744   3.351   0.503  11.361  0.4978  0.7361  0.4527
  384MPD2    H2 5745   2.981   0.623  11.524  0.4454 -1.1616  1.0051
  384MPD2    H3 5746   3.102   0.515  11.357  0.8887 -1.4180 -0.9198
  384MPD2     N 5747   3.501   0.615  11.566  0.3030 -0.4017  0.6749
  384MPD2    H5 5748   3.540   0.663  11.646 -1.5306  0.2314  1.1954
  384MPD2    N1 5749   3.103   0.781  11.728 -0.2640  0.1755  0.2873
  384MPD2    H7 5750   3.157   0.838  11.793  0.3993 -0.4979  0.3311
  385TMC3    C1 5751   3.707   0.509  11.592  0.7104 -0.2174 -0.4874
  385TMC3    C2 5752   3.727   0.390  11.649  0.3803 -0.3251 -0.8020
  385TMC3    C3 5753   3.774   0.390  11.778  0.4089  0.4104 -0.1100
  385TMC3    C4 5754   3.740   0.622  11.661 -0.3430  0.0540 -0.2919
  385TMC3    C5 5755   3.772   0.615  11.793 -0.2986 -0.2072  0.1759
  385TMC3    C6 5756   3.798   0.500  11.855 -0.6178 -0.0147 -0.4903
  385TMC3     C 5757   3.581   0.511  11.523 -0.1155  0.0853  0.1597
  385TMC3     O 5758   3.565   0.423  11.436 -0.2273  0.5701  0.1171
  385TMC3     H 5759   3.669   0.306  11.614 -0.7405  0.0725  0.0993
  385TMC3    H1 5760   3.725   0.717  11.611 -1.5163 -0.0567 -0.1544
  385TMC3    H2 5761   3.831   0.502  11.959 -0.2414  1.1631 -0.6280
  385TMC3    C7 5762   3.703   0.713  11.866 -0.1113 -0.0565 -0.1923
  385TMC3    C8 5763   3.830   0.265  11.827 -0.0372 -0.3029 -0.8221
  385TMC3    O1 5764   3.622   0.777  11.801 -0.3443  0.5924 -0.0452
  385TMC3    O2 5765   3.903   0.267  11.920  0.0865 -0.0376 -0.3059
  386TMC3    C1 5766   3.396   2.525  11.635  0.0003 -0.1297  0.6219
  386TMC3    C2 5767   3.395   2.456  11.519  0.6241 -0.3267  0.3911
  386TMC3    C3 5768   3.274   2.448  11.450  0.4279 -1.3775 -0.2088
  386TMC3    C4 5769   3.286   2.575  11.693 -0.1228 -0.2349 -0.1735
  386TMC3    C5 5770   3.166   2.572  11.616 -0.6868  0.0029 -0.1021
  386TMC3    C6 5771   3.163   2.520  11.484 -0.3546 -0.3641 -0.1118
  386TMC3     C 5772   3.520   2.520  11.714 -0.4926  0.2459 -0.2649
  386TMC3     O 5773   3.599   2.430  11.693  0.0859 -0.0843 -0.2043
  386TMC3     H 5774   3.492   2.427  11.482  1.1868  1.2598  0.6386
  386TMC3    H1 5775   3.284   2.617  11.793  0.3033 -0.8925  0.1070
  386TMC3    H2 5776   3.083   2.514  11.411 -0.7710  3.0621  0.0852
  386TMC3    C7 5777   3.044   2.613  11.689  0.1193  0.8878 -0.0374
  386TMC3    C8 5778   3.272   2.410  11.309 -0.6697 -0.5592  0.2290
  386TMC3    O1 5779   3.043   2.636  11.808 -0.2679  0.0069 -0.3853
  386TMC3    O2 5780   3.182   2.439  11.231  0.1727  0.4749  0.2278
  387MPD2     C 5781   1.387   2.719   9.945 -0.3314  0.3209 -0.5083
  387MPD2    C1 5782   1.521   2.747   9.949 -0.2622  0.4444  0.1787
  387MPD2    C2 5783   1.611   2.644   9.931  0.0171 -0.4856 -0.2584
  387MPD2    C3 5784   1.574   2.519   9.917 -0.1750  0.5402 -0.5394
  387MPD2    C4 5785   1.444   2.492   9.919  0.0094  0.1826  0.3212
  387MPD2    C5 5786   1.353   2.590   9.928 -0.1351  0.3718  0.0564
  387MPD2     H 5787   1.713   2.672   9.955 -0.7080  0.0089  2.2193
  387MPD2    H1 5788   1.410   2.390   9.903 -0.6739  0.3806  0.5072
  387MPD2    H2 5789   1.307   2.791   9.955 -0.1097 -0.0103  3.8807
  387MPD2    H3 5790   1.251   2.552   9.931  0.7876 -2.1047 -0.2368
  387MPD2     N 5791   1.688   2.425   9.916 -0.1657 -0.0614 -0.1139
  387MPD2    H5 5792   1.783   2.461   9.919  0.5850 -2.0809 -0.0646
  387MPD2    N1 5793   1.570   2.870   9.980  0.0719 -0.1354  0.2544
  387MPD2    H7 5794   1.670   2.867   9.999  0.4724  2.0140 -1.5024
  388TMC3    C1 5795   1.603   3.081  10.062 -0.3983  1.0153 -0.4382
  388TMC3    C2 5796   1.567   3.212  10.079 -0.3180  0.0517  0.1054
  388TMC3    C3 5797   1.667   3.299  10.126 -0.3252 -0.0397  0.0514
  388TMC3    C4 5798   1.716   3.033  10.130 -0.0783 -0.0047  0.2577
  388TMC3    C5 5799   1.819   3.118  10.164  0.5414 -0.3690 -0.8731
  388TMC3    C6 5800   1.794   3.252  10.159 -0.3625  0.0753 -0.2644
  388TMC3     C 5801   1.508   2.989  10.008 -0.8950  0.5137  0.0701
  388TMC3     O 5802   1.391   3.025  10.000  0.0580  0.2058 -0.3936
  388TMC3     H 5803   1.468   3.245  10.047  0.2502 -0.4624 -2.1891
  388TMC3    H1 5804   1.722   2.927  10.154  1.7638 -0.6305 -2.9311
  388TMC3    H2 5805   1.873   3.319  10.189  0.1155 -0.7219  0.2355
  388TMC3    C7 5806   1.929   3.066  10.246  0.1270  0.4426 -0.7319
  388TMC3    C8 5807   1.632   3.437  10.151  0.7304  0.7545  0.7977
  388TMC3    O1 5808   1.943   3.118  10.353  0.2597 -0.4755  0.2360
  388TMC3    O2 5809   1.722   3.513  10.178  0.4875 -0.4032  0.2529
  389MPD2     C 5810   0.860   1.333  11.217 -0.1206  0.1942  0.0009
  389MPD2    C1 5811   0.793   1.238  11.143  0.6339  0.5732 -0.4859
  389MPD2    C2 5812   0.773   1.110  11.189 -0.3347 -0.5984  0.3093
  389MPD2    C3 5813   0.814   1.086  11.316 -0.1684  0.2295 -0.4135
  389MPD2    C4 5814   0.883   1.180  11.394 -0.1746  0.7052  0.3780
  389MPD2    C5 5815   0.911   1.306  11.344  0.6540  0.3095 -0.0676
  389MPD2     H 5816   0.721   1.030  11.137 -1.2390  0.6595 -0.6906
  389MPD2    H1 5817   0.931   1.148  11.486 -1.0865  3.0834  1.6948
  389MPD2    H2 5818   0.875   1.436  11.188 -0.9422  0.7494  1.5327
  389MPD2    H3 5819   0.971   1.375  11.402 -0.0911  0.8455  0.0792
  389MPD2     N 5820   0.795   0.965  11.381 -0.3599 -0.1563  0.7428
  389MPD2    H5 5821   0.842   0.968  11.471  2.4393  0.0827 -0.7376
  389MPD2    N1 5822   0.758   1.272  11.014  0.3141 -0.5307  0.3188
  389MPD2    H7 5823   0.803   1.351  10.968 -2.5193  1.5547  1.0738
  390TMC3    C1 5824   0.729   0.764  11.477 -0.4724  0.6035  0.3200
  390TMC3    C2 5825   0.620   0.686  11.488 -0.2889 -0.4425 -0.0907
  390TMC3    C3 5826   0.586   0.645  11.609 -0.0311 -0.9156 -0.0549
  390TMC3    C4 5827   0.793   0.815  11.584  0.0961 -0.1815  0.3444
  390TMC3    C5 5828   0.747   0.780  11.709  0.2910  0.0465 -0.0665
  390TMC3    C6 5829   0.647   0.689  11.725  0.2967 -0.1357 -0.3957
  390TMC3     C 5830   0.729   0.848  11.353 -0.3364  0.5641  0.3893
  390TMC3     O 5831   0.660   0.811  11.255  0.2476 -0.0376  0.0764
  390TMC3     H 5832   0.573   0.638  11.403 -0.2035  0.2502 -0.5304
  390TMC3    H1 5833   0.886   0.871  11.584  0.6425 -1.1015 -1.3512
  390TMC3    H2 5834   0.628   0.637  11.817  1.6788 -1.3769 -0.8151
  390TMC3    C7 5835   0.798   0.860  11.815  0.1478 -0.2008 -0.3244
  390TMC3    C8 5836   0.451   0.582  11.615 -0.1227 -0.0368  0.4521
  390TMC3    O1 5837   0.886   0.944  11.794  0.4356  0.3740  0.0456
  390TMC3    O2 5838   0.413   0.517  11.518  0.0817 -0.2727 -0.2904
  391MPD2     C 5839   4.319   2.562  11.577 -0.0669  0.0968 -0.6347
  391MPD2    C1 5840   4.426   2.644  11.544 -0.0276  0.3795  0.6778
  391MPD2    C2 5841   4.472   2.634  11.412 -0.2065  0.1644 -0.2490
  391MPD2    C3 5842   4.409   2.548  11.318 -0.7999 -0.7187 -0.1626
  391MPD2    C4 5843   4.296   2.480  11.345 -0.4217 -0.1900 -0.1258
  391MPD2    C5 5844   4.254   2.489  11.479  0.0779 -0.5621 -0.6769
  391MPD2     H 5845   4.574   2.670  11.401 -0.2067 -0.3895 -1.9470
  391MPD2    H1 5846   4.244   2.414  11.277 -1.0442  0.8731 -0.6788
  391MPD2    H2 5847   4.280   2.571  11.677  2.2249  1.6228  0.1147
  391MPD2    H3 5848   4.170   2.426  11.506 -0.2133  0.4141  0.6972
  391MPD2     N 5849   4.466   2.541  11.194 -0.0260 -0.8027  0.1743
  391MPD2    H5 5850   4.564   2.567  11.196 -0.4725  0.8572  0.1654
  391MPD2    N1 5851   4.491   2.714  11.651  0.4170 -0.1166  0.4348
  391MPD2    H7 5852   4.477   2.676  11.744  1.4692  1.4043  1.2073
  392TMC3    C1 5853   4.476   2.534  10.946  0.3748 -0.2174  0.4344
  392TMC3    C2 5854   4.424   2.466  10.843  0.0687  0.0217  0.0608
  392TMC3    C3 5855   4.500   2.453  10.729  0.0622 -0.0822  0.0341
  392TMC3    C4 5856   4.602   2.578  10.938  0.4103 -0.4212 -0.1327
  392TMC3    C5 5857   4.686   2.559  10.834  0.3337  0.4150  0.0809
  392TMC3    C6 5858   4.633   2.495  10.726 -0.0548 -0.3297  0.3333
  392TMC3     C 5859   4.403   2.531  11.073 -0.3901 -0.3635 -0.7257
  392TMC3     O 5860   4.280   2.528  11.066  0.2298  0.2671 -0.0703
  392TMC3     H 5861   4.326   2.423  10.861 -0.1341 -0.1087 -1.3690
  392TMC3    H1 5862   4.620   2.657  11.010  1.7444 -0.3177 -0.5637
  392TMC3    H2 5863   4.684   2.460  10.637  0.1986  0.6651  0.0899
  392TMC3    C7 5864   0.086   2.627  10.824 -0.3153  0.5396 -0.2431
  392TMC3    C8 5865   4.462   2.345  10.641  0.3502  0.7530  0.5372
  392TMC3    O1 5866   0.117   2.696  10.919 -0.4779 -0.8540  0.1693
  392TMC3    O2 5867   4.370   2.270  10.670 -0.6477 -0.2063  0.7913
  393TMC3    C1 5868   3.582   4.608  10.347 -0.5597 -0.4863 -1.2131
  393TMC3    C2 5869   3.481   4.532  10.404 -0.7808 -0.5301  0.6633
  393TMC3    C3 5870   3.464   4.543  10.540  0.5558 -0.2881 -0.1392
  393TMC3    C4 5871   3.653   4.696  10.424  0.5128 -0.3720  0.0480
  393TMC3    C5 5872   3.630   4.701  10.565 -0.0281  0.0603 -0.5648
  393TMC3    C6 5873   3.533   4.628  10.616  0.4093 -0.3620  0.1087
  393TMC3     C 5874   3.586   4.631  10.202  0.5991 -0.5576 -0.6549
  393TMC3     O 5875   3.642   0.008  10.169 -0.6357  0.5959 -0.3700
  393TMC3     H 5876   3.417   4.468  10.345 -1.2123 -1.0359  1.6658
  393TMC3    H1 5877   3.729   0.035  10.382  0.3302  0.7406  1.4519
  393TMC3    H2 5878   3.509   4.634  10.722  0.4106  1.3798  0.0082
  393TMC3    C7 5879   3.709   0.055  10.658  0.3369  0.8058 -0.2055
  393TMC3    C8 5880   3.319   4.536  10.577  0.2391  0.6529 -0.3853
  393TMC3    O1 5881   3.675   0.069  10.775 -0.5445  0.4145  0.3327
  393TMC3    O2 5882   3.240   4.536  10.480  0.0469 -0.1143 -0.0271
  394TMC3    C1 5883   0.691   1.247  10.794  0.4542  0.3310 -0.2438
  394TMC3    C2 5884   0.581   1.232  10.711  0.1647 -0.6640 -0.2710
  394TMC3    C3 5885   0.584   1.289  10.592 -0.7895  0.4868 -0.3517
  394TMC3    C4 5886   0.809   1.296  10.744  0.6238 -0.6773 -0.0060
  394TMC3    C5 5887   0.814   1.346  10.617  0.3374 -0.0914  0.1918
  394TMC3    C6 5888   0.703   1.343  10.547 -0.2215  0.2301 -0.0528
  394TMC3     C 5889   0.682   1.202  10.929  0.4265 -0.0976  0.5929
  394TMC3     O 5890   0.603   1.116  10.944  0.0856  0.1859 -0.0967
  394TMC3     H 5891   0.486   1.214  10.759 -0.5796 -0.2992 -1.6279
  394TMC3    H1 5892   0.896   1.315  10.807 -1.6930 -0.3572  3.0751
  394TMC3    H2 5893   0.696   1.390  10.449 -0.7833 -2.4027 -1.2912
  394TMC3    C7 5894   0.929   1.412  10.563 -0.1372  0.3689  0.4895
  394TMC3    C8 5895   0.514   1.207  10.499 -0.2520  0.3944  0.2697
  394TMC3    O1 5896   0.914   1.485  10.464 -0.0293  0.3617  0.5388
  394TMC3    O2 5897   0.512   1.248  10.385  0.6512  0.2002  0.3444
  395TMC3    C1 5898   0.509   3.190  15.125  0.0862  0.5470 -0.3937
  395TMC3    C2 5899   0.456   3.141  15.007  0.6245 -0.2511  0.3084
  395TMC3    C3 5900   0.505   3.195  14.893  0.1906  0.5128 -0.4143
  395TMC3    C4 5901   0.611   3.278  15.126 -1.0275 -0.4141 -0.2365
  395TMC3    C5 5902   0.666   3.316  15.008 -0.2904  0.0531 -0.1371
  395TMC3    C6 5903   0.616   3.278  14.888 -0.0952 -0.3298  0.0299
  395TMC3     C 5904   0.445   3.142  15.246  0.0782  0.0895  0.2381
  395TMC3     O 5905   0.450   3.215  15.343  0.1256 -0.7768 -0.3358
  395TMC3     H 5906   0.369   3.076  15.012  2.4992 -2.8865 -2.1547
  395TMC3    H1 5907   0.650   3.299  15.225 -1.2621  1.9398 -0.6321
  395TMC3    H2 5908   0.644   3.318  14.791  1.5454 -2.7219 -0.4991
  395TMC3    C7 5909   0.754   3.430  15.009  0.3359  0.5221  0.9017
  395TMC3    C8 5910   0.458   3.155  14.763  0.7621 -0.1130  0.7377
  395TMC3    O1 5911   0.781   3.472  15.121  0.0348  0.2965 -0.3003
  395TMC3    O2 5912   0.502   3.223  14.668  0.0246 -0.7615 -0.7895
  396MPD2     C 5913   4.490   4.008  17.491  0.5899  0.1734 -0.0786
  396MPD2    C1 5914   4.560   3.961  17.382  0.0622  0.4124 -0.1113
  396MPD2    C2 5915   4.628   4.056  17.303 -0.2988 -0.1103  0.6219
  396MPD2    C3 5916   4.636   4.184  17.339  0.0750 -0.3421 -0.3080
  396MPD2    C4 5917   4.580   4.227  17.455  0.5976  0.6253 -0.0581
  396MPD2    C5 5918   4.500   4.142  17.526  0.3814  0.5240 -0.1181
  396MPD2     H 5919   4.677   4.023  17.212  1.0185  0.6601  1.0672
  396MPD2    H1 5920   4.586   4.329  17.490 -1.5507  0.8902 -0.4268
  396MPD2    H2 5921   4.433   3.949  17.561 -0.0984  1.3147  0.3219
  396MPD2    H3 5922   4.439   4.175  17.610  2.5310  0.2333  1.5612
  396MPD2     N 5923   4.711   4.274  17.260 -0.2646 -0.3041 -0.1254
  396MPD2    H5 5924   0.015   4.245  17.168  1.2383 -2.0074  0.8903
  396MPD2    N1 5925   4.552   3.821  17.366  0.0057  0.7562 -0.8850
  396MPD2    H7 5926   4.509   3.765  17.438  2.4727  0.1287  0.1055
  397TMC3    C1 5927   4.565   3.618  17.269 -0.1039  0.1255 -0.6231
  397TMC3    C2 5928   4.474   3.586  17.170  0.5740  0.0300  0.5120
  397TMC3    C3 5929   4.361   3.523  17.199  0.0076  0.3565  0.4221
  397TMC3    C4 5930   4.544   3.564  17.392 -0.4898  0.1436 -0.4824
  397TMC3    C5 5931   4.430   3.488  17.416  0.7719  0.4097  0.1780
  397TMC3    C6 5932   4.335   3.465  17.320  0.7673  0.1115  1.1336
  397TMC3     C 5933   4.616   3.755  17.261 -0.0655 -0.4208 -0.2211
  397TMC3     O 5934   4.678   3.792  17.159 -0.0522  0.6145 -0.3290
  397TMC3     H 5935   4.475   3.649  17.082 -1.1724  0.4730  0.8097
  397TMC3    H1 5936   4.597   3.608  17.475  1.3347  0.0453 -1.5962
  397TMC3    H2 5937   4.254   3.394  17.321 -0.1048  1.0937 -0.2728
  397TMC3    C7 5938   4.421   3.401  17.524  0.5464 -0.1850 -0.6620
  397TMC3    C8 5939   4.260   3.509  17.092  0.0075  0.1990 -0.4808
  397TMC3    O1 5940   4.344   3.311  17.503 -0.3852  0.2369  0.1478
  397TMC3    O2 5941   4.146   3.476  17.123  0.5845  0.6064  0.0291
  398MPD2     C 5942   2.732   4.206   0.241  0.3078  0.3043  0.4558
  398MPD2    C1 5943   2.859   4.210   0.290 -0.6424 -0.5728  0.2397
  398MPD2    C2 5944   2.926   4.337   0.289 -0.3278  0.3371 -0.1632
  398MPD2    C3 5945   2.867   4.448   0.232  0.1965  0.2902 -0.3017
  398MPD2    C4 5946   2.739   4.442   0.193 -0.3113  0.3586 -0.2200
  398MPD2    C5 5947   2.671   4.323   0.190  0.4384 -0.1853 -0.0660
  398MPD2     H 5948   3.026   4.342   0.330 -0.0702  2.0249 -0.9849
  398MPD2    H1 5949   2.689   4.524   0.144 -1.5750 -0.8575 -0.9426
  398MPD2    H2 5950   2.668   4.119   0.249  0.4275  0.2072  0.3569
  398MPD2    H3 5951   2.563   4.333   0.178  0.8350 -0.4943 -4.0542
  398MPD2     N 5952   2.944   4.566   0.224 -0.9530 -0.2055 -0.0515
  398MPD2    H5 5953   3.044   4.561   0.238 -0.9236 -3.3430 -1.5214
  398MPD2    N1 5954   2.923   4.097   0.343 -0.7724  0.2376  0.2755
  398MPD2    H7 5955   3.009   4.111   0.395  0.0519  2.8262 -1.8081
  399TMC3    C1 5956   2.946   3.868   0.420  0.0899 -0.3139 -0.1043
  399TMC3    C2 5957   3.063   3.899   0.484  0.1717 -0.4520  0.5187
  399TMC3    C3 5958   3.112   3.804   0.568 -0.6617 -0.5504 -0.0898
  399TMC3    C4 5959   2.887   3.744   0.435 -0.0661 -0.0693 -0.1419
  399TMC3    C5 5960   2.947   3.650   0.513 -0.1243 -0.7738  0.1046
  399TMC3    C6 5961   3.063   3.677   0.578 -0.1560  0.5290  0.2198
  399TMC3     C 5962   2.871   3.967   0.343  0.4243 -0.2788 -0.1019
  399TMC3     O 5963   2.767   3.918   0.295  0.0222 -0.2785  0.4560
  399TMC3     H 5964   3.118   3.988   0.456  2.8140 -1.5929  2.1343
  399TMC3    H1 5965   2.791   3.719   0.390 -0.7434  1.0303  0.7007
  399TMC3    H2 5966   3.108   3.598   0.637 -0.9660  0.0935  0.2604
  399TMC3    C7 5967   2.896   3.521   0.524  0.4815 -0.3905 -0.4225
  399TMC3    C8 5968   3.249   3.823   0.614 -0.1656  1.3395 -0.3518
  399TMC3    O1 5969   2.923   3.453   0.618  0.0347 -0.2418  0.2564
  399TMC3    O2 5970   3.328   3.730   0.603  0.2264  0.7235 -0.3105
  400TMC3    C1 5971   1.064   3.757  17.218 -0.3037 -0.8101  0.6143
  400TMC3    C2 5972   0.940   3.755  17.158  0.0131  0.3276 -0.4928
  400TMC3    C3 5973   0.890   3.872  17.114 -0.4026 -0.1297 -0.2053
  400TMC3    C4 5974   1.154   3.862  17.210  0.1083  0.2345 -0.1817
  400TMC3    C5 5975   1.096   3.981  17.165 -0.5906  0.4272 -0.8108
  400TMC3    C6 5976   0.964   3.984  17.121 -0.5719  0.1387 -0.3601
  400TMC3     C 5977   1.129   3.629  17.244 -0.2928 -0.4142  0.5318
  400TMC3     O 5978   1.242   3.639  17.286  0.4346  0.3988 -0.0620
  400TMC3     H 5979   0.871   3.673  17.168  1.7379 -1.0533 -0.0042
  400TMC3    H1 5980   1.250   3.866  17.258 -0.9699  0.1808  1.9570
  400TMC3    H2 5981   0.919   4.079  17.093  0.8867  0.8319 -0.3611
  400TMC3    C7 5982   1.168   4.110  17.162  0.0841  0.1144  0.7374
  400TMC3    C8 5983   0.764   3.879  17.041 -0.2504  0.6978  0.3106
  400TMC3    O1 5984   1.276   4.123  17.220 -0.2503  0.2244  0.1386
  400TMC3    O2 5985   0.717   3.992  17.025  0.1892  0.2627 -0.0192
  401MPD2     C 5986   4.722   2.915   1.849 -0.1495 -0.4829 -0.3551
  401MPD2    C1 5987   0.071   2.879   1.739 -0.1043  0.2574 -0.5009
  401MPD2    C2 5988   0.049   2.759   1.680  0.5062 -0.0642  0.1272
  401MPD2    C3 5989   4.664   2.684   1.716 -0.8514 -0.7975  0.0629
  401MPD2    C4 5990   4.598   2.711   1.831  0.6004  0.7891 -0.4011
  401MPD2    C5 5991   4.624   2.831   1.893 -0.2068  0.7310  0.3440
  401MPD2     H 5992   0.103   2.728   1.591 -1.9833 -0.2581 -1.3469
  401MPD2    H1 5993   4.511   2.660   1.871  0.4564  0.0364 -1.6843
  401MPD2    H2 5994   0.001   3.009   1.902  1.0267 -0.4842 -0.4564
  401MPD2    H3 5995   4.570   2.865   1.981  0.3535 -0.7911  1.2663
  401MPD2     N 5996   4.635   2.561   1.645  0.4927 -0.0874  0.0116
  401MPD2    H5 5997   4.671   2.563   1.550  2.2271 -0.1963  0.6667
  401MPD2    N1 5998   0.176   2.957   1.691  0.0318 -0.4143 -0.1478
  401MPD2    H7 5999   0.215   2.922   1.604 -0.7812  0.9621 -1.0621
  402TMC3    C1 6000   4.541   2.362   1.573 -0.4531  0.2881 -0.4273
  402TMC3    C2 6001   4.466   2.250   1.600 -0.9302  0.4247 -0.7151
  402TMC3    C3 6002   4.475   2.138   1.517  0.3537 -0.6607  0.0769
  402TMC3    C4 6003   4.625   2.368   1.470 -0.0028 -0.0378 -0.0403
  402TMC3    C5 6004   4.641   2.254   1.394 -0.1218 -0.4125 -0.1091
  402TMC3    C6 6005   4.566   2.140   1.418  0.4531  0.5904 -0.0634
  402TMC3     C 6006   4.547   2.467   1.678  0.6078 -0.0938  0.3802
  402TMC3     O 6007   4.466   2.462   1.767 -0.0012  0.1841 -0.1447
  402TMC3     H 6008   4.406   2.254   1.690 -0.7128  0.2762 -0.5630
  402TMC3    H1 6009   4.677   2.457   1.437  0.0621 -0.9820 -2.4818
  402TMC3    H2 6010   4.592   2.047   1.371 -1.6320  1.8805 -3.7733
  402TMC3    C7 6011   0.018   2.253   1.293  0.1142 -0.2834  0.0418
  402TMC3    C8 6012   4.447   2.012   1.577 -0.2253  0.0828  0.4384
  402TMC3    O1 6013   0.077   2.357   1.268 -0.9706 -0.5118 -0.0866
  402TMC3    O2 6014   4.518   1.916   1.556  0.3020  0.3560  0.7119
  403MPD2     C 6015   2.502   0.972  13.779 -0.1921  0.1668 -0.3865
  403MPD2    C1 6016   2.573   0.853  13.758  0.6433  0.3572 -0.1953
  403MPD2    C2 6017   2.699   0.845  13.823  0.3713 -0.3508  0.6870
  403MPD2    C3 6018   2.749   0.949  13.898 -0.6743  0.6554  0.1135
  403MPD2    C4 6019   2.670   1.062  13.915 -0.5481  0.5324  0.2559
  403MPD2    C5 6020   2.542   1.071  13.864 -0.9917  0.1538 -0.4479
  403MPD2     H 6021   2.761   0.757  13.830  2.4388  1.1876  1.9542
  403MPD2    H1 6022   2.701   1.141  13.982 -2.2548  1.6467 -0.2637
  403MPD2    H2 6023   2.415   0.995  13.718 -0.1824  0.7674 -0.1784
  403MPD2    H3 6024   2.474   1.154  13.881 -0.5043  0.4806 -0.0922
  403MPD2     N 6025   2.882   0.949  13.951  0.1318 -0.0519 -0.5638
  403MPD2    H5 6026   2.909   1.035  13.998 -2.9788  1.4172 -1.4783
  403MPD2    N1 6027   2.512   0.750  13.683  0.1451  0.2223  0.0082
  403MPD2    H7 6028   2.438   0.782  13.622 -0.2941 -0.5762  0.1156
  404TMC3    C1 6029   2.494   0.535  13.589 -0.2349 -0.2255  0.1503
  404TMC3    C2 6030   2.507   0.407  13.623  0.5915  0.3683  0.2350
  404TMC3    C3 6031   2.565   0.317  13.536  0.3037  0.1815 -0.0991
  404TMC3    C4 6032   2.513   0.571  13.460 -0.4484 -0.6017 -0.5511
  404TMC3    C5 6033   2.565   0.485  13.371 -0.4723  0.4926  0.1712
  404TMC3    C6 6034   2.590   0.352  13.408  0.6010 -0.0239  0.2447
  404TMC3     C 6035   2.549   0.623  13.692 -0.0116 -0.8288  0.4636
  404TMC3     O 6036   2.608   0.566  13.782  0.0051 -0.1536 -0.0490
  404TMC3     H 6037   2.478   0.383  13.724 -0.6763  1.3067  0.0995
  404TMC3    H1 6038   2.481   0.669  13.428  2.0312  0.1165 -0.8102
  404TMC3    H2 6039   2.650   0.287  13.346 -1.2263  0.5561 -2.1622
  404TMC3    C7 6040   2.600   0.532  13.238 -0.5346  0.3030  0.1780
  404TMC3    C8 6041   2.634   0.205  13.590  0.2430  0.2426  0.4527
  404TMC3    O1 6042   2.611   0.655  13.234 -0.4839  0.6799  0.1651
  404TMC3    O2 6043   2.734   0.170  13.532 -0.3019 -0.1032 -0.5763
  405MPD2     C 6044   2.953   0.893  15.111  0.1480 -0.0964  0.6618
  405MPD2    C1 6045   2.976   0.833  14.986  0.3865  0.0570  0.1447
  405MPD2    C2 6046   3.005   0.915  14.878 -0.5170 -0.1987 -0.7411
  405MPD2    C3 6047   3.006   1.056  14.892  0.6923 -0.0008  0.2018
  405MPD2    C4 6048   2.979   1.117  15.012  0.3991 -0.3875  0.0762
  405MPD2    C5 6049   2.955   1.033  15.118  0.7036  0.6496 -0.7745
  405MPD2     H 6050   3.035   0.877  14.782  0.6237  0.8058 -0.7801
  405MPD2    H1 6051   2.968   1.225  15.017  0.1267 -0.4209  0.2280
  405MPD2    H2 6052   2.940   0.833  15.201 -0.9214 -1.4227 -0.3623
  405MPD2    H3 6053   2.942   1.088  15.211 -3.2903 -0.5583 -0.6402
  405MPD2     N 6054   3.030   1.121  14.765 -0.0490  0.0140 -0.2306
  405MPD2    H5 6055   3.062   1.068  14.685 -0.8577 -0.9802  0.1070
  405MPD2    N1 6056   2.980   0.690  14.978 -0.1632 -0.3519 -0.3894
  405MPD2    H7 6057   2.949   0.631  15.054 -0.5168  1.0615  0.5537
  406TMC3    C1 6058   2.831   1.422  14.476 -0.1260  0.5785 -0.1283
  406TMC3    C2 6059   2.817   1.330  14.377 -0.2502 -0.3919  0.0790
  406TMC3    C3 6060   2.885   1.212  14.398 -0.6380  0.1824  0.8822
  406TMC3    C4 6061   2.914   1.416  14.588  0.9459 -0.2172  0.3243
  406TMC3    C5 6062   2.984   1.295  14.606  0.1631  0.5468  0.5008
  406TMC3    C6 6063   2.968   1.195  14.513  0.2662 -0.5768 -0.1042
  406TMC3     C 6064   2.708   1.507  14.479  0.4088 -0.1529 -0.2566
  406TMC3     O 6065   2.677   1.581  14.385  0.1622 -0.2236  0.8666
  406TMC3     H 6066   2.740   1.337  14.301 -0.0180  0.9574 -0.0494
  406TMC3    H1 6067   2.919   1.493  14.664  2.3246 -1.4344  1.4701
  406TMC3    H2 6068   3.054   1.129  14.506 -0.5650 -2.0133  3.0198
  406TMC3    C7 6069   2.998   1.251  14.744  0.4649 -0.5082 -0.4876
  406TMC3    C8 6070   2.837   1.089  14.330  1.3125  0.6800 -0.1308
  406TMC3    O1 6071   2.984   1.340  14.829  0.0010  0.7595 -0.1299
  406TMC3    O2 6072   2.777   1.106  14.223 -0.3223 -0.1881  0.1909
  407MPD2     C 6073   0.848   2.795   9.619 -0.3100  0.8887  0.1700
  407MPD2    C1 6074   0.938   2.707   9.671 -0.6484 -0.0189  0.2095
  407MPD2    C2 6075   0.983   2.733   9.801  0.6593 -0.0416 -0.1747
  407MPD2    C3 6076   0.931   2.835   9.877  0.2667 -0.3838 -0.0511
  407MPD2    C4 6077   0.845   2.921   9.819  0.0975  0.6519  0.3596
  407MPD2    C5 6078   0.818   2.913   9.688 -0.4216  0.5540  0.2401
  407MPD2     H 6079   1.079   2.693   9.833  0.9548  1.4692  0.8071
  407MPD2    H1 6080   0.804   3.003   9.877 -0.9168  1.2384 -1.1877
  407MPD2    H2 6081   0.822   2.789   9.514 -4.2091  0.1053  1.1783
  407MPD2    H3 6082   0.762   2.990   9.637 -1.6983 -1.7117 -1.7763
  407MPD2     N 6083   0.971   2.859  10.013  0.0579  0.5896 -0.2044
  407MPD2    H5 6084   0.951   2.950  10.054  2.3085  0.3580  1.4406
  407MPD2    N1 6085   1.009   2.609   9.597  0.6582 -0.0581 -0.5969
  407MPD2    H7 6086   1.094   2.570   9.638  1.2935 -0.0434 -1.9194
  408TMC3    C1 6087   1.057   2.458   9.422 -0.3913 -0.7240  0.2637
  408TMC3    C2 6088   1.182   2.502   9.409 -0.3341  0.0696  0.1419
  408TMC3    C3 6089   1.263   2.430   9.328 -0.2687  0.1948  1.1806
  408TMC3    C4 6090   1.002   2.359   9.346 -0.3832  0.6078  0.0755
  408TMC3    C5 6091   1.085   2.288   9.267  0.2306  0.0748  1.6767
  408TMC3    C6 6092   1.218   2.321   9.263  0.7854 -0.7307  0.3046
  408TMC3     C 6093   0.965   2.559   9.472 -0.2630  0.6644 -0.0092
  408TMC3     O 6094   0.857   2.574   9.417 -0.3011  0.3422 -0.2754
  408TMC3     H 6095   1.209   2.591   9.464  0.8715 -0.8533  1.0456
  408TMC3    H1 6096   0.896   2.341   9.354 -0.0411 -1.0547  0.7229
  408TMC3    H2 6097   1.291   2.255   9.217 -0.3030 -1.2281 -0.7013
  408TMC3    C7 6098   1.024   2.178   9.200 -0.4669 -0.8966  0.3183
  408TMC3    C8 6099   1.397   2.433   9.371  0.0835 -0.2630 -0.1062
  408TMC3    O1 6100   0.940   2.120   9.267 -0.1604  0.3521 -0.0794
  408TMC3    O2 6101   1.460   2.330   9.390 -0.0740 -0.0611 -0.2167
  409MPD2     C 6102   4.602   3.169  17.270  0.0623  0.9715 -0.2111
  409MPD2    C1 6103   4.694   3.207  17.363 -0.1322 -0.5287 -0.0112
  409MPD2    C2 6104   0.073   3.291  17.327  0.7576  0.0994  0.0138
  409MPD2    C3 6105   0.075   3.360  17.208 -0.2952  0.7656 -1.1315
  409MPD2    C4 6106   4.691   3.339  17.130  0.3653 -0.3299 -0.7182
  409MPD2    C5 6107   4.606   3.237  17.151 -0.3494  0.2869 -0.1567
  409MPD2     H 6108   0.147   3.312  17.404  0.0471  1.9503  0.1890
  409MPD2    H1 6109   4.677   3.406  17.047 -1.7175 -0.6800 -0.6623
  409MPD2    H2 6110   4.544   3.080  17.291 -0.3795  0.7055 -2.6271
  409MPD2    H3 6111   4.529   3.202  17.083 -0.5097  0.1884  0.0748
  409MPD2     N 6112   0.176   3.451  17.178  0.1245  0.1106  0.0218
  409MPD2    H5 6113   0.155   3.506  17.096  1.7732  1.0056  0.2166
  409MPD2    N1 6114   4.718   3.127  17.480  0.0559 -0.6719  0.2003
  409MPD2    H7 6115   0.084   3.134  17.522  0.3171 -1.0544 -0.3118
  410TMC3    C1 6116   0.367   3.573  17.220  0.5829 -0.1369  0.1930
  410TMC3    C2 6117   0.492   3.580  17.277 -0.4491  0.0721 -0.2900
  410TMC3    C3 6118   0.556   3.701  17.296  0.3452 -0.6837  0.4293
  410TMC3    C4 6119   0.298   3.697  17.191  0.0967  0.4227  0.6328
  410TMC3    C5 6120   0.367   3.815  17.213 -0.2156  0.1896  0.3932
  410TMC3    C6 6121   0.493   3.824  17.266  0.0685  0.1764 -0.4982
  410TMC3     C 6122   0.294   3.453  17.244  1.3137  0.3455  0.1396
  410TMC3     O 6123   0.345   3.371  17.318  0.0624 -0.5462 -0.5397
  410TMC3     H 6124   0.554   3.491  17.285 -1.7595 -0.7397  0.9004
  410TMC3    H1 6125   0.198   3.710  17.152 -0.5962 -1.2571  1.8377
  410TMC3    H2 6126   0.549   3.914  17.287  0.2999  0.2365 -1.3936
  410TMC3    C7 6127   0.335   3.938  17.150 -0.0861  0.2637  0.0135
  410TMC3    C8 6128   0.679   3.704  17.379 -0.3864  0.0491  0.4706
  410TMC3    O1 6129   0.384   4.041  17.198  0.5193  0.0594  0.0001
  410TMC3    O2 6130   0.714   3.818  17.413 -0.2023  0.4925  0.4190
  411MPD2     C 6131   0.653   3.886  14.922  0.0195  0.0580 -0.0121
  411MPD2    C1 6132   0.603   3.986  14.839 -0.0763 -0.8022 -0.4727
  411MPD2    C2 6133   0.507   3.959  14.748  0.9390  0.3892  0.1999
  411MPD2    C3 6134   0.467   3.825  14.723 -0.2829  0.1758  0.3765
  411MPD2    C4 6135   0.520   3.729  14.803  1.0355 -0.5559  0.5019
  411MPD2    C5 6136   0.601   3.760  14.908  0.0475 -0.0833  0.0957
  411MPD2     H 6137   0.471   4.048  14.697  0.1810 -0.5721 -0.9351
  411MPD2    H1 6138   0.480   3.629  14.795  1.1851 -0.3707 -2.7270
  411MPD2    H2 6139   0.740   3.905  14.983  0.4683  0.2776 -0.7254
  411MPD2    H3 6140   0.617   3.677  14.976  2.4465 -0.5283 -1.0155
  411MPD2     N 6141   0.378   3.786  14.627 -0.9978  0.0570  0.8954
  411MPD2    H5 6142   0.368   3.685  14.619 -2.9870  0.3321 -0.2433
  411MPD2    N1 6143   0.665   4.118  14.830 -0.1673 -0.3077 -0.2131
  411MPD2    H7 6144   0.643   4.162  14.741 -0.8432 -0.5706 -0.1814
  412TMC3    C1 6145   0.296   3.794  14.405  0.1891  0.2803 -0.0524
  412TMC3    C2 6146   0.265   3.871  14.295 -0.1993 -0.8301 -0.3415
  412TMC3    C3 6147   0.244   3.810  14.176 -0.0470  0.0485  0.3735
  412TMC3    C4 6148   0.296   3.653  14.399 -0.0019  0.3385  0.2879
  412TMC3    C5 6149   0.283   3.597  14.279 -0.2272  0.2790 -0.7721
  412TMC3    C6 6150   0.253   3.674  14.164  0.6400 -0.8417 -0.1961
  412TMC3     C 6151   0.328   3.865  14.525  0.0716  0.5405  0.5183
  412TMC3     O 6152   0.327   3.982  14.514 -0.2727 -0.1028  0.1229
  412TMC3     H 6153   0.260   3.979  14.302  2.6739 -0.9091  2.7054
  412TMC3    H1 6154   0.359   3.593  14.463 -3.0664 -0.7119  2.3215
  412TMC3    H2 6155   0.234   3.630  14.067 -1.2612  1.0595 -0.6805
  412TMC3    C7 6156   0.363   3.473  14.258 -0.0706  0.5337  0.8787
  412TMC3    C8 6157   0.246   3.905  14.068 -0.5726  0.4376 -0.4971
  412TMC3    O1 6158   0.390   3.401  14.355 -0.2132  0.2108 -0.6424
  412TMC3    O2 6159   0.205   4.019  14.080 -0.2454  0.2180 -0.8511
  413MPD2     C 6160   2.322   1.896  16.071 -0.1224 -0.3139  0.0276
  413MPD2    C1 6161   2.346   1.922  15.936  0.0287  0.1141  0.3805
  413MPD2    C2 6162   2.434   1.841  15.863 -0.3503  0.3865  0.3699
  413MPD2    C3 6163   2.490   1.727  15.922 -0.3648 -0.2633 -0.4557
  413MPD2    C4 6164   2.476   1.706  16.054 -0.0527  0.4034  0.2211
  413MPD2    C5 6165   2.393   1.793  16.124 -0.0821  0.1757 -0.9526
  413MPD2     H 6166   2.457   1.862  15.760 -1.5679 -1.7909 -0.3333
  413MPD2    H1 6167   2.518   1.619  16.105 -1.2558 -0.4244 -0.1829
  413MPD2    H2 6168   2.249   1.957  16.123 -3.1698 -3.3984 -0.6114
  413MPD2    H3 6169   2.366   1.769  16.226  1.1434  1.5567 -0.3036
  413MPD2     N 6170   2.575   1.645  15.842 -0.1874  0.5082 -0.2583
  413MPD2    H5 6171   2.596   1.678  15.749 -0.8590 -1.9281 -1.2838
  413MPD2    N1 6172   2.260   2.019  15.881  0.1071 -0.1840  0.6819
  413MPD2    H7 6173   2.206   2.074  15.947  0.3278  1.9627 -0.8945
  414TMC3    C1 6174   2.755   1.483  15.803  0.3231 -0.4837  0.2819
  414TMC3    C2 6175   2.771   1.349  15.807  0.4222 -0.0468  0.0664
  414TMC3    C3 6176   2.831   1.287  15.706 -0.6596 -0.8323  0.3966
  414TMC3    C4 6177   2.806   1.554  15.696 -0.2415 -0.1554 -0.3605
  414TMC3    C5 6178   2.868   1.487  15.593  0.5479 -0.4131 -0.8580
  414TMC3    C6 6179   2.881   1.352  15.599 -0.7088 -0.2952  0.0657
  414TMC3     C 6180   2.646   1.532  15.886  0.0186  0.6332 -0.2473
  414TMC3     O 6181   2.619   1.452  15.980 -1.5177 -0.2667  0.2832
  414TMC3     H 6182   2.734   1.284  15.885 -1.4404 -0.8999 -1.5162
  414TMC3    H1 6183   2.805   1.663  15.691 -1.6373 -0.1336  0.2830
  414TMC3    H2 6184   2.920   1.295  15.516  2.1902  1.8961 -0.0510
  414TMC3    C7 6185   2.979   1.554  15.534 -0.2743  0.0470 -0.1664
  414TMC3    C8 6186   2.844   1.141  15.720 -0.2373 -0.0290 -0.4702
  414TMC3    O1 6187   3.020   1.652  15.595 -0.3035 -0.1758 -0.2205
  414TMC3    O2 6188   2.744   1.071  15.730  0.1164  0.6728 -0.3732
  415TMC3    C1 6189   3.067   4.003  10.451 -0.0105  0.1794  0.1098
  415TMC3    C2 6190   3.201   3.991  10.470 -0.4592 -0.3302  0.0434
  415TMC3    C3 6191   3.288   4.032  10.369 -0.1549 -0.4626 -0.0627
  415TMC3    C4 6192   3.025   4.058  10.331 -0.7543 -0.1685 -0.2943
  415TMC3    C5 6193   3.117   4.086  10.225  0.5386  0.3682 -0.0300
  415TMC3    C6 6194   3.253   4.074  10.244 -0.3325 -0.0513 -0.4264
  415TMC3     C 6195   2.977   4.009  10.561 -0.4656 -0.1159 -0.6139
  415TMC3     O 6196   2.862   4.048  10.534  0.0501  0.2268 -0.1910
  415TMC3     H 6197   3.235   3.933  10.555  0.2659 -0.3699 -0.2748
  415TMC3    H1 6198   2.918   4.070  10.319 -0.8551  1.8286  2.4545
  415TMC3    H2 6199   3.318   4.118  10.169  0.0202 -1.7746 -1.1410
  415TMC3    C7 6200   3.083   4.181  10.129  0.9501  0.2737  0.0017
  415TMC3    C8 6201   3.407   4.096  10.424  0.7292 -0.7273  0.6638
  415TMC3    O1 6202   3.167   4.229  10.055 -0.4258  0.1549 -0.3136
  415TMC3    O2 6203   3.405   4.117  10.544 -0.3608 -0.4518 -0.6551
  416MPD2     C 6204   0.241   3.985  11.642 -0.6347  0.4045  0.3373
  416MPD2    C1 6205   0.138   3.931  11.723 -0.1935 -0.0559 -0.0112
  416MPD2    C2 6206   0.115   3.792  11.712  0.1611 -0.2112  0.2672
  416MPD2    C3 6207   0.177   3.720  11.610 -0.1018 -0.7417  0.0240
  416MPD2    C4 6208   0.268   3.777  11.527  0.3462  0.2832  0.4619
  416MPD2    C5 6209   0.306   3.908  11.556  0.2041  0.2806 -0.3160
  416MPD2     H 6210   0.039   3.744  11.773 -0.8354  0.5942 -0.3528
  416MPD2    H1 6211   0.338   3.733  11.458 -1.5746  0.2547 -1.4636
  416MPD2    H2 6212   0.261   4.092  11.640  1.5763 -0.0988 -3.0171
  416MPD2    H3 6213   0.388   3.955  11.503  0.6244  0.8979  0.8698
  416MPD2     N 6214   0.141   3.585  11.602  0.0668  0.1821 -0.2712
  416MPD2    H5 6215   0.059   3.566  11.659 -1.1575  1.9860 -1.4614
  416MPD2    N1 6216   0.063   4.022  11.810 -0.2147  0.4571  0.6012
  416MPD2    H7 6217   0.082   4.121  11.795  0.9281  0.4698  2.0509
  417TMC3    C1 6218   4.638   4.094  11.975  0.0130 -0.4605  0.2164
  417TMC3    C2 6219   4.609   4.104  12.106  1.0297  0.4333 -0.3069
  417TMC3    C3 6220   4.526   4.207  12.151  0.7190 -0.2354  0.3892
  417TMC3    C4 6221   4.595   4.186  11.882  0.0047  0.5826 -0.1904
  417TMC3    C5 6222   4.510   4.285  11.930 -0.3760 -0.6531  0.0181
  417TMC3    C6 6223   4.472   4.299  12.061  0.8088  0.2729  0.3666
  417TMC3     C 6224   0.009   3.991  11.933  0.2777  0.1673  0.3446
  417TMC3     O 6225   0.010   3.878  11.979 -0.6246 -0.6181  0.3544
  417TMC3     H 6226   4.652   4.030  12.172 -0.4904  0.8936  1.1842
  417TMC3    H1 6227   4.602   4.173  11.775  2.3134  1.6195 -0.1612
  417TMC3    H2 6228   4.399   4.374  12.089  1.1926  0.6328  0.4213
  417TMC3    C7 6229   4.430   4.340  11.830  0.2704 -0.6821 -0.1925
  417TMC3    C8 6230   4.488   4.229  12.293  0.1755  0.0611 -0.2733
  417TMC3    O1 6231   4.497   4.396  11.737  0.0078 -0.2111 -0.2696
  417TMC3    O2 6232   4.444   4.338  12.322  0.6277 -0.4199  0.3998
  418TMC3    C1 6233   3.151   0.184   0.127  0.1401  0.4066  0.6227
  418TMC3    C2 6234   3.088   0.064   0.144  0.1435 -0.1636 -0.5415
  418TMC3    C3 6235   2.975   0.068   0.218  0.3114  0.0894 -0.1813
  418TMC3    C4 6236   3.105   0.303   0.179 -0.3554 -0.2439 -0.1293
  418TMC3    C5 6237   3.000   0.302   0.267  0.3739  0.3215 -0.1247
  418TMC3    C6 6238   2.932   0.181   0.282  0.1824 -0.1085  0.5754
  418TMC3     C 6239   3.289   0.182   0.088 -0.1162  0.2402 -0.0485
  418TMC3     O 6240   3.336   0.290   0.060 -0.2553 -0.1570  0.1930
  418TMC3     H 6241   3.120   4.698   0.097 -0.9826 -0.7538 -0.1438
  418TMC3    H1 6242   3.168   0.391   0.175 -1.3811  0.4343 -1.5566
  418TMC3    H2 6243   2.850   0.183   0.354 -1.1458 -0.4999 -0.9162
  418TMC3    C7 6244   3.017   0.373   0.387 -0.2380 -0.2363 -0.3641
  418TMC3    C8 6245   2.881   4.689   0.205 -0.6057 -0.3578 -0.6569
  418TMC3    O1 6246   2.982   0.311   0.488 -0.1506 -0.1267  0.1022
  418TMC3    O2 6247   2.766   4.719   0.229  1.1624  0.1801  0.1695
  419MPD2     C 6248   2.076   3.467  12.156 -0.0014  0.2391  0.1737
  419MPD2    C1 6249   2.035   3.593  12.126  0.2002  0.5779 -0.0397
  419MPD2    C2 6250   1.941   3.656  12.209  0.1352  0.3222  0.1448
  419MPD2    C3 6251   1.892   3.587  12.321  0.1648 -0.4337  0.6699
  419MPD2    C4 6252   1.935   3.455  12.344 -0.3601 -0.1490 -0.5852
  419MPD2    C5 6253   2.019   3.394  12.253 -0.3430 -0.5937  1.5512
  419MPD2     H 6254   1.912   3.759  12.197  0.3558  0.1986 -1.4875
  419MPD2    H1 6255   1.897   3.400  12.428 -0.1462 -0.3553 -0.6243
  419MPD2    H2 6256   2.149   3.415  12.095  1.4416 -1.4614  3.3601
  419MPD2    H3 6257   2.050   3.292  12.271  0.0037 -0.6197  0.8330
  419MPD2     N 6258   1.818   3.657  12.417 -0.6157  0.0076 -1.1748
  419MPD2    H5 6259   1.796   3.753  12.395 -0.1117  0.6628  1.2580
  419MPD2    N1 6260   2.085   3.671  12.018  0.3349 -0.0678 -0.0492
  419MPD2    H7 6261   2.037   3.760  12.010  0.9529  0.4092  1.4243
  420TMC3    C1 6262   1.707   3.704  12.624  0.5571 -0.6153  0.0505
  420TMC3    C2 6263   1.640   3.811  12.567 -0.3771 -0.2937  0.1987
  420TMC3    C3 6264   1.614   3.922  12.644 -0.5823 -0.2030 -0.0008
  420TMC3    C4 6265   1.728   3.706  12.760 -0.7952 -0.2529 -0.4612
  420TMC3    C5 6266   1.666   3.805  12.841  0.8311  0.5853  0.0143
  420TMC3    C6 6267   1.619   3.921  12.783 -0.2325  0.8527  0.1085
  420TMC3     C 6268   1.768   3.606  12.543  0.0376  0.5856  0.0378
  420TMC3     O 6269   1.770   3.492  12.588 -0.3073 -0.1782  0.2302
  420TMC3     H 6270   1.618   3.820  12.461 -0.2674 -1.3378  0.0925
  420TMC3    H1 6271   1.779   3.619  12.800  0.3999  0.7228  0.1244
  420TMC3    H2 6272   1.585   4.002  12.846 -0.7103  1.3824 -0.8408
  420TMC3    C7 6273   1.735   3.816  12.971 -0.0598 -0.3143 -0.4086
  420TMC3    C8 6274   1.552   4.034  12.574  0.2227 -0.1364 -0.6831
  420TMC3    O1 6275   1.753   3.716  13.039 -0.1734  0.3644 -0.1897
  420TMC3    O2 6276   1.585   4.037  12.459 -0.0817 -0.5566  0.3054
  421TMC3    C1 6277   3.106   0.881  14.018 -0.5283 -0.0238  0.5255
  421TMC3    C2 6278   3.125   0.997  14.083 -0.0316  0.7652 -0.2969
  421TMC3    C3 6279   3.242   1.024  14.143 -0.3582  0.5260 -0.9211
  421TMC3    C4 6280   3.207   0.789  14.001  0.3999 -0.1075  0.1177
  421TMC3    C5 6281   3.328   0.821  14.062  0.0794 -0.0875 -0.1740
  421TMC3    C6 6282   3.348   0.940  14.124 -0.1868  0.1619 -0.3898
  421TMC3     C 6283   2.980   0.847  13.944 -0.1830  0.2568 -0.4406
  421TMC3     O 6284   2.975   0.738  13.890 -0.1429  0.6886  0.6336
  421TMC3     H 6285   3.039   1.061  14.096 -0.5872 -0.3294  1.4910
  421TMC3    H1 6286   3.192   0.699  13.943  2.5140  0.9064 -2.0126
  421TMC3    H2 6287   3.437   0.959  14.183 -1.0644  0.8212  0.7199
  421TMC3    C7 6288   3.424   0.716  14.078  0.0293  0.2403 -0.1343
  421TMC3    C8 6289   3.260   1.138  14.232 -0.0982  0.0420 -0.8616
  421TMC3    O1 6290   3.513   0.753  14.151  0.0583 -0.2043  0.2126
  421TMC3    O2 6291   3.153   1.183  14.276  0.6578  0.1276  0.0657
  422TMC3    C1 6292   1.049   2.060  13.004  0.6288 -0.3685  0.2574
  422TMC3    C2 6293   1.021   2.193  13.005  1.0023  0.3667 -0.6828
  422TMC3    C3 6294   0.888   2.227  13.005 -0.2346  0.4961  0.5910
  422TMC3    C4 6295   0.952   1.966  13.027 -0.3589 -0.1721 -0.4563
  422TMC3    C5 6296   0.825   2.007  13.049 -0.4891  0.1527 -0.0354
  422TMC3    C6 6297   0.790   2.139  13.026  0.2620 -0.1072  0.4600
  422TMC3     C 6298   1.185   2.028  12.956 -0.8171 -0.7727  0.8395
  422TMC3     O 6299   1.270   2.114  12.962  0.7103  0.3291 -0.1947
  422TMC3     H 6300   1.097   2.270  12.994  0.5250  1.0458  0.7174
  422TMC3    H1 6301   0.968   1.859  13.035  2.0469  0.1985 -0.0799
  422TMC3    H2 6302   0.689   2.177  13.017  0.0639 -1.3302 -2.5390
  422TMC3    C7 6303   0.720   1.905  13.084  0.7447 -0.1286  0.1666
  422TMC3    C8 6304   0.868   2.353  12.932  0.8568  1.0870 -0.5168
  422TMC3    O1 6305   0.754   1.786  13.084  0.0773 -0.1690 -0.2740
  422TMC3    O2 6306   0.959   2.388  12.860 -0.2726 -0.8602 -0.3167
  423MPD2     C 6307   2.145   3.159   0.825 -0.0129  0.1552  0.5352
  423MPD2    C1 6308   2.157   3.041   0.895 -0.7816  0.3788 -0.2490
  423MPD2    C2 6309   2.140   2.926   0.825  0.1338  0.1878  0.9262
  423MPD2    C3 6310   2.113   2.924   0.684 -0.3913  0.1904  0.4624
  423MPD2    C4 6311   2.113   3.045   0.618  0.1277  0.2081  0.2473
  423MPD2    C5 6312   2.123   3.162   0.686  0.3609 -0.1923  0.1173
  423MPD2     H 6313   2.160   2.833   0.878  0.0103 -1.4326 -1.8847
  423MPD2    H1 6314   2.112   3.049   0.510  0.1646 -3.1931  0.1429
  423MPD2    H2 6315   2.158   3.249   0.883  0.3351 -0.1454  0.9267
  423MPD2    H3 6316   2.109   3.257   0.636 -0.5578  0.8948  2.4267
  423MPD2     N 6317   2.094   2.808   0.606  0.1788 -0.1488 -0.1320
  423MPD2    H5 6318   2.059   2.812   0.511 -0.4482 -0.8679  0.0685
  423MPD2    N1 6319   2.168   3.034   1.036  0.4479 -0.1259 -0.1554
  423MPD2    H7 6320   2.158   2.939   1.071  1.2257 -0.9459 -2.1030
  424TMC3    C1 6321   2.177   3.108   1.253  0.2816 -0.3661  0.1795
  424TMC3    C2 6322   2.188   2.981   1.301 -0.4258  0.0655  0.1021
  424TMC3    C3 6323   2.157   2.962   1.431  0.3970  1.1069  0.3445
  424TMC3    C4 6324   2.124   3.205   1.333 -0.3048  0.8833 -0.3135
  424TMC3    C5 6325   2.093   3.183   1.462  0.4435 -0.5240  0.1572
  424TMC3    C6 6326   2.119   3.061   1.515 -0.1023  0.5200 -0.0283
  424TMC3     C 6327   2.186   3.145   1.116  0.0814 -0.3766  0.6926
  424TMC3     O 6328   2.215   3.262   1.096 -0.4187  0.0646  0.2120
  424TMC3     H 6329   2.254   2.916   1.246 -1.9130  0.0351 -1.6467
  424TMC3    H1 6330   2.117   3.301   1.285  0.3326  1.1037  0.0465
  424TMC3    H2 6331   2.083   3.049   1.616  2.4340  0.0946  0.8389
  424TMC3    C7 6332   2.069   3.304   1.537 -0.1472 -0.1211  0.0743
  424TMC3    C8 6333   2.181   2.834   1.502 -0.5379  0.3468  0.7985
  424TMC3    O1 6334   2.092   3.410   1.483 -0.3665  0.0376  0.5759
  424TMC3    O2 6335   2.150   2.832   1.621  0.4192 -0.2806  0.0893
  425MPD2     C 6336   1.094   2.170  17.695 -0.6106  0.3023  0.2725
  425MPD2    C1 6337   1.008   2.073  17.644  0.6833 -0.6437  0.0632
  425MPD2    C2 6338   0.872   2.082  17.657  0.0052  0.3459 -0.2046
  425MPD2    C3 6339   0.823   2.197   0.020  0.0383 -0.6002 -0.3652
  425MPD2    C4 6340   0.902   2.302   0.054  0.3316  0.3435  0.5038
  425MPD2    C5 6341   1.036   2.283   0.042  0.2689 -0.1727  0.0235
  425MPD2     H 6342   0.802   2.007  17.623 -0.8221  0.0576  2.1698
  425MPD2    H1 6343   0.870   2.388   0.112 -0.2835  0.0571  0.5917
  425MPD2    H2 6344   1.201   2.176  17.681 -0.1712 -2.0326  2.4805
  425MPD2    H3 6345   1.109   2.358   0.072 -0.7567  1.4150 -1.4786
  425MPD2     N 6346   0.686   2.203   0.036 -0.6580 -0.0294  0.2058
  425MPD2    H5 6347   0.624   2.128   0.005 -1.4150  0.9611 -0.6966
  425MPD2    N1 6348   1.074   1.971  17.578 -0.0700  0.0484 -0.4426
  425MPD2    H7 6349   1.175   1.973  17.572  0.0557 -2.6701  0.9937
  426TMC3    C1 6350   1.079   1.747  17.484  0.7959 -0.4910  0.1269
  426TMC3    C2 6351   1.068   1.665  17.377 -0.1870 -0.8362 -0.4057
  426TMC3    C3 6352   1.111   1.536  17.388  0.6355  0.0917 -0.5496
  426TMC3    C4 6353   1.129   1.695  17.599  0.2448 -0.2332  0.6191
  426TMC3    C5 6354   1.161   1.559  17.612  0.3923  0.3018 -0.3902
  426TMC3    C6 6355   1.163   1.482  17.501  0.3033 -0.1501 -0.5144
  426TMC3     C 6356   1.006   1.873  17.499 -0.0092  0.1902 -0.3564
  426TMC3     O 6357   0.894   1.884  17.445 -0.1243  0.5034  0.3333
  426TMC3     H 6358   1.040   1.700  17.278 -1.1045 -0.8807 -0.1614
  426TMC3    H1 6359   1.154   1.759  17.683  1.7024  0.3518 -0.2517
  426TMC3    H2 6360   1.173   1.375  17.513 -0.6400 -0.3180 -1.2141
  426TMC3    C7 6361   1.199   1.507   0.042  0.1475  0.1682  0.8680
  426TMC3    C8 6362   1.145   1.473  17.259 -0.1356 -0.3503 -0.2993
  426TMC3    O1 6363   1.226   1.389   0.053 -0.0539  0.6832  0.0632
  426TMC3    O2 6364   1.100   1.519  17.156 -0.1466 -0.2404 -0.4732
  427MPD2     C 6365   4.494   4.414  15.271  0.3855  0.0881 -0.0152
  427MPD2    C1 6366   4.436   4.306  15.335 -0.1244  0.0996 -0.3235
  427MPD2    C2 6367   4.297   4.311  15.364  0.2388  1.4029 -0.1100
  427MPD2    C3 6368   4.229   4.428  15.333  0.7222 -0.1565 -0.2365
  427MPD2    C4 6369   4.295   4.540  15.278 -0.2940  0.1279 -0.8980
  427MPD2    C5 6370   4.428   4.534  15.248 -0.0151  0.1821 -0.2208
  427MPD2     H 6371   4.244   4.226  15.405  0.0568  1.4382 -0.2688
  427MPD2    H1 6372   4.243   4.631  15.249  0.9892  1.3168  0.5039
  427MPD2    H2 6373   4.599   4.417  15.246  0.4532 -2.9615 -0.1503
  427MPD2    H3 6374   4.476   4.621  15.206 -0.6533  0.1753 -0.9677
  427MPD2     N 6375   4.091   4.439  15.350 -0.5415 -0.4635 -0.1548
  427MPD2    H5 6376   4.057   4.531  15.321  3.9495  0.9614 -0.8837
  427MPD2    N1 6377   4.501   4.181  15.353  0.2144  0.2097 -0.2889
  427MPD2    H7 6378   4.438   4.111  15.390  0.3871  0.6374  0.8112
  428TMC3    C1 6379   4.677   4.032  15.365 -0.0979  0.0393  0.0496
  428TMC3    C2 6380   4.594   3.946  15.438  0.0639  0.6197  0.3424
  428TMC3    C3 6381   4.657   3.839  15.498  0.0125  0.6377  0.5658
  428TMC3    C4 6382   0.089   4.018  15.365 -0.8737  0.2478 -0.3238
  428TMC3    C5 6383   0.146   3.917  15.435  0.2781 -0.1189  0.0030
  428TMC3    C6 6384   0.071   3.822  15.492  0.3568  0.6300  0.9418
  428TMC3     C 6385   4.624   4.151  15.306  0.2931  0.2732  0.0432
  428TMC3     O 6386   4.700   4.223  15.244 -0.0445 -0.3067  0.4359
  428TMC3     H 6387   4.485   3.946  15.434  0.0221  0.1181  1.6473
  428TMC3    H1 6388   0.147   4.101  15.327  0.8246 -1.7467 -2.0880
  428TMC3    H2 6389   0.128   3.747  15.546 -0.6897 -0.9309 -0.0945
  428TMC3    C7 6390   0.290   3.913  15.466  0.7289 -0.6305 -0.1380
  428TMC3    C8 6391   4.581   3.741  15.571  0.1242  0.2159  0.7427
  428TMC3    O1 6392   0.320   3.841  15.563  0.0435 -0.3524 -0.4476
  428TMC3    O2 6393   4.650   3.645  15.616  0.3951 -0.2576 -0.0985
  429MPD2     C 6394   0.735   4.304  17.588 -0.0229 -0.1368 -0.4429
  429MPD2    C1 6395   0.741   4.183  17.520 -0.4198 -0.4592 -0.0026
  429MPD2    C2 6396   0.731   4.184  17.378  0.8548  0.2415  0.5383
  429MPD2    C3 6397   0.711   4.301  17.307  0.5727  0.3281  0.4740
  429MPD2    C4 6398   0.702   4.420  17.376 -0.7377 -0.0403  0.2911
  429MPD2    C5 6399   0.717   4.419  17.517  0.1786 -0.9604 -1.0817
  429MPD2     H 6400   0.736   4.092  17.321  0.9714  0.7489 -0.2656
  429MPD2    H1 6401   0.702   4.520  17.334  0.6253  0.6870  2.0436
  429MPD2    H2 6402   0.745   4.321  17.695  0.2030  0.9978 -0.6501
  429MPD2    H3 6403   0.717   4.510  17.575 -2.2909 -1.5520 -0.1292
  429MPD2     N 6404   0.690   4.302  17.161  0.3477  0.0270 -0.0677
  429MPD2    H5 6405   0.707   4.218  17.108  2.8797  1.1382 -1.0521
  429MPD2    N1 6406   0.752   4.066  17.588  0.2613  0.2632 -0.2621
  429MPD2    H7 6407   0.755   3.979  17.535 -1.8510  0.3112 -0.4458
  430TMC3    C1 6408   0.723   4.388  16.946 -0.3219  0.2859 -0.2290
  430TMC3    C2 6409   0.672   4.283  16.868  0.1828  0.3709  0.2567
  430TMC3    C3 6410   0.724   4.282  16.738  0.8450 -0.3613 -0.4510
  430TMC3    C4 6411   0.812   4.475  16.900  0.5702  0.1076 -0.7527
  430TMC3    C5 6412   0.860   4.464  16.773  0.0293  1.0282  0.0920
  430TMC3    C6 6413   0.816   4.371  16.683 -0.1237  0.0858  0.1083
  430TMC3     C 6414   0.670   4.412  17.080 -0.4455  0.1117  0.6473
  430TMC3     O 6415   0.634   4.520  17.118  0.0651 -0.1889  0.1559
  430TMC3     H 6416   0.592   4.212  16.885  1.3104 -0.2343  3.1087
  430TMC3    H1 6417   0.836   4.561  16.963 -3.2112  1.0031 -0.5717
  430TMC3    H2 6418   0.860   4.365  16.585 -0.6605 -0.7060 -0.0885
  430TMC3    C7 6419   0.962   4.554  16.721  0.5515  0.5166 -0.2180
  430TMC3    C8 6420   0.634   4.219  16.642  0.0129  0.0570  0.0482
  430TMC3    O1 6421   0.945   4.586  16.606 -0.3206 -0.1013  0.1128
  430TMC3    O2 6422   0.553   4.138  16.680 -0.5659 -0.2339 -0.1224
  431MPD2     C 6423   2.307   4.246  12.453  1.2129  0.6524  0.7152
  431MPD2    C1 6424   2.323   4.318  12.332  0.0819 -0.0041  0.5066
  431MPD2    C2 6425   2.320   4.243  12.213 -0.1579 -0.5082  0.4128
  431MPD2    C3 6426   2.295   4.108  12.210 -0.0960 -0.1091 -0.5479
  431MPD2    C4 6427   2.276   4.044  12.329 -0.5942  0.8117  0.2973
  431MPD2    C5 6428   2.288   4.112  12.447 -0.1006 -0.1863  0.0317
  431MPD2     H 6429   2.323   4.293  12.117  3.0724  0.5495  1.0660
  431MPD2    H1 6430   2.256   3.938  12.320 -0.2635  0.8631 -1.1612
  431MPD2    H2 6431   2.310   4.294  12.550 -0.5195 -0.3794  1.2794
  431MPD2    H3 6432   2.292   4.051  12.537  1.8457 -1.8792 -1.1988
  431MPD2     N 6433   2.311   4.028  12.098  0.5289  0.1036 -0.6508
  431MPD2    H5 6434   2.279   3.933  12.112  1.4406 -0.3346 -1.5124
  431MPD2    N1 6435   2.351   4.456  12.325 -0.5429 -0.2114 -1.3000
  431MPD2    H7 6436   2.377   4.492  12.234 -0.8615  0.0159 -1.3037
  432TMC3    C1 6437   2.308   3.971  11.877  0.0889 -0.4315  0.2024
  432TMC3    C2 6438   2.396   3.955  11.777  0.8970 -0.6110 -0.4667
  432TMC3    C3 6439   2.396   3.830  11.730 -0.0130 -0.0519 -0.5824
  432TMC3    C4 6440   2.214   3.880  11.912 -0.0061  0.6637 -0.1896
  432TMC3    C5 6441   2.219   3.758  11.849  0.2349 -0.5373  0.5373
  432TMC3    C6 6442   2.310   3.735  11.754 -0.1430  1.0423  0.3547
  432TMC3     C 6443   2.341   4.072  11.969 -1.1961  0.8047  0.6112
  432TMC3     O 6444   2.407   4.171  11.942 -0.2402 -0.0428 -0.1909
  432TMC3     H 6445   2.449   4.038  11.731  0.0501  0.1133 -0.1432
  432TMC3    H1 6446   2.143   3.904  11.991 -0.3579  1.7336 -0.8377
  432TMC3    H2 6447   2.325   3.638  11.708  0.7748  0.2113  2.4292
  432TMC3    C7 6448   2.189   3.645  11.933 -0.4508 -0.6221  0.4867
  432TMC3    C8 6449   2.521   3.788  11.669  0.3506  0.0751  0.0173
  432TMC3    O1 6450   2.219   3.527  11.903  0.0854  0.0105 -0.4141
  432TMC3    O2 6451   2.524   3.671  11.633 -0.4812 -0.0005  0.3229
  433MPD2     C 6452   1.030   3.106  11.070  0.1711 -0.3616 -0.2196
  433MPD2    C1 6453   0.951   3.006  11.121 -0.2602 -0.2564 -0.9143
  433MPD2    C2 6454   0.901   3.035  11.246 -0.3542  0.1503 -0.0435
  433MPD2    C3 6455   0.924   3.149  11.320 -0.1447 -0.0329  0.0697
  433MPD2    C4 6456   0.994   3.248  11.264  0.2848 -0.3129  0.0854
  433MPD2    C5 6457   1.053   3.222  11.141  0.1999  0.0923  0.2251
  433MPD2     H 6458   0.829   2.968  11.293  0.3962  0.6001  1.7565
  433MPD2    H1 6459   1.028   3.336  11.316  2.7495 -0.8514 -0.6276
  433MPD2    H2 6460   1.081   3.088  10.977  0.5027 -2.0439  0.2859
  433MPD2    H3 6461   1.122   3.295  11.100  2.2319 -2.2207 -0.4741
  433MPD2     N 6462   0.883   3.144  11.452  0.0936  0.5257  0.2092
  433MPD2    H5 6463   0.849   3.055  11.486  1.2001  0.3158  0.7786
  433MPD2    N1 6464   0.927   2.894  11.046 -0.6048 -0.2426 -0.2410
  433MPD2    H7 6465   0.968   2.885  10.953 -0.1299 -0.8257  0.0216
  434TMC3    C1 6466   0.874   2.667  11.023 -0.0586 -0.3622  0.3260
  434TMC3    C2 6467   0.895   2.566  11.115 -0.0950  0.6331 -0.4926
  434TMC3    C3 6468   0.961   2.455  11.081 -0.4518  0.5004  0.5096
  434TMC3    C4 6469   0.925   2.670  10.896  0.2003 -0.1484  0.5697
  434TMC3    C5 6470   0.980   2.547  10.865 -0.5661  0.2504  0.9316
  434TMC3    C6 6471   1.003   2.446  10.956  0.3418  0.5669  0.5085
  434TMC3     C 6472   0.845   2.791  11.087 -0.5857 -0.5846 -0.1701
  434TMC3     O 6473   0.763   2.779  11.174 -0.5654  0.6239  0.0526
  434TMC3     H 6474   0.863   2.573  11.218 -0.7135  0.1243 -0.6454
  434TMC3    H1 6475   0.879   2.729  10.817 -0.4581  0.5289  1.4565
  434TMC3    H2 6476   1.038   2.350  10.921 -0.0151  0.0285  1.6424
  434TMC3    C7 6477   0.972   2.511  10.720  0.2781  0.9485  0.0044
  434TMC3    C8 6478   1.050   2.402  11.183  0.5005  0.0242 -0.1172
  434TMC3    O1 6479   0.878   2.553  10.659 -0.0153  0.5248  0.2028
  434TMC3    O2 6480   1.020   2.423  11.300  0.6460  0.1104  0.0906
  435MPD2     C 6481   2.303   2.941  15.814 -0.0763  0.4549 -0.1632
  435MPD2    C1 6482   2.275   2.922  15.945 -0.2682 -0.1029  0.6932
  435MPD2    C2 6483   2.374   2.866  16.023 -0.0444 -0.1541 -0.3308
  435MPD2    C3 6484   2.481   2.795  15.964 -0.0658  0.3689  0.3613
  435MPD2    C4 6485   2.509   2.811  15.828  0.1155 -0.0956  0.3289
  435MPD2    C5 6486   2.423   2.888  15.761 -0.6184  0.0140  1.0555
  435MPD2     H 6487   2.351   2.856  16.129 -0.1287 -2.1932 -0.5302
  435MPD2    H1 6488   2.577   2.758  15.762 -0.3821  3.0195 -2.7051
  435MPD2    H2 6489   2.239   3.001  15.750 -0.6390  0.1511  0.1101
  435MPD2    H3 6490   2.434   2.900  15.653 -2.9225  0.1009  0.8401
  435MPD2     N 6491   2.565   2.729  16.058  0.4783  0.1580 -0.0229
  435MPD2    H5 6492   2.536   2.737  16.155 -0.5753 -1.2865 -0.2293
  435MPD2    N1 6493   2.158   2.967  16.005 -0.7823 -0.4641 -0.0070
  435MPD2    H7 6494   2.149   2.958  16.105 -0.0796  1.3374  0.2162
  436TMC3    C1 6495   1.850   3.110  16.225  0.4913 -0.2454  0.4887
  436TMC3    C2 6496   1.965   3.080  16.147 -0.8031  0.5354  0.4419
  436TMC3    C3 6497   1.935   3.024  16.024 -0.5280  0.3039 -0.1670
  436TMC3    C4 6498   1.725   3.106  16.168 -0.0846 -0.5783  0.2288
  436TMC3    C5 6499   1.702   3.055  16.046 -0.1734 -0.6444 -0.1064
  436TMC3    C6 6500   1.804   3.005  15.977  0.0744  0.1512  0.2837
  436TMC3     C 6501   1.882   3.153  16.364  0.2039  0.1318 -0.9673
  436TMC3     O 6502   2.002   3.147  16.386  0.0456  0.3910  0.0206
  436TMC3     H 6503   2.068   3.090  16.179 -0.8613  1.1456  0.4352
  436TMC3    H1 6504   1.637   3.121  16.229 -0.6300  1.7806 -1.1611
  436TMC3    H2 6505   1.783   2.972  15.877 -0.3953  2.4262 -0.3714
  436TMC3    C7 6506   1.569   3.004  16.014  0.3147 -0.1292 -0.1528
  436TMC3    C8 6507   2.042   2.992  15.938 -0.2570  0.5232 -0.8076
  436TMC3    O1 6508   1.464   3.061  16.059  0.4053 -0.4250  0.1523
  436TMC3    O2 6509   2.020   2.985  15.821 -0.3761 -0.1356 -0.4914
  437TMC3    C1 6510   1.938   4.118  12.539  0.3899  0.2976 -0.5965
  437TMC3    C2 6511   1.898   4.167  12.659 -0.8268  0.1415  0.1904
  437TMC3    C3 6512   1.832   4.287  12.659  0.0241  0.3504  0.5228
  437TMC3    C4 6513   1.926   4.190  12.419 -0.1259 -0.2778 -0.5717
  437TMC3    C5 6514   1.869   4.318  12.431  0.1347  0.1458 -0.3558
  437TMC3    C6 6515   1.822   4.367  12.551 -0.4728  0.3864  0.7376
  437TMC3     C 6516   1.990   3.984  12.519  0.3087  0.1829  0.0120
  437TMC3     O 6517   1.981   3.943  12.401  0.4756 -0.0829 -0.4205
  437TMC3     H 6518   1.913   4.104  12.746 -0.4260  0.3820  0.2992
  437TMC3    H1 6519   1.956   4.153  12.321  0.5301  0.6275 -0.7124
  437TMC3    H2 6520   1.769   4.461  12.552 -1.9057 -0.3831 -1.4833
  437TMC3    C7 6521   1.921   4.408  12.325  0.3408 -0.7395 -0.3489
  437TMC3    C8 6522   1.751   4.310  12.776  0.1480 -0.9648 -0.2419
  437TMC3    O1 6523   1.949   4.359  12.215  0.1864  0.3762  0.3155
  437TMC3    O2 6524   1.722   4.206  12.833 -0.1937 -0.3772  0.4348
  438MPD2     C 6525   3.813   0.855  17.045  0.5718  0.2258  0.1769
  438MPD2    C1 6526   3.870   0.749  17.118  0.6972 -0.3494  0.2075
  438MPD2    C2 6527   3.838   0.735  17.253 -0.4477 -1.0098 -0.6212
  438MPD2    C3 6528   3.756   0.824  17.318  0.0497  0.2201  0.6352
  438MPD2    C4 6529   3.685   0.917  17.240 -0.2002 -0.5912 -0.8030
  438MPD2    C5 6530   3.719   0.933  17.110  0.5682  0.7832  0.1665
  438MPD2     H 6531   3.875   0.654  17.314  0.2003  0.2660  0.6965
  438MPD2    H1 6532   3.615   0.989  17.280 -0.3288 -0.1663 -1.8095
  438MPD2    H2 6533   3.836   0.875  16.941 -1.1918 -0.3861 -0.3425
  438MPD2    H3 6534   3.686   1.016  17.048 -1.7572 -0.5877 -0.4202
  438MPD2     N 6535   3.718   0.798  17.453  0.1595 -0.3281 -0.5329
  438MPD2    H5 6536   3.768   0.725  17.503 -0.5814 -0.6205 -0.2126
  438MPD2    N1 6537   3.953   0.656  17.051 -0.0995 -0.1203 -0.0519
  438MPD2    H7 6538   3.994   0.584  17.110  1.5815 -2.1160 -3.6884
  439TMC3    C1 6539   4.083   0.563  16.881  0.0584  0.2829  0.5704
  439TMC3    C2 6540   4.087   0.509  16.753  0.2698  0.0787  0.5965
  439TMC3    C3 6541   4.178   0.414  16.720 -0.6811 -0.7428  0.1880
  439TMC3    C4 6542   4.176   0.525  16.973 -0.1915  0.3511  0.3384
  439TMC3    C5 6543   4.266   0.428  16.937 -0.3868 -0.7317  0.4474
  439TMC3    C6 6544   4.274   0.380  16.808  0.4136 -0.8065 -0.2175
  439TMC3     C 6545   3.971   0.644  16.913  0.1604 -0.1517  0.4628
  439TMC3     O 6546   3.921   0.703  16.821 -0.9832 -0.2753 -0.8454
  439TMC3     H 6547   4.021   0.544  16.674 -0.6655  1.1602  1.8371
  439TMC3    H1 6548   4.189   0.562  17.074  0.0612  1.1861  0.0060
  439TMC3    H2 6549   4.335   0.294  16.783  0.6406 -0.0030 -2.4272
  439TMC3    C7 6550   4.328   0.352  17.046  0.0839 -0.0387 -0.4224
  439TMC3    C8 6551   4.176   0.333  16.595  0.3341  0.3429 -0.7384
  439TMC3    O1 6552   4.353   0.399  17.154 -0.1044 -0.1271  0.1177
  439TMC3    O2 6553   4.289   0.279  16.565 -0.2737  0.7091 -0.0961
  440MPD2     C 6554   2.634   0.902  14.836  0.1818 -0.2881 -0.7905
  440MPD2    C1 6555   2.606   0.942  14.971  0.0066 -0.1212  0.5749
  440MPD2    C2 6556   2.577   0.843  15.070  0.4281 -0.8734 -0.0425
  440MPD2    C3 6557   2.595   0.712  15.031 -0.3412 -0.3106 -1.2474
  440MPD2    C4 6558   2.631   0.677  14.896 -0.3623 -0.1506 -0.0933
  440MPD2    C5 6559   2.652   0.774  14.803 -0.1529  0.0910 -0.7630
  440MPD2     H 6560   2.566   0.868  15.175  3.5726 -1.4488  0.4374
  440MPD2    H1 6561   2.655   0.575  14.867  1.8259  0.5099 -0.6160
  440MPD2    H2 6562   2.658   0.979  14.763  1.0379 -0.4594 -0.6873
  440MPD2    H3 6563   2.680   0.756  14.700 -1.3569 -0.3985 -0.9979
  440MPD2     N 6564   2.584   0.607  15.120  0.3029 -0.0834  0.1669
  440MPD2    H5 6565   2.620   0.514  15.102 -0.1619  0.0670 -1.5601
  440MPD2    N1 6566   2.616   1.077  15.010  0.1054  0.5095 -0.8805
  440MPD2    H7 6567   2.600   1.081  15.110 -2.5316  1.4890 -1.3410
  441TMC3    C1 6568   2.577   0.507  15.330 -0.1273  0.1043  0.0085
  441TMC3    C2 6569   2.709   0.493  15.322  0.6610 -0.7587 -0.7758
  441TMC3    C3 6570   2.768   0.454  15.441  0.4020 -0.4130 -0.2302
  441TMC3    C4 6571   2.500   0.492  15.449 -0.3800  0.4352  0.6801
  441TMC3    C5 6572   2.566   0.458  15.561 -0.3061 -0.3110 -0.5487
  441TMC3    C6 6573   2.701   0.445  15.563  0.3002  0.5272 -0.1833
  441TMC3     C 6574   2.532   0.616  15.245 -0.6230 -0.0545  0.6918
  441TMC3     O 6575   2.457   0.700  15.295 -0.4857 -0.4825 -0.1320
  441TMC3     H 6576   2.767   0.503  15.231  1.3292 -2.5024 -0.5433
  441TMC3    H1 6577   2.396   0.518  15.460 -0.1040  2.7983 -2.4525
  441TMC3    H2 6578   2.758   0.434  15.655  0.3678  4.2230  0.1898
  441TMC3    C7 6579   2.490   0.450  15.688  0.0063  0.3504  0.4942
  441TMC3    C8 6580   2.891   0.528  15.451  0.1709 -0.0224 -0.0726
  441TMC3    O1 6581   2.390   0.520  15.701  0.0351 -0.4745  0.1527
  441TMC3    O2 6582   2.974   0.515  15.362  0.3319  0.0137 -0.2890
  442MPD2     C 6583   0.795   1.449  16.752 -0.0939  0.1315 -0.2128
  442MPD2    C1 6584   0.729   1.356  16.832  0.2388  0.6794  0.3834
  442MPD2    C2 6585   0.729   1.218  16.802  0.4677  0.7145 -0.4021
  442MPD2    C3 6586   0.775   1.182  16.677  0.3958  0.1462  0.4751
  442MPD2    C4 6587   0.849   1.275  16.603 -0.2451 -0.0890  0.6987
  442MPD2    C5 6588   0.867   1.406  16.643  0.0199  0.3947  0.5190
  442MPD2     H 6589   0.688   1.142  16.866  3.5905 -0.4834  0.1691
  442MPD2    H1 6590   0.895   1.253  16.508 -1.7918 -0.1300 -0.0334
  442MPD2    H2 6591   0.805   1.551  16.786 -1.7643  0.2142  0.0066
  442MPD2    H3 6592   0.923   1.475  16.581  1.2820 -0.8233  0.3026
  442MPD2     N 6593   0.773   1.051  16.616  0.4668  0.2822 -0.1498
  442MPD2    H5 6594   0.811   1.040  16.522  0.5266  1.9994 -0.3291
  442MPD2    N1 6595   0.656   1.402  16.946  0.6039 -0.3035 -0.6951
  442MPD2    H7 6596   0.607   1.324  16.989  1.3634 -1.7284 -2.3909
  443TMC3    C1 6597   0.522   1.533  17.089  0.1475  0.1689  0.1969
  443TMC3    C2 6598   0.441   1.639  17.090 -0.2112 -0.2013 -0.8012
  443TMC3    C3 6599   0.312   1.633  17.140 -0.7772 -0.1296 -0.3712
  443TMC3    C4 6600   0.481   1.417  17.143 -0.2360  0.5682  0.5071
  443TMC3    C5 6601   0.373   1.418  17.222  0.1788  0.0508  0.5558
  443TMC3    C6 6602   0.286   1.522  17.214 -0.2824  1.0598 -0.2397
  443TMC3     C 6603   0.620   1.529  16.979 -0.3118 -0.2245 -0.0879
  443TMC3     O 6604   0.640   1.627  16.913  0.0874 -0.2875 -0.6006
  443TMC3     H 6605   0.470   1.732  17.041  0.2866 -0.9447 -1.9173
  443TMC3    H1 6606   0.557   1.340  17.146 -0.1185  0.7093  1.1699
  443TMC3    H2 6607   0.187   1.509  17.258 -0.9139  0.2762 -1.9016
  443TMC3    C7 6608   0.345   1.292  17.287  0.6990  0.1572 -0.0802
  443TMC3    C8 6609   0.222   1.738  17.127  0.3034 -0.4975  0.3585
  443TMC3    O1 6610   0.368   1.189  17.223 -0.3196 -0.3719 -0.1075
  443TMC3    O2 6611   0.156   1.777  17.226  0.0148  0.2373  0.1882
  444MPD2     C 6612   0.740   1.358  17.415 -0.4451  0.3011  0.2227
  444MPD2    C1 6613   0.713   1.236  17.476 -0.8312  0.5357 -0.5320
  444MPD2    C2 6614   0.778   1.119  17.426  0.7001  0.3113  0.5298
  444MPD2    C3 6615   0.872   1.124  17.328 -0.4137 -0.1459  0.0117
  444MPD2    C4 6616   0.896   1.251  17.266  0.3167 -0.7011 -0.1633
  444MPD2    C5 6617   0.843   1.361  17.321 -0.1241 -0.1017 -0.5134
  444MPD2     H 6618   0.764   1.021  17.471  2.6770 -0.3865 -0.3642
  444MPD2    H1 6619   0.979   1.254  17.197  0.6683 -0.5163  0.2620
  444MPD2    H2 6620   0.695   1.451  17.448  1.0867  1.3257 -0.6126
  444MPD2    H3 6621   0.868   1.459  17.279 -0.5314  1.5031  3.0099
  444MPD2     N 6622   0.923   1.007  17.282  0.2903  0.1865  0.1175
  444MPD2    H5 6623   0.910   0.929  17.346  1.6236 -0.2826 -0.1832
  444MPD2    N1 6624   0.610   1.218  17.568  0.1079 -0.0001 -0.0921
  444MPD2    H7 6625   0.586   1.120  17.583  0.7758 -0.2881 -0.8955
  445TMC3    C1 6626   1.057   0.856  17.157 -0.1781  0.1257 -0.7281
  445TMC3    C2 6627   1.015   0.752  17.238 -0.1587  0.5815  0.0878
  445TMC3    C3 6628   1.085   0.634  17.237 -0.6362 -0.5433 -0.3177
  445TMC3    C4 6629   1.168   0.834  17.077 -0.8652  0.5394  0.0975
  445TMC3    C5 6630   1.234   0.716  17.081  0.5971 -0.3415 -0.2196
  445TMC3    C6 6631   1.199   0.618  17.164  0.1724  0.4954 -0.4994
  445TMC3     C 6632   1.007   0.996  17.171 -0.4941  1.2778 -0.4425
  445TMC3     O 6633   1.027   1.058  17.068  1.1578 -0.4944  0.2918
  445TMC3     H 6634   0.920   0.761  17.289  0.6765 -1.0158  1.8871
  445TMC3    H1 6635   1.218   0.905  17.013  0.3891 -0.7690 -0.3835
  445TMC3    H2 6636   1.246   0.521  17.165 -0.7743  0.0175 -2.0848
  445TMC3    C7 6637   1.354   0.697  17.012  0.3284  0.1328 -0.0266
  445TMC3    C8 6638   1.045   0.518  17.311 -0.0690 -0.4175  0.2022
  445TMC3    O1 6639   1.353   0.730  16.892 -0.1217 -0.4481 -0.1482
  445TMC3    O2 6640   1.073   0.407  17.265 -0.2575 -0.0455 -0.0762
  446MPD2     C 6641   0.820   2.260  11.774  0.1737 -0.3227 -0.6412
  446MPD2    C1 6642   0.797   2.274  11.640  0.2894 -0.3985 -0.2511
  446MPD2    C2 6643   0.878   2.363  11.570  0.0496  0.1662 -0.7885
  446MPD2    C3 6644   0.978   2.433  11.637  0.9976 -0.5949 -0.8511
  446MPD2    C4 6645   1.008   2.408  11.770  0.0898 -0.3974  0.4310
  446MPD2    C5 6646   0.923   2.318  11.840 -0.9442  0.3997 -0.1159
  446MPD2     H 6647   0.862   2.372  11.463  0.5804  3.0165 -0.6175
  446MPD2    H1 6648   1.074   2.464  11.834  1.9615 -1.4366 -0.5842
  446MPD2    H2 6649   0.753   2.195  11.831 -0.3117  0.3770 -0.4199
  446MPD2    H3 6650   0.945   2.298  11.945 -1.6781  0.4329  0.0453
  446MPD2     N 6651   1.046   2.531  11.571  0.1275 -0.1005 -0.0185
  446MPD2    H5 6652   1.013   2.563  11.480 -0.1608 -2.4910 -0.7310
  446MPD2    N1 6653   0.704   2.201  11.562 -0.2192 -0.4317  0.1483
  446MPD2    H7 6654   0.694   2.226  11.464 -2.9891 -1.3130  0.2197
  447TMC3    C1 6655   1.206   2.705  11.538 -0.5604 -0.1977 -0.0786
  447TMC3    C2 6656   1.196   2.674  11.403  0.1507  0.0882 -0.1160
  447TMC3    C3 6657   1.310   2.675  11.322 -0.1203 -0.3071 -0.3172
  447TMC3    C4 6658   1.324   2.749  11.581 -0.4325  0.9073 -0.4227
  447TMC3    C5 6659   1.439   2.732  11.507  0.4529  0.0204  0.8950
  447TMC3    C6 6660   1.430   2.704  11.377  0.4194 -0.1857 -0.1397
  447TMC3     C 6661   1.157   2.595  11.619  0.1570 -0.3951  0.0753
  447TMC3     O 6662   1.232   2.555  11.703  0.3067 -0.3449  0.1028
  447TMC3     H 6663   1.097   2.652  11.364  0.0418  0.5921 -0.1241
  447TMC3    H1 6664   1.337   2.768  11.687  0.8384  3.1902 -0.9987
  447TMC3    H2 6665   1.521   2.717  11.319  0.1430  1.4799 -0.2067
  447TMC3    C7 6666   1.557   2.668  11.573  0.2794  0.6442  0.2980
  447TMC3    C8 6667   1.287   2.676  11.182  0.1878 -0.4717 -0.3713
  447TMC3    O1 6668   1.650   2.635  11.499  0.4139 -0.4120 -0.8275
  447TMC3    O2 6669   1.178   2.718  11.144  0.6133  0.7981 -0.5777
  448TMC3    C1 6670   3.642   2.275  16.890  0.5652 -0.1154  0.0828
  448TMC3    C2 6671   3.656   2.160  16.813  0.4680  0.0987 -0.2097
  448TMC3    C3 6672   3.664   2.039  16.880  0.2132  0.3885  0.0985
  448TMC3    C4 6673   3.659   2.269  17.025 -0.0979  0.7138 -0.2712
  448TMC3    C5 6674   3.677   2.150  17.083 -0.0535  0.1115 -0.5508
  448TMC3    C6 6675   3.686   2.031  17.015  0.4247 -0.8806  0.1537
  448TMC3     C 6676   3.564   2.390  16.841  0.3776  0.5639  0.1059
  448TMC3     O 6677   3.501   2.446  16.927 -0.1733 -0.0999 -0.4081
  448TMC3     H 6678   3.645   2.161  16.705  0.5775 -0.2120 -0.2244
  448TMC3    H1 6679   3.646   2.360  17.084 -1.1532  0.1867  0.3099
  448TMC3    H2 6680   3.683   1.936  17.065  0.7512 -1.8262 -1.6294
  448TMC3    C7 6681   3.686   2.139  17.226  0.3608  0.4681  0.0111
  448TMC3    C8 6682   3.678   1.920  16.798 -0.2243  0.6797 -0.3859
  448TMC3    O1 6683   3.680   2.032  17.284  0.4145  0.4761 -0.7458
  448TMC3    O2 6684   3.730   1.830  16.860  0.3097 -0.0102 -0.0653
  449MPD2     C 6685   0.480   0.600  14.229 -0.5949  0.0079 -0.1690
  449MPD2    C1 6686   0.420   0.713  14.183  0.5101 -0.2263 -0.0234
  449MPD2    C2 6687   0.284   0.705  14.166  0.2361  0.0984  0.3361
  449MPD2    C3 6688   0.203   0.589  14.186  0.8751 -0.8945  0.0331
  449MPD2    C4 6689   0.270   0.471  14.219 -0.0314  0.5692  0.8009
  449MPD2    C5 6690   0.408   0.480  14.247  0.0749 -0.4599 -0.6093
  449MPD2     H 6691   0.225   0.795  14.156 -0.8592 -0.3577  2.6136
  449MPD2    H1 6692   0.226   0.373  14.224 -0.3710  0.7363  1.0626
  449MPD2    H2 6693   0.582   0.591  14.264 -0.2138 -0.9554 -1.5457
  449MPD2    H3 6694   0.458   0.386  14.270  1.3372  0.0990 -1.0949
  449MPD2     N 6695   0.072   0.609  14.152  0.1496  0.5748  0.2298
  449MPD2    H5 6696   0.047   0.700  14.114  1.2459  0.8324  0.1001
  449MPD2    N1 6697   0.475   0.841  14.168 -0.5348 -0.3076 -0.6956
  449MPD2    H7 6698   0.415   0.915  14.135 -1.8459 -1.2302 -0.3686
  450TMC3    C1 6699   0.615   1.020  14.165 -0.1691  0.9974  0.9036
  450TMC3    C2 6700   0.718   1.057  14.082 -0.0940  0.7993 -0.2074
  450TMC3    C3 6701   0.671   1.151  13.992 -0.2796  0.6836 -0.5941
  450TMC3    C4 6702   0.491   1.080  14.181  0.0723  0.0060  0.7609
  450TMC3    C5 6703   0.457   1.170  14.083 -0.6694 -0.0523 -0.5171
  450TMC3    C6 6704   0.543   1.205  13.990 -0.0731  0.0110  0.3147
  450TMC3     C 6705   0.610   0.878  14.187  0.5166 -0.4094 -0.2006
  450TMC3     O 6706   0.702   0.806  14.222 -0.0086  1.2479  0.3016
  450TMC3     H 6707   0.818   1.015  14.077  0.1228  1.2028  0.7771
  450TMC3    H1 6708   0.423   1.072  14.265 -1.5565  1.6054 -0.3973
  450TMC3    H2 6709   0.525   1.290  13.925 -1.9054  0.1588  1.0202
  450TMC3    C7 6710   0.329   1.136  14.028 -0.1041 -0.2686  0.7776
  450TMC3    C8 6711   0.777   1.206  13.908  0.0699  0.3174 -0.0419
  450TMC3    O1 6712   0.301   1.020  14.058 -0.1178  0.2201 -0.2964
  450TMC3    O2 6713   0.758   1.322  13.866 -0.2229 -0.2850  0.0870
  451MPD2     C 6714   1.941   4.192   1.906 -0.4743 -0.2656  0.0641
  451MPD2    C1 6715   1.939   4.133   1.774 -0.5190  0.8638  0.2111
  451MPD2    C2 6716   2.033   4.039   1.746  0.0148  0.6753 -0.9184
  451MPD2    C3 6717   2.135   3.997   1.835 -0.3443  0.5441 -0.4080
  451MPD2    C4 6718   2.145   4.061   1.953 -0.1671  0.4921 -0.1841
  451MPD2    C5 6719   2.050   4.157   1.987  0.3298 -0.6770  0.0963
  451MPD2     H 6720   2.034   3.993   1.648 -0.6312 -3.0706  0.8170
  451MPD2    H1 6721   2.210   4.034   2.035  2.0558 -1.9071 -2.7466
  451MPD2    H2 6722   1.866   4.265   1.934  0.0709  0.0252  0.7411
  451MPD2    H3 6723   2.061   4.218   2.076 -0.5659 -0.7577  0.2716
  451MPD2     N 6724   2.213   3.882   1.809 -0.0989 -0.6600  0.1275
  451MPD2    H5 6725   2.282   3.863   1.881 -0.8144 -2.8398  0.2235
  451MPD2    N1 6726   1.829   4.162   1.691 -0.1342  0.6342  0.3162
  451MPD2    H7 6727   1.762   4.231   1.721 -0.3681  0.3918  0.3505
  452TMC3    C1 6728   2.311   3.678   1.732  0.2507 -0.2746  0.5287
  452TMC3    C2 6729   2.355   3.660   1.859  0.1472  0.1478 -0.6919
  452TMC3    C3 6730   2.424   3.546   1.881 -0.1712 -0.8161  0.1004
  452TMC3    C4 6731   2.329   3.580   1.633  0.0316 -0.2685 -0.1905
  452TMC3    C5 6732   2.380   3.458   1.676 -0.1353  0.0660  0.7967
  452TMC3    C6 6733   2.426   3.437   1.802 -0.3032 -0.1161  0.2821
  452TMC3     C 6734   2.207   3.788   1.709 -0.3271 -0.0459  0.6818
  452TMC3     O 6735   2.144   3.784   1.605  0.1859  0.0389 -0.8475
  452TMC3     H 6736   2.336   3.731   1.938  2.8502  0.5519 -0.3975
  452TMC3    H1 6737   2.294   3.605   1.533  1.5885  1.0674 -0.4017
  452TMC3    H2 6738   2.484   3.350   1.829  1.2838  0.6243 -0.7189
  452TMC3    C7 6739   2.406   3.362   1.573 -0.5958 -0.0471 -0.2502
  452TMC3    C8 6740   2.501   3.541   2.011 -0.2657 -0.5741 -0.2890
  452TMC3    O1 6741   2.391   3.398   1.457 -0.0128 -0.0044  0.2854
  452TMC3    O2 6742   2.517   3.433   2.055  0.2871 -0.0804  0.4460
  453TMC3    C1 6743   3.056   1.558  11.908  0.4355 -0.3272 -0.1823
  453TMC3    C2 6744   2.925   1.538  11.949 -0.5184 -0.8517  0.6038
  453TMC3    C3 6745   2.852   1.441  11.884  0.1251  0.2557  0.1156
  453TMC3    C4 6746   3.118   1.485  11.807 -0.4461  0.3288 -0.2695
  453TMC3    C5 6747   3.038   1.393  11.742  0.6445 -0.0924  0.3253
  453TMC3    C6 6748   2.914   1.360  11.788 -0.5155 -0.1190 -0.1604
  453TMC3     C 6749   3.155   1.591  12.010 -0.7378 -0.8817 -0.1299
  453TMC3     O 6750   3.272   1.613  11.973 -0.2397  0.3987 -0.4097
  453TMC3     H 6751   2.888   1.585  12.039  1.8482 -1.4094  1.8779
  453TMC3    H1 6752   3.221   1.504  11.780 -1.4593  3.1382 -2.1448
  453TMC3    H2 6753   2.866   1.283  11.730  0.3505 -0.7694 -0.0173
  453TMC3    C7 6754   3.095   1.297  11.647  0.2793  0.8803  1.1339
  453TMC3    C8 6755   2.777   1.362  11.978  0.8330  0.8961 -0.2314
  453TMC3    O1 6756   3.061   1.184  11.660 -0.2420 -0.0274  0.3660
  453TMC3    O2 6757   2.779   1.392  12.099 -0.7923  0.5531 -0.1304
  454MPD2     C 6758   1.639   0.939  16.253 -0.1063  0.3756  0.3181
  454MPD2    C1 6759   1.592   0.966  16.128  0.9601  0.3064 -0.0724
  454MPD2    C2 6760   1.517   1.084  16.109  0.6046 -0.1720  0.7686
  454MPD2    C3 6761   1.487   1.167  16.216  0.3353 -0.2885 -0.0394
  454MPD2    C4 6762   1.538   1.131  16.341 -0.0236 -0.1721 -0.6278
  454MPD2    C5 6763   1.612   1.015  16.360  0.5163 -0.6777  0.4982
  454MPD2     H 6764   1.464   1.104  16.017  1.8851 -1.7857 -0.3093
  454MPD2    H1 6765   1.517   1.187  16.431 -0.0988 -2.3169  0.7061
  454MPD2    H2 6766   1.695   0.848  16.272  0.2616  0.4034 -0.6676
  454MPD2    H3 6767   1.651   0.992  16.459  0.2969  0.0307  0.7485
  454MPD2     N 6768   1.407   1.276  16.193  0.0450  0.5295 -0.1217
  454MPD2    H5 6769   1.406   1.303  16.095 -1.7726  3.8576  0.7956
  454MPD2    N1 6770   1.609   0.877  16.021 -0.1157  0.3042 -0.0076
  454MPD2    H7 6771   1.580   0.904  15.928  1.6252 -0.5756 -0.7929
  455TMC3    C1 6772   1.260   1.265  16.392 -0.5039  0.2846  0.4679
  455TMC3    C2 6773   1.254   1.325  16.514 -0.2369  0.0506  0.2582
  455TMC3    C3 6774   1.199   1.242  16.607 -0.1307 -0.6133  0.1194
  455TMC3    C4 6775   1.210   1.146  16.360 -0.7477  0.3289  0.2913
  455TMC3    C5 6776   1.165   1.066  16.458 -0.6650  0.1318 -0.5341
  455TMC3    C6 6777   1.154   1.119  16.582  0.3390  0.7810  0.1428
  455TMC3     C 6778   1.337   1.342  16.294  0.5570  1.1211 -0.1099
  455TMC3     O 6779   1.309   1.460  16.286 -0.1868  0.3631 -0.0638
  455TMC3     H 6780   1.303   1.418  16.540 -1.2791  1.1225 -1.6355
  455TMC3    H1 6781   1.217   1.100  16.262  1.2932  1.0013  0.1134
  455TMC3    H2 6782   1.104   1.063  16.661  0.2329  1.9693  0.9101
  455TMC3    C7 6783   1.148   0.920  16.442 -0.5225 -0.2299  0.4422
  455TMC3    C8 6784   1.211   1.281  16.743  0.6152  0.2424  0.0317
  455TMC3    O1 6785   1.209   0.885  16.342  0.2423  0.2469 -0.5104
  455TMC3    O2 6786   1.209   1.400  16.770 -0.3457 -0.1011 -0.3798
  456MPD2     C 6787   3.879   0.564  16.116 -0.7117  0.6179 -0.4498
  456MPD2    C1 6788   4.003   0.562  16.186  0.2682  0.2209 -1.0087
  456MPD2    C2 6789   4.024   0.667  16.272 -0.0383 -0.5203  0.0639
  456MPD2    C3 6790   3.918   0.757  16.312  0.5409  0.2192  0.7049
  456MPD2    C4 6791   3.788   0.722  16.265 -0.2534  0.2604  0.4593
  456MPD2    C5 6792   3.775   0.636  16.163  0.1971 -0.4248  0.0802
  456MPD2     H 6793   4.122   0.681  16.316 -0.4275  1.4846  0.2761
  456MPD2    H1 6794   3.695   0.767  16.300 -1.0644  0.3958 -1.8682
  456MPD2    H2 6795   3.871   0.479  16.050  0.9403  1.1672 -1.3566
  456MPD2    H3 6796   3.676   0.622  16.119  0.4344  1.6826 -1.1440
  456MPD2     N 6797   3.938   0.857  16.415 -0.2955 -0.3555  0.3185
  456MPD2    H5 6798   4.032   0.870  16.450  0.6615 -2.1693 -1.5601
  456MPD2    N1 6799   4.098   0.459  16.150 -0.3479  0.3930  0.1188
  456MPD2    H7 6800   4.077   0.390  16.079  0.3906  1.3542 -1.0333
  457TMC3    C1 6801   3.888   1.049  16.536 -0.3731  0.3180  0.2176
  457TMC3    C2 6802   3.829   1.172  16.535 -0.3030  0.1736  0.1709
  457TMC3    C3 6803   3.844   1.255  16.642 -0.1854  0.5822  0.2431
  457TMC3    C4 6804   3.958   1.006  16.648 -0.4594 -0.5408 -0.1562
  457TMC3    C5 6805   3.981   1.091  16.752  0.3202  0.0853  0.3737
  457TMC3    C6 6806   3.918   1.215  16.750  0.4910  0.2188  0.1423
  457TMC3     C 6807   3.841   0.953  16.439  0.2120 -0.4926  0.2127
  457TMC3     O 6808   3.730   0.969  16.396 -0.1913 -0.5291  0.9357
  457TMC3     H 6809   3.773   1.213  16.452 -1.1045  0.7678  1.0191
  457TMC3    H1 6810   3.984   0.901  16.655  1.4523 -0.0377  0.0959
  457TMC3    H2 6811   3.927   1.281  16.835 -1.2926  0.4458  0.1469
  457TMC3    C7 6812   4.057   1.046  16.860 -0.3577  0.3210 -0.1356
  457TMC3    C8 6813   3.788   1.390  16.647  0.4944 -0.2958 -0.4332
  457TMC3    O1 6814   4.040   1.105  16.968  0.1314  0.3836  0.2686
  457TMC3    O2 6815   3.780   1.453  16.753 -0.7968  0.0610  0.1068
  458MPD2     C 6816   2.085   0.122  12.141  1.0600  0.7470 -0.2402
  458MPD2    C1 6817   2.060   0.140  12.276  0.3009  0.9419 -0.2299
  458MPD2    C2 6818   1.998   0.036  12.343  0.7662  0.7773  0.5411
  458MPD2    C3 6819   1.975   4.640  12.278 -0.2925 -0.0897  0.1315
  458MPD2    C4 6820   2.010   4.628  12.144  0.0775  0.5854  0.1032
  458MPD2    C5 6821   2.058   0.006  12.079  0.3358 -0.7681 -0.3203
  458MPD2     H 6822   1.965   0.051  12.445 -0.8721  2.6187 -0.2685
  458MPD2    H1 6823   1.997   4.541  12.080  0.0869 -0.2222  1.1903
  458MPD2    H2 6824   2.139   0.195  12.081  0.2115  1.8741  0.3657
  458MPD2    H3 6825   2.093   4.722  11.977 -2.5953 -0.5934 -1.3501
  458MPD2     N 6826   1.913   4.540  12.361  0.2829  0.8690 -0.2106
  458MPD2    H5 6827   1.894   4.577  12.454  1.3798  1.8646 -0.3799
  458MPD2    N1 6828   2.097   0.266  12.337 -0.5717 -0.0329  0.2643
  458MPD2    H7 6829   2.164   0.329  12.294  0.2825 -0.6019  0.7678
  459TMC3    C1 6830   2.111   0.399  12.538  0.1612 -0.3470 -0.5091
  459TMC3    C2 6831   2.210   0.473  12.481 -0.5092  0.3373  0.3029
  459TMC3    C3 6832   2.294   0.534  12.571 -0.2164 -0.1382  0.1749
  459TMC3    C4 6833   2.102   0.384  12.675 -0.9764  0.4246  0.2170
  459TMC3    C5 6834   2.194   0.440  12.756  0.1819  0.3628 -0.9996
  459TMC3    C6 6835   2.296   0.514  12.708  0.3382  0.0135  0.1921
  459TMC3     C 6836   2.039   0.302  12.453 -0.2389 -0.4448 -0.3165
  459TMC3     O 6837   1.946   0.250  12.514  0.3321  0.2382 -0.2155
  459TMC3     H 6838   2.218   0.479  12.373  1.5053  1.3783  0.5119
  459TMC3    H1 6839   2.017   0.330  12.713 -0.4823 -0.9534 -0.6182
  459TMC3    H2 6840   2.367   0.559  12.778  0.2959 -1.2930  1.0744
  459TMC3    C7 6841   2.216   0.356  12.878  0.1491  0.5429 -0.3100
  459TMC3    C8 6842   2.400   0.607  12.501  0.1327 -0.2042 -0.5007
  459TMC3    O1 6843   2.210   0.233  12.865 -0.6317  0.0905  0.4388
  459TMC3    O2 6844   2.426   0.565  12.388 -0.1965  0.5533  0.7784
  460MPD2     C 6845   1.512   2.548  10.914  0.3624  0.0577  0.0838
  460MPD2    C1 6846   1.414   2.629  10.969 -0.0979 -0.6082  0.6277
  460MPD2    C2 6847   1.321   2.691  10.879 -0.0905  0.3000  0.3248
  460MPD2    C3 6848   1.332   2.664  10.739  0.1725  0.2613 -0.2358
  460MPD2    C4 6849   1.435   2.583  10.689  0.3109  0.0268  0.1186
  460MPD2    C5 6850   1.522   2.528  10.780 -0.1823  0.0727  0.4884
  460MPD2     H 6851   1.247   2.760  10.919  0.8825  1.7882 -0.4081
  460MPD2    H1 6852   1.457   2.557  10.586 -0.5284 -1.0008  0.1916
  460MPD2    H2 6853   1.586   2.496  10.974  0.0807 -0.6055 -0.1464
  460MPD2    H3 6854   1.591   2.458  10.734 -1.0203 -1.5660  1.7440
  460MPD2     N 6855   1.251   2.723  10.646 -0.2888  0.3693  0.7200
  460MPD2    H5 6856   1.221   2.819  10.660 -1.1410  0.1929  0.1468
  460MPD2    N1 6857   1.409   2.641  11.109  0.1098 -0.1301  0.4533
  460MPD2    H7 6858   1.479   2.592  11.164 -0.4833 -1.4006  0.0727
  461TMC3    C1 6859   1.192   2.762  10.417 -0.0077  0.5744  0.0935
  461TMC3    C2 6860   1.132   2.715  10.304 -0.1667  0.4919  0.1239
  461TMC3    C3 6861   1.083   2.813  10.218  0.3839  0.2615 -0.0576
  461TMC3    C4 6862   1.233   2.893  10.434 -0.7449  0.0677 -0.2859
  461TMC3    C5 6863   1.205   2.985  10.339 -0.5876  0.3353 -0.3327
  461TMC3    C6 6864   1.121   2.947  10.228 -0.0705 -0.7038 -0.1770
  461TMC3     C 6865   1.231   2.659  10.520 -0.4695  0.4491 -0.1581
  461TMC3     O 6866   1.237   2.540  10.487 -0.4961 -0.3723 -0.5342
  461TMC3     H 6867   1.074   2.624  10.300 -1.0137  1.1187 -2.1536
  461TMC3    H1 6868   1.287   2.920  10.523 -0.8156 -0.4962 -0.0735
  461TMC3    H2 6869   1.085   3.018  10.155 -2.3335 -1.0197  0.6570
  461TMC3    C7 6870   1.248   3.123  10.344  0.6227  0.0150  0.1296
  461TMC3    C8 6871   1.032   2.765  10.090  0.2228  0.6765 -0.2930
  461TMC3    O1 6872   1.204   3.202  10.262  0.8390 -0.3562  0.1156
  461TMC3    O2 6873   1.072   2.648  10.066  0.4654 -0.5361 -0.7363
  462TMC3    C1 6874   1.112   4.247   0.418 -0.6080  0.3690 -0.3648
  462TMC3    C2 6875   1.237   4.191   0.382 -0.5679 -0.6963 -0.2112
  462TMC3    C3 6876   1.239   4.054   0.398  0.2192 -0.3843  0.2744
  462TMC3    C4 6877   1.008   4.170   0.451 -0.2587  0.1803  0.2230
  462TMC3    C5 6878   1.025   4.036   0.488  0.1507  0.8309 -0.3914
  462TMC3    C6 6879   1.141   3.977   0.451 -0.7197  0.5363 -0.8486
  462TMC3     C 6880   1.105   4.398   0.427 -0.3526  0.7155 -0.4364
  462TMC3     O 6881   1.216   4.451   0.429  0.3764  0.6122  0.5186
  462TMC3     H 6882   1.322   4.245   0.341 -0.1654 -2.6820 -1.9381
  462TMC3    H1 6883   0.918   4.217   0.490  0.8311 -0.3359  3.3699
  462TMC3    H2 6884   1.174   3.885   0.498 -4.1268 -0.1098  0.2805
  462TMC3    C7 6885   0.913   3.952   0.496  0.1332  0.5671 -0.5438
  462TMC3    C8 6886   1.368   4.001   0.370  0.8214 -0.0839  0.3510
  462TMC3    O1 6887   0.939   3.840   0.533  0.1781 -0.3816  0.5173
  462TMC3    O2 6888   1.467   4.071   0.366  0.0479  0.3289 -0.1128
  463MPD2     C 6889   1.865   2.741   2.732 -0.8173 -0.3096  0.3548
  463MPD2    C1 6890   1.871   2.716   2.593 -0.0808 -0.0399  0.3533
  463MPD2    C2 6891   1.997   2.713   2.529  0.5514 -0.2429  0.3595
  463MPD2    C3 6892   2.121   2.730   2.594  0.8033  0.0837 -0.6265
  463MPD2    C4 6893   2.108   2.754   2.722  0.5744  0.0678  0.0291
  463MPD2    C5 6894   1.986   2.758   2.789  0.5481 -0.2852 -0.2335
  463MPD2     H 6895   1.991   2.691   2.423 -0.6816 -0.3069  0.4461
  463MPD2    H1 6896   2.193   2.775   2.786 -1.7377 -0.5009  3.2847
  463MPD2    H2 6897   1.777   2.752   2.794  0.2702 -0.3554  1.8962
  463MPD2    H3 6898   1.997   2.771   2.897  1.0646  1.5969 -0.5122
  463MPD2     N 6899   2.248   2.707   2.538  0.1897 -0.1551 -0.0333
  463MPD2    H5 6900   2.328   2.724   2.598  0.7966  0.8637 -1.1222
  463MPD2    N1 6901   1.759   2.690   2.519 -0.2725  0.1140 -0.1282
  463MPD2    H7 6902   1.774   2.685   2.419 -2.4763 -0.0544 -0.4547
  464TMC3    C1 6903   1.541   2.643   2.452  0.4872  0.4886 -0.4483
  464TMC3    C2 6904   1.537   2.724   2.339 -0.2073  0.2865  0.2834
  464TMC3    C3 6905   1.424   2.729   2.261  0.0004  0.4662  0.1492
  464TMC3    C4 6906   1.434   2.574   2.495 -0.1720  0.5773 -0.1171
  464TMC3    C5 6907   1.324   2.581   2.415  0.8774  0.8064 -0.9748
  464TMC3    C6 6908   1.313   2.658   2.305  0.0868 -0.2666  0.4706
  464TMC3     C 6909   1.631   2.665   2.558 -0.0038 -0.2575 -0.1314
  464TMC3     O 6910   1.587   2.648   2.667  0.7039  0.0874 -0.0170
  464TMC3     H 6911   1.623   2.784   2.312 -1.3101  0.9968 -1.6881
  464TMC3    H1 6912   1.424   2.508   2.580  1.5921  0.8068  0.2570
  464TMC3    H2 6913   1.226   2.642   2.242  1.3267  1.3365 -1.6868
  464TMC3    C7 6914   1.199   2.511   2.452 -0.9519  0.2451  0.3779
  464TMC3    C8 6915   1.437   2.800   2.138 -0.5065 -0.2338  0.1073
  464TMC3    O1 6916   1.183   2.474   2.568  0.3198  0.4330  0.2540
  464TMC3    O2 6917   1.551   2.824   2.099 -0.3417  0.0291 -0.5671
  465MPD2     C 6918   3.256   1.098  17.494  0.1226 -0.2800  0.3985
  465MPD2    C1 6919   3.128   1.109  17.539  0.3789 -0.1371  0.0577
  465MPD2    C2 6920   3.018   1.071  17.462  0.8940  0.8189  0.7437
  465MPD2    C3 6921   3.033   1.032  17.328 -0.6095 -0.7511  0.3720
  465MPD2    C4 6922   3.167   1.004  17.289 -0.3193  0.2227  0.1246
  465MPD2    C5 6923   3.268   1.044  17.365  0.0790  0.0192 -0.3548
  465MPD2     H 6924   2.922   1.083  17.511  0.9890  1.0254  0.8778
  465MPD2    H1 6925   3.188   0.981  17.185 -0.0914  2.9518 -0.4556
  465MPD2    H2 6926   3.341   1.125  17.556  0.3875 -0.1117 -0.0356
  465MPD2    H3 6927   3.366   1.029  17.321  0.1719 -0.3939 -0.0003
  465MPD2     N 6928   2.919   1.032  17.246 -0.1076 -0.1065  0.7756
  465MPD2    H5 6929   2.835   1.068  17.291  0.2398 -0.9437  2.0890
  465MPD2    N1 6930   3.100   1.173  17.665 -0.3549  0.2078 -0.0652
  465MPD2    H7 6931   3.012   1.155   0.007 -0.0393 -1.3644 -0.0653
  466TMC3    C1 6932   2.573   1.092  17.125  0.0071  0.0000  0.0557
  466TMC3    C2 6933   2.567   1.201  17.041  0.7869 -0.2941  0.9946
  466TMC3    C3 6934   2.684   1.228  16.973  0.1118 -0.2723 -0.4371
  466TMC3    C4 6935   2.685   1.013  17.135  0.3533 -0.5242 -0.0722
  466TMC3    C5 6936   2.790   1.040  17.057  0.0785  0.3319 -0.4721
  466TMC3    C6 6937   2.795   1.150  16.977  0.6770  0.0519 -0.4572
  466TMC3     C 6938   2.448   1.053  17.192  0.1603  0.4124  0.0270
  466TMC3     O 6939   2.358   1.125  17.220 -0.6098  0.0891  0.6666
  466TMC3     H 6940   2.487   1.272  17.028  0.7276 -0.5865 -0.2101
  466TMC3    H1 6941   2.700   0.937  17.211 -1.8601 -0.2991  0.5833
  466TMC3    H2 6942   2.890   1.194  16.950  0.1323  1.0196 -0.8094
  466TMC3    C7 6943   2.917   1.002  17.117  0.3713 -0.0966 -0.1946
  466TMC3    C8 6944   2.713   1.369  16.918  0.0173 -0.3360 -0.2078
  466TMC3    O1 6945   3.004   0.985  17.035  0.0363  0.0429 -1.0145
  466TMC3    O2 6946   2.804   1.391  16.841 -0.8148 -0.1897 -1.1077
  467TMC3    C1 6947   4.291   4.670  13.991 -0.4458 -0.4356  0.3032
  467TMC3    C2 6948   4.216   0.001  13.889 -0.5100 -0.3046 -0.3940
  467TMC3    C3 6949   4.108   4.660  13.852 -0.2317  0.3114  0.3873
  467TMC3    C4 6950   4.250   4.557  14.061 -0.2082 -0.1725  0.3211
  467TMC3    C5 6951   4.137   4.502  14.022 -0.0520  0.4474 -0.2675
  467TMC3    C6 6952   4.066   4.546  13.915 -0.7148  0.3059  0.3685
  467TMC3     C 6953   4.417   0.008  14.016 -0.5714  0.2512  0.1298
  467TMC3     O 6954   4.428   0.118  13.966  0.6173 -0.0170 -0.4125
  467TMC3     H 6955   4.238   0.092  13.836 -0.0142  1.7903  3.4169
  467TMC3    H1 6956   4.293   4.523  14.154 -1.1621  0.3239  0.9425
  467TMC3    H2 6957   3.993   4.486  13.861 -2.7856 -0.3329  3.9008
  467TMC3    C7 6958   4.090   4.388  14.098  0.5377 -0.8924  0.1365
  467TMC3    C8 6959   4.007   0.018  13.792 -0.2227 -0.2464  0.2261
  467TMC3    O1 6960   4.177   4.307  14.146 -0.1707 -0.1692 -0.4943
  467TMC3    O2 6961   4.027   0.138  13.776 -0.0349  0.1083  0.4639
  468MPD2     C 6962   2.736   2.011  10.805  0.2142 -0.1017  0.3889
  468MPD2    C1 6963   2.853   2.020  10.873  0.1207 -0.8705 -0.3065
  468MPD2    C2 6964   2.921   1.906  10.910  0.1555 -0.2224  0.4847
  468MPD2    C3 6965   2.865   1.776  10.895 -0.1761 -0.2405 -0.3298
  468MPD2    C4 6966   2.741   1.771  10.828  0.6742 -0.0079 -0.7699
  468MPD2    C5 6967   2.679   1.885  10.795  0.0657 -0.0481 -0.8200
  468MPD2     H 6968   3.018   1.918  10.956 -0.3494  2.5217  0.8860
  468MPD2    H1 6969   2.696   1.678  10.794  1.7945 -0.5313 -0.8285
  468MPD2    H2 6970   2.679   2.100  10.780 -2.1583 -1.1741  2.0741
  468MPD2    H3 6971   2.579   1.888  10.753  0.3629 -0.6670 -1.5758
  468MPD2     N 6972   2.928   1.665  10.946 -0.4734 -0.0230 -0.1994
  468MPD2    H5 6973   2.875   1.579  10.944 -0.7291  0.1752 -1.8849
  468MPD2    N1 6974   2.917   2.145  10.897 -0.3975 -0.1989 -0.6482
  468MPD2    H7 6975   3.016   2.141  10.918 -0.7240  0.5187  1.0099
  469TMC3    C1 6976   2.942   2.377  10.918  0.3098  0.9146 -0.2333
  469TMC3    C2 6977   3.074   2.368  10.883 -0.4332  0.1234  0.3155
  469TMC3    C3 6978   3.154   2.478  10.873  0.0487  0.1173 -0.7123
  469TMC3    C4 6979   2.894   2.502  10.958 -0.2297 -0.4450 -0.3421
  469TMC3    C5 6980   2.978   2.611  10.954 -0.4024  0.0569 -0.2630
  469TMC3    C6 6981   3.101   2.604  10.893 -0.1842  0.0775 -0.0898
  469TMC3     C 6982   2.852   2.264  10.908  0.4354 -0.5953 -0.1569
  469TMC3     O 6983   2.736   2.293  10.907 -0.2143 -0.1433 -0.2030
  469TMC3     H 6984   3.102   2.272  10.839  0.5863  0.7883 -0.5075
  469TMC3    H1 6985   2.791   2.506  10.990  0.2141  1.8886  0.8319
  469TMC3    H2 6986   3.167   2.690  10.887 -1.0275  0.9414  2.6505
  469TMC3    C7 6987   2.970   2.694  11.072 -1.0151 -0.3927  0.1066
  469TMC3    C8 6988   3.270   2.473  10.776  0.1512 -0.7979  0.2715
  469TMC3    O1 6989   2.867   2.688  11.134 -0.5524  0.6547 -0.6770
  469TMC3    O2 6990   3.257   2.541  10.677 -0.5540  0.8544  0.2863
  470TMC3    C1 6991   0.353   3.349   1.071 -0.8819 -0.4581  0.3028
  470TMC3    C2 6992   0.365   3.418   0.951 -0.0138  0.5033 -0.1146
  470TMC3    C3 6993   0.462   3.512   0.939 -0.1228 -0.8600 -0.1643
  470TMC3    C4 6994   0.449   3.367   1.168 -0.4925 -0.5734  0.5964
  470TMC3    C5 6995   0.538   3.460   1.150  0.3779 -0.5500 -0.1611
  470TMC3    C6 6996   0.549   3.531   1.040  0.5884 -0.9887 -0.2644
  470TMC3     C 6997   0.261   3.236   1.074  0.1113  0.1351 -0.0630
  470TMC3     O 6998   0.238   3.169   0.974  0.1243 -0.0215  0.2351
  470TMC3     H 6999   0.289   3.402   0.875  1.1221 -2.2152 -0.6735
  470TMC3    H1 7000   0.461   3.292   1.246 -1.0439  0.4677  1.6834
  470TMC3    H2 7001   0.629   3.602   1.026 -1.5830  1.4560 -0.3541
  470TMC3    C7 7002   0.651   3.472   1.243  0.1517 -0.1513 -0.2170
  470TMC3    C8 7003   0.439   3.608   0.836  0.2683 -0.7448 -0.3730
  470TMC3    O1 7004   0.751   3.523   1.191  0.0182  0.0746 -0.1672
  470TMC3    O2 7005   0.377   3.585   0.730  0.0259 -0.6142  0.4163
  471MPD2     C 7006   0.407   4.237  16.178 -0.0758 -0.3055  0.3156
  471MPD2    C1 7007   0.369   4.167  16.300 -0.1561 -0.2103 -0.9505
  471MPD2    C2 7008   0.446   4.179  16.414 -0.0292 -0.1839 -0.2796
  471MPD2    C3 7009   0.553   4.268  16.412 -0.0028  0.0526 -0.0721
  471MPD2    C4 7010   0.585   4.332  16.296 -0.2153  0.3290  0.7356
  471MPD2    C5 7011   0.502   4.332  16.189 -0.3201  0.8558 -0.0747
  471MPD2     H 7012   0.419   4.126  16.504  2.6967 -0.3090  0.4664
  471MPD2    H1 7013   0.671   4.400  16.292 -0.5299  0.7200  0.6010
  471MPD2    H2 7014   0.353   4.219  16.086  1.0361  1.1327 -0.6113
  471MPD2    H3 7015   0.527   4.392  16.102  1.4527  1.0474  0.5571
  471MPD2     N 7016   0.636   4.288  16.526 -0.9278  0.6949  0.4961
  471MPD2    H5 7017   0.702   4.364  16.534 -0.2594  0.0213  1.4850
  471MPD2    N1 7018   0.248   4.096  16.309 -0.4220 -0.2706  0.2254
  471MPD2    H7 7019   0.235   4.040  16.392 -1.0888  0.0826  0.3597
  472TMC3    C1 7020   0.037   4.018  16.258  0.4010  0.4507  0.3717
  472TMC3    C2 7021   4.644   4.084  16.235  0.0309  0.5163  0.2300
  472TMC3    C3 7022   4.551   4.097  16.332 -0.4535  0.9508  1.0011
  472TMC3    C4 7023   0.052   3.949  16.376 -0.2155  0.3542  0.2891
  472TMC3    C5 7024   4.675   3.950  16.466 -0.5500  0.2607 -0.7565
  472TMC3    C6 7025   4.564   4.025  16.450 -0.1696  0.8173  0.0706
  472TMC3     C 7026   0.149   4.103  16.216  0.4669 -0.0060 -0.0540
  472TMC3     O 7027   0.134   4.177  16.120 -0.2240 -0.4280  0.0510
  472TMC3     H 7028   4.642   4.140  16.142 -2.2677  0.1659  0.0746
  472TMC3    H1 7029   0.137   3.889  16.407  0.3283  0.8147 -0.2962
  472TMC3    H2 7030   4.487   4.026  16.527 -0.5786 -0.4989 -0.3277
  472TMC3    C7 7031   4.713   3.933  16.602  0.2968  0.3105  0.8037
  472TMC3    C8 7032   4.438   4.188  16.308  0.2360 -0.1669  0.7594
  472TMC3    O1 7033   0.030   3.830  16.643 -0.5415  0.0833 -0.4476
  472TMC3    O2 7034   4.425   4.223  16.193  0.2004  0.1486 -0.5203
  473MPD2     C 7035   0.767   2.021  14.138  0.4414  0.7971  0.0906
  473MPD2    C1 7036   0.776   2.116  14.032 -0.1476 -0.0402 -0.1354
  473MPD2    C2 7037   0.810   2.250  14.062 -0.0229 -0.1135  0.2436
  473MPD2    C3 7038   0.826   2.285  14.196 -0.1080 -0.3589  0.5079
  473MPD2    C4 7039   0.814   2.191  14.292 -0.4173  0.7417  0.4370
  473MPD2    C5 7040   0.775   2.059  14.269 -0.5402  0.1119  0.7200
  473MPD2     H 7041   0.816   2.314  13.975  3.1887  1.5467  1.7001
  473MPD2    H1 7042   0.824   2.228  14.394  2.5405 -1.3679  0.9180
  473MPD2    H2 7043   0.729   1.921  14.120  0.5394  0.8191 -0.2540
  473MPD2    H3 7044   0.752   1.989  14.348  1.6454  1.3583  2.4622
  473MPD2     N 7045   0.857   2.417  14.233 -0.2745  0.0374 -0.1734
  473MPD2    H5 7046   0.872   2.426  14.333  1.6260  1.4088 -0.5663
  473MPD2    N1 7047   0.754   2.079  13.899 -0.2217 -0.5570 -0.1824
  473MPD2    H7 7048   0.752   2.149  13.825  0.0011  0.3805  0.6886
  474TMC3    C1 7049   0.917   2.637  14.237 -0.3906  0.2976  0.1489
  474TMC3    C2 7050   1.047   2.678  14.227  0.7705  0.2528  0.0778
  474TMC3    C3 7051   1.123   2.696  14.341  0.7794 -0.1677 -0.1974
  474TMC3    C4 7052   0.872   2.616  14.365  0.3133  0.3059 -0.6181
  474TMC3    C5 7053   0.948   2.641  14.477  0.2925  0.1264  0.2119
  474TMC3    C6 7054   1.079   2.673  14.466  0.1327  0.0294  0.0254
  474TMC3     C 7055   0.888   2.521  14.153 -0.5493  0.2428  0.5462
  474TMC3     O 7056   0.922   2.522  14.033 -0.9776 -0.1772  0.1529
  474TMC3     H 7057   1.089   2.688  14.128  0.9402  1.2711  0.2534
  474TMC3    H1 7058   0.769   2.591  14.386  0.5020  0.6219  0.6870
  474TMC3    H2 7059   1.145   2.689  14.551  0.7628 -1.0812 -0.2523
  474TMC3    C7 7060   0.923   2.553  14.583  0.1884 -0.3713  0.3559
  474TMC3    C8 7061   1.270   2.736  14.333  0.6597  0.2706 -0.5281
  474TMC3    O1 7062   0.854   2.459  14.560 -0.7244  0.3241  0.9797
  474TMC3    O2 7063   1.348   2.704  14.421 -0.4902  0.3536 -0.6812
  475MPD2     C 7064   4.044   0.420  10.772 -0.1652 -0.6213  0.2526
  475MPD2    C1 7065   4.111   0.319  10.703 -0.3978  0.8134  0.5979
  475MPD2    C2 7066   4.041   0.216  10.647 -0.6006 -0.6204  0.0526
  475MPD2    C3 7067   3.909   0.195  10.681 -0.6739  0.6916  0.3584
  475MPD2    C4 7068   3.849   0.291  10.759 -0.1259  1.0013 -0.7947
  475MPD2    C5 7069   3.920   0.397  10.807 -0.1526 -0.5469  0.3705
  475MPD2     H 7070   4.093   0.149  10.580  0.8521 -0.7926  1.3512
  475MPD2    H1 7071   3.741   0.294  10.775 -0.3171  1.4194 -2.1913
  475MPD2    H2 7072   4.085   0.514  10.808 -1.1110 -0.1413  0.0624
  475MPD2    H3 7073   3.882   0.477  10.869 -0.2373 -1.7815  1.8962
  475MPD2     N 7074   3.834   0.091  10.616  0.8907 -0.3300  0.2115
  475MPD2    H5 7075   3.868   0.047  10.531  0.3634 -0.8557  0.2651
  475MPD2    N1 7076   4.251   0.341  10.676 -0.1953 -0.0510  0.5483
  475MPD2    H7 7077   4.279   0.435  10.702  0.7683 -0.2507  0.1984
  476TMC3    C1 7078   4.457   0.322  10.565  0.2293 -0.4725 -1.1389
  476TMC3    C2 7079   4.513   0.278  10.454  0.0685  0.5345  0.0648
  476TMC3    C3 7080   4.631   0.342  10.420  0.3144  0.3722 -0.4105
  476TMC3    C4 7081   4.506   0.425  10.639 -0.1853  0.0900 -0.3242
  476TMC3    C5 7082   4.610   0.502  10.589  0.5156  0.1589  0.1792
  476TMC3    C6 7083   4.668   0.458  10.477  0.3345 -0.0286  0.1729
  476TMC3     C 7084   4.330   0.260  10.602  0.6701  0.1924  0.0678
  476TMC3     O 7085   4.302   0.158  10.540 -0.2328  0.4003 -0.3991
  476TMC3     H 7086   4.482   0.188  10.403 -2.5636  1.5661 -0.1308
  476TMC3    H1 7087   4.454   0.447  10.732  2.2702  1.5341  0.7146
  476TMC3    H2 7088   0.035   0.501  10.442 -0.4290  0.6435 -1.0200
  476TMC3    C7 7089   4.688   0.573  10.681  0.4279 -0.1475  0.3630
  476TMC3    C8 7090   4.724   0.278  10.331 -0.3099  0.4170 -0.9729
  476TMC3    O1 7091   0.084   0.579  10.665  0.3114 -0.5129  0.6277
  476TMC3    O2 7092   0.085   0.353  10.283 -0.2712  0.3138 -0.3833
  477MPD2     C 7093   2.006   1.889  11.959  0.4817  0.3542  0.0593
  477MPD2    C1 7094   1.895   1.897  12.044 -0.8165  0.0163 -0.0479
  477MPD2    C2 7095   1.898   1.841  12.172 -0.2771 -0.2288 -0.0268
  477MPD2    C3 7096   2.011   1.771  12.212  0.2943 -0.2739  0.5276
  477MPD2    C4 7097   2.116   1.758  12.124  0.7094 -0.2949  0.1569
  477MPD2    C5 7098   2.116   1.813  12.001  0.2911 -0.5889  0.3261
  477MPD2     H 7099   1.820   1.849  12.247  0.6037  1.5780  0.6845
  477MPD2    H1 7100   2.209   1.706  12.142  0.2758 -1.7008 -1.5853
  477MPD2    H2 7101   2.013   1.948  11.869 -0.4014  1.5419  0.7669
  477MPD2    H3 7102   2.199   1.795  11.935  1.6295 -1.4495  2.2378
  477MPD2     N 7103   2.018   1.734  12.350 -0.6965 -0.2072 -0.2134
  477MPD2    H5 7104   1.945   1.766  12.414 -1.7092  0.8683 -1.9288
  477MPD2    N1 7105   1.783   1.965  11.987  0.5083  0.4344  0.5797
  477MPD2    H7 7106   1.789   1.990  11.889  1.3004  0.1687  0.5622
  478TMC3    C1 7107   1.569   2.076  11.965 -0.0256 -0.7213  0.2611
  478TMC3    C2 7108   1.474   2.153  12.033 -0.7106  0.3335 -0.0089
  478TMC3    C3 7109   1.392   2.238  11.964  0.0044 -0.0348 -0.0315
  478TMC3    C4 7110   1.567   2.074  11.829 -0.6865 -0.6781  0.0479
  478TMC3    C5 7111   1.485   2.162  11.764 -0.0545  0.4590  0.1117
  478TMC3    C6 7112   1.396   2.242  11.824 -1.5462 -0.2491 -0.6888
  478TMC3     C 7113   1.665   1.996  12.045 -0.4240 -0.0762  0.3409
  478TMC3     O 7114   1.634   1.977  12.161 -0.0049 -0.0831 -0.0203
  478TMC3     H 7115   1.480   2.153  12.141  1.6164 -0.7366 -0.1296
  478TMC3    H1 7116   1.636   2.012  11.774 -0.3937 -0.8212  0.5760
  478TMC3    H2 7117   1.353   2.322  11.765 -0.2787 -1.2357 -2.9186
  478TMC3    C7 7118   1.486   2.152  11.622  0.2900  0.1725 -0.4685
  478TMC3    C8 7119   1.310   2.319  12.044  0.0530  0.0186  0.3152
  478TMC3    O1 7120   1.587   2.096  11.576  0.4094 -0.0788  0.2328
  478TMC3    O2 7121   1.307   2.298  12.167 -0.0992 -0.7716 -0.5669
  479MPD2     C 7122   0.574   4.080  15.304  0.1022 -0.6584 -0.2795
  479MPD2    C1 7123   0.509   4.018  15.404  1.5063 -0.5251 -0.0621
  479MPD2    C2 7124   0.566   3.987  15.524  0.3355 -0.2170 -0.2280
  479MPD2    C3 7125   0.688   4.050  15.558  0.2888  0.5837  0.8921
  479MPD2    C4 7126   0.752   4.111  15.458 -0.0449  0.4321 -0.5164
  479MPD2    C5 7127   0.699   4.126  15.334  0.5703 -0.1611 -0.0223
  479MPD2     H 7128   0.515   3.929  15.600  0.5365  0.9878  0.8344
  479MPD2    H1 7129   0.845   4.166  15.472  1.0847 -1.7446  0.5155
  479MPD2    H2 7130   0.522   4.129  15.223 -2.8521 -2.0869  0.7637
  479MPD2    H3 7131   0.749   4.188  15.261  1.5988  0.0304  0.8387
  479MPD2     N 7132   0.738   4.055  15.686  0.7105 -0.0636 -0.2213
  479MPD2    H5 7133   0.837   4.075  15.700  0.2472  1.7451  0.5156
  479MPD2    N1 7134   0.374   3.984  15.379  0.4006 -0.2169  0.2513
  479MPD2    H7 7135   0.331   4.002  15.289  2.1155  0.0542 -0.4957
  480TMC3    C1 7136   0.311   4.000  15.868  0.0280 -0.4643  0.0526
  480TMC3    C2 7137   0.262   4.120  15.820  0.2067 -0.4222 -0.5097
  480TMC3    C3 7138   0.353   4.203  15.757  0.3860  0.1499  0.0530
  480TMC3    C4 7139   0.447   3.977  15.873  0.0172 -0.4929  0.0049
  480TMC3    C5 7140   0.530   4.058  15.803  0.2563  0.0660 -0.2696
  480TMC3    C6 7141   0.487   4.185  15.754  0.1622  0.4328 -0.2768
  480TMC3     C 7142   0.229   3.900  15.924  0.0345 -0.3481 -0.4755
  480TMC3     O 7143   0.280   3.813  15.992  0.2181 -0.2660  0.1215
  480TMC3     H 7144   0.162   4.160  15.827 -0.7452 -2.2539 -3.8310
  480TMC3    H1 7145   0.480   3.877  15.894  0.2859 -0.1924  0.9945
  480TMC3    H2 7146   0.557   4.256  15.711 -0.2858  2.1485  1.8621
  480TMC3    C7 7147   0.667   4.014  15.798 -0.1909 -0.4495  0.1909
  480TMC3    C8 7148   0.298   4.251  15.635  0.2581 -0.4432 -0.5842
  480TMC3    O1 7149   0.713   3.956  15.894  0.0919  0.1655  0.1880
  480TMC3    O2 7150   0.179   4.221  15.621  0.7184  0.6950 -0.1152
  481MPD2     C 7151   2.222   3.493  14.171  0.2804  0.5356 -0.2338
  481MPD2    C1 7152   2.086   3.528  14.155  0.1746  0.2245 -0.2230
  481MPD2    C2 7153   2.004   3.515  14.268 -0.1208 -0.2759 -0.3567
  481MPD2    C3 7154   2.051   3.474  14.391 -0.0213 -0.0995 -0.0281
  481MPD2    C4 7155   2.181   3.445  14.401 -0.0513 -0.1114 -0.0748
  481MPD2    C5 7156   2.271   3.448  14.297  0.2120 -0.0783 -0.6002
  481MPD2     H 7157   1.899   3.540  14.261 -0.2523 -1.2871 -1.9918
  481MPD2    H1 7158   2.228   3.413  14.493 -1.3379 -2.0986 -0.1140
  481MPD2    H2 7159   2.300   3.499  14.096  0.0650 -0.2413 -0.5157
  481MPD2    H3 7160   2.372   3.413  14.311  0.8110  1.6787 -0.5253
  481MPD2     N 7161   1.973   3.468  14.502  0.0164  0.0095  0.1925
  481MPD2    H5 7162   2.032   3.454  14.584  2.4869  0.1544 -1.5427
  481MPD2    N1 7163   2.031   3.568  14.032  0.3299  0.9047 -0.3007
  481MPD2    H7 7164   1.931   3.582  14.030  0.2470  0.6349  2.0200
  482TMC3    C1 7165   2.007   3.626  13.813 -0.8552  0.4161 -0.5724
  482TMC3    C2 7166   1.878   3.580  13.824 -0.8384  0.6816 -0.1333
  482TMC3    C3 7167   1.775   3.645  13.763 -0.3378 -0.2978 -0.2801
  482TMC3    C4 7168   2.038   3.737  13.737 -0.2567 -0.2151  0.6085
  482TMC3    C5 7169   1.927   3.806  13.694  0.7162  0.4006 -0.3857
  482TMC3    C6 7170   1.796   3.760  13.702 -0.1790 -0.0997 -0.2574
  482TMC3     C 7171   2.098   3.591  13.915  0.6486  0.0003  0.8523
  482TMC3     O 7172   2.218   3.599  13.904 -0.3108 -0.2768 -0.0792
  482TMC3     H 7173   1.872   3.475  13.850  2.5752  0.4545 -0.2590
  482TMC3    H1 7174   2.141   3.766  13.718  0.4319 -1.0807  3.0358
  482TMC3    H2 7175   1.711   3.812  13.661  0.0305  1.9414  1.8753
  482TMC3    C7 7176   1.966   3.902  13.593  0.2187 -0.6198 -0.4901
  482TMC3    C8 7177   1.638   3.594  13.751  0.2832 -0.1203  0.2980
  482TMC3    O1 7178   2.044   3.992  13.624  0.0854  0.1473 -0.1682
  482TMC3    O2 7179   1.542   3.666  13.730 -0.4171 -0.1048 -0.4012
  483TMC3    C1 7180   0.366   3.101   1.706  0.2833  0.0968  0.2586
  483TMC3    C2 7181   0.379   3.084   1.571 -0.2700 -0.3942 -0.1013
  483TMC3    C3 7182   0.500   3.047   1.523  0.4623 -0.2163  0.1262
  483TMC3    C4 7183   0.473   3.103   1.791 -0.6855  0.4467  0.6884
  483TMC3    C5 7184   0.586   3.061   1.736 -0.8470 -0.1475  0.8564
  483TMC3    C6 7185   0.604   3.030   1.603 -0.4941  0.8101 -0.0308
  483TMC3     C 7186   0.248   3.043   1.768  0.4345  0.2100  0.3470
  483TMC3     O 7187   0.222   3.077   1.885  0.4681 -0.1478 -0.1992
  483TMC3     H 7188   0.298   3.086   1.498 -1.6545  3.6060  1.5378
  483TMC3    H1 7189   0.467   3.132   1.895  1.5968  0.5058  0.8200
  483TMC3    H2 7190   0.703   2.997   1.574 -1.4463 -1.9572 -0.1898
  483TMC3    C7 7191   0.703   3.031   1.813 -0.1815 -0.0916  0.3184
  483TMC3    C8 7192   0.526   3.040   1.377 -0.1616 -0.0154 -0.4780
  483TMC3    O1 7193   0.809   3.083   1.776 -0.1512 -0.3213  0.3798
  483TMC3    O2 7194   0.437   3.042   1.292  0.0244 -0.4375 -0.1999
  484MPD2     C 7195   2.595   0.901  12.620  0.5399  0.4068  0.1351
  484MPD2    C1 7196   2.568   0.798  12.539 -0.4248 -0.1859  1.2796
  484MPD2    C2 7197   2.652   0.766  12.441  0.0553 -0.5098  0.2371
  484MPD2    C3 7198   2.765   0.850  12.423 -0.4261 -1.1305 -0.5967
  484MPD2    C4 7199   2.778   0.969  12.495 -0.5032 -0.1722  0.7903
  484MPD2    C5 7200   2.694   0.994  12.594 -0.3423 -0.0092  0.0796
  484MPD2     H 7201   2.637   0.678  12.378 -1.6585  1.1458 -1.6898
  484MPD2    H1 7202   2.860   1.036  12.471 -0.7493 -0.5836 -1.2104
  484MPD2    H2 7203   2.538   0.923  12.709  0.9659 -2.4387  1.1038
  484MPD2    H3 7204   2.714   1.080  12.658 -0.3869 -0.3072  0.4901
  484MPD2     N 7205   2.849   0.829  12.309 -0.6749  0.6505  0.2725
  484MPD2    H5 7206   2.912   0.907  12.292  0.3118 -0.0483  0.7102
  484MPD2    N1 7207   2.454   0.713  12.573  0.3862 -0.2236  0.3720
  484MPD2    H7 7208   2.424   0.738  12.667  0.7222 -0.7361  0.6153
  485TMC3    C1 7209   2.941   0.764  12.112 -0.2179  0.4764 -1.0149
  485TMC3    C2 7210   3.042   0.843  12.146  1.1722  0.3943 -0.1820
  485TMC3    C3 7211   3.102   0.916  12.050 -0.3480  0.1623  0.5836
  485TMC3    C4 7212   2.889   0.754  11.981  0.3128  0.4761 -0.2420
  485TMC3    C5 7213   2.951   0.832  11.892 -1.0618 -0.1456 -0.6578
  485TMC3    C6 7214   3.053   0.922  11.926  0.1906  0.5526  0.0171
  485TMC3     C 7215   2.844   0.724  12.218 -0.2483 -0.1376 -0.1204
  485TMC3     O 7216   2.763   0.637  12.193  0.3010 -0.0593  0.3760
  485TMC3     H 7217   3.078   0.838  12.248 -3.0004 -2.7205  1.1277
  485TMC3    H1 7218   2.823   0.671  11.960  0.9031  0.1603 -0.8229
  485TMC3    H2 7219   3.082   0.988  11.845 -0.7832  1.9528  0.8106
  485TMC3    C7 7220   2.970   0.765  11.768  0.2402 -0.2390 -0.3096
  485TMC3    C8 7221   3.246   0.899  12.037 -0.9809  0.7470  0.1371
  485TMC3    O1 7222   2.904   0.667  11.736  0.5476  0.3667  0.2392
  485TMC3    O2 7223   3.293   0.905  11.924  0.3135 -0.1698  0.1890
  486MPD2     C 7224   0.289   4.426  13.217 -0.2839  1.0018 -0.4603
  486MPD2    C1 7225   0.217   4.407  13.098  0.1612  0.2924  1.0696
  486MPD2    C2 7226   0.131   4.512  13.059 -0.2140 -0.2968  0.2764
  486MPD2    C3 7227   0.110   4.625  13.132 -0.6295 -0.0657  0.2127
  486MPD2    C4 7228   0.164   4.637  13.256 -0.1143 -0.0071 -0.1050
  486MPD2    C5 7229   0.257   4.540  13.290  0.1425  0.2235  0.3926
  486MPD2     H 7230   0.078   4.512  12.964 -0.9354 -0.7979  0.6770
  486MPD2    H1 7231   0.173   0.004  13.310 -1.4258  0.3437 -0.5086
  486MPD2    H2 7232   0.354   4.349  13.256  0.8269  1.0712 -2.1723
  486MPD2    H3 7233   0.296   4.565  13.388  0.6684  1.5009 -0.1434
  486MPD2     N 7234   0.015   4.718  13.080  0.4285  0.1982  0.0758
  486MPD2    H5 7235   4.721   4.702  12.982  0.4711 -3.3990  0.6537
  486MPD2    N1 7236   0.234   4.289  13.023  0.1580 -0.2145 -0.1709
  486MPD2    H7 7237   0.308   4.226  13.054  1.2903  0.6370 -1.1547
  487TMC3    C1 7238   0.209   4.131  12.852  0.5899  1.0392 -0.2743
  487TMC3    C2 7239   0.104   4.051  12.820 -0.2013  0.1866  0.3768
  487TMC3    C3 7240   0.117   3.915  12.833 -0.1906  0.1891  1.1213
  487TMC3    C4 7241   0.327   4.082  12.900  0.3344  0.7355 -0.0376
  487TMC3    C5 7242   0.335   3.947  12.903  0.1501  0.8347 -0.8546
  487TMC3    C6 7243   0.237   3.859  12.864 -1.6952  0.4262 -0.0709
  487TMC3     C 7244   0.171   4.261  12.904 -0.2062 -0.4470 -0.7278
  487TMC3     O 7245   0.073   4.311  12.851 -0.4654  0.0502  0.2712
  487TMC3     H 7246   0.010   4.095  12.793  0.3370  0.4526 -1.0542
  487TMC3    H1 7247   0.414   4.142  12.926  0.4689  0.1236  0.9371
  487TMC3    H2 7248   0.246   3.756  12.896  0.0361  0.8589  0.8532
  487TMC3    C7 7249   0.452   3.890  12.970 -0.1971  0.3476  0.1960
  487TMC3    C8 7250   0.011   3.858  12.913 -0.0885 -0.8742 -0.2127
  487TMC3    O1 7251   0.506   3.966  13.052 -0.0855  0.3559 -0.6681
  487TMC3    O2 7252   4.671   3.943  12.972 -0.1738 -0.1741 -0.5020
  488MPD2     C 7253   0.083   0.761  16.546 -0.2779  0.1761 -0.3996
  488MPD2    C1 7254   0.166   0.819  16.640 -0.9652  0.3901 -0.1521
  488MPD2    C2 7255   0.160   0.783  16.774  0.0264 -0.2793 -0.1203
  488MPD2    C3 7256   0.071   0.689  16.818  0.2163  0.5438  0.5063
  488MPD2    C4 7257   4.715   0.623  16.728  0.5746 -0.3526 -0.4219
  488MPD2    C5 7258   4.722   0.669  16.595  0.9971 -0.1697  0.0478
  488MPD2     H 7259   0.230   0.829  16.842 -0.9737  0.9573  0.0780
  488MPD2    H1 7260   4.649   0.544  16.762  0.3619 -1.1421 -2.6819
  488MPD2    H2 7261   0.087   0.788  16.440 -0.4621 -2.0732 -0.9680
  488MPD2    H3 7262   4.665   0.616  16.519  0.4462 -0.0868  0.4021
  488MPD2     N 7263   0.067   0.665  16.960  0.1997  0.6145 -0.0333
  488MPD2    H5 7264   0.109   0.734  17.022  0.7323 -1.3423  1.8030
  488MPD2    N1 7265   0.248   0.934  16.611  0.1566 -0.5627 -0.4788
  488MPD2    H7 7266   0.293   0.967  16.696 -1.5794 -0.8616  0.5554
  489TMC3    C1 7267   0.011   0.571  17.173 -0.1832  0.4079 -0.0640
  489TMC3    C2 7268   0.124   0.636  17.216 -0.3704  0.1487 -0.0414
  489TMC3    C3 7269   0.131   0.657  17.353  0.1654  0.6624  0.3285
  489TMC3    C4 7270   4.653   0.508  17.260  0.7484  0.0839 -0.6098
  489TMC3    C5 7271   4.671   0.521  17.397  1.0967  0.3640 -0.3774
  489TMC3    C6 7272   0.040   0.608  17.449 -0.1464 -0.4635 -0.1976
  489TMC3     C 7273   4.725   0.563  17.027 -0.0060 -0.1037  0.3709
  489TMC3     O 7274   4.639   0.482  16.982  0.7651 -0.1089 -0.3066
  489TMC3     H 7275   0.200   0.681  17.153 -0.5021  0.0959 -0.2356
  489TMC3    H1 7276   4.580   0.443  17.215  0.2622  0.1419  0.0937
  489TMC3    H2 7277   0.060   0.612  17.555 -0.4088 -0.2632 -0.1555
  489TMC3    C7 7278   4.580   0.474  17.493 -0.4021  0.4144 -0.6692
  489TMC3    C8 7279   0.193   0.786  17.385 -1.1080 -0.7073  0.1707
  489TMC3    O1 7280   4.610   0.481  17.609  0.5428 -0.1360 -0.3527
  489TMC3    O2 7281   0.284   0.822  17.311 -0.5618 -0.5344  0.2053
  490MPD2     C 7282   0.536   0.947   0.384  0.3111  0.9601  0.4459
  490MPD2    C1 7283   0.629   0.919   0.288  0.2823 -0.4715  0.3981
  490MPD2    C2 7284   0.746   0.984   0.274  0.6217 -0.3191 -0.2768
  490MPD2    C3 7285   0.769   1.088   0.355  0.3023  0.3424  0.8358
  490MPD2    C4 7286   0.678   1.114   0.458  0.2448  0.2230  0.0780
  490MPD2    C5 7287   0.560   1.049   0.467  0.3818  0.3679  0.0460
  490MPD2     H 7288   0.819   0.946   0.203 -0.2076  0.4990 -1.5568
  490MPD2    H1 7289   0.688   1.185   0.538  4.4776  0.8811 -1.0083
  490MPD2    H2 7290   0.444   0.890   0.394 -0.4621  2.1873  0.3748
  490MPD2    H3 7291   0.491   1.077   0.545  1.0579  1.5405  0.2140
  490MPD2     N 7292   0.886   1.158   0.328  0.5456 -0.1152  0.3371
  490MPD2    H5 7293   0.950   1.119   0.259 -0.3259  0.3555 -0.7539
  490MPD2    N1 7294   0.602   0.808   0.198  0.5686  0.2545  0.0212
  490MPD2    H7 7295   0.519   0.753   0.217  1.6364 -0.7961  1.7200
  491TMC3    C1 7296   0.626   0.656   0.025 -0.4767 -0.2458  0.3540
  491TMC3    C2 7297   0.572   0.566   0.109  0.3212 -0.9838 -0.1469
  491TMC3    C3 7298   0.521   0.452   0.047  0.2089 -0.9903 -0.1875
  491TMC3    C4 7299   0.638   0.645  17.595  0.0229  0.8060 -0.5944
  491TMC3    C5 7300   0.569   0.538  17.541  0.4278 -0.2885  0.0659
  491TMC3    C6 7301   0.514   0.435  17.616  0.7205 -0.3835  1.4238
  491TMC3     C 7302   0.668   0.781   0.082 -0.4767 -0.2228 -0.2223
  491TMC3     O 7303   0.740   0.855   0.011 -0.9079 -0.1633 -0.0518
  491TMC3     H 7304   0.576   0.577   0.217  0.3120 -1.6466 -0.0842
  491TMC3    H1 7305   0.678   0.727  17.537  0.1457  1.8567  0.9933
  491TMC3    H2 7306   0.475   0.344  17.571  0.0505  0.4985  0.2010
  491TMC3    C7 7307   0.543   0.547  17.397 -0.3064  0.8731 -0.3774
  491TMC3    C8 7308   0.510   0.341   0.141 -0.4045  1.0841  0.0416
  491TMC3    O1 7309   0.618   0.625  17.336  0.8068 -0.0531  0.5480
  491TMC3    O2 7310   0.521   0.365   0.260  0.4169 -0.3189 -0.1083
  492MPD2     C 7311   1.607   0.729  11.939 -0.6981  0.3095 -0.8524
  492MPD2    C1 7312   1.529   0.651  11.856 -0.0148  0.5540 -0.2872
  492MPD2    C2 7313   1.454   0.543  11.909 -0.6380  0.6405  0.4077
  492MPD2    C3 7314   1.465   0.515  12.048 -0.6074 -0.0035 -0.4552
  492MPD2    C4 7315   1.564   0.575  12.121 -1.1226  0.3985  0.2264
  492MPD2    C5 7316   1.634   0.680  12.064  0.8493 -0.3729 -0.5112
  492MPD2     H 7317   1.379   0.488  11.854 -0.3041 -0.4853  1.0921
  492MPD2    H1 7318   1.584   0.550  12.225 -2.0822 -0.5916  0.1663
  492MPD2    H2 7319   1.666   0.812  11.902 -2.1983  1.3059 -1.0098
  492MPD2    H3 7320   1.713   0.728  12.120 -0.2675  0.3940  0.4082
  492MPD2     N 7321   1.383   0.423  12.120 -0.4373  0.0101  0.2873
  492MPD2    H5 7322   1.395   0.408  12.220 -0.8627  2.3068  0.6758
  492MPD2    N1 7323   1.523   0.687  11.716 -0.3981 -0.0282  0.3763
  492MPD2    H7 7324   1.574   0.772  11.694 -1.8219  0.7798  0.2153
  493TMC3    C1 7325   1.475   0.683  11.491 -0.2350 -0.4925 -0.0841
  493TMC3    C2 7326   1.552   0.794  11.471 -0.1983  0.5618 -0.0717
  493TMC3    C3 7327   1.544   0.852  11.343 -0.3853  0.2574 -0.9132
  493TMC3    C4 7328   1.398   0.623  11.392  0.2607 -0.0079  0.2418
  493TMC3    C5 7329   1.402   0.678  11.263  0.4132 -0.2515 -0.6905
  493TMC3    C6 7330   1.480   0.790  11.236  0.1897  0.2210  0.7815
  493TMC3     C 7331   1.467   0.613  11.616  0.1944  0.0832 -0.4273
  493TMC3     O 7332   1.406   0.509  11.631  0.4321  0.3360 -0.0689
  493TMC3     H 7333   1.616   0.836  11.547  0.6020  2.1372 -1.6125
  493TMC3    H1 7334   1.337   0.540  11.425  0.5376 -0.9377 -1.6019
  493TMC3    H2 7335   1.492   0.823  11.133  1.8043 -0.1593  0.8435
  493TMC3    C7 7336   1.329   0.611  11.160 -0.2050 -0.6943  0.3083
  493TMC3    C8 7337   1.583   0.991  11.325  0.0206  0.2758 -0.1319
  493TMC3    O1 7338   1.303   0.666  11.054  0.6939 -0.2988 -0.3594
  493TMC3    O2 7339   1.608   1.030  11.210 -0.0947 -0.0325 -0.2936
  494TMC3    C1 7340   1.691   2.615   1.135 -0.0170  0.1881  0.1906
  494TMC3    C2 7341   1.716   2.516   1.227  0.2002  0.4168  0.4178
  494TMC3    C3 7342   1.673   2.397   1.195  0.6253  0.0234 -0.7979
  494TMC3    C4 7343   1.642   2.589   1.011 -0.2397 -0.1073  0.5748
  494TMC3    C5 7344   1.605   2.458   0.984 -0.0090  0.4262  0.3645
  494TMC3    C6 7345   1.611   2.357   1.079  0.3264  0.5704  0.4711
  494TMC3     C 7346   1.697   2.751   1.182 -0.3349  0.3143  0.8862
  494TMC3     O 7347   1.691   2.771   1.301 -0.2698 -0.2033  0.0960
  494TMC3     H 7348   1.764   2.529   1.324  0.1319 -0.3544  0.5491
  494TMC3    H1 7349   1.619   2.663   0.935  1.8857 -1.1009 -1.0142
  494TMC3    H2 7350   1.611   2.250   1.061 -0.1065  1.0881 -2.6186
  494TMC3    C7 7351   1.550   2.434   0.854  0.6991  0.2417 -0.9904
  494TMC3    C8 7352   1.675   2.295   1.306  0.2313  0.3061  0.1525
  494TMC3    O1 7353   1.557   2.523   0.774 -0.1597 -0.0190 -0.5864
  494TMC3    O2 7354   1.788   2.273   1.355 -0.3838  0.3371  0.0068
  495TMC3    C1 7355   0.780   4.314  14.898  0.0935  0.6264  0.2207
  495TMC3    C2 7356   0.713   4.365  14.789 -0.6359  0.0559 -0.5058
  495TMC3    C3 7357   0.655   4.489  14.801 -0.6108 -0.2056  0.6748
  495TMC3    C4 7358   0.806   4.388  15.017  0.0562 -0.5077  0.7306
  495TMC3    C5 7359   0.734   4.501  15.025  0.4567  0.4520  0.2600
  495TMC3    C6 7360   0.658   4.554  14.921 -1.0548 -0.1135 -0.5484
  495TMC3     C 7361   0.752   4.170  14.926 -0.1339  0.1787 -0.4866
  495TMC3     O 7362   0.785   4.119  15.036 -0.3349  0.2956  0.4900
  495TMC3     H 7363   0.686   4.308  14.701  1.3757 -0.5416 -0.7194
  495TMC3    H1 7364   0.835   4.334  15.107  2.1518  0.9557  0.9296
  495TMC3    H2 7365   0.614   4.652  14.935 -0.2579  0.0031  1.1121
  495TMC3    C7 7366   0.654   4.498  15.145  0.0326 -0.0923  0.6502
  495TMC3    C8 7367   0.530   4.500  14.734 -0.0152 -0.0603  0.5875
  495TMC3    O1 7368   0.715   4.468  15.245 -0.2055 -0.9771  0.0589
  495TMC3    O2 7369   0.477   4.391  14.710  0.0747 -0.0322  0.3817
  496MPD2     C 7370   2.512   4.525  15.794  0.4881 -0.4594  0.5651
  496MPD2    C1 7371   2.424   4.480  15.696  0.6142 -0.2548 -0.0634
  496MPD2    C2 7372   2.288   4.469  15.731  0.5338 -0.2408  0.4220
  496MPD2    C3 7373   2.246   4.490  15.858 -0.0639  0.7766 -0.1399
  496MPD2    C4 7374   2.338   4.519  15.954 -0.8734 -0.4208  0.3053
  496MPD2    C5 7375   2.469   4.530  15.922 -0.3638  0.2061 -0.7608
  496MPD2     H 7376   2.218   4.431  15.658  0.5226 -0.6016  0.6190
  496MPD2    H1 7377   2.310   4.537  16.057 -0.6759  0.1778  0.2548
  496MPD2    H2 7378   2.618   4.539  15.777  0.4947 -0.6978  0.4093
  496MPD2    H3 7379   2.541   4.554  16.000 -0.8709 -2.0832  0.4175
  496MPD2     N 7380   2.112   4.481  15.903 -0.1785 -0.0998 -0.2661
  496MPD2    H5 7381   2.101   4.480  16.004  0.4280  0.8385 -0.1991
  496MPD2    N1 7382   2.475   4.459  15.562 -0.0065  0.3566 -0.3639
  496MPD2    H7 7383   2.573   4.434  15.554  0.8309  3.2329  0.8484
  497TMC3    C1 7384   1.880   4.403  15.886  0.3037  0.0638 -0.2722
  497TMC3    C2 7385   1.805   4.346  15.780 -0.1700  0.4802 -0.0402
  497TMC3    C3 7386   1.747   4.228  15.799  1.1303  0.7956  0.1786
  497TMC3    C4 7387   1.893   4.334  16.004 -0.5271  0.3432 -0.0024
  497TMC3    C5 7388   1.819   4.221  16.013  0.3509  0.1916  0.5202
  497TMC3    C6 7389   1.752   4.154  15.916 -0.2112  0.5167 -0.0774
  497TMC3     C 7390   2.009   4.437  15.823  0.8783 -0.5042 -0.0559
  497TMC3     O 7391   2.006   4.419  15.701  0.5979 -0.9292 -0.4930
  497TMC3     H 7392   1.788   4.398  15.686 -1.0954  0.7610  0.2814
  497TMC3    H1 7393   1.946   4.365  16.093  0.6208 -0.5502 -0.3734
  497TMC3    H2 7394   1.696   4.062  15.933  1.4582 -0.6915 -1.0702
  497TMC3    C7 7395   1.788   4.173  16.142  1.0969 -0.8834  0.0123
  497TMC3    C8 7396   1.739   4.146  15.674  0.5419 -0.0128  0.2828
  497TMC3    O1 7397   1.681   4.111  16.157  0.1841  0.0076  0.3906
  497TMC3    O2 7398   1.643   4.067  15.662  0.1088 -0.2087 -0.0384
  498MPD2     C 7399   3.846   4.366  10.340 -0.2479 -0.2816 -0.0001
  498MPD2    C1 7400   3.796   4.331  10.216  0.8482 -0.2508 -0.1954
  498MPD2    C2 7401   3.686   4.242  10.207  0.1229 -0.0745 -0.0456
  498MPD2    C3 7402   3.623   4.201  10.323  0.1788 -0.0775 -0.6395
  498MPD2    C4 7403   3.669   4.240  10.448 -0.7356  0.4424 -0.3200
  498MPD2    C5 7404   3.779   4.319  10.451  0.2479 -0.1427  0.2839
  498MPD2     H 7405   3.650   4.198  10.115  1.2326 -3.4479  1.1186
  498MPD2    H1 7406   3.634   4.217  10.548  0.7213 -3.4659 -0.7132
  498MPD2    H2 7407   3.928   4.433  10.364  2.2577 -1.5914 -5.0542
  498MPD2    H3 7408   3.811   4.349  10.550  1.1769  0.3556 -0.1663
  498MPD2     N 7409   3.501   4.132  10.322 -0.1867  0.9249  0.1370
  498MPD2    H5 7410   3.476   4.090  10.233 -2.0209  1.3008  0.4689
  498MPD2    N1 7411   3.859   4.376  10.099  0.0407 -0.6637 -0.2349
  498MPD2    H7 7412   3.822   4.342  10.011  0.1388  1.5293 -1.1300
  499TMC3    C1 7413   4.016   4.490   9.951  0.3367 -0.2442  0.5517
  499TMC3    C2 7414   3.984   4.404   9.848 -0.2406 -0.4250  0.0040
  499TMC3    C3 7415   4.004   4.452   9.719  0.6875  1.0421  0.3546
  499TMC3    C4 7416   4.083   4.608   9.928 -0.3005  0.1700 -0.6134
  499TMC3    C5 7417   4.097   4.646   9.799  0.4808  0.0567 -0.1917
  499TMC3    C6 7418   4.056   4.573   9.692  0.3112  0.5144  0.3874
  499TMC3     C 7419   3.960   4.476  10.088  0.4128  0.6340  0.6359
  499TMC3     O 7420   3.995   4.560  10.176 -0.1910 -0.3701  0.1977
  499TMC3     H 7421   3.941   4.307   9.867  2.6715 -1.7308 -0.1273
  499TMC3    H1 7422   4.114   4.667  10.014  0.1374 -1.3310  0.2565
  499TMC3    H2 7423   4.067   4.607   9.590  0.2991 -0.6727 -0.0082
  499TMC3    C7 7424   4.162   0.041   9.768 -0.2005  0.4299 -0.4828
  499TMC3    C8 7425   3.959   4.375   9.598  0.2679  0.1273  0.0829
  499TMC3    O1 7426   4.241   0.045   9.674 -0.1421  0.4382 -0.3024
  499TMC3    O2 7427   3.919   4.436   9.500 -0.3391 -0.3098 -0.5073
  500MPD2     C 7428   0.656   1.563  10.971  0.2126  0.8103  0.2699
  500MPD2    C1 7429   0.694   1.615  10.847 -0.5534  0.2657 -0.2189
  500MPD2    C2 7430   0.603   1.636  10.745  0.2326  0.4368  0.6862
  500MPD2    C3 7431   0.475   1.596  10.761 -0.2279  0.3589 -0.9110
  500MPD2    C4 7432   0.428   1.562  10.892  0.4812  0.3921 -0.3170
  500MPD2    C5 7433   0.520   1.551  10.992  0.2623 -0.4484  0.0986
  500MPD2     H 7434   0.644   1.670  10.651 -0.3751 -0.5589  0.0505
  500MPD2    H1 7435   0.327   1.532  10.916  1.8341 -0.8462  3.9175
  500MPD2    H2 7436   0.724   1.552  11.055  0.3850 -2.2227 -0.2521
  500MPD2    H3 7437   0.484   1.515  11.088  1.4762  2.9327  1.8320
  500MPD2     N 7438   0.379   1.592  10.663 -0.1130 -0.5639 -0.0496
  500MPD2    H5 7439   0.287   1.558  10.690 -0.5665  1.1631  0.6278
  500MPD2    N1 7440   0.830   1.651  10.813 -0.3009 -0.2549 -0.0832
  500MPD2    H7 7441   0.852   1.697  10.725  0.1822  2.9320  1.6749
  501TMC3    C1 7442   1.064   1.644  10.825  0.4526  0.0936 -0.8791
  501TMC3    C2 7443   1.071   1.753  10.734 -0.5030 -0.4885  0.2507
  501TMC3    C3 7444   1.201   1.790  10.691  0.0505 -0.1427 -0.6154
  501TMC3    C4 7445   1.177   1.588  10.874  0.2046 -0.1498  0.3034
  501TMC3    C5 7446   1.303   1.637  10.836  0.2280 -0.2875  0.4195
  501TMC3    C6 7447   1.317   1.726  10.733 -0.6185 -0.1761  0.0569
  501TMC3     C 7448   0.937   1.606  10.879 -0.0893  0.4549 -0.1789
  501TMC3     O 7449   0.934   1.512  10.957 -0.1977  0.3532  0.0931
  501TMC3     H 7450   0.985   1.806  10.695  0.6240  0.7182 -0.6237
  501TMC3    H1 7451   1.159   1.500  10.934  0.6460 -0.6223 -0.2607
  501TMC3    H2 7452   1.414   1.764  10.702  1.4595 -2.3347  3.9446
  501TMC3    C7 7453   1.386   1.651  10.958  0.0211  0.5169 -0.9153
  501TMC3    C8 7454   1.221   1.914  10.616  0.4212  0.4322  0.5876
  501TMC3    O1 7455   1.347   1.582  11.045  0.3179 -0.3803  0.0670
  501TMC3    O2 7456   1.325   1.981  10.632 -0.5685  0.0582  0.1125
  502TMC3    C1 7457   4.551   0.457  15.320 -0.1113 -0.6072  0.5091
  502TMC3    C2 7458   4.523   0.583  15.278 -0.5126 -0.4272 -0.4113
  502TMC3    C3 7459   4.384   0.608  15.273  0.9814  0.6807 -0.2833
  502TMC3    C4 7460   4.451   0.360  15.342 -0.6069 -0.9068  0.1907
  502TMC3    C5 7461   4.320   0.385  15.306  0.6641 -0.6521 -0.1573
  502TMC3    C6 7462   4.283   0.514  15.274 -0.5119  0.1459  0.5196
  502TMC3     C 7463   4.669   0.454  15.400 -0.4297  0.0429  0.0335
  502TMC3     O 7464   0.041   0.523  15.374  0.2271 -0.2114  0.3649
  502TMC3     H 7465   4.598   0.661  15.268  0.8359 -1.5504  1.0372
  502TMC3    H1 7466   4.469   0.256  15.364  0.3171 -1.2621 -2.1660
  502TMC3    H2 7467   4.191   0.537  15.222 -2.2125 -3.1891  2.0460
  502TMC3    C7 7468   4.219   0.310  15.377  0.2409 -0.1214 -0.1147
  502TMC3    C8 7469   4.338   0.743  15.264  0.0245 -0.2689 -0.1888
  502TMC3    O1 7470   4.256   0.217  15.450  0.2115 -0.0790  0.2009
  502TMC3    O2 7471   4.412   0.831  15.227 -0.2521 -0.2314  0.0701
  503MPD2     C 7472   1.626   1.110  17.477  0.0152  0.4169 -0.4505
  503MPD2    C1 7473   1.620   1.140  17.610  0.3905 -0.1546 -0.1711
  503MPD2    C2 7474   1.651   1.035  17.695  0.1895 -0.1568  0.1793
  503MPD2    C3 7475   1.689   0.906  17.658  0.2054  0.2048 -0.6225
  503MPD2    C4 7476   1.678   0.885  17.522  0.3740 -0.5029 -0.3745
  503MPD2    C5 7477   1.651   0.984  17.425  0.6533  0.2948 -0.4010
  503MPD2     H 7478   1.671   1.055   0.095  0.6160  0.7022 -0.0611
  503MPD2    H1 7479   1.705   0.792  17.475 -0.3050 -0.4746 -0.8288
  503MPD2    H2 7480   1.619   1.191  17.405 -1.0763  0.2485 -0.5407
  503MPD2    H3 7481   1.668   0.960  17.321  0.6684  1.2748 -0.6257
  503MPD2     N 7482   1.736   0.813   0.047 -0.1850  0.8345  0.5098
  503MPD2    H5 7483   1.721   0.831   0.146  1.3545  1.3126  0.6601
  503MPD2    N1 7484   1.599   1.272  17.656 -0.0914 -0.2462 -0.5898
  503MPD2    H7 7485   1.615   1.288   0.050 -5.5041  1.3560  0.0497
  504TMC3    C1 7486   1.899   0.643   0.111  0.1728  0.2901 -0.2094
  504TMC3    C2 7487   1.869   0.681   0.242 -0.3765  0.2425  0.3451
  504TMC3    C3 7488   1.971   0.646   0.332  0.4548  0.3751  0.7225
  504TMC3    C4 7489   2.021   0.584   0.078  0.0816  0.5680 -0.8656
  504TMC3    C5 7490   2.118   0.577   0.171  0.3631 -0.1600 -0.0977
  504TMC3    C6 7491   2.098   0.602   0.302 -0.2679  0.7549  1.0108
  504TMC3     C 7492   1.823   0.709   0.008  0.1153 -0.3118  0.0743
  504TMC3     O 7493   1.861   0.678  17.598  0.1773 -0.0169 -0.7676
  504TMC3     H 7494   1.773   0.719   0.275 -0.9585 -0.7162 -0.2594
  504TMC3    H1 7495   2.038   0.547  17.682 -0.6484 -0.5026 -0.6021
  504TMC3    H2 7496   2.175   0.601   0.378 -0.0819  0.7776  0.8254
  504TMC3    C7 7497   2.253   0.579   0.119  0.2004 -0.5026  0.1292
  504TMC3    C8 7498   1.926   0.620   0.467  0.0838 -0.4018 -0.4669
  504TMC3    O1 7499   2.263   0.599  17.703 -0.6673 -0.1241 -0.3206
  504TMC3    O2 7500   1.813   0.579   0.484 -0.6202  0.0433 -0.5431
  505MPD2     C 7501   2.255   0.075  10.519 -0.1556  0.2041 -0.5494
  505MPD2    C1 7502   2.212   4.680  10.475  0.5274 -0.0729  1.2308
  505MPD2    C2 7503   2.201   4.572  10.567  0.4613 -0.8425  0.3520
  505MPD2    C3 7504   2.244   4.588  10.701 -0.2237 -0.3019  0.4367
  505MPD2    C4 7505   2.306   4.702  10.737  0.4580  0.1740 -0.3982
  505MPD2    C5 7506   2.308   0.085  10.642  0.8027 -0.2411  0.7711
  505MPD2     H 7507   2.159   4.479  10.529  2.7173 -2.4410  1.7761
  505MPD2    H1 7508   2.345   4.722  10.837  0.2633 -2.3974  0.2042
  505MPD2    H2 7509   2.242   0.161  10.455  0.2064 -0.1023 -1.0390
  505MPD2    H3 7510   2.355   0.176  10.675  2.0284 -0.6427  0.1247
  505MPD2     N 7511   2.231   4.475  10.784  0.2531 -0.6785 -0.1072
  505MPD2    H5 7512   2.183   4.399  10.739 -0.1790 -0.1050 -0.6055
  505MPD2    N1 7513   2.180   4.668  10.338  0.1158 -0.2293 -0.8895
  505MPD2    H7 7514   2.209   0.021  10.282 -0.8691  0.8045  0.0486
  506TMC3    C1 7515   2.129   4.561  10.130 -0.6072  0.3053  0.6297
  506TMC3    C2 7516   2.253   4.599  10.085  0.0715 -0.8216 -0.6826
  506TMC3    C3 7517   2.315   4.513  10.003 -0.7697  0.1584 -0.0742
  506TMC3    C4 7518   2.071   4.456  10.085  0.3930  0.1260 -0.0234
  506TMC3    C5 7519   2.136   4.375   9.991  0.5502  0.3039  0.0459
  506TMC3    C6 7520   2.259   4.400   9.947 -0.2692  0.0701  0.3257
  506TMC3     C 7521   2.120   4.560  10.277  0.1289  0.4680  0.8040
  506TMC3     O 7522   2.061   4.464  10.327 -0.1933  0.5642  0.1143
  506TMC3     H 7523   2.304   4.687  10.121 -1.1252 -0.5728  0.4007
  506TMC3    H1 7524   1.975   4.426  10.125  1.2106 -1.4341  0.7946
  506TMC3    H2 7525   2.324   4.334   9.891 -0.5999 -0.1059  0.1471
  506TMC3    C7 7526   2.126   4.234  10.026 -0.3051  0.3394 -0.5414
  506TMC3    C8 7527   2.457   4.539   9.978 -0.2408 -0.2412  0.3761
  506TMC3    O1 7528   2.151   4.148   9.939 -0.3442 -0.2211 -0.1583
  506TMC3    O2 7529   2.489   4.657   9.966 -0.0330 -0.1407  0.4917
  507TMC3    C1 7530   2.804   0.326  14.881  0.1596 -0.0938 -0.5196
  507TMC3    C2 7531   2.830   0.285  14.752 -0.0769  0.9264  0.6991
  507TMC3    C3 7532   2.931   0.339  14.680  0.7633 -0.1794  0.2207
  507TMC3    C4 7533   2.879   0.425  14.936 -0.2842 -0.0918 -0.0141
  507TMC3    C5 7534   2.989   0.474  14.867 -0.3970 -0.0385  0.4072
  507TMC3    C6 7535   3.021   0.416  14.744 -0.0376  0.1363  0.3642
  507TMC3     C 7536   2.684   0.275  14.953  0.9293 -0.3396  0.0398
  507TMC3     O 7537   2.645   0.344  15.044  0.3733  0.2188 -0.1891
  507TMC3     H 7538   2.750   0.230  14.704 -1.8728  3.1948  1.0952
  507TMC3    H1 7539   2.859   0.456  15.038 -1.6483 -0.3272 -0.2197
  507TMC3    H2 7540   3.105   0.461  14.691 -1.8078 -0.4538 -2.9155
  507TMC3    C7 7541   3.005   0.620  14.860 -0.3452 -0.8657  1.0799
  507TMC3    C8 7542   2.895   0.387  14.542 -0.4009  0.3698  0.3209
  507TMC3    O1 7543   3.030   0.660  14.749  0.3754  0.1376  0.0954
  507TMC3    O2 7544   2.858   0.308  14.457  0.1779  0.4406  0.0304
  508MPD2     C 7545   3.252   3.646  16.786 -0.1037  0.4070  0.8681
  508MPD2    C1 7546   3.356   3.622  16.696 -0.0721  0.3065  0.5016
  508MPD2    C2 7547   3.341   3.670  16.569  0.2480  0.5899  0.0008
  508MPD2    C3 7548   3.214   3.719  16.534  0.5137  0.4003  0.2744
  508MPD2    C4 7549   3.120   3.745  16.624  0.1102 -0.0410  0.2348
  508MPD2    C5 7550   3.142   3.708  16.750 -0.0612  0.3766  0.1385
  508MPD2     H 7551   3.413   3.645  16.493  1.0997  0.8911  0.7039
  508MPD2    H1 7552   3.027   3.797  16.603 -0.1246 -0.5464  0.0205
  508MPD2    H2 7553   3.262   3.603  16.885  1.8883 -1.4033 -0.1151
  508MPD2    H3 7554   3.067   3.726  16.826 -0.1074 -0.8533  0.3860
  508MPD2     N 7555   3.191   3.746  16.401 -0.5663  0.0605 -0.2817
  508MPD2    H5 7556   3.267   3.713  16.343 -1.1269 -2.4815  0.4461
  508MPD2    N1 7557   3.460   3.551  16.756  0.1704 -0.3907 -0.6344
  508MPD2    H7 7558   3.444   3.520  16.851 -1.1586 -0.0467 -0.7539
  509TMC3    C1 7559   3.062   3.902  15.992  0.1005 -0.5264 -0.8398
  509TMC3    C2 7560   3.124   3.795  15.925 -0.0801  0.1420  0.4039
  509TMC3    C3 7561   3.161   3.688  15.999 -0.0241  0.3122 -0.7323
  509TMC3    C4 7562   3.027   3.902  16.127 -0.0915  0.1272  0.4194
  509TMC3    C5 7563   3.086   3.801  16.194 -0.0248  0.1258  0.0358
  509TMC3    C6 7564   3.152   3.692  16.134 -0.0812  0.2587 -0.3914
  509TMC3     C 7565   3.056   4.035  15.937  0.5951  0.1366 -0.1219
  509TMC3     O 7566   2.987   4.115  15.993 -0.3027  0.7696  0.7503
  509TMC3     H 7567   3.111   3.797  15.818 -1.0584  1.4170  0.5370
  509TMC3    H1 7568   2.990   3.985  16.186 -1.4547 -0.5201  0.4713
  509TMC3    H2 7569   3.194   3.612  16.194  1.0765  0.8653 -0.3922
  509TMC3    C7 7570   3.079   3.811  16.338 -0.1710 -0.0659 -0.5470
  509TMC3    C8 7571   3.276   3.628  15.948 -0.0329 -0.0019 -0.3688
  509TMC3    O1 7572   2.985   3.871  16.388 -0.5407  0.4668 -0.9003
  509TMC3    O2 7573   3.270   3.509  15.909 -0.3454 -0.1343 -0.2923
  510MPD2     C 7574   1.924   0.086  14.899 -0.1031  0.2140 -0.2807
  510MPD2    C1 7575   1.998   4.710  14.949 -0.3555  0.6305 -0.0623
  510MPD2    C2 7576   2.100   4.660  14.874  0.5078  0.0040  0.2035
  510MPD2    C3 7577   2.147   0.007  14.763  0.6469 -0.0763  0.0997
  510MPD2    C4 7578   2.082   0.117  14.721  0.2102  0.3048 -0.6169
  510MPD2    C5 7579   1.976   0.161  14.793 -0.6776  0.0801  0.0517
  510MPD2     H 7580   2.143   4.567  14.907 -1.2802 -0.5662  0.9321
  510MPD2    H1 7581   2.129   0.184  14.649 -2.3551  1.2369 -1.4222
  510MPD2    H2 7582   1.849   0.135  14.960  1.8726  1.7902  0.8804
  510MPD2    H3 7583   1.929   0.256  14.769 -2.3805 -1.1677 -1.5878
  510MPD2     N 7584   2.258   4.676  14.695  0.0009 -0.4857 -0.4462
  510MPD2    H5 7585   2.300   4.594  14.737  1.0097 -0.8918 -2.2658
  510MPD2    N1 7586   1.946   4.648  15.065  0.2647  0.1099  0.3102
  510MPD2    H7 7587   1.861   4.682  15.108 -0.5301  0.7430 -1.7497
  511TMC3    C1 7588   1.850   4.465  15.150  0.9476 -0.3714 -0.5920
  511TMC3    C2 7589   1.775   4.533  15.239 -0.6675 -0.8952  0.6450
  511TMC3    C3 7590   1.670   4.471  15.297 -0.0572  0.5036 -0.5584
  511TMC3    C4 7591   1.810   4.346  15.093 -0.2195 -0.6505 -0.2998
  511TMC3    C5 7592   1.704   4.287  15.159 -0.2455 -0.0161  1.2301
  511TMC3    C6 7593   1.632   4.347  15.261  0.3262 -0.2831 -0.3569
  511TMC3     C 7594   1.979   4.522  15.109 -0.4066 -0.0579  0.2702
  511TMC3     O 7595   2.060   4.440  15.062  0.0887  0.4067  0.4517
  511TMC3     H 7596   1.813   4.626  15.280 -0.5461 -0.8441  0.4160
  511TMC3    H1 7597   1.868   4.285  15.026  0.0290  0.3018 -0.9449
  511TMC3    H2 7598   1.530   4.315  15.278  0.2812  0.9672  1.7435
  511TMC3    C7 7599   1.636   4.172  15.089  0.4014  0.1867  0.2156
  511TMC3    C8 7600   1.607   4.530  15.413  0.6938 -0.4282 -0.2704
  511TMC3    O1 7601   1.631   4.189  14.969 -0.1619 -0.2489 -0.5289
  511TMC3    O2 7602   1.590   4.650  15.416 -0.0840 -0.0241 -0.3901
  512TMC3    C1 7603   0.726   4.056  12.734 -0.1061 -0.7720 -0.0560
  512TMC3    C2 7604   0.780   3.989  12.841  0.3001 -0.5798  0.0176
  512TMC3    C3 7605   0.855   3.879  12.821  0.4640 -0.4036 -0.2769
  512TMC3    C4 7606   0.771   4.026  12.604  0.1036  0.2653  0.0287
  512TMC3    C5 7607   0.851   3.916  12.594  0.6939 -0.2804  0.1785
  512TMC3    C6 7608   0.891   3.838  12.699  0.2888 -0.2839 -0.0879
  512TMC3     C 7609   0.647   4.174  12.765 -0.5743  0.3792 -0.3360
  512TMC3     O 7610   0.639   4.198  12.881 -0.2276 -0.3069 -0.3768
  512TMC3     H 7611   0.753   4.008  12.944 -0.8049  1.3270 -0.6270
  512TMC3    H1 7612   0.743   4.080  12.514 -0.2538  0.6726  0.3859
  512TMC3    H2 7613   0.962   3.760  12.674 -0.0686 -1.3897  2.3469
  512TMC3    C7 7614   0.876   3.871  12.460  0.0367  0.3032 -0.8773
  512TMC3    C8 7615   0.940   3.824  12.929  0.2258 -0.0086 -0.7016
  512TMC3    O1 7616   0.904   3.955  12.378 -0.1504  0.0842  0.2432
  512TMC3    O2 7617   1.018   3.734  12.895 -0.0964 -0.3142 -0.2778
  513MPD2     C 7618   2.865   4.071  13.584  0.1047 -0.1316 -0.7504
  513MPD2    C1 7619   2.953   4.166  13.530 -0.2079  0.5525  0.0822
  513MPD2    C2 7620   3.045   4.228  13.622  0.1142  0.1177  0.0997
  513MPD2    C3 7621   3.059   4.175  13.748  0.5840  0.1711  0.7547
  513MPD2    C4 7622   2.975   4.075  13.795  0.1736  0.1182 -0.0931
  513MPD2    C5 7623   2.876   4.024  13.710 -0.0053 -0.0099 -0.0292
  513MPD2     H 7624   3.119   4.296  13.583  1.3580 -2.6649 -2.4503
  513MPD2    H1 7625   2.988   4.032  13.893 -1.2399  1.2908  0.6186
  513MPD2    H2 7626   2.790   4.021  13.523 -0.0979  1.1745 -1.5826
  513MPD2    H3 7627   2.806   3.949  13.747  0.9288 -0.1880  1.3472
  513MPD2     N 7628   3.170   4.230  13.821 -0.4606 -0.4275  0.2527
  513MPD2    H5 7629   3.219   4.307  13.778 -1.4519  0.3487  0.5173
  513MPD2    N1 7630   2.963   4.200  13.393  0.0769  0.5483  0.1894
  513MPD2    H7 7631   3.036   4.266  13.370  1.8732 -1.4348  0.1341
  514TMC3    C1 7632   2.970   4.173  13.166  0.2373  0.3197  0.1794
  514TMC3    C2 7633   2.887   4.181  13.056 -0.2734 -0.0482 -1.3247
  514TMC3    C3 7634   2.946   4.232  12.941 -0.2974 -0.4161  0.8309
  514TMC3    C4 7635   3.101   4.212  13.161 -0.1218 -0.8180 -0.0978
  514TMC3    C5 7636   3.149   4.270  13.043 -0.1860  1.4656  0.6881
  514TMC3    C6 7637   3.075   4.273  12.933 -0.4696 -0.2325  0.0912
  514TMC3     C 7638   2.909   4.126  13.288 -0.1514  0.6831  0.1301
  514TMC3     O 7639   2.846   4.025  13.285 -0.0822  0.1774 -0.0587
  514TMC3     H 7640   2.788   4.141  13.039 -0.3438 -0.2890 -0.3397
  514TMC3    H1 7641   3.160   4.190  13.250 -0.3203 -0.0461  0.2305
  514TMC3    H2 7642   3.117   4.308  12.839  0.8965 -1.3987  0.2767
  514TMC3    C7 7643   3.270   4.348  13.041  0.3372 -0.2484  0.3050
  514TMC3    C8 7644   2.867   4.229  12.818  0.3649 -0.0876  0.3265
  514TMC3    O1 7645   3.332   4.335  12.934 -0.3692 -0.7674 -0.2757
  514TMC3    O2 7646   2.747   4.234  12.824  0.1459  0.1084 -0.4704
  515MPD2     C 7647   0.967   0.650  14.565  0.6455  0.1863  0.2475
  515MPD2    C1 7648   0.885   0.736  14.628  0.4994  0.6338 -0.1572
  515MPD2    C2 7649   0.941   0.843  14.692  0.5130 -0.7583  0.2793
  515MPD2    C3 7650   1.075   0.850  14.708  0.0868  0.0114 -0.1570
  515MPD2    C4 7651   1.161   0.754  14.649 -0.5717 -0.9202  0.6474
  515MPD2    C5 7652   1.100   0.663  14.570 -0.4909 -0.5735  0.4483
  515MPD2     H 7653   0.876   0.922  14.729  1.1085 -1.4999  2.8575
  515MPD2    H1 7654   1.268   0.751  14.665 -1.0043  0.6937  3.9033
  515MPD2    H2 7655   0.925   0.588  14.487 -1.2016  2.0914 -0.2820
  515MPD2    H3 7656   1.161   0.596  14.510 -0.1184 -0.4131  0.6468
  515MPD2     N 7657   1.132   0.955  14.788  0.1798  1.0690 -0.9501
  515MPD2    H5 7658   1.231   0.949  14.807 -0.0379  0.5515 -0.0072
  515MPD2    N1 7659   0.745   0.720  14.616  0.4929  0.5439  0.1401
  515MPD2    H7 7660   0.684   0.788  14.659 -2.9751 -0.8680 -2.5637
  516TMC3    C1 7661   0.533   0.626  14.579  0.3900 -0.1374 -0.3699
  516TMC3    C2 7662   0.478   0.738  14.527  0.1542 -0.1843 -0.8281
  516TMC3    C3 7663   0.344   0.742  14.534  0.3451  0.2560  0.8511
  516TMC3    C4 7664   0.459   0.528  14.636 -0.3479 -0.6678  0.4960
  516TMC3    C5 7665   0.325   0.538  14.639 -0.0429 -0.4512 -0.1916
  516TMC3    C6 7666   0.263   0.648  14.583  0.0024 -0.6436  0.2381
  516TMC3     C 7667   0.676   0.609  14.572 -0.1792  0.0318 -0.6672
  516TMC3     O 7668   0.713   0.509  14.512  0.2554  0.0778  0.1039
  516TMC3     H 7669   0.534   0.823  14.489  1.2809 -1.4749 -2.0057
  516TMC3    H1 7670   0.518   0.450  14.682  0.0298 -1.0501 -0.6368
  516TMC3    H2 7671   0.155   0.656  14.593  0.0846  0.4000  0.2983
  516TMC3    C7 7672   0.269   0.456  14.751 -0.8228  0.1277 -0.7511
  516TMC3    C8 7673   0.275   0.856  14.484  0.7375 -0.3156  0.4706
  516TMC3    O1 7674   0.355   0.424  14.829 -0.6358  0.2009  0.4774
  516TMC3    O2 7675   0.165   0.842  14.428  0.7314  0.2483  0.2312
  517MPD2     C 7676   0.007   2.719   0.273 -0.3695 -0.2791 -0.3741
  517MPD2    C1 7677   0.150   2.692   0.286 -0.0339 -0.0202  0.2945
  517MPD2    C2 7678   0.220   2.797   0.343  0.3710  0.0758  0.2872
  517MPD2    C3 7679   0.163   2.915   0.383  0.4286 -0.0212  0.2633
  517MPD2    C4 7680   0.027   2.939   0.366 -0.4407  0.7953 -0.0288
  517MPD2    C5 7681   4.677   2.833   0.312  0.0220  0.8988 -0.2292
  517MPD2     H 7682   0.325   2.787   0.367  0.2564  1.2173  1.2612
  517MPD2    H1 7683   4.705   3.032   0.394  0.3584  0.9907  0.6705
  517MPD2    H2 7684   4.685   2.634   0.226 -1.0055  1.0071 -2.0493
  517MPD2    H3 7685   4.571   2.852   0.307 -0.3159 -0.3449  1.9781
  517MPD2     N 7686   0.237   3.023   0.441 -0.0147 -0.6256 -0.2317
  517MPD2    H5 7687   0.175   3.102   0.453 -0.1025 -1.1293  2.5755
  517MPD2    N1 7688   0.220   2.580   0.243  0.0201 -0.1855  0.5270
  517MPD2    H7 7689   0.320   2.577   0.262 -0.1364 -2.6643  0.8875
  518TMC3    C1 7690   0.275   2.366   0.179 -0.8155 -0.0032 -0.1156
  518TMC3    C2 7691   0.229   2.237   0.183  0.0848  0.0272  0.1573
  518TMC3    C3 7692   0.316   2.141   0.159 -0.9276 -0.3512 -0.7171
  518TMC3    C4 7693   0.405   2.391   0.144 -0.2381 -0.3255 -0.4681
  518TMC3    C5 7694   0.487   2.284   0.125 -0.4712  0.3197 -0.2916
  518TMC3    C6 7695   0.450   2.157   0.137 -0.5818  0.1325  0.1406
  518TMC3     C 7696   0.168   2.463   0.192  0.3588  0.2754 -0.6664
  518TMC3     O 7697   0.049   2.431   0.174 -0.8422 -0.3964 -0.1049
  518TMC3     H 7698   0.127   2.209   0.208  0.3661 -0.2701  0.9965
  518TMC3    H1 7699   0.431   2.494   0.121  0.4051 -0.6407 -1.1543
  518TMC3    H2 7700   0.507   2.081   0.085 -0.3165  0.0485  0.5590
  518TMC3    C7 7701   0.622   2.312   0.076  0.1780  0.2202 -0.0748
  518TMC3    C8 7702   0.275   1.998   0.169  0.5842  0.0729  1.0634
  518TMC3    O1 7703   0.654   2.422   0.110  0.5323 -0.0714  0.0502
  518TMC3    O2 7704   0.356   1.916   0.123 -0.0030  0.1062 -0.0442
  519MPD2     C 7705   2.276   1.165  14.302  0.2841 -0.1651  0.1747
  519MPD2    C1 7706   2.171   1.093  14.247 -0.1428  0.5233 -0.6639
  519MPD2    C2 7707   2.205   0.985  14.176  0.0237 -0.3371 -0.0361
  519MPD2    C3 7708   2.338   0.937  14.156  0.7415  0.0112  0.5428
  519MPD2    C4 7709   2.440   1.015  14.210 -0.5316 -0.3052 -0.1282
  519MPD2    C5 7710   2.407   1.123  14.284 -0.2616 -0.3339  0.0021
  519MPD2     H 7711   2.123   0.931  14.131  0.6136 -0.6417 -0.7533
  519MPD2    H1 7712   2.547   0.997  14.211 -0.4590 -0.0638 -2.1327
  519MPD2    H2 7713   2.268   1.259  14.357 -0.2024 -1.0878  1.6921
  519MPD2    H3 7714   2.487   1.180  14.332 -0.6540 -0.6692  1.0517
  519MPD2     N 7715   2.377   0.825  14.076 -0.6645 -0.1158  0.4108
  519MPD2    H5 7716   2.469   0.784  14.088 -0.7674 -0.4428  0.0881
  519MPD2    N1 7717   2.038   1.144  14.251 -0.3471  0.6372  0.4547
  519MPD2    H7 7718   2.026   1.240  14.281 -0.0747  0.9648 -0.5110
  520TMC3    C1 7719   2.305   0.627  13.977  1.1620 -0.2232  0.5807
  520TMC3    C2 7720   2.185   0.561  13.964 -0.0416 -0.5051  0.2538
  520TMC3    C3 7721   2.192   0.428  13.997 -0.0258 -0.0353  0.6072
  520TMC3    C4 7722   2.427   0.568  14.005 -0.4324 -0.0895  0.7568
  520TMC3    C5 7723   2.429   0.433  14.019  0.0254  0.3549  0.2190
  520TMC3    C6 7724   2.311   0.359  14.028 -0.0088 -0.4189 -0.1273
  520TMC3     C 7725   2.285   0.768  13.996 -0.3595 -0.4843  0.2251
  520TMC3     O 7726   2.189   0.827  13.941 -0.3895  0.4049  0.3832
  520TMC3     H 7727   2.094   0.614  13.936  0.5941  0.8499  0.7444
  520TMC3    H1 7728   2.514   0.629  14.023 -0.2129 -0.4880  1.0310
  520TMC3    H2 7729   2.312   0.252  14.046 -0.6966 -0.1516  1.4706
  520TMC3    C7 7730   2.550   0.368  14.078 -0.1732 -0.1315 -0.2578
  520TMC3    C8 7731   2.076   0.339  13.970  0.5940 -0.2702  0.3826
  520TMC3    O1 7732   2.539   0.301  14.179 -0.3660  0.2971 -0.1222
  520TMC3    O2 7733   2.087   0.218  13.957  0.2998 -0.4058 -0.0433
  521MPD2     C 7734   2.673   3.618   0.060 -0.5305 -0.0651 -0.6419
  521MPD2    C1 7735   2.623   3.497   0.019  0.2926  0.3413  0.7088
  521MPD2    C2 7736   2.713   3.416  17.654  0.6075 -0.2597  1.0236
  521MPD2    C3 7737   2.845   3.447  17.636  0.1658 -0.0138 -0.3745
  521MPD2    C4 7738   2.895   3.563  17.675 -0.4297 -0.8006  0.1256
  521MPD2    C5 7739   2.805   3.643   0.038 -0.6141 -0.6899  0.3181
  521MPD2     H 7740   2.675   3.326  17.606 -0.0885  0.8248 -0.4429
  521MPD2    H1 7741   2.999   3.593  17.678 -0.3241 -0.9217 -3.1232
  521MPD2    H2 7742   2.619   3.685   0.126 -1.2353  0.4817 -1.7938
  521MPD2    H3 7743   2.849   3.735   0.076 -1.8415 -0.3958  1.0520
  521MPD2     N 7744   2.922   3.343  17.584  0.8221  0.1227  0.3976
  521MPD2    H5 7745   2.873   3.256  17.563 -0.0961  1.2362 -2.0461
  521MPD2    N1 7746   2.492   3.469   0.045  0.3110  0.0906 -0.1582
  521MPD2    H7 7747   2.448   3.536   0.108  0.2095 -0.4040  0.2961
  522TMC3    C1 7748   3.086   3.214  17.491 -0.3451  0.1055  0.1062
  522TMC3    C2 7749   3.186   3.140  17.548 -0.1652  0.0637 -0.0158
  522TMC3    C3 7750   3.185   3.009  17.528  0.0389 -0.4873 -0.0478
  522TMC3    C4 7751   2.988   3.156  17.417  0.8202 -0.4312  0.5459
  522TMC3    C5 7752   2.986   3.021  17.403 -0.4219 -0.5894  0.2817
  522TMC3    C6 7753   3.088   2.946  17.454 -0.0952 -0.3684  0.7215
  522TMC3     C 7754   3.052   3.341  17.557  0.0652  0.4669 -0.2963
  522TMC3     O 7755   3.141   3.411  17.597  0.2486 -0.1014  0.1746
  522TMC3     H 7756   3.265   3.188  17.604  0.9603  1.7164 -3.0090
  522TMC3    H1 7757   2.925   3.222  17.358  0.7847 -1.0373 -0.0966
  522TMC3    H2 7758   3.097   2.845  17.414  0.1843 -0.9860  2.3181
  522TMC3    C7 7759   2.871   2.953  17.356 -0.4905 -0.4246 -0.5803
  522TMC3    C8 7760   3.317   2.946  17.512 -0.6844  0.1070  0.2066
  522TMC3    O1 7761   2.837   2.841  17.395  0.8106  0.5185 -0.3088
  522TMC3    O2 7762   3.312   2.821  17.495 -0.1770  0.6238 -0.0320
  523MPD2     C 7763   1.565   3.256  10.486  0.6732 -0.5957  0.0155
  523MPD2    C1 7764   1.429   3.259  10.446  0.0708 -0.0237 -0.2008
  523MPD2    C2 7765   1.363   3.376  10.430  0.0910  0.4342  0.0075
  523MPD2    C3 7766   1.428   3.495  10.459  0.1856  0.0157  0.2035
  523MPD2    C4 7767   1.563   3.496  10.487  0.1064  0.6413 -0.2896
  523MPD2    C5 7768   1.628   3.378  10.514  0.5926  0.2031 -0.2789
  523MPD2     H 7769   1.256   3.375  10.409 -0.2155 -0.0029  1.6032
  523MPD2    H1 7770   1.606   3.589  10.524 -0.6091  1.2433 -0.9635
  523MPD2    H2 7771   1.616   3.162  10.501 -1.3625 -1.6287  0.5828
  523MPD2    H3 7772   1.732   3.376  10.542  0.5394  0.5587 -0.0495
  523MPD2     N 7773   1.359   3.619  10.466  0.6432 -0.4587 -0.0927
  523MPD2    H5 7774   1.413   3.705  10.476 -0.0187  0.1306 -1.5904
  523MPD2    N1 7775   1.364   3.134  10.424 -0.5745  0.3310 -0.1599
  523MPD2    H7 7776   1.413   3.058  10.469  3.1792  1.4051 -2.3856
  524TMC3    C1 7777   1.187   3.777  10.435  0.4196  0.0933 -0.7028
  524TMC3    C2 7778   1.279   3.880  10.450  0.0956  0.0207 -0.7059
  524TMC3    C3 7779   1.242   4.002  10.407  0.3875  0.0696 -0.1971
  524TMC3    C4 7780   1.061   3.800  10.373  0.1758  0.5126 -1.1650
  524TMC3    C5 7781   1.040   3.926  10.315  0.0338 -0.3389 -0.4024
  524TMC3    C6 7782   1.134   4.026  10.332  0.0039  0.3875  0.5588
  524TMC3     C 7783   1.229   3.639  10.437 -0.2003  0.2228 -0.1469
  524TMC3     O 7784   1.143   3.563  10.394 -0.0715  0.2143  0.3034
  524TMC3     H 7785   1.361   3.861  10.519  0.1677 -1.1883 -1.1191
  524TMC3    H1 7786   0.987   3.721  10.362 -0.6620  1.0427  0.6976
  524TMC3    H2 7787   1.108   4.129  10.311  2.2729  1.1270  1.3837
  524TMC3    C7 7788   0.906   3.948  10.265 -0.7597  0.5368  0.2914
  524TMC3    C8 7789   1.335   4.107  10.424 -0.6931 -0.4006 -0.1172
  524TMC3    O1 7790   0.813   3.874  10.296 -0.0480  0.4330  0.0685
  524TMC3    O2 7791   1.341   4.188  10.332  0.2914 -0.0176 -0.4662
  525MPD2     C 7792   3.374   0.275  14.575 -0.0869 -0.1351 -0.6571
  525MPD2    C1 7793   3.490   0.316  14.644 -0.9535 -0.3629  0.2568
  525MPD2    C2 7794   3.565   0.415  14.580 -0.4107  0.6589 -0.2017
  525MPD2    C3 7795   3.524   0.463  14.456 -0.9025 -0.4917 -0.1864
  525MPD2    C4 7796   3.407   0.427  14.405 -0.0380 -0.9988 -0.1596
  525MPD2    C5 7797   3.330   0.331  14.457 -0.1843 -0.6674  0.5175
  525MPD2     H 7798   3.666   0.435  14.615 -0.7106  1.2170  0.3414
  525MPD2    H1 7799   3.361   0.476  14.320  0.0919 -1.9955 -0.7948
  525MPD2    H2 7800   3.301   0.203  14.612  0.6929  0.4141  1.9261
  525MPD2    H3 7801   3.240   0.303  14.404 -0.6279  0.4571  0.6681
  525MPD2     N 7802   3.585   0.573  14.397  0.2807 -0.6250  0.2512
  525MPD2    H5 7803   3.536   0.605  14.314  1.8952  0.7416 -0.1723
  525MPD2    N1 7804   3.533   0.259  14.764 -0.2400 -0.1014  0.4317
  525MPD2    H7 7805   3.619   0.287  14.809  0.2546 -0.2590 -0.4166
  526TMC3    C1 7806   3.528   0.119  14.960 -0.1730  0.5742  0.0613
  526TMC3    C2 7807   3.450   0.084  15.072  0.4887 -0.8494  0.1777
  526TMC3    C3 7808   3.518   0.063  15.188 -0.4232  0.6746 -0.2041
  526TMC3    C4 7809   3.666   0.123  14.956 -0.4660 -0.8349  0.1247
  526TMC3    C5 7810   3.723   0.097  15.080  0.1690  0.1855 -0.0803
  526TMC3    C6 7811   3.656   0.071  15.196 -0.0749  0.3894  0.0184
  526TMC3     C 7812   3.460   0.169  14.840 -0.2173 -0.3213 -0.3272
  526TMC3     O 7813   3.353   0.122  14.813  0.1528 -0.1145 -0.2282
  526TMC3     H 7814   3.342   0.096  15.077  0.5301 -0.5464  0.3029
  526TMC3    H1 7815   3.724   0.118  14.865 -0.5634  1.4582 -0.0554
  526TMC3    H2 7816   3.711   0.065  15.290 -2.1178  1.1086  1.2601
  526TMC3    C7 7817   3.863   0.087  15.095  0.6650 -0.7484  0.0989
  526TMC3    C8 7818   3.451   0.058  15.318  0.5420  0.4959  0.1361
  526TMC3    O1 7819   3.911   0.105  15.204  0.0532 -0.3586  0.0767
  526TMC3    O2 7820   3.527   0.058  15.413  0.4862 -0.1946 -0.1862
  527MPD2     C 7821   1.879   3.522   1.950 -0.3932 -0.1695 -0.6675
  527MPD2    C1 7822   1.846   3.391   1.965  1.0473  0.2938 -0.5329
  527MPD2    C2 7823   1.893   3.305   1.870  0.6296  0.0356 -0.1121
  527MPD2    C3 7824   1.964   3.362   1.761 -0.4490 -0.9948  0.4839
  527MPD2    C4 7825   1.999   3.494   1.755 -0.4705 -0.2932 -0.3700
  527MPD2    C5 7826   1.959   3.576   1.855 -0.6661 -0.6107  0.2754
  527MPD2     H 7827   1.866   3.200   1.863 -1.8782  0.5487  1.8373
  527MPD2    H1 7828   2.039   3.550   1.671  2.1187  0.4266  1.3323
  527MPD2    H2 7829   1.837   3.597   2.016  0.3050 -2.8735  2.8122
  527MPD2    H3 7830   1.967   3.684   1.856  3.9473 -0.9205  0.4125
  527MPD2     N 7831   2.016   3.270   1.664  0.6273  0.2678 -0.0623
  527MPD2    H5 7832   1.985   3.175   1.681  0.6207 -0.0727 -1.9418
  527MPD2    N1 7833   1.772   3.354   2.076 -0.2274  0.0457  0.2691
  527MPD2    H7 7834   1.751   3.435   2.135  1.5022 -0.1128  1.1139
  528TMC3    C1 7835   1.689   3.229   2.239  0.1819  0.4752  0.4224
  528TMC3    C2 7836   1.776   3.268   2.338 -0.3268 -0.5581  0.3756
  528TMC3    C3 7837   1.776   3.206   2.461 -0.4083  0.0822  0.0581
  528TMC3    C4 7838   1.591   3.138   2.268  0.2857  0.6256  0.4244
  528TMC3    C5 7839   1.596   3.089   2.398  0.2642  0.4863  0.8337
  528TMC3    C6 7840   1.684   3.112   2.495  0.6595  0.0136  0.5206
  528TMC3     C 7841   1.734   3.223   2.102  0.2113 -0.1992  0.2072
  528TMC3     O 7842   1.717   3.127   2.027  0.4891  0.1738  0.1616
  528TMC3     H 7843   1.860   3.332   2.312 -0.9605 -0.5376 -1.6166
  528TMC3    H1 7844   1.537   3.092   2.186  1.0151  1.9291 -0.8046
  528TMC3    H2 7845   1.698   3.045   2.579  2.5820 -0.7717 -0.4243
  528TMC3    C7 7846   1.464   3.062   2.441 -0.2053 -0.4950  0.0839
  528TMC3    C8 7847   1.893   3.223   2.547 -0.3291  0.5412 -0.4152
  528TMC3    O1 7848   1.373   3.080   2.367  0.3969 -0.0971 -0.2824
  528TMC3    O2 7849   1.979   3.306   2.511  0.0356  0.2053 -0.3834
  529MPD2     C 7850   3.637   1.955   1.130 -0.4884 -0.0022  0.3380
  529MPD2    C1 7851   3.693   1.853   1.045 -0.8886 -0.6873  0.2674
  529MPD2    C2 7852   3.684   1.871   0.904 -0.1280  0.7053  0.4193
  529MPD2    C3 7853   3.618   1.982   0.853 -0.2840 -0.0392 -0.8293
  529MPD2    C4 7854   3.565   2.076   0.930 -0.1776  0.0064 -0.6784
  529MPD2    C5 7855   3.578   2.061   1.066 -0.0835 -0.0122  0.4446
  529MPD2     H 7856   3.741   1.798   0.847 -0.1182 -0.2005  1.5748
  529MPD2    H1 7857   3.515   2.163   0.886 -0.4345  1.0567  1.7140
  529MPD2    H2 7858   3.633   1.947   1.238 -0.4241  0.6650  0.3876
  529MPD2    H3 7859   3.537   2.142   1.126  0.2136 -0.7440  1.6406
  529MPD2     N 7860   3.618   1.979   0.710  0.0653  0.0776  0.4542
  529MPD2    H5 7861   3.651   1.896   0.662  1.0200  0.7133 -0.0031
  529MPD2    N1 7862   3.748   1.735   1.098 -0.1495  0.1751 -0.3930
  529MPD2    H7 7863   3.783   1.674   1.025  0.2545  0.5741 -0.5338
  530TMC3    C1 7864   3.822   1.567   1.238  1.0040 -0.2627 -0.0071
  530TMC3    C2 7865   3.882   1.535   1.363 -0.2176  0.2112  0.0300
  530TMC3    C3 7866   3.938   1.413   1.370 -0.0242  0.3694 -0.4037
  530TMC3    C4 7867   3.792   1.473   1.145  0.8118 -0.0363 -0.4018
  530TMC3    C5 7868   3.829   1.346   1.175  0.4777 -0.1700 -0.0149
  530TMC3    C6 7869   3.922   1.320   1.273 -0.2145  0.3424  0.0583
  530TMC3     C 7870   3.762   1.698   1.228 -0.6074  0.0385 -0.0082
  530TMC3     O 7871   3.734   1.764   1.323  0.4201 -0.4703 -0.1451
  530TMC3     H 7872   3.891   1.612   1.439  0.2405  0.8292 -0.6418
  530TMC3    H1 7873   3.724   1.491   1.062 -0.5830  0.6817  0.8938
  530TMC3    H2 7874   3.962   1.221   1.292 -0.9842  0.0508  0.1766
  530TMC3    C7 7875   3.791   1.239   1.088  0.5155 -0.3928  0.4349
  530TMC3    C8 7876   3.973   1.364   1.502  0.0073 -0.0539 -0.2353
  530TMC3    O1 7877   3.753   1.265   0.979 -0.0300 -0.6368 -0.0550
  530TMC3    O2 7878   3.923   1.422   1.595  0.6947 -0.1562  0.3316
  531MPD2     C 7879   3.682   4.299  13.354  0.3629 -0.4811 -0.6919
  531MPD2    C1 7880   3.571   4.337  13.434  0.1883  0.0506 -0.6306
  531MPD2    C2 7881   3.448   4.358  13.372  0.0997  0.2760 -0.2217
  531MPD2    C3 7882   3.438   4.362  13.230 -0.0424 -0.0553  0.2111
  531MPD2    C4 7883   3.558   4.337  13.156 -0.1100  0.0288  0.0133
  531MPD2    C5 7884   3.672   4.299  13.219 -0.6086  0.3953 -0.7582
  531MPD2     H 7885   3.360   4.390  13.427  0.4475 -1.6924  1.4256
  531MPD2    H1 7886   3.553   4.328  13.048 -2.0864  0.8490  0.0335
  531MPD2    H2 7887   3.776   4.262  13.394 -0.3182 -2.1536 -0.6405
  531MPD2    H3 7888   3.766   4.299  13.165 -0.9780  0.3053 -1.4066
  531MPD2     N 7889   3.310   4.377  13.172  0.7063 -0.3162  0.0529
  531MPD2    H5 7890   3.239   4.381  13.244  0.3048  0.2991 -0.3787
  531MPD2    N1 7891   3.589   4.326  13.576  0.0671  0.0002 -0.0220
  531MPD2    H7 7892   3.681   4.299  13.609 -0.8577 -1.7063  1.1288
  532TMC3    C1 7893   3.513   4.301  13.802 -0.0158  0.6629 -0.1075
  532TMC3    C2 7894   3.402   4.323  13.878  0.1614 -0.0606 -0.3671
  532TMC3    C3 7895   3.351   4.236  13.967  0.4088 -0.0248 -0.3475
  532TMC3    C4 7896   3.597   4.197  13.835 -0.2206 -0.0151  0.0705
  532TMC3    C5 7897   3.559   4.119  13.941  0.0217 -0.2053 -0.5523
  532TMC3    C6 7898   3.434   4.129  13.997 -0.4714  0.3871  0.3993
  532TMC3     C 7899   3.486   4.348  13.662 -0.1192  0.2358 -0.6890
  532TMC3     O 7900   3.373   4.387  13.637  0.2981 -0.3772  0.2586
  532TMC3     H 7901   3.345   4.413  13.856  1.2690  0.5477 -0.7395
  532TMC3    H1 7902   3.688   4.184  13.778 -0.1370 -1.0851  0.4467
  532TMC3    H2 7903   3.403   4.064  14.079 -2.9954 -0.4911 -1.2574
  532TMC3    C7 7904   3.596   3.986  13.936  0.9198  0.1825 -0.6456
  532TMC3    C8 7905   3.214   4.189  13.943 -0.4051  0.0814  1.2535
  532TMC3    O1 7906   3.595   3.931  14.048  0.0609  0.0024 -0.4646
  532TMC3    O2 7907   3.171   4.098  14.011  1.1333  0.0493 -0.1880
  533TMC3    C1 7908   3.708   0.783  14.409  0.0129  0.8558  0.1884
  533TMC3    C2 7909   3.818   0.842  14.457  0.2980  0.0985 -0.7893
  533TMC3    C3 7910   3.801   0.977  14.480 -0.0456  0.5601 -0.3265
  533TMC3    C4 7911   3.580   0.842  14.409  0.5681  0.6323  0.2888
  533TMC3    C5 7912   3.572   0.975  14.446 -0.2117  0.3863 -0.2487
  533TMC3    C6 7913   3.687   1.051  14.463  0.2413 -0.0363  0.4974
  533TMC3     C 7914   3.701   0.639  14.442  0.2863 -0.4406 -0.5388
  533TMC3     O 7915   3.793   0.594  14.512  0.3002 -0.1890 -0.0526
  533TMC3     H 7916   3.913   0.791  14.471 -0.2091 -0.8281 -0.7708
  533TMC3    H1 7917   3.489   0.783  14.405 -0.3820  2.1210 -0.2207
  533TMC3    H2 7918   3.685   1.159  14.477  1.3774 -0.1594  1.6433
  533TMC3    C7 7919   3.478   0.987  14.562 -0.1928 -0.1504 -0.5178
  533TMC3    C8 7920   3.908   1.052  14.549  0.6986  0.8013 -0.5690
  533TMC3    O1 7921   3.397   0.900  14.574 -0.3392  0.5331 -0.5762
  533TMC3    O2 7922   3.861   1.137  14.626 -0.1904  0.5451  0.4744
  534MPD2     C 7923   0.926   2.390   2.457  0.5196 -0.5481  0.1545
  534MPD2    C1 7924   1.021   2.376   2.356  0.6094  0.0443  0.4695
  534MPD2    C2 7925   0.991   2.297   2.244 -0.0629  0.4988 -0.3558
  534MPD2    C3 7926   0.872   2.231   2.230  0.5364 -0.5759 -0.2082
  534MPD2    C4 7927   0.793   2.231   2.339 -0.1373  0.5075  0.4069
  534MPD2    C5 7928   0.814   2.315   2.448  0.6933  0.4332  0.2780
  534MPD2     H 7929   1.068   2.268   2.173  1.3072  2.8114  0.2042
  534MPD2    H1 7930   0.711   2.160   2.344 -0.0529  0.3182 -1.1853
  534MPD2    H2 7931   0.941   2.443   2.550 -1.2068  0.5532 -0.1938
  534MPD2    H3 7932   0.738   2.311   2.525  0.5648  0.4462  0.1533
  534MPD2     N 7933   0.836   2.145   2.120 -0.0912 -0.3125 -0.5646
  534MPD2    H5 7934   0.755   2.086   2.131  0.0959 -0.5276 -0.3334
  534MPD2    N1 7935   1.129   2.464   2.343 -1.2982 -0.6227  0.5063
  534MPD2    H7 7936   1.166   2.476   2.250 -2.0607  0.2555  0.3123
  535TMC3    C1 7937   0.849   2.029   1.905  0.2497 -1.2399 -0.7971
  535TMC3    C2 7938   0.784   1.923   1.958 -0.4837  0.2482 -0.8685
  535TMC3    C3 7939   0.734   1.827   1.874 -0.7412 -0.3151  0.4046
  535TMC3    C4 7940   0.852   2.039   1.767  0.2059 -0.0644  0.0806
  535TMC3    C5 7941   0.796   1.942   1.685  1.0497  0.5295 -0.4918
  535TMC3    C6 7942   0.737   1.833   1.743  0.3658 -0.2963 -0.8571
  535TMC3     C 7943   0.905   2.132   1.998  0.4061 -0.3434 -0.0930
  535TMC3     O 7944   1.004   2.195   1.956  0.3573 -0.0176 -0.5718
  535TMC3     H 7945   0.757   1.930   2.063  1.6977  1.3071 -0.3681
  535TMC3    H1 7946   0.918   2.120   1.738  0.8837 -0.4804  0.4495
  535TMC3    H2 7947   0.688   1.756   1.685  1.5587 -0.2709 -1.9033
  535TMC3    C7 7948   0.864   1.935   1.559  0.0215  0.1498 -0.3116
  535TMC3    C8 7949   0.632   1.733   1.926  0.0659 -0.2421  0.1779
  535TMC3    O1 7950   0.900   1.825   1.523  0.0740 -0.0647  0.1441
  535TMC3    O2 7951   0.557   1.684   1.844 -0.0227  0.2395 -0.4859
  536MPD2     C 7952   0.308   4.584  16.596 -0.3552 -0.5584 -0.2930
  536MPD2    C1 7953   0.175   4.578  16.634 -0.7279  0.5997  0.1976
  536MPD2    C2 7954   0.080   4.565  16.536  0.1764  0.1376  0.4653
  536MPD2    C3 7955   0.116   4.586  16.402  0.0346 -0.8417 -0.1517
  536MPD2    C4 7956   0.246   4.602  16.363  0.8336 -0.0057 -0.6868
  536MPD2    C5 7957   0.339   4.594  16.459 -0.1766 -0.4760  0.2541
  536MPD2     H 7958   4.702   4.555  16.565  0.1947  1.4123  0.9708
  536MPD2    H1 7959   0.284   4.601  16.261 -1.0096 -1.7921 -1.3540
  536MPD2    H2 7960   0.391   4.599  16.665 -3.1403  1.8398  2.5139
  536MPD2    H3 7961   0.442   4.589  16.424 -1.4104 -3.3796 -2.9868
  536MPD2     N 7962   0.022   4.580  16.298  0.3646  0.3657 -0.1246
  536MPD2    H5 7963   0.059   4.615  16.210 -1.2451  0.4226 -0.7762
  536MPD2    N1 7964   0.144   4.577  16.771 -0.2799 -0.0271  0.0184
  536MPD2    H7 7965   0.216   4.594  16.840 -1.4977  0.9608  1.0269
  537TMC3    C1 7966   0.010   4.574  16.966  0.4673 -0.4569  0.0408
  537TMC3    C2 7967   0.081   4.692  16.994  0.4120 -0.0679  0.0351
  537TMC3    C3 7968   0.137   4.695  17.119  0.0923 -0.4784 -0.3547
  537TMC3    C4 7969   4.725   4.469  17.048  0.2621  0.2080  0.5388
  537TMC3    C5 7970   0.067   4.477  17.175 -0.5883  0.3175 -0.0423
  537TMC3    C6 7971   0.120   4.596  17.210 -0.5752 -0.7151  0.0662
  537TMC3     C 7972   0.020   4.537  16.824 -0.0233 -0.6630  0.0077
  537TMC3     O 7973   4.649   4.488  16.767 -0.1992  0.5078  0.5419
  537TMC3     H 7974   0.095   0.043  16.920 -2.3842 -0.2314 -0.6741
  537TMC3    H1 7975   4.686   4.373  17.016  1.6055  0.3758 -1.6344
  537TMC3    H2 7976   0.168   4.607  17.307 -0.3748 -2.0345  0.1202
  537TMC3    C7 7977   0.021   4.401  17.288 -0.4810 -0.4080 -0.0926
  537TMC3    C8 7978   0.212   0.079  17.159  0.1387  0.2322 -0.4088
  537TMC3    O1 7979   0.008   4.469  17.386 -0.1970  0.2652  0.2223
  537TMC3    O2 7980   0.272   0.068  17.263 -0.2734 -0.4258 -0.1347
  538TMC3    C1 7981   1.542   2.965  11.087 -0.3593 -0.3618 -0.9297
  538TMC3    C2 7982   1.674   2.961  11.064  1.0041 -0.2793 -0.3304
  538TMC3    C3 7983   1.724   3.013  10.947 -0.0849  0.1887  0.3027
  538TMC3    C4 7984   1.453   2.986  10.989 -1.0492  0.3663  0.6677
  538TMC3    C5 7985   1.495   3.019  10.867 -0.5788 -0.1304  0.6145
  538TMC3    C6 7986   1.627   3.055  10.850  0.6157 -0.2754  0.1319
  538TMC3     C 7987   1.515   3.051  11.199  0.3240  0.2242 -0.2133
  538TMC3     O 7988   1.449   3.151  11.180 -0.0689  0.3217 -0.4182
  538TMC3     H 7989   1.743   2.939  11.145 -0.0056  1.1557  0.8971
  538TMC3    H1 7990   1.349   2.990  11.018 -1.4414  0.7229 -0.7689
  538TMC3    H2 7991   1.655   3.118  10.767  0.1004  0.1419  0.2746
  538TMC3    C7 7992   1.388   3.086  10.797 -0.1277 -0.5543 -0.2242
  538TMC3    C8 7993   1.869   3.045  10.940  0.3700  0.2562 -0.5585
  538TMC3    O1 7994   1.282   3.021  10.788 -0.0834 -0.1718  0.2259
  538TMC3    O2 7995   1.933   3.022  11.035  0.0014 -0.6157  0.0422
  539MPD2     C 7996   1.295   2.585  12.177  0.0694  0.0343 -0.3479
  539MPD2    C1 7997   1.237   2.564  12.057 -0.6434  0.7435 -0.2216
  539MPD2    C2 7998   1.173   2.673  12.001 -0.3538  0.3728 -1.0774
  539MPD2    C3 7999   1.177   2.805  12.052 -0.1790  0.2559 -0.4059
  539MPD2    C4 8000   1.245   2.815  12.172  0.4439 -0.6938  0.0024
  539MPD2    C5 8001   1.297   2.708  12.231  0.0583 -0.0641  0.2268
  539MPD2     H 8002   1.121   2.667  11.906  2.2189 -1.0019 -2.3964
  539MPD2    H1 8003   1.262   2.909  12.224  0.1967  0.1493 -1.4238
  539MPD2    H2 8004   1.356   2.511  12.228  0.1688  0.5377  0.2749
  539MPD2    H3 8005   1.347   2.725  12.326 -0.2281 -0.7897  0.5055
  539MPD2     N 8006   1.130   2.921  11.986 -0.5347  0.3684  0.2659
  539MPD2    H5 8007   1.144   3.007  12.039  2.6120 -0.9397  1.5374
  539MPD2    N1 8008   1.266   2.444  11.986  0.0048 -0.1635 -0.4730
  539MPD2    H7 8009   1.253   2.436  11.885 -0.7923  1.8983 -0.5371
  540TMC3    C1 8010   0.997   3.044  11.831  0.1902 -0.1859 -0.0091
  540TMC3    C2 8011   0.964   3.079  11.703 -0.3595 -0.9736  0.2459
  540TMC3    C3 8012   0.878   3.192  11.676  0.1784  0.2210  0.4420
  540TMC3    C4 8013   0.966   3.137  11.930  0.1360  0.5656  0.5022
  540TMC3    C5 8014   0.885   3.247  11.895  0.1512 -0.1381 -0.5630
  540TMC3    C6 8015   0.843   3.275  11.772 -0.1513 -0.3504  0.7385
  540TMC3     C 8016   1.065   2.919  11.865  0.0516  0.5779  0.4558
  540TMC3     O 8017   1.058   2.831  11.783 -0.4064 -0.0030  0.1360
  540TMC3     H 8018   0.989   3.016  11.618 -3.1253 -1.0398 -0.5294
  540TMC3    H1 8019   0.979   3.117  12.036  0.6566 -1.9358 -0.0249
  540TMC3    H2 8020   0.795   3.368  11.743 -0.3882 -1.5126 -2.6044
  540TMC3    C7 8021   0.783   3.268  12.002  0.0629  0.2077 -0.4851
  540TMC3    C8 8022   0.895   3.246  11.542 -0.3784 -1.2306 -0.3648
  540TMC3    O1 8023   0.764   3.169  12.073 -0.2022 -0.0775 -0.4083
  540TMC3    O2 8024   0.936   3.358  11.534  0.1783  0.1533  0.0357
  541MPD2     C 8025   4.420   4.333  13.745  0.7891  0.6076 -0.1306
  541MPD2    C1 8026   4.391   4.250  13.632  0.1328  0.0801  0.7661
  541MPD2    C2 8027   4.407   4.306  13.505 -0.4111 -0.0341 -0.0663
  541MPD2    C3 8028   4.456   4.439  13.493 -0.1053  0.2295  0.3829
  541MPD2    C4 8029   4.482   4.512  13.606  0.1849 -0.6716 -0.0731
  541MPD2    C5 8030   4.476   4.460  13.730 -0.5941  0.1194 -0.2729
  541MPD2     H 8031   4.385   4.247  13.417  0.4682  0.4394 -0.5982
  541MPD2    H1 8032   4.520   4.613  13.599  1.5029 -1.3098 -2.0957
  541MPD2    H2 8033   4.424   4.298  13.848  0.7607  0.0600 -0.3139
  541MPD2    H3 8034   4.499   4.511  13.823  2.7569  0.3010 -1.1811
  541MPD2     N 8035   4.481   4.510  13.374 -0.4790 -0.1918 -0.2056
  541MPD2    H5 8036   4.485   4.612  13.380 -1.2832 -0.1792  0.1644
  541MPD2    N1 8037   4.348   4.114  13.663  0.5024 -0.6666  0.5835
  541MPD2    H7 8038   4.362   4.089  13.760  1.2870 -1.1734  0.3413
  542TMC3    C1 8039   4.455   4.524  13.130 -0.3581  0.0510  0.4686
  542TMC3    C2 8040   4.451   4.440  13.019 -0.2127  0.1255  0.5246
  542TMC3    C3 8041   4.364   4.479  12.922 -0.4876 -0.4865 -0.0974
  542TMC3    C4 8042   4.383   4.639  13.147  0.2155  0.4987 -0.4894
  542TMC3    C5 8043   4.306   4.677  13.040 -0.0614 -0.2629  0.2017
  542TMC3    C6 8044   4.292   4.599  12.927 -0.2674  0.2246  0.2445
  542TMC3     C 8045   4.491   4.447  13.250 -0.5901  0.3741 -1.0222
  542TMC3     O 8046   4.515   4.328  13.235 -0.2597  0.6162 -0.4539
  542TMC3     H 8047   4.507   4.347  13.019  2.3641  1.6891  1.0258
  542TMC3    H1 8048   4.361   4.690  13.240 -0.5685  0.4596 -0.6530
  542TMC3    H2 8049   4.212   4.625  12.859  0.6726 -1.5581 -1.5403
  542TMC3    C7 8050   4.230   0.080  13.052 -0.7389  0.4070  0.0164
  542TMC3    C8 8051   4.361   4.406  12.791 -0.4034  0.3417 -0.9813
  542TMC3    O1 8052   4.224   0.134  13.163 -0.2031  0.1546 -0.6759
  542TMC3    O2 8053   4.361   4.475  12.691 -0.7571  0.0391  0.4841
  543TMC3    C1 8054   3.535   0.729  17.584  0.1234  0.0882  0.3204
  543TMC3    C2 8055   3.579   0.600  17.556  0.5858  0.8650 -0.4100
  543TMC3    C3 8056   3.474   0.514  17.547  0.3316  0.3017  0.2949
  543TMC3    C4 8057   3.403   0.772  17.614  0.1275  0.2469  0.1122
  543TMC3    C5 8058   3.315   0.667  17.623  0.2743  1.2640 -0.1278
  543TMC3    C6 8059   3.349   0.540  17.587  0.0015  0.5551 -0.7210
  543TMC3     C 8060   3.597   0.836  17.512  0.1408  0.0935  0.1856
  543TMC3     O 8061   3.526   0.930  17.481 -0.6344  0.5908 -0.1331
  543TMC3     H 8062   3.675   0.563  17.523  0.5091  0.9175 -0.6890
  543TMC3    H1 8063   3.371   0.875  17.626 -1.5390 -0.2710  0.2391
  543TMC3    H2 8064   3.273   0.463  17.595  1.3275 -0.7170 -0.4766
  543TMC3    C7 8065   3.196   0.683  17.698 -0.1295  0.0549 -0.3989
  543TMC3    C8 8066   3.498   0.380  17.493 -0.0080  0.3640  0.2206
  543TMC3    O1 8067   3.111   0.596   0.002 -0.3678  0.0876  0.9972
  543TMC3    O2 8068   3.611   0.336  17.495 -0.1095 -0.0850  0.2675
  544MPD2     C 8069   3.314   4.631  17.409  0.1080  0.5626  0.5291
  544MPD2    C1 8070   3.445   4.677  17.408  0.1806  0.3826  0.8020
  544MPD2    C2 8071   3.473   0.087  17.410 -0.2766  0.6539  0.4579
  544MPD2    C3 8072   3.367   0.176  17.426  0.3377 -0.1652 -0.0027
  544MPD2    C4 8073   3.237   0.135  17.412 -0.0256  0.1320  0.3484
  544MPD2    C5 8074   3.218   4.725  17.384  0.7841  0.2149  0.0275
  544MPD2     H 8075   3.572   0.124  17.434 -0.8403  1.5849  1.3482
  544MPD2    H1 8076   3.151   0.201  17.418  0.5797  1.1628 -2.5974
  544MPD2    H2 8077   3.285   4.527  17.421  3.4872 -0.3944  0.4741
  544MPD2    H3 8078   3.117   4.689  17.381  0.7505  0.4369 -1.6361
  544MPD2     N 8079   3.385   0.309  17.467 -0.0947 -0.1001  0.2991
  544MPD2    H5 8080   3.299   0.361  17.483 -0.7559 -0.6301 -1.5448
  544MPD2    N1 8081   3.552   4.586  17.415 -0.2674 -0.4028 -0.3936
  544MPD2    H7 8082   3.523   4.491  17.437 -0.7713 -0.5148 -1.5521
  545TMC3    C1 8083   3.755   4.483  17.381 -0.6362 -0.5039  0.1640
  545TMC3    C2 8084   3.864   4.465  17.300  0.0493 -0.4620  0.1134
  545TMC3    C3 8085   3.924   4.343  17.305 -0.9733  0.2561 -0.0693
  545TMC3    C4 8086   3.716   4.396  17.482 -0.6790 -0.5822 -0.3160
  545TMC3    C5 8087   3.792   4.284  17.495  0.5705 -0.4603 -0.1391
  545TMC3    C6 8088   3.894   4.253  17.404 -0.0913  0.1058 -0.3862
  545TMC3     C 8089   3.684   4.608  17.369 -0.3533 -0.5516  0.5287
  545TMC3     O 8090   3.733   4.706  17.315  0.2594  0.3663 -0.6535
  545TMC3     H 8091   3.890   4.545  17.232 -2.0551  0.5864  0.5479
  545TMC3    H1 8092   3.642   4.425  17.555  2.0936  1.6615  1.6048
  545TMC3    H2 8093   3.948   4.160  17.395  3.5242  2.1400  0.0655
  545TMC3    C7 8094   3.746   4.191  17.595 -0.4831  0.0148 -0.1314
  545TMC3    C8 8095   4.036   4.315  17.217  0.1376  0.7380 -0.3476
  545TMC3    O1 8096   3.646   4.211  17.663  0.0763 -0.2990  0.1613
  545TMC3    O2 8097   4.124   4.241  17.251  0.1478 -0.4024 -0.2623
  546MPD2     C 8098   0.179   0.501   0.368 -0.3032  0.0958  0.4083
  546MPD2    C1 8099   0.191   0.507   0.229  0.0146  0.4865  0.8541
  546MPD2    C2 8100   0.207   0.636   0.171 -0.4373  0.6282 -0.0631
  546MPD2    C3 8101   0.207   0.750   0.257  0.3245 -0.1104  0.0406
  546MPD2    C4 8102   0.187   0.739   0.390 -0.0279  0.7682  0.0500
  546MPD2    C5 8103   0.181   0.616   0.442 -0.1534 -0.1252  0.6745
  546MPD2     H 8104   0.232   0.651   0.067 -0.2100 -0.2298 -0.1329
  546MPD2    H1 8105   0.193   0.825   0.456  1.9572  0.1075  0.7418
  546MPD2    H2 8106   0.162   0.411   0.425  0.5360 -0.6031 -0.4580
  546MPD2    H3 8107   0.177   0.599   0.549  2.5064 -1.6351  0.5212
  546MPD2     N 8108   0.238   0.881   0.218  0.3297  0.3326  0.2665
  546MPD2    H5 8109   0.214   0.946   0.292 -0.0068  0.9194 -0.3467
  546MPD2    N1 8110   0.173   0.394   0.157 -0.3320 -0.1221  0.6999
  546MPD2    H7 8111   0.135   0.319   0.213 -1.2962  0.1664  0.4301
  547TMC3    C1 8112   0.098   0.253  17.687  0.6106  0.7762  0.0808
  547TMC3    C2 8113   0.080   0.225  17.556 -0.2044  0.2980  0.3284
  547TMC3    C3 8114   0.006   0.114  17.528 -0.4567  0.1642 -0.0681
  547TMC3    C4 8115   0.048   0.176   0.086 -0.5134 -0.1129  0.6378
  547TMC3    C5 8116   4.704   0.071   0.048  0.1604 -0.0123  0.7196
  547TMC3    C6 8117   4.680   0.037  17.624  0.5923 -0.3366 -0.7216
  547TMC3     C 8118   0.168   0.372   0.022 -0.4032 -0.2603 -0.3190
  547TMC3     O 8119   0.203   0.443  17.637  0.0169 -0.9690 -0.4262
  547TMC3     H 8120   0.111   0.291  17.475  0.6573 -0.3893  0.1111
  547TMC3    H1 8121   0.060   0.193   0.193 -1.1937 -0.1993  0.7273
  547TMC3    H2 8122   4.608   4.687  17.598  2.5470 -2.3022 -0.4215
  547TMC3    C7 8123   4.622   4.719   0.152  0.4022 -0.5496 -0.2052
  547TMC3    C8 8124   4.665   0.122  17.397 -0.4618 -0.3407 -0.4272
  547TMC3    O1 8125   4.583   0.063   0.246  0.1457  0.2488 -0.1682
  547TMC3    O2 8126   4.691   0.213  17.323 -0.1966  0.2685  0.0950
  548MPD2     C 8127   0.421   1.452  12.657  0.4335 -0.3455 -0.0703
  548MPD2    C1 8128   0.363   1.343  12.718  0.2503 -0.0798 -0.6577
  548MPD2    C2 8129   0.420   1.219  12.686  0.9895  0.0963 -0.0754
  548MPD2    C3 8130   0.531   1.199  12.622  0.3182 -0.3728 -0.6386
  548MPD2    C4 8131   0.600   1.317  12.583  0.2429 -0.3374 -0.7742
  548MPD2    C5 8132   0.543   1.443  12.600  0.1482  0.9260 -0.2542
  548MPD2     H 8133   0.361   1.136  12.723  3.3933 -0.8844  1.5451
  548MPD2    H1 8134   0.701   1.316  12.543  0.1397 -1.4495 -0.9969
  548MPD2    H2 8135   0.374   1.549  12.666  1.3495  0.1385 -0.4517
  548MPD2    H3 8136   0.596   1.533  12.570 -0.0935  1.2311  0.2379
  548MPD2     N 8137   0.581   1.071  12.620 -0.6553  0.0433  0.5147
  548MPD2    H5 8138   0.522   0.992  12.643 -0.9203  0.3072  0.7482
  548MPD2    N1 8139   0.246   1.362  12.793  0.4071  0.5166  0.4437
  548MPD2    H7 8140   0.209   1.455  12.777  0.6851  0.9134  2.1038
  549TMC3    C1 8141   0.078   1.299  12.953 -0.7968 -0.1740 -0.0884
  549TMC3    C2 8142   0.012   1.415  12.930 -0.1320 -0.1091 -0.3475
  549TMC3    C3 8143   4.616   1.437  12.982  0.1013  0.5795 -0.2574
  549TMC3    C4 8144   0.021   1.204  13.032 -0.6779  0.3012 -0.2001
  549TMC3    C5 8145   4.622   1.227  13.080  0.6271 -0.0988  0.1951
  549TMC3    C6 8146   4.558   1.345  13.066  0.0501 -0.6512  0.5644
  549TMC3     C 8147   0.195   1.261  12.881 -0.8210  0.0258  0.2209
  549TMC3     O 8148   0.231   1.143  12.890  0.6979 -0.0269  0.2594
  549TMC3     H 8149   0.048   1.498  12.869 -1.3199  0.6488 -0.0192
  549TMC3    H1 8150   0.078   1.113  13.045  0.3158  1.1710  1.5182
  549TMC3    H2 8151   4.453   1.362  13.088  0.4238 -0.5475  2.2356
  549TMC3    C7 8152   4.551   1.136  13.173 -0.2134 -0.3886 -0.3253
  549TMC3    C8 8153   4.518   1.507  12.908 -0.6442 -0.4265  0.1790
  549TMC3    O1 8154   4.455   1.180  13.235  0.3335  0.1158 -0.0200
  549TMC3    O2 8155   4.420   1.443  12.868  0.3257  0.4463 -0.3045
  550TMC3    C1 8156   3.954   4.437  12.758 -0.0065 -0.3474 -0.3602
  550TMC3    C2 8157   3.882   4.524  12.830 -0.4468  0.1079 -0.4960
  550TMC3    C3 8158   3.860   4.651  12.777  0.1862  0.4674  0.1236
  550TMC3    C4 8159   4.010   4.475  12.635  0.8256 -1.6323 -0.3410
  550TMC3    C5 8160   3.970   4.592  12.580 -0.2167  0.1601 -0.0414
  550TMC3    C6 8161   3.901   4.685  12.653  0.7162 -0.8739 -0.0033
  550TMC3     C 8162   3.966   4.290  12.797 -0.6096 -0.7256  1.0218
  550TMC3     O 8163   3.966   4.259  12.915 -0.1244 -0.0105 -0.0815
  550TMC3     H 8164   3.842   4.492  12.926  2.7786  1.3380  1.2370
  550TMC3    H1 8165   4.081   4.410  12.585  0.3181 -1.9229 -0.6852
  550TMC3    H2 8166   3.871   0.048  12.598  1.1410 -0.5433  0.2990
  550TMC3    C7 8167   3.907   4.567  12.457  0.6795 -0.0697 -0.3788
  550TMC3    C8 8168   3.744   4.726  12.806 -0.3708  0.0214  0.0174
  550TMC3    O1 8169   3.796   4.611  12.441  0.0828 -0.4382 -0.5627
  550TMC3    O2 8170   3.700   0.075  12.723  0.5961 -0.5895 -0.6275
  551TMC3    C1 8171   1.081   1.694  13.752  1.0978 -0.7366  0.3515
  551TMC3    C2 8172   1.198   1.700  13.685 -0.1108 -0.8010  0.3747
  551TMC3    C3 8173   1.291   1.778  13.743  0.7624  0.4460 -0.2099
  551TMC3    C4 8174   1.047   1.766  13.867  0.4321 -0.9469 -0.1239
  551TMC3    C5 8175   1.149   1.836  13.925 -0.2759  0.5751  0.1258
  551TMC3    C6 8176   1.268   1.851  13.858 -0.2409  1.0461 -0.0426
  551TMC3     C 8177   0.975   1.633  13.678  0.4790  0.4027  0.1706
  551TMC3     O 8178   0.999   1.597  13.566 -0.1175  0.3272  0.1841
  551TMC3     H 8179   1.219   1.639  13.599  1.4528 -1.7610  1.4377
  551TMC3    H1 8180   0.949   1.752  13.910  0.7526  0.8632  1.1928
  551TMC3    H2 8181   1.342   1.922  13.893  1.6895 -1.2250  0.4653
  551TMC3    C7 8182   1.144   1.872  14.073 -0.0765  0.2635 -0.6275
  551TMC3    C8 8183   1.418   1.796  13.665 -0.2614 -0.0877 -0.6226
  551TMC3    O1 8184   1.250   1.923  14.109 -0.4047 -0.1785 -0.3465
  551TMC3    O2 8185   1.452   1.703  13.589 -0.4225  0.0768 -0.2724
  552MPD2     C 8186   3.020   3.866  14.172  0.6303 -0.0912 -0.0209
  552MPD2    C1 8187   3.127   3.782  14.160  0.0564 -0.5848 -0.1909
  552MPD2    C2 8188   3.239   3.794  14.233  0.1553  0.1619 -0.0589
  552MPD2    C3 8189   3.242   3.869  14.344 -0.3929 -0.7186  0.0473
  552MPD2    C4 8190   3.128   3.949  14.367  0.3078  0.9464 -0.4619
  552MPD2    C5 8191   3.017   3.951  14.281 -0.1573  1.2995 -0.3807
  552MPD2     H 8192   3.326   3.733  14.209 -0.6987 -0.8880 -0.4905
  552MPD2    H1 8193   3.117   4.008  14.457  1.1328 -0.4023  0.5230
  552MPD2    H2 8194   2.927   3.866  14.117  0.6860  0.6898 -0.1153
  552MPD2    H3 8195   2.930   4.010  14.309 -1.2672 -0.3448 -0.3620
  552MPD2     N 8196   3.352   3.872  14.434 -0.4485  0.4352  0.3096
  552MPD2    H5 8197   3.336   3.912  14.526  1.2501  0.8245  0.4356
  552MPD2    N1 8198   3.114   3.690  14.052 -0.5631  0.4995 -0.3568
  552MPD2    H7 8199   3.030   3.690  13.996 -0.8149 -0.9432  0.0131
  553TMC3    C1 8200   3.174   3.503  13.913 -0.5122 -0.1013  0.4989
  553TMC3    C2 8201   3.151   3.574  13.798  0.6685  0.6769 -0.4519
  553TMC3    C3 8202   3.170   3.514  13.679 -0.0819 -0.0812 -0.6089
  553TMC3    C4 8203   3.226   3.374  13.908  0.2043  0.3478 -0.9723
  553TMC3    C5 8204   3.243   3.316  13.785 -0.0505  0.5226  0.7342
  553TMC3    C6 8205   3.205   3.381  13.669 -0.0955 -0.6526 -0.2736
  553TMC3     C 8206   3.198   3.580  14.036 -0.1802  0.0603 -0.2249
  553TMC3     O 8207   3.281   3.538  14.113  0.4978 -0.0971 -0.4602
  553TMC3     H 8208   3.117   3.677  13.804 -0.1975  0.3333  0.5268
  553TMC3    H1 8209   3.242   3.334  14.007 -0.5970  1.7538 -0.2782
  553TMC3    H2 8210   3.233   3.330  13.577  1.0829 -4.0734  1.9879
  553TMC3    C7 8211   3.369   3.243  13.778  0.0126  0.5702  1.1131
  553TMC3    C8 8212   3.206   3.598  13.566 -0.0544  0.6291  0.5641
  553TMC3    O1 8213   3.412   3.220  13.668  0.5338  0.0684  0.1608
  553TMC3    O2 8214   3.206   3.533  13.463 -0.2122  0.3880 -0.4569
  554TMC3    C1 8215   0.018   2.815  11.964 -0.1159  0.3327  0.8488
  554TMC3    C2 8216   4.653   2.791  11.864  0.5768  0.5465 -0.1546
  554TMC3    C3 8217   4.670   2.845  11.737  0.5832 -0.3335 -0.2504
  554TMC3    C4 8218   0.130   2.893  11.943 -0.0942  0.2421  0.1136
  554TMC3    C5 8219   0.142   2.940  11.818  0.3491 -1.1225  0.6988
  554TMC3    C6 8220   0.057   2.916  11.711 -0.1830  0.4802 -0.3902
  554TMC3     C 8221   4.718   2.742  12.094  0.2049  0.7808 -1.0690
  554TMC3     O 8222   4.604   2.710  12.123  0.1567 -0.1673 -0.1793
  554TMC3     H 8223   4.571   2.722  11.879 -0.4870  1.8725  0.1842
  554TMC3    H1 8224   0.197   2.917  12.025 -1.6422  2.4095  0.7526
  554TMC3    H2 8225   0.066   2.974  11.619  1.4961  0.5116 -0.2047
  554TMC3    C7 8226   0.261   3.025  11.804  0.3661 -0.3790  0.0811
  554TMC3    C8 8227   4.585   2.812  11.627 -0.4058 -0.5394 -0.1088
  554TMC3    O1 8228   0.311   3.069  11.906 -0.4097  0.2251 -0.5556
  554TMC3    O2 8229   4.589   2.896  11.537 -0.1545 -0.3960 -0.0971
  555TMC3    C1 8230   4.203   2.339  15.371 -0.6941  0.3777 -0.1806
  555TMC3    C2 8231   4.325   2.286  15.418 -0.4100 -0.1045  0.0287
  555TMC3    C3 8232   4.321   2.192  15.522 -0.2350  0.3331  0.2342
  555TMC3    C4 8233   4.084   2.280  15.411  0.3740 -0.1279 -0.4606
  555TMC3    C5 8234   4.085   2.193  15.517  0.1234  0.2082 -0.5019
  555TMC3    C6 8235   4.203   2.152  15.578  0.1279 -0.0094 -0.4994
  555TMC3     C 8236   4.215   2.443  15.267 -0.2763 -0.4477  0.5260
  555TMC3     O 8237   4.326   2.473  15.219  0.9207 -0.0160 -0.2874
  555TMC3     H 8238   4.419   2.333  15.391 -0.9206  0.3042 -1.0181
  555TMC3    H1 8239   3.987   2.292  15.365 -0.8510 -2.1601  1.5979
  555TMC3    H2 8240   4.197   2.079  15.658  4.2569  1.6100  1.3245
  555TMC3    C7 8241   3.972   2.110  15.523 -0.2371 -0.3654  0.1253
  555TMC3    C8 8242   4.456   2.164  15.584 -0.3644 -0.6744  0.1188
  555TMC3    O1 8243   3.921   2.068  15.419  0.1440 -0.0893  0.0365
  555TMC3    O2 8244   4.550   2.213  15.521 -0.4264 -0.0209  0.0685
  556MPD2     C 8245   1.495   3.752  11.139 -0.3616  0.5378  0.1378
  556MPD2    C1 8246   1.632   3.767  11.154  0.7393 -0.2274  0.9656
  556MPD2    C2 8247   1.702   3.780  11.041  0.3051 -0.3309 -0.2224
  556MPD2    C3 8248   1.642   3.793  10.921  0.5738  0.6270 -0.4792
  556MPD2    C4 8249   1.507   3.769  10.907  0.8337 -0.5316 -0.4909
  556MPD2    C5 8250   1.433   3.756  11.019 -0.6321  0.2223 -0.4065
  556MPD2     H 8251   1.811   3.779  11.046  0.2870  1.0289  0.3873
  556MPD2    H1 8252   1.460   3.762  10.809 -0.6889  2.3735  0.0360
  556MPD2    H2 8253   1.422   3.748  11.220 -1.4674  1.2075 -0.8276
  556MPD2    H3 8254   1.325   3.741  11.026 -0.7455  1.6637  1.1198
  556MPD2     N 8255   1.727   3.815  10.812 -0.0521  0.1920 -0.1939
  556MPD2    H5 8256   1.824   3.841  10.825  0.2021  0.2370 -2.0942
  556MPD2    N1 8257   1.696   3.764  11.277  0.6089  0.6115 -0.2139
  556MPD2    H7 8258   1.797   3.754  11.277  0.6554  1.0585 -0.1075
  557TMC3    C1 8259   1.815   3.828  10.598  0.6340 -0.3960  0.2279
  557TMC3    C2 8260   1.797   3.873  10.470 -0.1875  0.3566  0.0364
  557TMC3    C3 8261   1.837   3.791  10.364  0.0444 -0.4070  0.1348
  557TMC3    C4 8262   1.898   3.723  10.620  0.3560 -0.5559  0.2997
  557TMC3    C5 8263   1.961   3.661  10.518 -0.4166 -0.6249 -0.3612
  557TMC3    C6 8264   1.925   3.687  10.391 -0.2573 -1.1234  0.1494
  557TMC3     C 8265   1.692   3.817  10.675  0.0770  0.1594  0.2359
  557TMC3     O 8266   1.583   3.797  10.617  0.9227  0.0705  0.4951
  557TMC3     H 8267   1.729   3.952  10.441 -0.5164  0.0108 -0.1327
  557TMC3    H1 8268   1.904   3.679  10.719  0.6227  0.4878  0.7445
  557TMC3    H2 8269   1.963   3.616  10.319  1.1478 -0.1032 -0.1289
  557TMC3    C7 8270   1.988   3.520  10.542 -0.4542  0.1703 -0.0507
  557TMC3    C8 8271   1.829   3.842  10.229 -0.1482 -0.2609  0.0143
  557TMC3    O1 8272   1.966   3.437  10.454  0.2794 -0.1055 -0.2711
  557TMC3    O2 8273   1.787   3.956  10.207 -0.4109  0.2734  0.4061
  558TMC3    C1 8274   0.304   1.578  10.434 -0.3402  0.0441  0.0266
  558TMC3    C2 8275   0.171   1.560  10.471 -0.1672 -1.1395  0.6914
  558TMC3    C3 8276   0.092   1.493  10.388  0.7884 -0.3117  0.0880
  558TMC3    C4 8277   0.344   1.525  10.314  0.3570  0.2728 -0.4823
  558TMC3    C5 8278   0.263   1.454  10.228 -0.1145  0.1812 -0.4860
  558TMC3    C6 8279   0.130   1.440  10.265 -0.0057  0.6539  0.0192
  558TMC3     C 8280   0.404   1.617  10.529 -0.1184 -0.2516 -0.3740
  558TMC3     O 8281   0.509   1.654  10.477  0.3707  0.1011  0.5862
  558TMC3     H 8282   0.131   1.615  10.555 -1.0121 -1.5358  0.5577
  558TMC3    H1 8283   0.451   1.527  10.293  0.4470 -1.3047 -0.1140
  558TMC3    H2 8284   0.061   1.380  10.206  1.1099 -0.9337  0.3117
  558TMC3    C7 8285   0.321   1.394  10.114  0.1403 -0.4759 -0.3296
  558TMC3    C8 8286   4.678   1.488  10.405  0.0547  0.1526 -0.4587
  558TMC3    O1 8287   0.424   1.446  10.067 -0.2224 -0.6388 -0.3830
  558TMC3    O2 8288   4.607   1.461  10.312  0.2790  0.3856 -0.3886
  559MPD2     C 8289   4.593   2.159  10.993  0.0563  0.0504 -0.4422
  559MPD2    C1 8290   4.575   2.044  11.071  0.1683  0.2942 -0.0137
  559MPD2    C2 8291   4.666   2.009  11.170 -0.4593 -0.0316 -0.4017
  559MPD2    C3 8292   0.057   2.089  11.184  0.0528 -0.0025 -0.2103
  559MPD2    C4 8293   0.070   2.192  11.093 -0.5910 -0.3630  0.6463
  559MPD2    C5 8294   4.710   2.217  10.993  0.3633  0.1165  0.5320
  559MPD2     H 8295   4.642   1.929  11.240 -1.0884 -1.1684 -1.9097
  559MPD2    H1 8296   0.162   2.248  11.094 -1.5889  1.2952 -0.8169
  559MPD2    H2 8297   4.523   2.184  10.914  1.4565  0.3035 -1.6141
  559MPD2    H3 8298   0.011   2.300  10.930 -0.1019 -0.5923 -0.6016
  559MPD2     N 8299   0.152   2.047  11.282 -0.2083 -0.1637  0.5590
  559MPD2    H5 8300   0.133   1.963  11.335  0.3371 -0.1833  0.7247
  559MPD2    N1 8301   4.452   1.980  11.052 -0.2093  0.0203  0.2142
  559MPD2    H7 8302   4.386   2.019  10.985  0.6195  1.8661  0.4789
  560TMC3    C1 8303   0.354   2.036  11.404  0.0593 -0.4735 -0.2412
  560TMC3    C2 8304   0.339   1.895  11.404 -0.5499  0.0762 -0.6386
  560TMC3    C3 8305   0.444   1.824  11.464 -0.4049 -0.2186  0.0366
  560TMC3    C4 8306   0.470   2.094  11.444 -0.2869  0.1016  0.7513
  560TMC3    C5 8307   0.565   2.020  11.502  0.2567  0.1279 -0.1900
  560TMC3    C6 8308   0.554   1.881  11.516 -0.0125  0.1870  0.0880
  560TMC3     C 8309   0.266   2.116  11.317 -0.3161  0.3605  0.5528
  560TMC3     O 8310   0.325   2.211  11.263  0.0520 -0.0480  0.3669
  560TMC3     H 8311   0.264   1.848  11.341  0.0749 -0.2862 -1.1211
  560TMC3    H1 8312   0.488   2.200  11.428 -0.6667  0.1044  0.3591
  560TMC3    H2 8313   0.624   1.825  11.576 -1.6840 -1.3705  0.5742
  560TMC3    C7 8314   0.649   2.075  11.602  0.2132  0.0983 -0.2090
  560TMC3    C8 8315   0.451   1.682  11.422 -0.3920  0.2973  0.1372
  560TMC3    O1 8316   0.678   2.011  11.706 -0.4299 -0.1848 -0.7063
  560TMC3    O2 8317   0.560   1.629  11.398 -0.2161  0.3116 -1.0578
  561TMC3    C1 8318   2.278   0.904  11.685 -0.4893 -0.1561 -0.3396
  561TMC3    C2 8319   2.230   0.889  11.806 -0.1356  0.0528 -0.2157
  561TMC3    C3 8320   2.254   0.985  11.899 -0.1365  0.1275 -1.0095
  561TMC3    C4 8321   2.355   1.017  11.642  0.9014  0.1765  0.1138
  561TMC3    C5 8322   2.355   1.114  11.734  0.3847  0.1387 -0.0483
  561TMC3    C6 8323   2.300   1.107  11.860 -0.1521  0.5236 -0.9511
  561TMC3     C 8324   2.304   0.784  11.606 -0.0655  1.0949  0.2774
  561TMC3     O 8325   2.286   0.678  11.664 -0.0815 -0.8719  0.5259
  561TMC3     H 8326   2.198   0.791  11.840  0.5423  0.8397  2.7212
  561TMC3    H1 8327   2.390   1.038  11.541  2.2654  2.3438  1.0451
  561TMC3    H2 8328   2.320   1.191  11.926  1.3921 -1.7331  1.4715
  561TMC3    C7 8329   2.403   1.247  11.702 -0.3690 -0.2173 -0.0239
  561TMC3    C8 8330   2.227   0.963  12.038  1.1897 -0.0698 -0.6822
  561TMC3    O1 8331   2.357   1.342  11.765  0.2562  0.1419  0.1503
  561TMC3    O2 8332   2.201   0.845  12.066  0.0522 -0.6463 -0.1594
  562TMC3    C1 8333   3.571   3.005  16.503 -0.2321 -0.0278  0.0745
  562TMC3    C2 8334   3.451   3.046  16.453 -0.5418 -0.5201 -0.1448
  562TMC3    C3 8335   3.435   3.044  16.319 -0.7041 -0.1859 -0.4175
  562TMC3    C4 8336   3.673   2.955  16.430 -0.1552  0.4929  0.2136
  562TMC3    C5 8337   3.646   2.948  16.299  0.0917  0.1038 -0.4561
  562TMC3    C6 8338   3.534   3.011  16.239 -0.0810  0.2317 -0.1061
  562TMC3     C 8339   3.575   2.953  16.637  0.8696  0.2375 -0.3384
  562TMC3     O 8340   3.660   2.867  16.662  0.7404 -0.0638 -1.0256
  562TMC3     H 8341   3.369   3.075  16.518 -1.4339  2.8622 -2.7861
  562TMC3    H1 8342   3.774   2.938  16.465  0.5114 -0.1708 -2.0611
  562TMC3    H2 8343   3.527   3.004  16.131 -0.2242 -0.7132 -0.0383
  562TMC3    C7 8344   3.719   2.856  16.214 -0.7212 -0.4752 -0.6298
  562TMC3    C8 8345   3.296   3.036  16.268  0.0806 -0.2127 -0.0488
  562TMC3    O1 8346   3.714   2.860  16.094  0.1374 -0.2505 -1.0702
  562TMC3    O2 8347   3.205   3.038  16.345  0.2105 -0.1646  0.1718
  563MPD2     C 8348   1.252   3.993  15.880  0.5592 -0.5053  0.6681
  563MPD2    C1 8349   1.218   3.940  16.005 -0.0094  0.0526 -0.2917
  563MPD2    C2 8350   1.322   3.878  16.072  0.2661  0.1991  0.3009
  563MPD2    C3 8351   1.441   3.841  16.021 -0.1185 -0.4529 -0.2069
  563MPD2    C4 8352   1.470   3.886  15.895 -0.2369  0.4324  0.0441
  563MPD2    C5 8353   1.377   3.975  15.832 -0.0605  0.0067  0.8794
  563MPD2     H 8354   1.308   3.851  16.176  1.3357  0.4795  0.5241
  563MPD2    H1 8355   1.571   3.875  15.856  0.0141  2.8443 -0.0109
  563MPD2    H2 8356   1.177   4.059  15.837  0.0839 -0.7959  1.0432
  563MPD2    H3 8357   1.409   4.028  15.743  3.3250  0.2542  2.2170
  563MPD2     N 8358   1.520   3.773  16.111 -0.3697 -0.5773  0.3001
  563MPD2    H5 8359   1.477   3.742  16.198 -0.1944  0.3955  0.7393
  563MPD2    N1 8360   1.110   3.993  16.081  0.8891  0.7846 -1.1040
  563MPD2    H7 8361   1.055   4.067  16.040 -0.3602  0.8394  0.6588
  564TMC3    C1 8362   0.943   3.994  16.261 -1.1336 -0.4171  0.2267
  564TMC3    C2 8363   0.832   3.958  16.194 -0.2796 -0.4401 -0.5492
  564TMC3    C3 8364   0.710   3.948  16.266  0.2538  0.3355  0.0674
  564TMC3    C4 8365   0.945   4.016  16.395  0.3364  0.4216 -0.0313
  564TMC3    C5 8366   0.831   4.005  16.462 -0.0575  0.3154  0.5863
  564TMC3    C6 8367   0.709   3.974  16.403  0.3752 -0.3600  0.2854
  564TMC3     C 8368   1.071   3.939  16.210 -0.4323 -0.1122  0.2207
  564TMC3     O 8369   1.114   3.852  16.284  0.0000  0.6717 -0.2842
  564TMC3     H 8370   0.852   3.966  16.088 -2.3409  3.5909 -0.6309
  564TMC3    H1 8371   1.042   4.016  16.442 -0.7225 -0.9673  2.1489
  564TMC3    H2 8372   0.618   3.959  16.460  0.8932 -2.1200  0.6550
  564TMC3    C7 8373   0.856   3.914  16.568  0.3251  0.2333 -0.1108
  564TMC3    C8 8374   0.617   3.843  16.229 -0.3617  0.0669 -0.1381
  564TMC3    O1 8375   0.966   3.923  16.626 -0.2008  0.5640  0.1669
  564TMC3    O2 8376   0.528   3.816  16.312 -0.3947 -0.4089  0.2765
  565TMC3    C1 8377   1.097   0.175   9.968  0.6518 -1.3811  0.1491
  565TMC3    C2 8378   1.231   0.142   9.987  0.0353 -0.2137 -0.1031
  565TMC3    C3 8379   1.264   0.014  10.033 -0.3754 -0.3341  0.0095
  565TMC3    C4 8380   1.002   0.087  10.008  0.2061 -0.3949  0.3768
  565TMC3    C5 8381   1.039   4.700  10.070 -0.2446 -0.3225 -0.4657
  565TMC3    C6 8382   1.169   4.659  10.086 -0.5739 -0.9675 -0.3290
  565TMC3     C 8383   1.051   0.280   9.893 -0.2290 -0.3567 -0.2869
  565TMC3     O 8384   0.932   0.313   9.893 -1.0631  0.2703  0.6323
  565TMC3     H 8385   1.309   0.216   9.973 -0.1533 -0.1554 -0.8405
  565TMC3    H1 8386   0.898   0.115   9.993  0.0012  0.6692  3.8227
  565TMC3    H2 8387   1.193   4.556  10.109 -1.0522 -0.6299  1.7099
  565TMC3    C7 8388   0.926   4.610  10.116 -0.6090 -0.0724  0.1346
  565TMC3    C8 8389   1.398   4.719  10.089 -0.1795  0.0668  0.3372
  565TMC3    O1 8390   0.822   4.628  10.052 -0.1277  0.1387  0.1953
  565TMC3    O2 8391   1.397   4.638  10.178  0.2864 -0.6454 -0.3025
  566MPD2     C 8392   3.110   2.736  14.551 -0.6662  0.2873  0.4772
  566MPD2    C1 8393   3.212   2.649  14.538 -0.7962  0.7167 -0.2705
  566MPD2    C2 8394   3.187   2.522  14.480  0.2983  0.0998 -0.4135
  566MPD2    C3 8395   3.063   2.481  14.443 -0.5661  0.5458 -0.6504
  566MPD2    C4 8396   2.960   2.564  14.469 -0.6189  0.0298 -0.6372
  566MPD2    C5 8397   2.982   2.693  14.515  0.2813  0.1031  0.3228
  566MPD2     H 8398   3.274   2.468  14.445  0.8491  0.0247  1.1192
  566MPD2    H1 8399   2.860   2.529  14.449 -1.2460  2.0908 -1.1590
  566MPD2    H2 8400   3.110   2.836  14.594  1.8488  0.3986  0.1878
  566MPD2    H3 8401   2.895   2.756  14.520  0.4156  0.2595  0.6850
  566MPD2     N 8402   3.044   2.356  14.379 -0.5634 -0.5910  0.2387
  566MPD2    H5 8403   2.956   2.341  14.330 -0.9086  2.3330 -0.0528
  566MPD2    N1 8404   3.343   2.693  14.565  0.6530 -0.2627  0.2611
  566MPD2    H7 8405   3.359   2.793  14.577 -1.2364  0.2423 -1.4003
  567TMC3    C1 8406   3.576   2.671  14.607  0.8710 -0.1394  0.0400
  567TMC3    C2 8407   3.614   2.746  14.499 -0.2101  0.5538  0.5372
  567TMC3    C3 8408   3.746   2.752  14.462  0.0306  0.3777 -0.4470
  567TMC3    C4 8409   3.666   2.605  14.687  0.5032  0.2091 -0.1218
  567TMC3    C5 8410   3.797   2.609  14.645  0.1199  0.4651  0.0314
  567TMC3    C6 8411   3.837   2.685  14.541 -0.2271  1.0797  0.4099
  567TMC3     C 8412   3.452   2.608  14.591 -0.0594 -0.7544 -0.7559
  567TMC3     O 8413   3.448   2.487  14.618  0.0672  0.7072  0.4373
  567TMC3     H 8414   3.545   2.788  14.427 -0.6397  0.5580  0.9574
  567TMC3    H1 8415   3.623   2.541  14.764 -0.5955  0.5252 -0.4815
  567TMC3    H2 8416   3.937   2.676  14.500 -0.6784 -0.7162 -0.2999
  567TMC3    C7 8417   3.896   2.522  14.705 -0.1950 -0.0529 -0.0306
  567TMC3    C8 8418   3.771   2.810  14.326  0.2478 -0.8935  0.4067
  567TMC3    O1 8419   3.998   2.491  14.648  0.5995  0.4575  1.0863
  567TMC3    O2 8420   3.676   2.814  14.248  0.0001  0.3182  0.2620
  568MPD2     C 8421   1.105   2.854  16.848  0.1114  0.6256  0.3285
  568MPD2    C1 8422   0.992   2.848  16.926 -0.0605  0.3281 -0.1257
  568MPD2    C2 8423   0.875   2.918  16.883 -0.2698  0.0705  0.2451
  568MPD2    C3 8424   0.876   2.989  16.758  0.3243 -0.2040  0.0898
  568MPD2    C4 8425   0.992   2.977  16.677  0.4056  0.0011  0.2730
  568MPD2    C5 8426   1.107   2.917  16.727  0.1975 -0.1179 -0.0213
  568MPD2     H 8427   0.782   2.914  16.940 -1.2927 -2.3822 -1.6157
  568MPD2    H1 8428   1.006   3.007  16.574 -0.0235  0.3941  0.3284
  568MPD2    H2 8429   1.205   2.817  16.869  1.0981  1.6766 -2.4160
  568MPD2    H3 8430   1.201   2.904  16.674 -0.6229  1.8886 -1.9497
  568MPD2     N 8431   0.756   3.050  16.707 -0.0077 -0.0745  0.0438
  568MPD2    H5 8432   0.674   3.048  16.767  0.5708  1.9489  0.8971
  568MPD2    N1 8433   1.000   2.762  17.045 -0.4080 -0.4557  0.7521
  568MPD2    H7 8434   1.092   2.718  17.047 -0.6216 -0.9823 -1.5042
  569TMC3    C1 8435   0.601   3.106  16.545  0.8389  0.9493  0.1583
  569TMC3    C2 8436   0.546   3.209  16.621 -0.5752 -0.0815  0.5299
  569TMC3    C3 8437   0.441   3.269  16.560  0.7938 -0.1833 -0.4678
  569TMC3    C4 8438   0.564   3.080  16.414 -0.1829  0.3856  0.0851
  569TMC3    C5 8439   0.457   3.150  16.364  0.5611 -0.8563  0.5041
  569TMC3    C6 8440   0.383   3.231  16.437  0.3368  0.2106  0.2594
  569TMC3     C 8441   0.741   3.073  16.567  0.4647 -0.0149 -0.4401
  569TMC3     O 8442   0.813   3.083  16.471  0.1082  0.2297  0.2313
  569TMC3     H 8443   0.571   3.221  16.726 -1.0976  0.1177  0.6337
  569TMC3    H1 8444   0.618   3.010  16.351 -2.9079  0.6090 -2.5003
  569TMC3    H2 8445   0.302   3.289  16.394  1.7225  2.2974  0.4971
  569TMC3    C7 8446   0.488   3.209  16.235 -0.3646  0.2445  0.5116
  569TMC3    C8 8447   0.401   3.405  16.600 -0.5955 -0.2113 -0.1491
  569TMC3    O1 8448   0.539   3.129  16.152 -1.0743 -0.0813  0.1821
  569TMC3    O2 8449   0.330   3.471  16.522 -0.0666  0.0982  0.1740
  570TMC3    C1 8450   0.365   1.102  16.507  0.3281 -0.0007  0.0341
  570TMC3    C2 8451   0.437   1.137  16.400  0.5789  0.5691 -0.5274
  570TMC3    C3 8452   0.501   1.258  16.404  0.9434 -0.1706 -0.2514
  570TMC3    C4 8453   0.360   1.175  16.619 -0.2374 -0.5702 -0.2212
  570TMC3    C5 8454   0.425   1.297  16.615 -0.1589  0.1807 -0.5329
  570TMC3    C6 8455   0.487   1.345  16.507 -0.6736  0.9125 -0.1859
  570TMC3     C 8456   0.275   0.987  16.491 -0.5496  0.3797 -0.8910
  570TMC3     O 8457   0.249   0.943  16.382  0.2313 -0.0863 -0.0277
  570TMC3     H 8458   0.442   1.083  16.307  0.0723 -0.4868  0.0626
  570TMC3    H1 8459   0.297   1.159  16.705  0.1325  0.7714  0.2908
  570TMC3    H2 8460   0.534   1.443  16.507 -0.4634  0.8097 -0.1578
  570TMC3    C7 8461   0.385   1.386  16.717  1.0124 -0.1515 -0.0700
  570TMC3    C8 8462   0.578   1.319  16.291 -0.1435  0.0919  0.1815
  570TMC3    O1 8463   0.378   1.350  16.831  0.2604 -0.0485  0.4835
  570TMC3    O2 8464   0.634   1.427  16.304 -0.0079 -0.0649  0.0235
  571MPD2     C 8465   2.741   2.731   0.401 -0.7301  0.4323 -0.6443
  571MPD2    C1 8466   2.790   2.785   0.288  0.4026 -0.4990  0.5740
  571MPD2    C2 8467   2.876   2.891   0.297 -0.0777 -0.1286 -0.2828
  571MPD2    C3 8468   2.902   2.947   0.417  1.1921  0.4690  0.1814
  571MPD2    C4 8469   2.867   2.883   0.529  0.3311 -0.2286 -0.5991
  571MPD2    C5 8470   2.782   2.781   0.525 -0.4304  0.0906 -0.3367
  571MPD2     H 8471   2.932   2.927   0.211  2.3820 -0.9360  1.0037
  571MPD2    H1 8472   2.900   2.927   0.623  0.3890  0.4736 -0.9475
  571MPD2    H2 8473   2.684   2.639   0.407 -0.3453  0.2521  0.1877
  571MPD2    H3 8474   2.746   2.733   0.614  0.3042 -1.9414 -1.1459
  571MPD2     N 8475   2.995   3.050   0.429  0.1267  0.0943  0.7303
  571MPD2    H5 8476   3.018   3.077   0.524 -1.8572  0.7257  1.0170
  571MPD2    N1 8477   2.748   2.715   0.169  1.1316  0.0323  0.3158
  571MPD2    H7 8478   2.690   2.633   0.182  2.3924 -0.7411  1.1003
  572TMC3    C1 8479   3.112   3.241   0.370 -0.1570 -0.3282 -0.0682
  572TMC3    C2 8480   3.208   3.204   0.465 -0.1290 -0.7682 -0.6967
  572TMC3    C3 8481   3.304   3.303   0.486  0.1539  0.4478  0.0419
  572TMC3    C4 8482   3.116   3.358   0.293 -0.4375  0.2653 -0.4392
  572TMC3    C5 8483   3.216   3.452   0.324  0.3150 -0.1999  0.0124
  572TMC3    C6 8484   3.308   3.429   0.422 -0.7516 -0.3703 -0.3611
  572TMC3     C 8485   3.025   3.141   0.325 -0.7582  0.1311 -0.0675
  572TMC3     O 8486   2.995   3.137   0.205 -0.3580 -0.4782  0.7508
  572TMC3     H 8487   3.231   3.101   0.491 -0.9466 -0.1376  2.5012
  572TMC3    H1 8488   3.028   3.373   0.231 -0.0592  1.0792 -0.7797
  572TMC3    H2 8489   3.383   3.501   0.453  1.1191 -1.5804 -2.0614
  572TMC3    C7 8490   3.196   3.587   0.265  0.7078 -0.6957 -0.3322
  572TMC3    C8 8491   3.377   3.300   0.613 -0.7070 -0.5378  0.1909
  572TMC3    O1 8492   3.090   3.612   0.212 -0.3604  0.1691  0.0547
  572TMC3    O2 8493   3.462   3.382   0.636  0.7133  0.1749 -0.6924
  573MPD2     C 8494   4.362   3.510   0.973 -0.6751 -0.2084  1.0037
  573MPD2    C1 8495   4.438   3.620   0.930 -0.2078 -1.0690 -0.4997
  573MPD2    C2 8496   4.458   3.634   0.794 -0.2384  0.0575  0.4321
  573MPD2    C3 8497   4.430   3.534   0.700  0.1343 -0.0574  0.3966
  573MPD2    C4 8498   4.356   3.420   0.746 -0.3574  0.6820  0.1589
  573MPD2    C5 8499   4.321   3.417   0.881 -0.0748  0.0465 -0.0906
  573MPD2     H 8500   4.517   3.719   0.762 -1.8540  0.8759 -0.4287
  573MPD2    H1 8501   4.333   3.338   0.679  1.1671  0.6799 -0.3631
  573MPD2    H2 8502   4.346   3.495   1.079  0.8110 -2.1281  0.9637
  573MPD2    H3 8503   4.275   3.326   0.920  1.9054 -0.5839  0.7576
  573MPD2     N 8504   4.440   3.557   0.563  0.5451 -0.0702  0.3700
  573MPD2    H5 8505   4.408   3.483   0.502 -0.3594  0.6746 -0.0689
  573MPD2    N1 8506   4.491   3.713   1.028  0.4835 -0.1647  0.1643
  573MPD2    H7 8507   4.489   3.694   1.127 -0.9411 -4.4708 -0.7040
  574TMC3    C1 8508   4.434   3.670   0.358 -0.0589  0.3613 -0.0728
  574TMC3    C2 8509   4.313   3.623   0.320 -0.1972  1.1930  0.6510
  574TMC3    C3 8510   4.288   3.632   0.184 -0.1181  0.1294 -0.4788
  574TMC3    C4 8511   4.519   3.737   0.280  0.0295 -0.6666  0.3515
  574TMC3    C5 8512   4.479   3.760   0.154 -0.0035  0.5699 -0.1537
  574TMC3    C6 8513   4.369   3.705   0.100  0.9580  0.3898  0.8986
  574TMC3     C 8514   4.476   3.670   0.493  0.3599  0.4455 -0.6884
  574TMC3     O 8515   4.541   3.765   0.536 -0.2836  0.1702  0.3726
  574TMC3     H 8516   4.236   3.593   0.391 -1.9889  1.8492 -0.9930
  574TMC3    H1 8517   4.623   3.748   0.311  0.6766  1.2310 -2.4049
  574TMC3    H2 8518   4.355   3.715  17.697  2.0377 -1.3939  0.5925
  574TMC3    C7 8519   4.577   3.803   0.065 -0.1114  0.5619 -0.9215
  574TMC3    C8 8520   4.149   3.641   0.152  0.1421 -0.4187 -0.0777
  574TMC3    O1 8521   4.591   3.735  17.669 -0.2863 -0.6572 -0.4427
  574TMC3    O2 8522   4.074   3.555   0.196  0.4685  0.0268 -0.2331
  575TMC3    C1 8523   1.910   0.022  10.821  0.0607  0.5995  0.5961
  575TMC3    C2 8524   1.892   4.633  10.888  0.5413  0.9828  0.0029
  575TMC3    C3 8525   1.822   4.538  10.827  0.2410  0.1260  0.4438
  575TMC3    C4 8526   1.862   0.043  10.696  0.9023 -0.8798  0.3652
  575TMC3    C5 8527   1.779   4.675  10.640 -0.2574 -0.2006  0.0078
  575TMC3    C6 8528   1.765   4.560  10.704 -0.0194  0.3269 -0.1855
  575TMC3     C 8529   1.983   0.125  10.889 -0.4244 -0.4531 -0.5983
  575TMC3     O 8530   1.997   0.122  11.010  0.4306  0.2401  0.2610
  575TMC3     H 8531   1.914   4.628  10.994  2.0046  1.2436 -0.2854
  575TMC3    H1 8532   1.856   0.140  10.648 -0.1135 -1.1636 -0.0934
  575TMC3    H2 8533   1.716   4.475  10.659  0.8638  0.3091 -1.1050
  575TMC3    C7 8534   1.734   4.668  10.502 -0.2446  0.4916 -0.2799
  575TMC3    C8 8535   1.766   4.428  10.903 -0.3346  1.0566  0.2168
  575TMC3    O1 8536   1.641   4.593  10.472 -0.2557 -0.0798 -0.5456
  575TMC3    O2 8537   1.828   4.390  11.000 -0.4384  0.1241 -0.3294
  576MPD2     C 8538   1.573   1.431  12.862  0.6616 -0.4680 -0.5690
  576MPD2    C1 8539   1.641   1.552  12.876  0.0331  0.1821 -0.2025
  576MPD2    C2 8540   1.600   1.645  12.960 -0.0976  0.7662  0.7756
  576MPD2    C3 8541   1.487   1.629  13.038 -0.5911  0.2793  0.3087
  576MPD2    C4 8542   1.415   1.514  13.021  0.5370 -0.2515  0.0018
  576MPD2    C5 8543   1.462   1.414  12.935 -0.8072  1.6475  0.9845
  576MPD2     H 8544   1.650   1.741  12.964  0.6030  0.4075  0.6949
  576MPD2    H1 8545   1.317   1.505  13.066  0.5232  0.6658  0.1726
  576MPD2    H2 8546   1.596   1.346  12.797  0.6831 -1.7586  1.1275
  576MPD2    H3 8547   1.401   1.325  12.929 -2.1822  2.5140  1.8129
  576MPD2     N 8548   1.452   1.732  13.129 -0.2805  0.7432 -0.0326
  576MPD2    H5 8549   1.511   1.814  13.137  0.3753  0.2114  0.6798
  576MPD2    N1 8550   1.761   1.581  12.805  0.4007  0.5738 -0.2349
  576MPD2    H7 8551   1.797   1.675  12.814 -0.3388  0.7349  0.9660
  577TMC3    C1 8552   1.969   1.536  12.716 -0.6651  0.0052  0.1316
  577TMC3    C2 8553   2.071   1.464  12.767 -1.3812 -0.0580 -0.8761
  577TMC3    C3 8554   2.187   1.462  12.701 -0.5223  0.1074 -0.0854
  577TMC3    C4 8555   1.982   1.625  12.606  0.7444 -0.1491 -0.6546
  577TMC3    C5 8556   2.105   1.620  12.538 -0.1051  0.1018 -0.1631
  577TMC3    C6 8557   2.203   1.540  12.586 -0.2461  0.5472  0.4902
  577TMC3     C 8558   1.842   1.482  12.754 -0.2464  0.4860 -0.3394
  577TMC3     O 8559   1.844   1.361  12.764 -0.9528 -0.6275  0.3045
  577TMC3     H 8560   2.051   1.404  12.855  1.5941 -1.6572 -1.3059
  577TMC3    H1 8561   1.896   1.679  12.567  1.1753  0.7637 -0.3361
  577TMC3    H2 8562   2.304   1.554  12.552 -0.1512 -0.5880  0.3203
  577TMC3    C7 8563   2.112   1.644  12.395  0.5674 -0.2953 -0.2056
  577TMC3    C8 8564   2.233   1.329  12.674 -0.3266  0.2691  0.4579
  577TMC3    O1 8565   2.212   1.596  12.347  0.1057 -0.2294 -0.1056
  577TMC3    O2 8566   2.233   1.243  12.763 -0.8071  0.1760  0.1162
  578MPD2     C 8567   4.201   1.951   1.834  0.4076 -0.1766 -0.5751
  578MPD2    C1 8568   4.309   1.918   1.756 -0.2878 -0.1160 -0.4614
  578MPD2    C2 8569   4.369   1.799   1.761  0.3852 -0.9064 -0.3382
  578MPD2    C3 8570   4.320   1.699   1.843  0.9792 -0.4363 -0.2497
  578MPD2    C4 8571   4.210   1.728   1.916 -0.0575 -0.4861 -0.0851
  578MPD2    C5 8572   4.151   1.854   1.916  0.5176  0.2495 -0.1841
  578MPD2     H 8573   4.463   1.777   1.712  1.8495  0.9931  1.6416
  578MPD2    H1 8574   4.157   1.650   1.970 -0.5892 -0.1635 -0.1427
  578MPD2    H2 8575   4.148   2.045   1.825  0.6937 -0.0512 -0.9373
  578MPD2    H3 8576   4.066   1.878   1.978 -0.6846 -0.5092 -1.5287
  578MPD2     N 8577   4.385   1.573   1.846 -0.9926 -0.3540  0.0429
  578MPD2    H5 8578   4.453   1.563   1.773 -0.2213  1.8932  0.4456
  578MPD2    N1 8579   4.344   2.019   1.666 -0.0820  0.5534  0.2024
  578MPD2    H7 8580   4.288   2.103   1.669 -0.8144  0.0816 -0.3245
  579TMC3    C1 8581   4.484   1.388   1.967  0.5301  0.2475 -0.1241
  579TMC3    C2 8582   4.562   1.422   2.069 -0.2838 -0.0391  0.4646
  579TMC3    C3 8583   4.699   1.415   2.058  0.1744 -0.5618  0.6502
  579TMC3    C4 8584   4.535   1.338   1.849  0.7783  0.6369 -0.1819
  579TMC3    C5 8585   4.672   1.332   1.841  0.9405  0.2440 -0.5865
  579TMC3    C6 8586   0.029   1.361   1.944 -0.4420 -0.6741  0.1257
  579TMC3     C 8587   4.372   1.481   1.955  0.0809 -0.6691 -0.2913
  579TMC3     O 8588   4.302   1.498   2.053 -0.0501 -0.2427 -0.0246
  579TMC3     H 8589   4.516   1.469   2.155 -2.4130  0.7973 -1.1391
  579TMC3    H1 8590   4.471   1.323   1.763 -1.7120 -0.9653  1.9650
  579TMC3    H2 8591   0.132   1.329   1.951 -1.0816 -2.4380  1.5118
  579TMC3    C7 8592   0.006   1.264   1.728 -0.3201 -0.1035  0.0286
  579TMC3    C8 8593   0.057   1.465   2.159 -0.4005  0.0099  0.1712
  579TMC3    O1 8594   0.105   1.192   1.746 -0.3688 -0.0627 -0.2557
  579TMC3    O2 8595   0.009   1.475   2.271 -0.7646 -0.2316  0.2134
  580TMC3    C1 8596   0.170   1.135  12.500 -0.3737 -0.5329  0.0170
  580TMC3    C2 8597   0.287   1.097  12.431 -0.1929 -0.6018  0.5361
  580TMC3    C3 8598   0.321   0.968  12.418  0.4983  0.3149 -0.3905
  580TMC3    C4 8599   0.102   1.035  12.559 -0.2577  0.1204 -0.3757
  580TMC3    C5 8600   0.139   0.904  12.540 -0.3497 -0.5053  0.6717
  580TMC3    C6 8601   0.241   0.867  12.470 -0.6846  0.8771 -0.3272
  580TMC3     C 8602   0.116   1.260  12.459  0.3576  0.7538 -0.0965
  580TMC3     O 8603   0.181   1.317  12.374 -0.0489  0.6103  0.4399
  580TMC3     H 8604   0.346   1.175  12.385  0.0417 -0.3938  1.1843
  580TMC3    H1 8605   0.001   1.056  12.594 -0.5155 -1.9685  0.0894
  580TMC3    H2 8606   0.281   0.766  12.468 -0.9426  0.7476  1.0004
  580TMC3    C7 8607   0.033   0.812  12.545 -0.0555 -0.2483 -0.3306
  580TMC3    C8 8608   0.423   0.939  12.323 -1.3953 -0.5655 -0.2401
  580TMC3    O1 8609   4.681   0.821  12.635 -0.6484 -0.4517 -0.7071
  580TMC3    O2 8610   0.423   0.827  12.264  0.1161 -0.6089  0.3177
  581MPD2     C 8611   2.209   0.345  15.167 -0.1356 -0.5103  0.0145
  581MPD2    C1 8612   2.076   0.331  15.145 -0.0105 -0.0048 -0.4992
  581MPD2    C2 8613   2.022   0.385  15.030 -0.4008 -0.0659 -0.1616
  581MPD2    C3 8614   2.098   0.455  14.939 -0.2879  0.8702 -0.2212
  581MPD2    C4 8615   2.232   0.459  14.967 -0.4049 -0.1724  0.0717
  581MPD2    C5 8616   2.290   0.404  15.074 -0.1472 -0.3984 -0.7530
  581MPD2     H 8617   1.919   0.352  15.014 -0.6682  0.3768  0.6496
  581MPD2    H1 8618   2.301   0.508  14.899 -0.0584 -0.6318  0.0907
  581MPD2    H2 8619   2.256   0.302  15.255 -3.0979 -0.5460  1.5635
  581MPD2    H3 8620   2.398   0.400  15.083  0.1386  1.0016 -3.6679
  581MPD2     N 8621   2.051   0.510  14.821  0.5434  0.9210 -0.5025
  581MPD2    H5 8622   2.113   0.549  14.750 -0.6657  0.6158 -1.7375
  581MPD2    N1 8623   2.006   0.270  15.252 -0.7322  0.5538  0.2245
  581MPD2    H7 8624   2.060   0.240  15.333 -0.5107 -1.9388 -0.8479
  582TMC3    C1 8625   1.831   0.202  15.390 -0.3379 -0.7340  0.1789
  582TMC3    C2 8626   1.914   0.143  15.483 -0.7446 -0.1974 -0.7040
  582TMC3    C3 8627   1.861   0.098  15.597  0.4999  0.5887  0.2876
  582TMC3    C4 8628   1.700   0.225  15.423  0.2863 -1.0496 -0.1951
  582TMC3    C5 8629   1.647   0.181  15.539  0.4609  0.4560  0.9274
  582TMC3    C6 8630   1.728   0.118  15.632 -0.0408 -0.1937  0.5723
  582TMC3     C 8631   1.874   0.248  15.258  0.1670 -0.5165 -0.0068
  582TMC3     O 8632   1.790   0.271  15.175 -0.4164  0.4364 -0.3366
  582TMC3     H 8633   2.005   0.092  15.450 -0.1870  0.4375 -0.1508
  582TMC3    H1 8634   1.637   0.278  15.353  0.1834 -0.8936  0.0169
  582TMC3    H2 8635   1.687   0.088  15.728 -0.7078 -1.4638 -0.1125
  582TMC3    C7 8636   1.537   0.252  15.589 -0.5057 -0.0803 -0.1262
  582TMC3    C8 8637   1.954   0.073  15.698 -0.3580  0.1235  0.3010
  582TMC3    O1 8638   1.445   0.201  15.654  0.3691  0.1132  0.4380
  582TMC3    O2 8639   2.045   0.002  15.659  0.7179  0.3198 -0.5167
  583MPD2     C 8640   1.982   1.803  17.318  0.0785  0.2163 -0.1330
  583MPD2    C1 8641   1.974   1.927  17.253 -0.6114  0.6081 -0.1687
  583MPD2    C2 8642   1.901   2.029  17.320 -0.0162 -0.2810  0.2768
  583MPD2    C3 8643   1.842   2.013  17.444 -0.3450  0.7145  0.0085
  583MPD2    C4 8644   1.846   1.890  17.502  0.4521  0.4045 -0.0973
  583MPD2    C5 8645   1.911   1.783  17.441  0.0178  0.4387  0.6669
  583MPD2     H 8646   1.900   2.130  17.281  1.5630 -1.3568 -2.5124
  583MPD2    H1 8647   1.796   1.866  17.595  1.5252  0.3033  0.4463
  583MPD2    H2 8648   2.034   1.719  17.274 -0.1303  1.2306 -2.3475
  583MPD2    H3 8649   1.922   1.688  17.493  1.1695  1.0238  1.4746
  583MPD2     N 8650   1.774   2.123  17.509 -0.0079  0.1194 -0.2305
  583MPD2    H5 8651   1.773   2.212  17.460  0.2765 -0.8043 -1.9012
  583MPD2    N1 8652   2.031   1.958  17.126 -0.3290  0.3783 -0.4537
  583MPD2    H7 8653   2.001   2.049  17.093  1.6780  1.7666  1.6099
  584TMC3    C1 8654   1.652   2.238  17.689 -0.8938  0.1528  0.4999
  584TMC3    C2 8655   1.633   2.352  17.607  0.1753 -0.3531  0.0816
  584TMC3    C3 8656   1.608   2.468  17.671  0.0901  0.3003 -0.2142
  584TMC3    C4 8657   1.629   2.241   0.121  0.2671  0.1554  0.0945
  584TMC3    C5 8658   1.585   2.362   0.173  0.2014 -0.7042 -0.0888
  584TMC3    C6 8659   1.584   2.477   0.101 -0.6991 -0.1101  0.3548
  584TMC3     C 8660   1.720   2.121  17.635 -0.1094  0.0684 -0.3593
  584TMC3     O 8661   1.723   2.025   0.005 -0.0878 -0.0813  0.3754
  584TMC3     H 8662   1.654   2.354  17.501  0.0615  0.0201  0.0656
  584TMC3    H1 8663   1.633   2.148   0.177 -0.9184 -0.3768 -0.7051
  584TMC3    H2 8664   1.553   2.567   0.152 -1.6836 -0.5289  0.4857
  584TMC3    C7 8665   1.556   2.368   0.312  0.1812 -0.3782 -0.1873
  584TMC3    C8 8666   1.601   2.588  17.592 -0.6366 -0.3436 -1.0159
  584TMC3    O1 8667   1.575   2.478   0.371  0.4969  0.3186  0.7230
  584TMC3    O2 8668   1.579   2.577  17.472  0.0429  0.1097  0.3278
  585MPD2     C 8669   1.136   1.392   1.159 -0.3984 -0.0268 -0.1609
  585MPD2    C1 8670   1.250   1.423   1.088 -0.1586  0.2645 -0.5309
  585MPD2    C2 8671   1.269   1.364   0.966 -0.0979 -0.3026  0.4557
  585MPD2    C3 8672   1.193   1.260   0.927 -0.5213  0.2665  0.2256
  585MPD2    C4 8673   1.087   1.218   1.007  0.1190 -0.0940 -0.2240
  585MPD2    C5 8674   1.055   1.291   1.119 -0.8891  0.6359  0.1958
  585MPD2     H 8675   1.363   1.374   0.912  0.6237  0.9217  1.9702
  585MPD2    H1 8676   1.024   1.135   0.978 -2.1008  0.5851  2.6169
  585MPD2    H2 8677   1.126   1.434   1.259  0.8562 -0.8833  0.3264
  585MPD2    H3 8678   0.978   1.267   1.191 -0.7667  1.1019  0.4844
  585MPD2     N 8679   1.202   1.195   0.800 -0.6003 -0.2358  0.0606
  585MPD2    H5 8680   1.132   1.122   0.795 -2.4488  1.4773  0.7932
  585MPD2    N1 8681   1.341   1.524   1.142 -0.6075  0.2680  0.3420
  585MPD2    H7 8682   1.297   1.583   1.213  0.0895 -0.3268  1.2629
  586TMC3    C1 8683   1.241   1.184   0.574  0.4097  0.2507 -0.0473
  586TMC3    C2 8684   1.319   1.143   0.466  0.0359  0.6902 -1.2944
  586TMC3    C3 8685   1.276   1.170   0.340 -0.8191  0.3315 -0.0614
  586TMC3    C4 8686   1.115   1.234   0.558  0.4320 -0.3149  0.5733
  586TMC3    C5 8687   1.074   1.269   0.427 -0.5199  0.2122  0.5560
  586TMC3    C6 8688   1.159   1.238   0.317  0.3858 -0.3989 -0.1337
  586TMC3     C 8689   1.301   1.214   0.700 -0.4619 -0.4776  0.5359
  586TMC3     O 8690   1.406   1.276   0.694  0.0996 -0.2578  0.0876
  586TMC3     H 8691   1.416   1.097   0.483 -0.2250  0.8369  0.5407
  586TMC3    H1 8692   1.052   1.271   0.638  0.0375 -1.4013  0.7688
  586TMC3    H2 8693   1.112   1.224   0.221  2.2723 -3.8497 -0.5582
  586TMC3    C7 8694   0.931   1.260   0.409 -0.0549 -0.2072  0.0225
  586TMC3    C8 8695   1.333   1.083   0.242 -0.2815  0.2870 -0.0523
  586TMC3    O1 8696   0.867   1.316   0.496  0.1984  0.3186  0.2083
  586TMC3    O2 8697   1.406   0.992   0.283  0.1479  0.2056  0.1908
  587TMC3    C1 8698   3.291   4.520  17.076  0.0851 -0.9544 -0.4224
  587TMC3    C2 8699   3.323   4.657  17.060  0.4443 -0.3258  0.0002
  587TMC3    C3 8700   3.454   4.689  17.050  0.1977 -0.5321 -0.0650
  587TMC3    C4 8701   3.388   4.422  17.073  0.1071 -0.0418 -0.6226
  587TMC3    C5 8702   3.515   4.462  17.047  0.3725 -0.1134 -0.4412
  587TMC3    C6 8703   3.552   4.594  17.045  0.6719  0.1970 -0.0289
  587TMC3     C 8704   3.157   4.481  17.111  0.2871 -0.0022 -0.1496
  587TMC3     O 8705   3.064   4.559  17.088  0.4175  0.3073 -0.2381
  587TMC3     H 8706   3.252   0.012  17.076  0.2147 -0.6519  0.6616
  587TMC3    H1 8707   3.350   4.321  17.066  0.8196 -0.3382 -0.1274
  587TMC3    H2 8708   3.657   4.612  17.024  0.4171  1.9372  0.2372
  587TMC3    C7 8709   3.625   4.363  17.037 -0.2288 -1.0568 -0.0515
  587TMC3    C8 8710   3.508   0.098  17.047  0.2028 -0.3465 -0.9452
  587TMC3    O1 8711   3.733   4.397  16.991  0.9290  0.1228 -0.1290
  587TMC3    O2 8712   3.617   0.118  16.992 -0.8285  0.6675 -0.2620
  588TMC3    C1 8713   1.784   2.240  10.016 -0.5231  0.4770  0.5395
  588TMC3    C2 8714   1.794   2.101  10.026 -0.2408 -0.1386  0.6990
  588TMC3    C3 8715   1.889   2.053  10.112  0.8962  0.7684  0.2674
  588TMC3    C4 8716   1.856   2.323  10.099  0.1401 -0.0036 -0.4811
  588TMC3    C5 8717   1.958   2.272  10.181  0.4292  0.7234 -1.2924
  588TMC3    C6 8718   1.970   2.131  10.185 -0.3502  0.0318  0.1280
  588TMC3     C 8719   1.668   2.293   9.946 -0.5718 -0.0104  0.0268
  588TMC3     O 8720   1.576   2.219   9.940 -0.0352  0.6305 -0.2627
  588TMC3     H 8721   1.729   2.040   9.964  0.4696 -2.0558  1.8479
  588TMC3    H1 8722   1.822   2.425  10.111 -1.3905 -0.3565 -1.7798
  588TMC3    H2 8723   2.039   2.085  10.255  0.0603 -2.4070 -1.8982
  588TMC3    C7 8724   2.034   2.359  10.264 -0.2775  0.6994  0.3543
  588TMC3    C8 8725   1.864   1.917  10.136  0.3057  0.4937 -0.4896
  588TMC3    O1 8726   2.077   2.321  10.370 -0.4900  0.3725  0.6034
  588TMC3    O2 8727   1.787   1.857  10.065 -0.5857  0.2780  0.6342
  589TMC3    C1 8728   0.402   4.491   1.238 -0.5236  0.0994  0.4918
  589TMC3    C2 8729   0.487   4.511   1.349 -0.3266 -0.2980  0.1818
  589TMC3    C3 8730   0.593   4.435   1.362  0.3678  0.3131  0.3405
  589TMC3    C4 8731   0.423   4.388   1.152 -0.4123  0.2818 -0.1440
  589TMC3    C5 8732   0.537   4.312   1.179  0.8449  0.0394 -0.0766
  589TMC3    C6 8733   0.618   4.326   1.286  0.0334  0.1756  0.1558
  589TMC3     C 8734   0.262   4.523   1.262 -0.9576  1.0647  0.3372
  589TMC3     O 8735   0.182   4.438   1.226 -0.5302 -0.3939 -0.3940
  589TMC3     H 8736   0.463   4.582   1.428 -0.2880  0.6787 -0.6805
  589TMC3    H1 8737   0.349   4.361   1.077  0.0999 -0.1552 -0.4919
  589TMC3    H2 8738   0.700   4.258   1.308  0.4326  0.2371 -1.1249
  589TMC3    C7 8739   0.556   4.192   1.094 -1.1058  0.5704  0.6274
  589TMC3    C8 8740   0.684   4.452   1.477 -0.3056 -0.3798 -0.5939
  589TMC3    O1 8741   0.629   4.103   1.140  0.5211 -0.1707  0.6858
  589TMC3    O2 8742   0.639   4.509   1.576  0.0453 -0.2849  0.2958
  590MPD2     C 8743   4.266   3.081  16.866 -0.0617  0.7054 -0.5746
  590MPD2    C1 8744   4.196   3.139  16.760  0.2131 -0.0224  0.9065
  590MPD2    C2 8745   4.257   3.152  16.639 -0.2768 -0.5532  0.0247
  590MPD2    C3 8746   4.385   3.097  16.621 -0.4368  0.7143  0.1878
  590MPD2    C4 8747   4.457   3.044  16.729  0.2435  0.0015 -0.6779
  590MPD2    C5 8748   4.398   3.044  16.851  0.5024  0.2665 -0.0890
  590MPD2     H 8749   4.209   3.200  16.554  1.3652  0.2087 -0.4725
  590MPD2    H1 8750   4.559   3.010  16.718  0.2309  0.1101 -1.1396
  590MPD2    H2 8751   4.213   3.072  16.960 -0.8071  1.6538 -0.9018
  590MPD2    H3 8752   4.454   2.989  16.926  2.3912  1.3547 -0.6877
  590MPD2     N 8753   4.433   3.112  16.488 -0.0003  0.2695 -0.2951
  590MPD2    H5 8754   4.374   3.165  16.426  0.9904 -0.3283 -1.7587
  590MPD2    N1 8755   4.068   3.193  16.783 -0.0772  0.4068  0.1967
  590MPD2    H7 8756   4.049   3.195  16.882 -1.7701  1.1322 -0.1462
  591TMC3    C1 8757   4.621   3.145  16.342 -0.3899  0.9035  0.3960
  591TMC3    C2 8758   0.001   3.095  16.271  0.1466  0.5566 -0.3915
  591TMC3    C3 8759   0.042   3.157  16.160  0.0006 -0.5584  0.7422
  591TMC3    C4 8760   4.559   3.266  16.303  0.0897  0.2639 -0.8748
  591TMC3    C5 8761   4.615   3.332  16.202  0.3925 -0.4635  1.0208
  591TMC3    C6 8762   4.703   3.274  16.115 -0.0305  0.4673  0.5508
  591TMC3     C 8763   4.558   3.069  16.448 -0.4538 -0.6563  0.1136
  591TMC3     O 8764   4.634   2.984  16.498  0.1701 -0.1727 -0.3462
  591TMC3     H 8765   0.029   2.994  16.299 -1.3417 -0.2237 -1.7150
  591TMC3    H1 8766   4.496   3.316  16.374  0.1618 -1.6212  0.5149
  591TMC3    H2 8767   0.002   3.333  16.028 -0.2964 -1.4282 -0.8180
  591TMC3    C7 8768   4.571   3.470  16.184  0.0607 -0.2250  0.6140
  591TMC3    C8 8769   0.146   3.087  16.081  0.3898  0.4810  0.3832
  591TMC3    O1 8770   4.460   3.501  16.225 -0.0970  0.1471 -0.4036
  591TMC3    O2 8771   0.183   2.981  16.132 -0.3565  0.0425  0.0543
  592MPD2     C 8772   0.810   0.361  11.684  0.5347 -0.0398  0.4889
  592MPD2    C1 8773   0.787   0.404  11.807  0.0087  0.1916 -0.5093
  592MPD2    C2 8774   0.673   0.360  11.863 -0.5395 -0.6483 -0.0909
  592MPD2    C3 8775   0.575   0.295  11.791 -0.8287 -0.0664 -0.4663
  592MPD2    C4 8776   0.590   0.269  11.658  0.4360 -0.1840 -0.2251
  592MPD2    C5 8777   0.710   0.304  11.604 -0.1086  0.0086  0.4617
  592MPD2     H 8778   0.648   0.374  11.968 -1.5650 -1.7731 -0.1786
  592MPD2    H1 8779   0.521   0.215  11.594  0.9837 -2.1183  0.8306
  592MPD2    H2 8780   0.903   0.385  11.634 -0.2805 -0.9530 -1.4861
  592MPD2    H3 8781   0.727   0.275  11.501  0.3426  1.0871  0.2395
  592MPD2     N 8782   0.469   0.245  11.868 -0.2136 -0.1960 -0.7196
  592MPD2    H5 8783   0.467   0.269  11.967  2.3218 -3.4035  0.0944
  592MPD2    N1 8784   0.879   0.488  11.875  0.1087 -0.0926 -0.1151
  592MPD2    H7 8785   0.971   0.497  11.832  0.8425 -2.2453  0.9753
  593TMC3    C1 8786   0.975   0.614  12.045  0.5270 -0.1182 -0.2543
  593TMC3    C2 8787   1.004   0.624  12.179 -0.1671  0.2989 -0.3438
  593TMC3    C3 8788   1.119   0.688  12.216 -0.1918 -0.4081  0.3117
  593TMC3    C4 8789   1.052   0.683  11.954  0.1372 -0.5580  0.3471
  593TMC3    C5 8790   1.162   0.754  11.997  0.0197 -0.0694 -0.7187
  593TMC3    C6 8791   1.201   0.757  12.126 -0.1245  0.4161  0.3001
  593TMC3     C 8792   0.868   0.534  12.008 -0.3587 -0.1224 -0.7003
  593TMC3     O 8793   0.774   0.514  12.088  0.3742  0.2643  0.5079
  593TMC3     H 8794   0.942   0.558  12.239 -0.9129 -1.4674 -3.0756
  593TMC3    H1 8795   1.024   0.693  11.849  0.6897 -0.8639  0.1679
  593TMC3    H2 8796   1.279   0.826  12.156  1.1853 -0.4605 -1.1326
  593TMC3    C7 8797   1.215   0.847  11.906  0.4610  0.1077 -0.0501
  593TMC3    C8 8798   1.190   0.617  12.316  0.0555 -0.6205 -0.6616
  593TMC3    O1 8799   1.282   0.935  11.961  0.9141  0.2497 -0.2883
  593TMC3    O2 8800   1.123   0.535  12.370 -0.0159 -0.2980  0.3694
  594MPD2     C 8801   4.208   3.630  14.786 -0.4793  0.1391  0.1458
  594MPD2    C1 8802   4.132   3.706  14.705 -0.0437 -0.1103  0.6632
  594MPD2    C2 8803   4.183   3.824  14.654 -0.5883  0.2814 -0.4798
  594MPD2    C3 8804   4.317   3.858  14.680 -0.1110 -0.4667  0.6066
  594MPD2    C4 8805   4.398   3.770  14.740  0.4539  0.1639 -0.5430
  594MPD2    C5 8806   4.342   3.650  14.789 -0.8014 -0.7368  0.1660
  594MPD2     H 8807   4.119   3.900  14.610  0.0605  1.5311  0.7403
  594MPD2    H1 8808   4.498   3.798  14.772  1.1670 -1.2156 -1.5595
  594MPD2    H2 8809   4.177   3.537  14.832  1.0634 -1.2547 -1.6556
  594MPD2    H3 8810   4.407   3.591  14.852  0.4525  1.5367  1.0206
  594MPD2     N 8811   4.362   3.984  14.642  0.6388 -0.1312 -0.2096
  594MPD2    H5 8812   4.294   4.045  14.599 -0.7117 -1.2092  0.4164
  594MPD2    N1 8813   3.994   3.667  14.682  0.1253 -0.1520  0.6607
  594MPD2    H7 8814   3.948   3.588  14.725  1.4582 -0.9187  0.6645
  595TMC3    C1 8815   4.626   4.368  14.614 -0.2171 -0.5302 -0.1395
  595TMC3    C2 8816   4.609   4.237  14.594 -0.4477 -1.6634  0.3643
  595TMC3    C3 8817   4.491   4.183  14.622  1.0051  0.3968 -0.2526
  595TMC3    C4 8818   4.526   4.441  14.669  0.9013 -0.4609 -0.4288
  595TMC3    C5 8819   4.405   4.384  14.697  0.4738 -0.6286  0.1432
  595TMC3    C6 8820   4.380   4.253  14.665 -0.0993 -0.4593  0.1825
  595TMC3     C 8821   0.035   4.413  14.610 -0.8463 -0.2509  0.0164
  595TMC3     O 8822   0.136   4.338  14.617 -0.0985 -0.6722  0.1987
  595TMC3     H 8823   4.688   4.183  14.544  1.1555 -0.5890  1.7334
  595TMC3    H1 8824   4.544   4.547  14.681 -0.8982 -0.1865 -0.1832
  595TMC3    H2 8825   4.285   4.217  14.702 -2.0893  3.3824 -1.2588
  595TMC3    C7 8826   4.300   4.464  14.767 -0.3971 -0.1873 -0.3218
  595TMC3    C8 8827   4.484   4.040  14.653 -0.4357  0.6823  0.0937
  595TMC3    O1 8828   4.191   4.413  14.792  0.0895  0.3382  0.5765
  595TMC3    O2 8829   4.596   3.993  14.685 -0.2520  0.7035  0.0837
  596MPD2     C 8830   2.860   2.097  16.954 -0.5462 -0.7846  0.4012
  596MPD2    C1 8831   2.794   2.190  16.879 -0.4244  0.0308 -0.0701
  596MPD2    C2 8832   2.802   2.187  16.740 -0.3649  0.5867 -0.1299
  596MPD2    C3 8833   2.870   2.087  16.680 -0.1942 -0.1505  0.1038
  596MPD2    C4 8834   2.951   2.001  16.751 -0.2385 -0.4871  0.3528
  596MPD2    C5 8835   2.939   2.008  16.885  0.0472  0.0335 -0.1154
  596MPD2     H 8836   2.737   2.247  16.678 -2.0767 -1.3967 -0.2218
  596MPD2    H1 8837   3.008   1.921  16.704 -1.8392 -1.1082 -0.5155
  596MPD2    H2 8838   2.862   2.098  17.062 -0.6429  0.5888  0.3940
  596MPD2    H3 8839   2.987   1.932  16.945  1.0293 -0.1020 -1.0731
  596MPD2     N 8840   2.849   2.079  16.540  0.0168 -0.5468 -0.4137
  596MPD2    H5 8841   2.784   2.147  16.501  1.0083  0.6355 -0.0109
  596MPD2    N1 8842   2.719   2.292  16.939  0.3620 -0.0394  0.1353
  596MPD2    H7 8843   2.707   2.374  16.881  0.3072  0.3405  0.6746
  597TMC3    C1 8844   2.604   2.413  17.105 -0.0308 -0.5843  0.2674
  597TMC3    C2 8845   2.642   2.528  17.042 -0.1723 -0.6712  0.0235
  597TMC3    C3 8846   2.616   2.648  17.105  0.4117 -0.3397  0.0342
  597TMC3    C4 8847   2.530   2.414  17.216 -0.1516  1.0360  0.0691
  597TMC3    C5 8848   2.501   2.535  17.265 -0.1133 -0.2106 -0.0844
  597TMC3    C6 8849   2.529   2.657  17.212 -0.0141  0.1683 -0.2617
  597TMC3     C 8850   2.653   2.287  17.059  0.1805 -0.1590  0.1262
  597TMC3     O 8851   2.638   2.188  17.130  0.4215 -0.0904 -0.3247
  597TMC3     H 8852   2.670   2.531  16.938  0.8477 -1.0292  0.2852
  597TMC3    H1 8853   2.496   2.324  17.264 -1.6634  2.1084  0.9839
  597TMC3    H2 8854   2.494   2.750  17.256 -0.0483  1.1103 -2.3088
  597TMC3    C7 8855   2.411   2.529  17.376  0.3889  0.9332  0.1242
  597TMC3    C8 8856   2.604   2.764  17.024  0.7841  0.0244  0.6582
  597TMC3    O1 8857   2.403   2.428  17.443  0.7103 -0.2437 -0.6945
  597TMC3    O2 8858   2.514   2.838  17.059  0.3679  0.1559  0.1514
  598TMC3    C1 8859   1.188   3.443  15.558  0.3049 -0.0903  0.0374
  598TMC3    C2 8860   1.084   3.359  15.540  0.1778 -0.3289  0.5615
  598TMC3    C3 8861   1.040   3.346  15.409 -0.6890  1.1824 -0.2466
  598TMC3    C4 8862   1.250   3.514  15.456 -0.6401  0.2904  0.0460
  598TMC3    C5 8863   1.200   3.492  15.329 -0.7288  0.0649 -0.1466
  598TMC3    C6 8864   1.088   3.417  15.302  0.0098  0.0318 -0.3321
  598TMC3     C 8865   1.220   3.490  15.692 -0.2869 -0.9238 -0.1339
  598TMC3     O 8866   1.320   3.559  15.716  0.3848 -0.5463  0.4344
  598TMC3     H 8867   1.040   3.300  15.619 -1.1493 -0.9893 -0.6569
  598TMC3    H1 8868   1.346   3.562  15.468  0.2329 -1.2588 -0.6744
  598TMC3    H2 8869   1.038   3.410  15.206 -0.0660 -0.4814 -0.2584
  598TMC3    C7 8870   1.254   3.565  15.218 -0.6328 -0.0672 -0.2954
  598TMC3    C8 8871   0.944   3.245  15.386 -0.4702 -0.3008 -0.7440
  598TMC3    O1 8872   1.220   3.516  15.111 -0.8171  0.3564 -0.6314
  598TMC3    O2 8873   0.891   3.196  15.485  0.1742 -0.5105  0.4628
  599MPD2     C 8874   1.104   0.952  15.871 -0.1814  0.2834 -0.0835
  599MPD2    C1 8875   1.129   0.846  15.951 -0.0664 -0.5087 -0.2162
  599MPD2    C2 8876   1.032   0.807  16.042  0.2864  0.7255  0.3528
  599MPD2    C3 8877   0.927   0.886  16.067  0.2666 -0.8566 -0.5585
  599MPD2    C4 8878   0.906   0.995  15.984  0.1792 -0.1678  0.1077
  599MPD2    C5 8879   0.994   1.034  15.884 -0.9012  0.5618  0.6075
  599MPD2     H 8880   1.042   0.725  16.113 -1.9676 -1.3434 -1.7102
  599MPD2    H1 8881   0.820   1.059  16.000  0.8559  0.4171  1.3792
  599MPD2    H2 8882   1.172   0.995  15.799 -1.8713 -2.2542 -3.1993
  599MPD2    H3 8883   0.984   1.124  15.825  0.9048  0.4268  0.0697
  599MPD2     N 8884   0.825   0.853  16.166 -0.5292  0.0757  0.0579
  599MPD2    H5 8885   0.752   0.922  16.182 -0.6531 -0.1623  0.5047
  599MPD2    N1 8886   1.242   0.768  15.923  0.3525 -0.2164  0.2755
  599MPD2    H7 8887   1.311   0.789  15.852  0.7151  0.4553  0.8222
  600TMC3    C1 8888   0.714   0.747  16.344  0.9047 -0.0944  0.2958
  600TMC3    C2 8889   0.647   0.635  16.391 -0.2604 -0.3811 -0.0391
  600TMC3    C3 8890   0.618   0.620  16.521 -0.6138 -0.3948 -0.4264
  600TMC3    C4 8891   0.737   0.850  16.429  0.1599  0.0375 -0.0307
  600TMC3    C5 8892   0.702   0.831  16.561 -0.2661  0.5961  0.5247
  600TMC3    C6 8893   0.639   0.718  16.612 -0.1982  0.3791 -0.2658
  600TMC3     C 8894   0.801   0.730  16.228 -1.0661  0.0960  1.2408
  600TMC3     O 8895   0.842   0.618  16.196 -0.5357 -0.6425 -0.1774
  600TMC3     H 8896   0.622   0.552  16.326  0.6353 -1.0364  0.4635
  600TMC3    H1 8897   0.790   0.939  16.394 -2.0896  1.5109  0.3054
  600TMC3    H2 8898   0.609   0.713  16.716 -0.2847 -0.4189 -0.3310
  600TMC3    C7 8899   0.700   0.943  16.658 -0.2104 -0.4622  0.3094
  600TMC3    C8 8900   0.510   0.528  16.571  0.9252 -0.0253  0.6692
  600TMC3    O1 8901   0.634   0.933  16.759  0.1388  0.5868  0.1638
  600TMC3    O2 8902   0.526   0.506  16.689 -0.2788  0.9415  0.6188
  601MPD2     C 8903   3.324   4.086   0.220 -0.5307  0.4824  0.1883
  601MPD2    C1 8904   3.228   4.005   0.154 -0.1047 -0.4933  0.6254
  601MPD2    C2 8905   3.229   3.866   0.172  0.0781  0.1395 -0.5877
  601MPD2    C3 8906   3.315   3.806   0.258  0.1655  0.0416 -0.2762
  601MPD2    C4 8907   3.401   3.889   0.327 -0.2746 -0.3149  0.2798
  601MPD2    C5 8908   3.409   4.020   0.305  0.0063  0.7992  0.6907
  601MPD2     H 8909   3.153   3.800   0.129 -0.1501  0.6889 -1.0177
  601MPD2    H1 8910   3.462   3.843   0.404 -2.9772 -1.4246  1.7314
  601MPD2    H2 8911   3.331   4.194   0.211 -0.6210  0.4384 -0.4362
  601MPD2    H3 8912   3.467   4.079   0.374 -0.9757  2.4275  0.1254
  601MPD2     N 8913   3.311   3.666   0.288  1.0274 -0.9222  0.5958
  601MPD2    H5 8914   3.392   3.626   0.334 -0.3245 -0.2449  3.5818
  601MPD2    N1 8915   3.129   4.066   0.065  0.3117 -0.7816 -0.1417
  601MPD2    H7 8916   3.060   4.015   0.011 -1.9731  1.0580  1.0677
  602TMC3    C1 8917   3.007   4.233  17.645 -0.5545 -0.7515 -0.1831
  602TMC3    C2 8918   3.018   4.359  17.586  0.7378  0.4001 -0.5635
  602TMC3    C3 8919   2.908   4.407  17.519  1.4629 -0.2521 -1.0517
  602TMC3    C4 8920   2.900   4.150  17.628  0.3422 -0.2092 -0.2828
  602TMC3    C5 8921   2.793   4.204  17.562 -0.2189 -0.7695  0.5032
  602TMC3    C6 8922   2.798   4.325  17.505  0.2897  0.4775 -0.7265
  602TMC3     C 8923   3.124   4.196   0.023 -0.4611  0.6474  0.3663
  602TMC3     O 8924   3.200   4.290   0.038  0.2617 -0.2713  0.1543
  602TMC3     H 8925   3.106   4.421  17.598  0.6118  0.1925  1.4292
  602TMC3    H1 8926   2.895   4.050  17.671 -0.8169  0.3573  0.9097
  602TMC3    H2 8927   2.710   4.355  17.449  0.6489 -1.4895 -2.3666
  602TMC3    C7 8928   2.661   4.134  17.580 -0.7330 -0.3123  0.3876
  602TMC3    C8 8929   2.886   4.552  17.535 -0.2358 -0.5788  0.1402
  602TMC3    O1 8930   2.676   4.022  17.634  0.1515  0.3634 -0.5574
  602TMC3    O2 8931   2.977   4.617  17.576  0.0443  0.5439  0.3417
  603TMC3    C1 8932   1.165   4.308  11.297 -0.9519 -0.4654  0.5010
  603TMC3    C2 8933   1.188   4.271  11.418  0.6181 -0.1948  0.2780
  603TMC3    C3 8934   1.296   4.313  11.480 -0.9144  0.7939 -0.3722
  603TMC3    C4 8935   1.227   4.408  11.231 -0.4343  0.3049  0.2758
  603TMC3    C5 8936   1.331   4.465  11.298 -0.2397  0.7628 -0.9550
  603TMC3    C6 8937   1.361   4.417  11.421  0.1102  0.7975 -0.4698
  603TMC3     C 8938   1.034   4.279  11.245  0.4866 -0.0937  0.1462
  603TMC3     O 8939   1.023   4.268  11.125 -0.1299 -0.1483  0.2314
  603TMC3     H 8940   1.130   4.191  11.463 -0.4721  0.3275 -0.1863
  603TMC3    H1 8941   1.177   4.451  11.145 -1.1562 -0.0386  0.5251
  603TMC3    H2 8942   1.462   4.433  11.459  0.8077 -2.7067 -0.7980
  603TMC3    C7 8943   1.432   4.555  11.238  1.0213 -0.1607  0.5740
  603TMC3    C8 8944   1.281   4.332  11.624  0.5685 -0.0727 -0.5425
  603TMC3    O1 8945   1.517   4.597  11.319  0.0673 -0.3171 -0.1596
  603TMC3    O2 8946   1.223   4.243  11.685 -0.4275  0.0984 -0.3763
  604MPD2     C 8947   1.799   3.267  16.847  0.0603  0.6346 -0.0207
  604MPD2    C1 8948   1.676   3.233  16.793 -0.5380 -0.7322  0.4003
  604MPD2    C2 8949   1.671   3.211  16.657  0.5507  0.9305  0.0098
  604MPD2    C3 8950   1.785   3.214  16.581  0.8223  0.3408  0.1888
  604MPD2    C4 8951   1.902   3.259  16.631 -0.3269 -0.4493  0.0056
  604MPD2    C5 8952   1.907   3.289  16.764  0.3698  0.2212 -0.3244
  604MPD2     H 8953   1.576   3.198  16.607  0.8472 -1.0019 -0.0455
  604MPD2    H1 8954   1.987   3.283  16.567 -0.7340 -0.7973 -0.6667
  604MPD2    H2 8955   1.810   3.279  16.954  2.4131  0.2331 -0.2216
  604MPD2    H3 8956   2.003   3.325  16.799 -0.2589  1.4251  0.1372
  604MPD2     N 8957   1.779   3.179  16.445  0.6112 -0.3745  0.2744
  604MPD2    H5 8958   1.688   3.157  16.404 -0.4626  1.4097  1.7037
  604MPD2    N1 8959   1.562   3.238  16.876 -0.5751 -0.3788 -0.3042
  604MPD2    H7 8960   1.576   3.276  16.969 -0.3047  0.3450 -0.6476
  605TMC3    C1 8961   1.345   3.262  16.942 -0.0133 -0.3823  0.1602
  605TMC3    C2 8962   1.411   3.312  17.047 -0.5365 -0.4849 -0.8278
  605TMC3    C3 8963   1.399   3.444  17.074  0.5868 -0.9620  0.4120
  605TMC3    C4 8964   1.244   3.327  16.885 -0.0804  0.4690  0.1848
  605TMC3    C5 8965   1.237   3.461  16.906  0.0994 -0.3444  0.1504
  605TMC3    C6 8966   1.316   3.526  16.994  0.3638 -0.1676  1.8359
  605TMC3     C 8967   1.431   3.205  16.841  0.7002  0.5113  0.3377
  605TMC3     O 8968   1.386   3.155  16.738  0.1040 -0.1823 -0.4235
  605TMC3     H 8969   1.469   3.248  17.113  1.3357  1.4025 -0.6566
  605TMC3    H1 8970   1.189   3.276  16.806 -2.1037  1.2350  1.0964
  605TMC3    H2 8971   1.308   3.633  17.013  0.8641  0.2631 -0.3745
  605TMC3    C7 8972   1.135   3.539  16.835 -0.0965 -0.3478 -0.1433
  605TMC3    C8 8973   1.514   3.494  17.150  0.3841  0.5396 -0.3327
  605TMC3    O1 8974   1.095   3.642  16.886 -0.2559  0.0219 -0.2136
  605TMC3    O2 8975   1.616   3.424  17.134  0.0836 -0.4717 -0.2290
  606TMC3    C1 8976   2.983   1.448  17.329 -0.0513 -0.2242  0.6439
  606TMC3    C2 8977   3.035   1.517  17.438  0.9625  0.0400 -0.5389
  606TMC3    C3 8978   2.948   1.530  17.545 -0.5579 -0.2418 -0.4660
  606TMC3    C4 8979   2.857   1.379  17.333  0.6742  0.2932  0.3017
  606TMC3    C5 8980   2.786   1.389  17.451 -0.2064  0.4035  0.4515
  606TMC3    C6 8981   2.825   1.459  17.556 -0.4007  0.4078 -0.2698
  606TMC3     C 8982   3.075   1.396  17.225  0.4272 -0.8932  0.1569
  606TMC3     O 8983   3.021   1.345  17.127 -0.3841  0.0484 -0.7611
  606TMC3     H 8984   3.124   1.578  17.423  2.5279 -2.4658 -1.3577
  606TMC3    H1 8985   2.829   1.305  17.259  1.1870  0.8909 -0.4982
  606TMC3    H2 8986   2.768   1.456  17.648  1.2192  0.8064  0.7421
  606TMC3    C7 8987   2.708   1.270  17.480  0.4965  0.6468 -0.3780
  606TMC3    C8 8988   3.014   1.588  17.661 -0.0635  0.2357 -0.2836
  606TMC3    O1 8989   2.709   1.174  17.404  0.3786 -0.9936  0.3481
  606TMC3    O2 8990   3.134   1.572  17.671  0.0477 -0.5257 -0.1383
  607MPD2     C 8991   0.653   0.076  12.413  0.8580 -0.2676 -0.0707
  607MPD2    C1 8992   0.759   0.144  12.472 -0.3257 -0.0105 -0.2294
  607MPD2    C2 8993   0.744   0.196  12.602 -0.3136 -0.0716  0.1671
  607MPD2    C3 8994   0.623   0.172  12.672  0.2701  0.7563  0.0700
  607MPD2    C4 8995   0.515   0.106  12.612  0.4310  0.0765 -0.2601
  607MPD2    C5 8996   0.528   0.064  12.480  0.2353  0.6799  0.1519
  607MPD2     H 8997   0.825   0.242  12.659 -0.3902  0.2742 -0.0010
  607MPD2    H1 8998   0.418   0.107  12.660  0.5055  1.1527 -0.1267
  607MPD2    H2 8999   0.672   0.024  12.320  1.4051  0.0879 -0.1597
  607MPD2    H3 9000   0.452   0.002  12.433 -0.6269  0.8066  1.3934
  607MPD2     N 9001   0.630   0.182  12.814 -0.8163  0.8132 -0.4581
  607MPD2    H5 9002   0.718   0.221  12.848 -0.1120 -0.6903 -0.5857
  607MPD2    N1 9003   0.884   0.154  12.414  0.3630 -0.1678 -0.7699
  607MPD2    H7 9004   0.956   0.191  12.475  0.0375 -0.7857 -0.0125
  608TMC3    C1 9005   1.048   0.147  12.256  0.6391  0.9995 -0.6741
  608TMC3    C2 9006   1.126   0.097  12.354  0.4289 -0.6266 -0.6496
  608TMC3    C3 9007   1.257   0.127  12.340  1.1064  0.1924 -0.2497
  608TMC3    C4 9008   1.094   0.240  12.165 -0.5429 -0.6307  0.8250
  608TMC3    C5 9009   1.225   0.266  12.163 -0.3493 -0.1111  0.1213
  608TMC3    C6 9010   1.307   0.214  12.252  0.3256 -0.7767  0.4717
  608TMC3     C 9011   0.908   0.134  12.278  0.0057  0.1102  0.1502
  608TMC3     O 9012   0.827   0.133  12.183 -0.2007 -0.1371 -0.4011
  608TMC3     H 9013   1.096   0.014  12.416 -0.2696  0.4688  0.4873
  608TMC3    H1 9014   1.023   0.291  12.100 -1.0900 -3.1339 -0.5426
  608TMC3    H2 9015   1.415   0.222  12.248  0.4348 -2.3084  0.3933
  608TMC3    C7 9016   1.269   0.364  12.073 -0.3284  0.0806 -0.4757
  608TMC3    C8 9017   1.328   0.128  12.466 -0.0595 -0.2674  0.6266
  608TMC3    O1 9018   1.213   0.382  11.964 -0.1716 -0.3513 -0.1249
  608TMC3    O2 9019   1.449   0.106  12.471 -0.9841 -0.3967 -0.1815
  609TMC3    C1 9020   0.055   3.349   9.535 -0.1029 -0.3978 -0.3558
  609TMC3    C2 9021   0.038   3.397   9.408  0.0647  0.0491 -0.1007
  609TMC3    C3 9022   0.099   3.333   9.309  0.4167  0.1596  0.3643
  609TMC3    C4 9023   0.127   3.240   9.551  0.1112  0.6706 -0.2849
  609TMC3    C5 9024   0.197   3.180   9.451  0.3503 -0.1935 -0.3034
  609TMC3    C6 9025   0.185   3.231   9.325 -0.0074 -0.5194 -0.0447
  609TMC3     C 9026   4.684   3.393   9.633 -0.3301 -0.2764  0.5139
  609TMC3     O 9027   4.604   3.471   9.590 -0.2682 -0.3631 -0.5213
  609TMC3     H 9028   4.688   3.470   9.380 -0.2173 -1.2420 -2.7019
  609TMC3    H1 9029   0.120   3.187   9.646  1.9576 -0.4840 -0.7956
  609TMC3    H2 9030   0.250   3.193   9.247 -0.3144  0.8754 -0.9746
  609TMC3    C7 9031   0.277   3.060   9.482 -0.1850  0.3147 -0.1175
  609TMC3    C8 9032   0.108   3.415   9.187 -0.2466 -0.3765 -0.2328
  609TMC3    O1 9033   0.306   3.041   9.602  0.3470 -0.0371 -0.2822
  609TMC3    O2 9034   0.093   3.539   9.198 -0.2888 -0.2262 -0.0357
  610TMC3    C1 9035   1.651   0.049  12.136 -0.0196 -0.2712 -0.2888
  610TMC3    C2 9036   1.659   0.027  12.001  0.4713  0.0845  0.6459
  610TMC3    C3 9037   1.643   4.625  11.964 -0.8012 -0.9579  0.1458
  610TMC3    C4 9038   1.590   4.697  12.228  0.3690  0.2738  0.0215
  610TMC3    C5 9039   1.570   4.568  12.181  0.2188 -0.1806  0.4466
  610TMC3    C6 9040   1.597   4.530  12.053 -0.4875 -0.2062 -0.0119
  610TMC3     C 9041   1.694   0.185  12.185  0.0554  0.0158  0.2403
  610TMC3     O 9042   1.656   0.215  12.295  0.4015 -0.1305 -0.1997
  610TMC3     H 9043   1.695   0.100  11.928  0.8158 -1.7712 -1.0491
  610TMC3    H1 9044   1.591   4.715  12.335 -2.2441  0.4588  0.0264
  610TMC3    H2 9045   1.575   4.432  12.013  1.4170 -1.1836  1.3808
  610TMC3    C7 9046   1.538   4.473  12.278 -0.8559  0.5256 -0.5111
  610TMC3    C8 9047   1.658   4.590  11.817 -0.6063 -0.7789  0.0540
  610TMC3    O1 9048   1.568   4.362  12.240  0.1099  0.9937 -0.2914
  610TMC3    O2 9049   1.678   4.677  11.733 -0.0282 -0.5433 -0.2515
  611MPD2     C 9050   0.614   0.293  10.193 -0.3361 -0.1251 -0.2581
  611MPD2    C1 9051   0.658   0.185  10.274 -0.2008 -0.3398 -1.1881
  611MPD2    C2 9052   0.792   0.181  10.308 -0.3231  0.1666  0.5028
  611MPD2    C3 9053   0.876   0.285  10.267 -0.5932 -0.2695 -0.3650
  611MPD2    C4 9054   0.832   0.390  10.186 -0.0950 -0.0048  0.7015
  611MPD2    C5 9055   0.704   0.389  10.150 -0.3777  0.2777 -0.1326
  611MPD2     H 9056   0.840   0.094  10.352  0.9926  0.2940 -0.6775
  611MPD2    H1 9057   0.899   0.471  10.160 -0.5239  0.0127 -0.3536
  611MPD2    H2 9058   0.512   0.311  10.162  0.4005  0.7780 -2.1626
  611MPD2    H3 9059   0.662   0.472  10.095 -1.7378 -0.5249 -0.3119
  611MPD2     N 9060   1.019   0.287  10.290  0.8320 -0.7383  0.0727
  611MPD2    H5 9061   1.065   0.373  10.261 -3.5672  0.8493 -2.2768
  611MPD2    N1 9062   0.559   0.103  10.324  0.1414  0.0990  0.5066
  611MPD2    H7 9063   0.464   0.139  10.314  0.0714 -0.6615 -1.5652
  612TMC3    C1 9064   1.233   0.242  10.383  0.0499 -0.3222  0.0529
  612TMC3    C2 9065   1.307   0.175  10.477 -1.2233  1.2538  0.3057
  612TMC3    C3 9066   1.444   0.199  10.473 -0.8349 -0.0484 -0.1330
  612TMC3    C4 9067   1.286   0.314  10.284 -0.0478 -0.4392  0.0540
  612TMC3    C5 9068   1.418   0.327  10.279 -0.6388  0.0230 -0.6191
  612TMC3    C6 9069   1.499   0.269  10.372 -0.2665  0.8664 -0.1957
  612TMC3     C 9070   1.087   0.214  10.384 -0.4396  0.0819  0.2840
  612TMC3     O 9071   1.040   0.130  10.463  0.3585 -0.2121 -0.1677
  612TMC3     H 9072   1.266   0.107  10.551 -1.1986 -0.1472 -0.9653
  612TMC3    H1 9073   1.233   0.342  10.194  1.7276  0.6959 -0.6242
  612TMC3    H2 9074   1.607   0.265  10.365 -0.3698 -0.2892 -1.1118
  612TMC3    C7 9075   1.479   0.399  10.167  0.0824  0.5597 -0.0334
  612TMC3    C8 9076   1.514   0.187  10.603  0.0508 -0.0223 -1.0646
  612TMC3    O1 9077   1.413   0.417  10.067 -0.4944  0.0473 -0.1405
  612TMC3    O2 9078   1.617   0.248  10.613 -0.0550  0.3028 -1.0110
  613MPD2     C 9079   4.480   1.655  16.891  0.1511 -0.8489 -0.1884
  613MPD2    C1 9080   4.513   1.733  16.782  0.3486 -0.4608 -0.2163
  613MPD2    C2 9081   4.436   1.852  16.760 -0.1125 -0.0822 -0.2762
  613MPD2    C3 9082   4.337   1.889  16.854 -0.3734  0.0705 -0.2107
  613MPD2    C4 9083   4.329   1.817  16.968  0.8730  0.9574  0.0629
  613MPD2    C5 9084   4.390   1.701  16.983  1.3893  0.5792  0.8287
  613MPD2     H 9085   4.434   1.907  16.667 -0.6073  0.5386  0.1022
  613MPD2    H1 9086   4.256   1.847  17.042  1.0726  1.2388  0.1449
  613MPD2    H2 9087   4.515   1.553  16.893 -0.3289 -1.0536 -2.1703
  613MPD2    H3 9088   4.381   1.640  17.072 -0.1363  0.0654  0.3069
  613MPD2     N 9089   4.229   1.973  16.831  0.0572  0.1684 -0.6451
  613MPD2    H5 9090   4.169   1.991  16.911  0.7503 -0.6721  0.0613
  613MPD2    N1 9091   4.611   1.682  16.696  0.5330  0.0499  0.3692
  613MPD2    H7 9092   4.654   1.592  16.716  0.1866 -0.2667 -0.2681
  614TMC3    C1 9093   4.716   1.650  16.486  0.1554 -0.5931  0.2110
  614TMC3    C2 9094   4.628   1.544  16.467  0.3877 -0.3653 -0.3514
  614TMC3    C3 9095   4.575   1.514  16.343 -0.8298 -0.7010  0.2583
  614TMC3    C4 9096   0.035   1.716  16.379 -0.5361  0.3799  0.3118
  614TMC3    C5 9097   4.697   1.699  16.259  0.1349 -0.2303 -0.1352
  614TMC3    C6 9098   4.605   1.591  16.237 -0.3532 -0.2433  0.2243
  614TMC3     C 9099   4.654   1.747  16.580 -0.0249  0.2789  0.2224
  614TMC3     O 9100   4.646   1.865  16.550  0.5040 -0.8523  0.7716
  614TMC3     H 9101   4.596   1.485  16.552 -0.6047 -0.7843 -1.0173
  614TMC3    H1 9102   0.106   1.797  16.395  1.1291 -0.4789 -2.7890
  614TMC3    H2 9103   4.555   1.584  16.141 -0.1167 -1.0741  0.1642
  614TMC3    C7 9104   0.019   1.784  16.150 -0.3191 -0.4876  0.0306
  614TMC3    C8 9105   4.438   1.465  16.344  0.5205 -0.2575 -0.0322
  614TMC3    O1 9106   0.131   1.831  16.181 -0.1020 -0.6425 -0.7847
  614TMC3    O2 9107   4.353   1.514  16.269 -0.1623  0.0123  0.1848
  615MPD2     C 9108   3.059   3.433  16.424  0.0807 -0.0714 -0.5021
  615MPD2    C1 9109   2.931   3.472  16.389  0.6132  0.2258  0.4172
  615MPD2    C2 9110   2.888   3.474  16.256 -0.5758 -0.9727  0.7628
  615MPD2    C3 9111   2.975   3.414  16.165  0.7724  0.1527  0.6834
  615MPD2    C4 9112   3.097   3.364  16.198  0.4037  0.4810  0.0955
  615MPD2    C5 9113   3.143   3.387  16.326  0.2727 -0.7385 -0.3913
  615MPD2     H 9114   2.792   3.512  16.222  0.9675  1.5707 -0.8642
  615MPD2    H1 9115   3.155   3.310  16.124 -0.7651 -1.6817  0.7701
  615MPD2    H2 9116   3.105   3.426  16.522 -1.4134  0.1809  0.2212
  615MPD2    H3 9117   3.239   3.344  16.351  1.3075  1.2274 -1.0181
  615MPD2     N 9118   2.955   3.415  16.022 -0.1724  0.4478  0.0270
  615MPD2    H5 9119   3.036   3.387  15.968 -1.5590 -1.7587 -0.8937
  615MPD2    N1 9120   2.839   3.529  16.479  0.0469  0.6910  0.7382
  615MPD2    H7 9121   2.754   3.570  16.442 -0.3421  0.2476  1.1350
  616TMC3    C1 9122   2.769   3.638  16.674  0.4902  0.7330  0.3411
  616TMC3    C2 9123   2.767   3.640  16.812  0.5733 -0.0460  0.1584
  616TMC3    C3 9124   2.755   3.760  16.880 -0.2384  0.2637  0.2950
  616TMC3    C4 9125   2.744   3.755  16.605  0.0653 -0.1838 -0.3206
  616TMC3    C5 9126   2.725   3.873  16.674 -0.3198 -0.1419  0.7643
  616TMC3    C6 9127   2.740   3.880  16.812  0.5169  0.0838  0.3714
  616TMC3     C 9128   2.861   3.543  16.618  0.1676 -0.2910 -0.5528
  616TMC3     O 9129   2.938   3.482  16.694 -0.3768  0.4672  0.2840
  616TMC3     H 9130   2.783   3.548  16.867  2.5631 -0.6416 -1.4000
  616TMC3    H1 9131   2.773   3.764  16.500 -0.5292  0.0189 -0.4694
  616TMC3    H2 9132   2.727   3.978  16.855 -0.2399  0.5112 -0.8270
  616TMC3    C7 9133   2.741   3.996  16.591 -0.1291 -0.5193 -0.2274
  616TMC3    C8 9134   2.824   3.757  17.003  0.4733 -0.5003  1.0633
  616TMC3    O1 9135   2.796   4.089  16.655  0.5168 -0.4033 -0.0340
  616TMC3    O2 9136   2.833   3.661  17.083  0.3867 -0.0276 -0.5118
  617MPD2     C 9137   1.802   2.082  14.029  0.2390 -0.1391 -0.0369
  617MPD2    C1 9138   1.858   2.011  14.133 -1.0109 -0.3852  0.6070
  617MPD2    C2 9139   1.781   1.949  14.225 -0.5277  0.7223  0.3336
  617MPD2    C3 9140   1.645   1.961  14.206  0.0677 -0.0932 -0.6530
  617MPD2    C4 9141   1.592   2.052  14.114  0.0816 -0.6259  0.1811
  617MPD2    C5 9142   1.671   2.115  14.030 -0.6163 -0.1065 -0.1733
  617MPD2     H 9143   1.817   1.874  14.293  0.5252 -2.5417 -3.8222
  617MPD2    H1 9144   1.484   2.059  14.099  0.6407 -0.6409 -3.8963
  617MPD2    H2 9145   1.857   2.132  13.950 -0.3316 -3.1854 -2.3439
  617MPD2    H3 9146   1.622   2.178  13.957  2.1881 -0.4714 -2.3539
  617MPD2     N 9147   1.553   1.888  14.284  0.3848 -0.3695  0.1736
  617MPD2    H5 9148   1.454   1.897  14.262  0.1767 -1.2012  0.8101
  617MPD2    N1 9149   1.999   1.999  14.140  0.1968  0.1129  0.3497
  617MPD2    H7 9150   2.049   2.043  14.063  0.7660 -0.3672  0.4514
  618TMC3    C1 9151   2.206   1.940  14.209 -0.6583 -0.1932 -0.0249
  618TMC3    C2 9152   2.233   1.814  14.149  0.0588  0.4536  0.0319
  618TMC3    C3 9153   2.354   1.757  14.174 -0.8252  0.3407 -0.6018
  618TMC3    C4 9154   2.297   1.991  14.294 -0.5930  0.2288  0.1621
  618TMC3    C5 9155   2.409   1.920  14.325  0.5983 -0.2050 -0.0335
  618TMC3    C6 9156   2.445   1.802  14.267  0.8100  0.6442 -0.0788
  618TMC3     C 9157   2.074   1.957  14.247  0.0593  0.7868  0.3551
  618TMC3     O 9158   2.048   1.940  14.366  0.1856  0.3458 -0.4131
  618TMC3     H 9159   2.172   1.772  14.071 -2.0234 -0.5037  2.1967
  618TMC3    H1 9160   2.270   2.082  14.347 -0.3859  1.3025 -1.5941
  618TMC3    H2 9161   2.525   1.743  14.310  0.6652  1.6242  1.5507
  618TMC3    C7 9162   2.492   1.990  14.421 -0.3817  0.6280 -0.6675
  618TMC3    C8 9163   2.400   1.655  14.078 -0.0204  0.1502  0.1617
  618TMC3    O1 9164   2.427   2.055  14.506  0.0397  0.3582  0.4486
  618TMC3    O2 9165   2.328   1.626  13.981 -0.2935 -0.6057 -0.1400
  619MPD2     C 9166   3.333   3.096  13.172  0.5790  0.0848  0.0530
  619MPD2    C1 9167   3.285   3.215  13.224 -0.0848  0.1941  0.3158
  619MPD2    C2 9168   3.168   3.210  13.302  0.7372 -0.1557  0.4887
  619MPD2    C3 9169   3.100   3.089  13.322 -0.0526  0.2840  0.5672
  619MPD2    C4 9170   3.152   2.971  13.261  0.3743 -0.5531 -0.2126
  619MPD2    C5 9171   3.267   2.979  13.192 -0.2754  0.0544  0.3683
  619MPD2     H 9172   3.130   3.302  13.345  1.2697  0.2408  0.0946
  619MPD2    H1 9173   3.111   2.872  13.276 -0.6660 -0.2062 -0.7111
  619MPD2    H2 9174   3.422   3.087  13.110  0.4507 -3.2185  0.3138
  619MPD2    H3 9175   3.312   2.884  13.165  1.3529  0.6762  0.8812
  619MPD2     N 9176   2.985   3.079  13.407  0.0636  0.2852  0.5416
  619MPD2    H5 9177   2.955   2.984  13.425 -2.0469  0.7087 -0.7332
  619MPD2    N1 9178   3.345   3.341  13.200 -0.0100 -0.0052  0.1612
  619MPD2    H7 9179   3.301   3.424  13.237  3.4069  1.5833  0.6868
  620TMC3    C1 9180   3.485   3.489  13.095 -0.5431 -0.2640  0.7358
  620TMC3    C2 9181   3.433   3.580  13.008  0.4804 -0.7119 -0.4496
  620TMC3    C3 9182   3.445   3.720  13.038 -0.2119  0.6057 -0.2334
  620TMC3    C4 9183   3.559   3.528  13.201  0.2283  0.2452 -0.6670
  620TMC3    C5 9184   3.588   3.663  13.211  0.5191  0.6964 -0.1998
  620TMC3    C6 9185   3.532   3.758  13.136 -0.6419  0.3995  0.5261
  620TMC3     C 9186   3.429   3.358  13.093  0.7355  0.0939  0.0660
  620TMC3     O 9187   3.454   3.283  13.001 -0.1046 -0.0099 -0.4386
  620TMC3     H 9188   3.352   3.544  12.946 -0.7344  0.7140  0.2786
  620TMC3    H1 9189   3.597   3.441  13.255 -1.0409  0.0767 -0.0287
  620TMC3    H2 9190   3.558   3.863  13.146  0.9655 -0.2873  3.6671
  620TMC3    C7 9191   3.613   3.709  13.344 -0.4389  0.0035 -0.7434
  620TMC3    C8 9192   3.314   3.763  13.072  0.2249  0.3880  0.3989
  620TMC3    O1 9193   3.658   3.821  13.356 -0.2341  0.4608 -0.0260
  620TMC3    O2 9194   3.226   3.681  13.078  0.0284  0.3529  0.1491
  621MPD2     C 9195   4.484   2.564  10.005  0.6957  1.1060 -0.3708
  621MPD2    C1 9196   4.429   2.579  10.130 -0.1768 -0.0698  1.0494
  621MPD2    C2 9197   4.484   2.674  10.213  0.4025 -0.5184  0.0202
  621MPD2    C3 9198   4.593   2.735  10.175 -0.0617 -0.4659  0.1018
  621MPD2    C4 9199   4.638   2.721  10.047 -0.0441  0.4680 -0.4813
  621MPD2    C5 9200   4.587   2.638   9.954  0.4316  0.1252 -0.4897
  621MPD2     H 9201   4.450   2.686  10.315 -2.6454 -2.1057 -0.8172
  621MPD2    H1 9202   0.008   2.761  10.017  0.5810  1.4121  2.7925
  621MPD2    H2 9203   4.450   2.491   9.934  1.5240  0.3849 -0.0276
  621MPD2    H3 9204   4.626   2.618   9.855 -0.4898  0.7766 -0.9833
  621MPD2     N 9205   4.651   2.830  10.261 -0.2638  0.2611  0.3459
  621MPD2    H5 9206   4.610   2.860  10.349 -0.5297 -0.3634  0.4323
  621MPD2    N1 9207   4.314   2.513  10.178 -0.7328 -0.2811 -0.1188
  621MPD2    H7 9208   4.284   2.538  10.271  0.8118  0.7206  0.1168
  622TMC3    C1 9209   4.149   2.334  10.183  0.1039  0.3321  0.9118
  622TMC3    C2 9210   4.157   2.338  10.320 -0.2946  0.2791 -0.4230
  622TMC3    C3 9211   4.115   2.229  10.389  0.1104 -0.5396 -0.5680
  622TMC3    C4 9212   4.112   2.222  10.117  0.8568  0.4579  0.4652
  622TMC3    C5 9213   4.083   2.113  10.187 -0.5867 -0.6189  0.2227
  622TMC3    C6 9214   4.080   2.110  10.326 -0.1990 -0.0220  0.1272
  622TMC3     C 9215   4.240   2.422  10.110  0.2024  0.0799 -0.1127
  622TMC3     O 9216   4.222   2.421   9.989  0.2562  0.0690  0.4370
  622TMC3     H 9217   4.193   2.423  10.377 -3.4647 -0.6762  2.9729
  622TMC3    H1 9218   4.108   2.227  10.009  2.2835  0.7226  0.4261
  622TMC3    H2 9219   4.055   2.021  10.383  0.8896 -1.4439 -1.5874
  622TMC3    C7 9220   4.076   2.001  10.107 -0.2816 -0.8381 -0.2224
  622TMC3    C8 9221   4.035   2.256  10.509 -0.1214  0.2039 -1.0901
  622TMC3    O1 9222   4.165   1.992  10.024  0.0747 -0.3334 -0.2219
  622TMC3    O2 9223   4.026   2.157  10.588 -0.0897  0.1576  0.1086
  623MPD2     C 9224   2.256   3.866  16.378 -0.0768 -0.1420  0.7604
  623MPD2    C1 9225   2.181   3.764  16.435 -0.6433 -0.8263  0.4692
  623MPD2    C2 9226   2.203   3.735  16.571  1.2972 -0.2229 -0.3175
  623MPD2    C3 9227   2.301   3.799  16.637 -0.4124  0.0780 -0.0569
  623MPD2    C4 9228   2.363   3.912  16.584 -0.0464 -0.1106  0.2277
  623MPD2    C5 9229   2.338   3.948  16.451 -0.2975  0.4569 -0.1437
  623MPD2     H 9230   2.156   3.651  16.621  0.2615  0.7540  0.3582
  623MPD2    H1 9231   2.432   3.961  16.652  0.1502  0.6805 -0.5421
  623MPD2    H2 9232   2.235   3.900  16.277  0.7882 -1.5785  0.1005
  623MPD2    H3 9233   2.371   4.039  16.403 -0.6096  0.7820  0.2559
  623MPD2     N 9234   2.301   3.759  16.776  0.1574  0.6061 -0.4063
  623MPD2    H5 9235   2.251   3.671  16.784  1.5215 -0.1725 -0.4759
  623MPD2    N1 9236   2.078   3.700  16.362 -0.9067 -0.4919 -0.0605
  623MPD2    H7 9237   2.065   3.735  16.268 -1.7340 -2.0783 -0.5413
  624TMC3    C1 9238   2.382   3.537  17.101  0.5283 -0.3012 -0.2170
  624TMC3    C2 9239   2.264   3.546  17.173 -0.5743  0.8498  0.6514
  624TMC3    C3 9240   2.187   3.653  17.142  0.2069  0.2497 -0.1698
  624TMC3    C4 9241   2.426   3.629  17.019  0.5707  0.2789 -0.2520
  624TMC3    C5 9242   2.354   3.741  17.006 -0.0756  0.4756 -0.4193
  624TMC3    C6 9243   2.229   3.755  17.062  0.1196 -0.1218 -0.2829
  624TMC3     C 9244   2.461   3.411  17.113  0.0657 -0.1206 -0.7771
  624TMC3     O 9245   2.555   3.407  17.037  0.6514 -0.1092 -0.3989
  624TMC3     H 9246   2.218   3.470  17.234  0.4428  0.5808  1.0912
  624TMC3    H1 9247   2.509   3.606  16.954  0.8175 -1.1361  0.5762
  624TMC3    H2 9248   2.169   3.842  17.037  0.2097 -0.4765 -1.7314
  624TMC3    C7 9249   2.374   3.817  16.877  0.3506 -0.2620  0.1340
  624TMC3    C8 9250   2.047   3.630  17.197  0.3908 -0.0892  0.6828
  624TMC3    O1 9251   2.463   3.897  16.869  0.1171  0.7215 -0.2363
  624TMC3    O2 9252   2.008   3.516  17.208  0.4359 -0.3022  0.8243
  625MPD2     C 9253   2.781   0.475   1.420  0.2864 -0.4055 -0.5830
  625MPD2    C1 9254   2.814   0.539   1.302 -0.2886 -0.0056 -0.2566
  625MPD2    C2 9255   2.931   0.501   1.245  0.4227  0.1224  0.2451
  625MPD2    C3 9256   3.002   0.392   1.290  0.3724  0.4836  0.4304
  625MPD2    C4 9257   2.958   0.320   1.402 -0.2057  0.8610 -0.5561
  625MPD2    C5 9258   2.846   0.367   1.473 -0.6484  0.4235 -0.5927
  625MPD2     H 9259   2.953   0.568   1.162 -1.3528 -0.1278 -0.4279
  625MPD2    H1 9260   3.017   0.240   1.445  3.0183  2.7794 -1.3357
  625MPD2    H2 9261   2.692   0.507   1.473  0.3557  1.0047 -1.3116
  625MPD2    H3 9262   2.806   0.326   1.566  0.5143  1.7901  0.5089
  625MPD2     N 9263   3.118   0.367   1.216  0.6458 -0.1216 -0.0059
  625MPD2    H5 9264   3.128   0.427   1.134  0.4882 -1.2137 -0.8295
  625MPD2    N1 9265   2.747   0.647   1.243 -0.2784 -0.2494  0.1345
  625MPD2    H7 9266   2.787   0.674   1.154 -0.2645 -0.0035  0.2168
  626TMC3    C1 9267   2.601   0.845   1.221  0.2848 -0.4272 -0.6657
  626TMC3    C2 9268   2.543   0.804   1.103 -0.3170  0.1361  0.1542
  626TMC3    C3 9269   2.418   0.841   1.083  0.0577  0.5355  0.5629
  626TMC3    C4 9270   2.533   0.935   1.302  0.8606 -0.3100  1.1901
  626TMC3    C5 9271   2.412   0.982   1.264 -1.0766 -0.7879  0.1355
  626TMC3    C6 9272   2.346   0.926   1.161  0.3487 -0.4324 -0.3508
  626TMC3     C 9273   2.650   0.732   1.303  0.0376 -0.1555  0.6355
  626TMC3     O 9274   2.601   0.726   1.415  0.0492 -0.1610 -0.3789
  626TMC3     H 9275   2.596   0.731   1.043 -1.3975  0.1725 -0.8486
  626TMC3    H1 9276   2.567   0.961   1.402  2.7864  0.5492  0.3079
  626TMC3    H2 9277   2.246   0.955   1.130  0.6325  1.4230  0.4918
  626TMC3    C7 9278   2.343   1.066   1.358 -0.3064 -0.3698  0.0170
  626TMC3    C8 9279   2.340   0.790   0.968 -0.4277  0.1713  0.2832
  626TMC3    O1 9280   2.397   1.107   1.462  0.1228  0.1216  0.0376
  626TMC3    O2 9281   2.384   0.799   0.856  0.1959 -0.1493 -0.8738
  627MPD2     C 9282   1.361   0.551  14.332  0.5909  0.7219  0.3290
  627MPD2    C1 9283   1.475   0.473  14.323 -0.2684 -0.2995 -0.0221
  627MPD2    C2 9284   1.470   0.349  14.269 -0.3376 -0.2798 -0.0089
  627MPD2    C3 9285   1.357   0.296  14.223 -0.3013  0.6391 -0.1557
  627MPD2    C4 9286   1.247   0.373  14.230  0.1030 -0.4718 -0.2114
  627MPD2    C5 9287   1.244   0.496  14.288 -0.5155  0.1222  0.4402
  627MPD2     H 9288   1.557   0.284  14.268 -2.2769 -2.8405 -1.8827
  627MPD2    H1 9289   1.147   0.333  14.217 -0.5439  1.8640 -2.2852
  627MPD2    H2 9290   1.357   0.649  14.377 -0.3415  0.8703 -0.0785
  627MPD2    H3 9291   1.154   0.557  14.293 -2.8178 -3.2879  0.3092
  627MPD2     N 9292   1.348   0.182  14.133 -0.2013  0.1627  0.8700
  627MPD2    H5 9293   1.253   0.164  14.102 -1.2450  2.1208  2.9684
  627MPD2    N1 9294   1.601   0.504  14.375  0.7153 -0.2155  0.8942
  627MPD2    H7 9295   1.675   0.435  14.379  0.8623 -0.0600  0.8344
  628TMC3    C1 9296   1.755   0.653  14.491  0.4300 -0.0391 -0.0104
  628TMC3    C2 9297   1.799   0.566  14.580 -0.4291 -0.0238  0.8213
  628TMC3    C3 9298   1.911   0.593  14.656 -0.1983  0.2330 -0.6926
  628TMC3    C4 9299   1.812   0.781  14.482 -0.4372 -0.4352  0.1666
  628TMC3    C5 9300   1.925   0.802  14.558  0.5257 -0.0135 -0.1205
  628TMC3    C6 9301   1.977   0.710  14.644 -0.5063 -0.2327  0.3389
  628TMC3     C 9302   1.629   0.632  14.424  0.1466  0.4225 -0.1622
  628TMC3     O 9303   1.570   0.735  14.395  0.4047  0.3118 -0.5823
  628TMC3     H 9304   1.728   0.485  14.594  1.0266 -1.7780 -1.9134
  628TMC3    H1 9305   1.779   0.844  14.401 -1.8129 -0.5921  0.6118
  628TMC3    H2 9306   2.067   0.730  14.700  0.9403 -0.9460 -1.7402
  628TMC3    C7 9307   1.980   0.933  14.552 -0.1949  0.3131  0.2373
  628TMC3    C8 9308   1.919   0.522  14.784 -0.4466 -0.1863  0.1201
  628TMC3    O1 9309   2.097   0.948  14.579 -0.3553  0.1679  0.3878
  628TMC3    O2 9310   1.821   0.468  14.828  0.1836 -0.1923 -0.2697
  629MPD2     C 9311   3.305   3.798  17.187  0.5127 -0.2616 -0.2567
  629MPD2    C1 9312   3.292   3.863  17.070 -0.9557 -0.6002  0.4570
  629MPD2    C2 9313   3.169   3.884  17.013 -0.5977  0.4624 -0.2902
  629MPD2    C3 9314   3.051   3.831  17.065  0.2285  0.5619  0.1485
  629MPD2    C4 9315   3.061   3.765  17.193 -0.3401 -0.2422  0.0008
  629MPD2    C5 9316   3.190   3.758  17.251 -0.1676 -0.3631  0.4021
  629MPD2     H 9317   3.159   3.950  16.928 -0.6333 -1.5045 -1.8200
  629MPD2    H1 9318   2.972   3.739  17.248  0.0443  0.5597  0.9902
  629MPD2    H2 9319   3.401   3.780  17.233  0.3477  0.8921  0.5363
  629MPD2    H3 9320   3.197   3.718  17.352  1.6415 -2.7503 -0.6534
  629MPD2     N 9321   2.932   3.839  16.986 -0.6330  0.8292  0.0302
  629MPD2    H5 9322   2.923   3.884  16.895 -0.4446 -0.0758 -0.4377
  629MPD2    N1 9323   3.419   3.884  17.003  0.6507  0.8081 -0.4919
  629MPD2    H7 9324   3.495   3.836  17.049 -1.0695 -0.7531  0.7010
  630TMC3    C1 9325   3.560   3.957  16.834  0.2035  0.9259 -0.8313
  630TMC3    C2 9326   3.612   4.073  16.771  0.4260  0.0134 -0.2660
  630TMC3    C3 9327   3.745   4.076  16.737  0.2325 -0.3489 -0.7876
  630TMC3    C4 9328   3.640   3.849  16.866 -0.5001 -0.3856 -0.0644
  630TMC3    C5 9329   3.760   3.849  16.805 -0.1281  0.2461 -0.7898
  630TMC3    C6 9330   3.820   3.965  16.746  0.1949 -1.1423 -0.2236
  630TMC3     C 9331   3.425   3.945  16.881 -0.0352 -0.1096 -0.1443
  630TMC3     O 9332   3.347   4.022  16.827 -0.1515 -0.0965  0.1953
  630TMC3     H 9333   3.548   4.156  16.744  1.2454  0.5168 -0.6707
  630TMC3    H1 9334   3.604   3.756  16.907 -2.8379  0.0930 -1.0220
  630TMC3    H2 9335   3.924   3.948  16.720  0.5638 -0.0749  0.5860
  630TMC3    C7 9336   3.857   3.745  16.829 -0.5165 -0.0064  0.1087
  630TMC3    C8 9337   3.800   4.196  16.664  0.0653 -0.0966  0.1249
  630TMC3    O1 9338   3.834   3.674  16.927 -0.0434  0.2217  0.1236
  630TMC3    O2 9339   3.715   4.277  16.630 -0.9450  0.8639  0.3137
  631MPD2     C 9340   2.187   3.866  15.472  0.0233  0.1548 -0.6760
  631MPD2    C1 9341   2.291   3.877  15.390 -0.1912  0.5284 -1.2175
  631MPD2    C2 9342   2.399   3.787  15.405  0.1253  0.0159 -0.0028
  631MPD2    C3 9343   2.388   3.684  15.506  0.2084  0.0801 -0.8863
  631MPD2    C4 9344   2.274   3.667  15.583  0.6549 -0.0188  0.1119
  631MPD2    C5 9345   2.172   3.759  15.556  0.6181  0.6546  0.6891
  631MPD2     H 9346   2.491   3.803  15.350 -0.7608  2.2345 -0.8440
  631MPD2    H1 9347   2.263   3.597  15.665  1.4939  0.7979  0.9243
  631MPD2    H2 9348   2.105   3.937  15.462 -0.9313 -0.8034  0.4659
  631MPD2    H3 9349   2.078   3.758  15.610 -0.7771  0.2909 -1.7327
  631MPD2     N 9350   2.506   3.603  15.524 -0.2184 -0.1837  0.2533
  631MPD2    H5 9351   2.591   3.630  15.475  0.5851  1.7980  2.7423
  631MPD2    N1 9352   2.298   3.988  15.309 -0.0449 -0.0386 -0.9156
  631MPD2    H7 9353   2.231   4.055  15.346  2.3162  0.5243  2.3659
  632TMC3    C1 9354   2.419   4.173  15.215  0.4011 -0.5224 -1.0135
  632TMC3    C2 9355   2.381   4.248  15.324 -0.3055  0.0946 -0.1539
  632TMC3    C3 9356   2.454   4.355  15.354 -0.3075 -0.3414 -0.2479
  632TMC3    C4 9357   2.532   4.202  15.139  0.2254  0.8800  0.6114
  632TMC3    C5 9358   2.614   4.303  15.190  0.4756  0.6095 -0.2929
  632TMC3    C6 9359   2.575   4.384  15.296 -1.0342  0.3022  0.2225
  632TMC3     C 9360   2.395   4.027  15.219  0.3115 -0.7204  0.0958
  632TMC3     O 9361   2.469   3.950  15.156 -0.3872 -0.0514  0.0849
  632TMC3     H 9362   2.283   4.226  15.366 -0.8504  3.3688  0.3018
  632TMC3    H1 9363   2.565   4.133  15.062 -1.3604  1.7636 -0.8485
  632TMC3    H2 9364   2.627   4.474  15.324  0.2007 -0.1044 -0.7741
  632TMC3    C7 9365   2.707   4.351  15.096  0.6801  0.2790 -0.9985
  632TMC3    C8 9366   2.392   4.436  15.457  0.0767  0.1511 -0.0844
  632TMC3    O1 9367   2.694   4.336  14.974  0.0877  0.0147  0.4370
  632TMC3    O2 9368   2.269   4.444  15.448 -0.6204 -0.1604  0.1064
  633MPD2     C 9369   2.063   1.873   0.153  0.5634 -0.3788  0.2682
  633MPD2    C1 9370   2.116   1.811   0.045  0.1539  0.2836 -0.0533
  633MPD2    C2 9371   2.094   1.673   0.037 -0.1221 -0.4500 -0.4566
  633MPD2    C3 9372   2.031   1.607   0.139 -0.2569  0.3532 -0.0623
  633MPD2    C4 9373   2.003   1.674   0.253 -0.6440 -0.3650 -0.0625
  633MPD2    C5 9374   2.017   1.806   0.260  0.5954 -0.2120 -0.0346
  633MPD2     H 9375   2.131   1.613  17.659 -0.3163  0.5130 -1.2459
  633MPD2    H1 9376   1.956   1.619   0.334  1.3577 -0.8982  0.7296
  633MPD2    H2 9377   2.076   1.980   0.165  0.6730 -0.5207  1.4046
  633MPD2    H3 9378   1.986   1.859   0.349 -1.4792 -0.1149 -0.8229
  633MPD2     N 9379   1.988   1.474   0.138  0.0181  0.8635  0.4307
  633MPD2    H5 9380   1.955   1.431   0.223 -0.5661  0.4208 -0.0246
  633MPD2    N1 9381   2.177   1.888  17.648  0.3134 -0.2324  0.0724
  633MPD2    H7 9382   2.221   1.833  17.575  1.5522  0.7277  0.0970
  634TMC3    C1 9383   2.262   2.068  17.519  0.1798  0.3120 -0.0961
  634TMC3    C2 9384   2.352   1.975  17.458 -0.2491 -0.2555  0.1211
  634TMC3    C3 9385   2.395   1.993  17.330  0.5818  0.1839  0.1840
  634TMC3    C4 9386   2.223   2.178  17.446  0.2549  0.2620  0.4118
  634TMC3    C5 9387   2.277   2.191  17.316 -0.1678 -0.5583  0.0916
  634TMC3    C6 9388   2.362   2.102  17.256  0.8696  0.1935 -0.2840
  634TMC3     C 9389   2.188   2.028  17.644  0.3929 -0.4593 -0.8313
  634TMC3     O 9390   2.130   2.121  17.700  0.7984 -0.4500 -0.0773
  634TMC3     H 9391   2.390   1.892  17.517  2.9822  0.0487 -1.5127
  634TMC3    H1 9392   2.156   2.245  17.499 -0.8341 -1.6587  1.4442
  634TMC3    H2 9393   2.381   2.119  17.151  1.0764  2.0147  0.0405
  634TMC3    C7 9394   2.214   2.297  17.226 -1.3518  0.3855 -1.4170
  634TMC3    C8 9395   2.469   1.884  17.263  1.0823  0.2701  0.3213
  634TMC3    O1 9396   2.257   2.307  17.111  0.4833 -0.3373 -0.0213
  634TMC3    O2 9397   2.473   1.777  17.324 -0.5172 -0.0109  0.4329
  635TMC3    C1 9398   2.755   2.617  17.661  0.0251  0.5295 -0.1880
  635TMC3    C2 9399   2.841   2.593  17.566  0.1966  0.5942 -0.4680
  635TMC3    C3 9400   2.824   2.472  17.496  0.0018  0.2008  0.4928
  635TMC3    C4 9401   2.662   2.525   0.000  0.4137  0.1408  0.3056
  635TMC3    C5 9402   2.655   2.408  17.636  0.2933 -0.9177 -0.2429
  635TMC3    C6 9403   2.735   2.377  17.530  0.1964  0.3472  0.3185
  635TMC3     C 9404   2.806   2.723   0.045 -0.7931  0.0587  0.8900
  635TMC3     O 9405   2.894   2.793  17.701 -0.2878  0.1629  0.0211
  635TMC3     H 9406   2.925   2.651  17.532  0.4384  0.3781 -0.2380
  635TMC3    H1 9407   2.593   2.545   0.081 -1.8058  1.0660 -1.8047
  635TMC3    H2 9408   2.717   2.289  17.469 -1.5265  0.8900  0.0462
  635TMC3    C7 9409   2.579   2.304   0.004 -0.1535 -0.1015 -0.1431
  635TMC3    C8 9410   2.880   2.454  17.366 -0.5098  0.0711 -0.4599
  635TMC3    O1 9411   2.527   2.329   0.109 -0.3617 -0.3848  0.0229
  635TMC3    O2 9412   2.872   2.338  17.327 -0.2120  0.8515 -0.2757
  636MPD2     C 9413   3.821   2.589  16.113 -0.3767  0.1176  0.2862
  636MPD2    C1 9414   3.803   2.620  16.243 -0.4890  0.3478  0.3559
  636MPD2    C2 9415   3.843   2.517  16.338  0.6160 -0.2052 -0.0924
  636MPD2    C3 9416   3.889   2.389  16.293 -0.8650 -0.1168 -0.3295
  636MPD2    C4 9417   3.891   2.366  16.162  0.1843 -0.6985  0.2024
  636MPD2    C5 9418   3.869   2.469  16.076  0.2210 -0.2618 -0.1654
  636MPD2     H 9419   3.840   2.545  16.443 -0.0341 -0.5069 -0.0322
  636MPD2    H1 9420   3.926   2.275  16.113  0.6564 -0.2009 -0.3959
  636MPD2    H2 9421   3.793   2.648  16.027 -1.6503 -1.3751 -0.3215
  636MPD2    H3 9422   3.892   2.455  15.971 -1.1958  3.9627 -1.0222
  636MPD2     N 9423   3.923   2.288  16.388 -0.1049  0.4943 -0.2375
  636MPD2    H5 9424   3.935   2.318  16.484 -0.4424 -0.5415  0.1357
  636MPD2    N1 9425   3.754   2.748  16.294  0.1245  0.2241 -0.0231
  636MPD2    H7 9426   3.750   2.759  16.395 -0.4702 -2.7064  0.2696
  637TMC3    C1 9427   3.978   2.070  16.468  0.3820 -0.6061  0.0273
  637TMC3    C2 9428   4.053   2.124  16.564  0.1384 -0.1757  0.0513
  637TMC3    C3 9429   4.067   2.056  16.684  0.5249  0.4761 -0.4048
  637TMC3    C4 9430   3.933   1.939  16.456  0.1287 -0.2590  0.0309
  637TMC3    C5 9431   3.955   1.870  16.569  0.1197  0.0821 -0.5250
  637TMC3    C6 9432   4.004   1.936  16.684 -0.0655  0.1170  1.1317
  637TMC3     C 9433   3.935   2.156  16.353 -0.1684  0.1894  0.0425
  637TMC3     O 9434   3.898   2.096  16.251 -0.2236 -0.2834 -0.5449
  637TMC3     H 9435   4.101   2.221  16.550  0.6833 -0.0247  2.9656
  637TMC3    H1 9436   3.881   1.899  16.370  0.5276 -0.2984 -0.1926
  637TMC3    H2 9437   4.015   1.878  16.775  5.0099 -2.7392 -1.3363
  637TMC3    C7 9438   4.016   1.743  16.542  0.2213  0.2931  0.3460
  637TMC3    C8 9439   4.208   2.039  16.709 -0.3374  0.0449  0.3497
  637TMC3    O1 9440   4.017   1.713  16.420  0.3456 -0.0411  0.1062
  637TMC3    O2 9441   4.272   2.043  16.606 -0.5785  0.1740 -0.5627
  638MPD2     C 9442   3.547   1.189  14.859  0.9364  0.1439 -0.2213
  638MPD2    C1 9443   3.507   1.073  14.788  0.0799  0.1802 -0.0240
  638MPD2    C2 9444   3.437   0.969  14.855  0.2106  0.0200  0.1641
  638MPD2    C3 9445   3.418   0.975  14.996  0.0306 -0.4259 -0.5368
  638MPD2    C4 9446   3.462   1.092  15.063  0.2493  0.1595 -0.0926
  638MPD2    C5 9447   3.527   1.189  14.993  0.1829 -0.0345 -0.5660
  638MPD2     H 9448   3.391   0.890  14.797  0.9959  0.6125 -1.2592
  638MPD2    H1 9449   3.456   1.096  15.171  0.3378  2.3334 -0.1537
  638MPD2    H2 9450   3.593   1.272  14.808 -1.0131  0.9304 -0.7188
  638MPD2    H3 9451   3.560   1.278  15.046 -1.4730 -0.1129  0.6080
  638MPD2     N 9452   3.366   0.860  15.058  0.0143 -0.5220  0.8197
  638MPD2    H5 9453   3.337   0.784  14.997 -0.0753 -0.0741  0.3150
  638MPD2    N1 9454   3.537   1.072  14.654  0.4966 -0.3743 -0.4334
  638MPD2    H7 9455   3.588   1.153  14.622 -1.5181  0.9336 -0.3185
  639TMC3    C1 9456   3.353   0.693  15.226  0.4455 -0.3021 -0.2990
  639TMC3    C2 9457   3.277   0.616  15.146  0.0320  0.0060  0.2756
  639TMC3    C3 9458   3.247   0.494  15.210 -0.5678 -0.8675 -0.2942
  639TMC3    C4 9459   3.424   0.650  15.338  0.2316  0.1596  0.3894
  639TMC3    C5 9460   3.407   0.522  15.382 -0.7736  0.3509  0.3219
  639TMC3    C6 9461   3.303   0.452  15.328  0.8273  0.0909 -0.0890
  639TMC3     C 9462   3.372   0.833  15.191  0.2732 -0.7938 -0.0274
  639TMC3     O 9463   3.401   0.909  15.283  0.7096 -0.4313  0.3278
  639TMC3     H 9464   3.233   0.648  15.053  0.8074  2.5871  0.7921
  639TMC3    H1 9465   3.485   0.719  15.394  0.9141 -1.9585  2.2858
  639TMC3    H2 9466   3.272   0.353  15.360 -0.7134  0.7414  0.4395
  639TMC3    C7 9467   3.502   0.452  15.466  0.0437 -0.4816  0.0258
  639TMC3    C8 9468   3.195   0.391  15.125  0.1855  0.0961  0.4589
  639TMC3    O1 9469   3.459   0.393  15.564 -0.4254 -0.1918 -0.2549
  639TMC3    O2 9470   3.245   0.389  15.010  0.2740  0.4874 -0.2882
  640MPD2     C 9471   0.550   3.726   9.756  0.7520 -0.5701  0.1086
  640MPD2    C1 9472   0.551   3.699   9.890 -0.3281 -0.1835  0.2124
  640MPD2    C2 9473   0.447   3.724   9.971 -0.1119 -0.2887  0.4011
  640MPD2    C3 9474   0.341   3.803   9.922 -0.2068 -0.5439 -0.3979
  640MPD2    C4 9475   0.338   3.831   9.786  0.3599  0.1326 -0.1323
  640MPD2    C5 9476   0.441   3.788   9.704  0.3071  0.0437 -0.3376
  640MPD2     H 9477   0.448   3.704  10.078 -1.1606  0.5456  0.5745
  640MPD2    H1 9478   0.260   3.885   9.734 -0.3955  0.8061  1.6860
  640MPD2    H2 9479   0.625   3.705   9.681  0.6708 -0.5020  0.0080
  640MPD2    H3 9480   0.449   3.820   9.601  0.4197 -0.2563 -0.4232
  640MPD2     N 9481   0.236   3.861  10.003 -0.3618 -0.3827 -0.0704
  640MPD2    H5 9482   0.175   3.930   9.960  0.9794 -0.6757 -2.4894
  640MPD2    N1 9483   0.668   3.624   9.934 -0.5835  0.0038  0.0609
  640MPD2    H7 9484   0.733   3.589   9.865  0.7519  3.8910 -0.6101
  641TMC3    C1 9485   0.809   3.522  10.074 -0.4386  0.0053 -0.1415
  641TMC3    C2 9486   0.812   3.416  10.155  0.4807  0.2731 -0.1444
  641TMC3    C3 9487   0.914   3.326  10.150  0.8685  0.0904 -1.2193
  641TMC3    C4 9488   0.913   3.539   9.984 -0.3475  0.0118 -0.2377
  641TMC3    C5 9489   1.012   3.448   9.971  0.0770  0.2828 -0.6267
  641TMC3    C6 9490   1.014   3.338  10.053  0.1070 -0.4883  0.3255
  641TMC3     C 9491   0.694   3.589  10.062 -0.8011  1.0676 -0.1835
  641TMC3     O 9492   0.616   3.589  10.156  0.3193 -0.2881 -0.4821
  641TMC3     H 9493   0.744   3.392  10.236 -1.0640 -3.0745 -2.4176
  641TMC3    H1 9494   0.914   3.611   9.903 -2.8352  0.7338  0.3580
  641TMC3    H2 9495   1.085   3.258  10.039 -1.3610 -1.8274  0.4906
  641TMC3    C7 9496   1.120   3.476   9.871 -0.0168  0.2152 -0.1081
  641TMC3    C8 9497   0.876   3.186  10.174  0.6490  0.9992  0.2961
  641TMC3    O1 9498   1.117   3.584   9.814 -0.6541  0.0906 -0.0686
  641TMC3    O2 9499   0.876   3.117  10.073 -0.3982 -0.3804  0.2404
  642TMC3    C1 9500   0.753   0.899  12.623  0.4042 -0.4947  0.2911
  642TMC3    C2 9501   0.888   0.876  12.636  0.3089  0.7465  0.1404
  642TMC3    C3 9502   0.940   0.759  12.594  0.0414  0.4583  0.3081
  642TMC3    C4 9503   0.664   0.808  12.570 -0.4905  0.1202  0.0299
  642TMC3    C5 9504   0.723   0.695  12.532 -0.0573 -0.2687 -0.5805
  642TMC3    C6 9505   0.859   0.667  12.538 -0.0909 -0.1503  0.0472
  642TMC3     C 9506   0.719   1.042  12.621 -0.4769  0.5609  0.4726
  642TMC3     O 9507   0.812   1.119  12.619 -0.2629 -0.3832 -0.5890
  642TMC3     H 9508   0.943   0.955  12.686 -0.3035  0.4358  1.3031
  642TMC3    H1 9509   0.560   0.820  12.541 -0.2042 -0.9981 -1.4547
  642TMC3    H2 9510   0.897   0.571  12.506  0.1704 -0.1542  0.3658
  642TMC3    C7 9511   0.634   0.593  12.489 -0.1532 -0.9216  0.6642
  642TMC3    C8 9512   1.056   0.698  12.663  0.4113 -0.2911 -0.2458
  642TMC3    O1 9513   0.674   0.527  12.395 -0.3724 -0.2228  0.1471
  642TMC3    O2 9514   1.046   0.579  12.690  0.2942  0.0322 -0.2817
  643TMC3    C1 9515   3.966   4.679   0.682  0.7112  0.0144  0.2706
  643TMC3    C2 9516   3.841   4.724   0.632  0.2278  0.3669 -0.3048
  643TMC3    C3 9517   3.825   4.717   0.490 -1.0362 -0.1136 -0.6696
  643TMC3    C4 9518   4.052   4.605   0.609  0.3824  0.3726 -0.5937
  643TMC3    C5 9519   4.026   4.591   0.478  0.1208 -0.2166 -0.6973
  643TMC3    C6 9520   3.920   4.646   0.417  0.1990 -0.6506 -0.4469
  643TMC3     C 9521   4.017   0.023   0.804  0.0645  0.5543 -0.0700
  643TMC3     O 9522   3.939   0.091   0.861  0.6174 -0.1709  0.0703
  643TMC3     H 9523   3.780   0.069   0.687  1.5872  0.4292  1.0899
  643TMC3    H1 9524   4.150   4.572   0.642  0.5163  1.1719 -0.2081
  643TMC3    H2 9525   3.919   4.650   0.309 -2.2077  2.4335 -0.3074
  643TMC3    C7 9526   4.142   4.597   0.401  0.1315  0.3595 -0.0423
  643TMC3    C8 9527   3.768   0.104   0.432 -0.6803 -0.3283 -0.4095
  643TMC3    O1 9528   4.140   4.684   0.311 -0.5577  0.1757 -0.4818
  643TMC3    O2 9529   3.686   0.167   0.493  0.1271  0.1609  0.4737
  644MPD2     C 9530   0.537   0.558   9.857  0.2171 -0.3100 -0.3427
  644MPD2    C1 9531   0.473   0.433   9.867 -0.6217  0.0652  1.0460
  644MPD2    C2 9532   0.349   0.427   9.929 -0.5775 -0.2583  0.1429
  644MPD2    C3 9533   0.285   0.541   9.969 -1.0724  0.0774  0.0116
  644MPD2    C4 9534   0.349   0.662   9.955 -0.2755 -0.2429 -0.8700
  644MPD2    C5 9535   0.473   0.674   9.897  0.8639  0.6540  0.3502
  644MPD2     H 9536   0.293   0.337   9.950 -0.2467 -0.3978  0.4333
  644MPD2    H1 9537   0.299   0.754   9.982 -1.6550 -1.3588  0.4127
  644MPD2    H2 9538   0.633   0.568   9.807  0.6824  2.0036  1.0142
  644MPD2    H3 9539   0.514   0.773   9.888  0.6840  0.5267 -1.9620
  644MPD2     N 9540   0.154   0.534  10.023  0.5931 -0.5548  0.2296
  644MPD2    H5 9541   0.134   0.440  10.055 -0.6946 -0.2736  0.2574
  644MPD2    N1 9542   0.543   0.315   9.823  0.4544  0.5890 -0.0825
  644MPD2    H7 9543   0.630   0.331   9.775  0.2442  0.2203 -0.5879
  645TMC3    C1 9544   4.670   0.587  10.115 -0.4337 -0.5076  0.5529
  645TMC3    C2 9545   4.628   0.673  10.210 -0.6450  0.0157  0.5466
  645TMC3    C3 9546   4.494   0.655  10.249  0.4911 -0.8505  0.2773
  645TMC3    C4 9547   4.603   0.473  10.082 -0.0409  0.3543 -0.0495
  645TMC3    C5 9548   4.475   0.451  10.142 -0.2404 -0.7865 -0.5255
  645TMC3    C6 9549   4.416   0.548  10.217 -0.0010  0.5125  0.3079
  645TMC3     C 9550   0.071   0.634  10.047  0.0691  0.0245 -0.1558
  645TMC3     O 9551   0.077   0.757  10.034  0.2239  0.3029 -0.5566
  645TMC3     H 9552   4.678   0.769  10.216  2.0193 -1.2518 -1.4131
  645TMC3    H1 9553   4.642   0.412  10.001 -1.6864  0.8305 -1.2135
  645TMC3    H2 9554   4.320   0.536  10.266  0.1641  1.0412  0.7669
  645TMC3    C7 9555   4.405   0.328  10.142 -0.2607 -0.1330  0.1148
  645TMC3    C8 9556   4.437   0.735  10.349 -0.2879  0.2816  0.0435
  645TMC3    O1 9557   4.289   0.318  10.178 -0.1784 -0.0951 -0.6480
  645TMC3    O2 9558   4.314   0.755  10.353 -0.4885  0.4507 -0.3235
  646MPD2     C 9559   3.816   4.417  14.799  0.0599 -0.0064  0.2921
  646MPD2    C1 9560   3.728   4.472  14.888 -0.2179 -0.0195 -0.0889
  646MPD2    C2 9561   3.626   4.543  14.831 -0.1602 -0.0435 -0.1857
  646MPD2    C3 9562   3.604   4.555  14.695 -0.5170  0.4988  0.4342
  646MPD2    C4 9563   3.692   4.494  14.604 -0.0320  0.5240  0.0530
  646MPD2    C5 9564   3.793   4.418  14.660  0.2683  1.4255  0.8462
  646MPD2     H 9565   3.548   4.584  14.894  0.4491  0.3655  0.3033
  646MPD2    H1 9566   3.675   4.499  14.497 -1.1115  0.3791  0.2224
  646MPD2    H2 9567   3.899   4.360  14.840 -0.9674 -0.7888  1.2777
  646MPD2    H3 9568   3.861   4.363  14.596 -2.9470 -2.2128  0.5591
  646MPD2     N 9569   3.483   4.615  14.659 -0.5850  0.0370 -0.1036
  646MPD2    H5 9570   3.428   4.651  14.736  1.1604 -0.6772  1.4671
  646MPD2    N1 9571   3.746   4.438  15.022 -0.0027 -0.1776 -0.2635
  646MPD2    H7 9572   3.833   4.401  15.058  1.2802  2.3044 -0.8219
  647TMC3    C1 9573   3.696   4.440  15.254  0.4503  0.2450  0.3754
  647TMC3    C2 9574   3.602   4.381  15.336 -0.0202  0.2671 -0.3101
  647TMC3    C3 9575   3.643   4.320  15.455 -0.6274  0.4434 -0.1668
  647TMC3    C4 9576   3.827   4.444  15.282 -0.0798  0.2883  0.5014
  647TMC3    C5 9577   3.866   4.378  15.393 -0.4316 -0.2448 -0.1453
  647TMC3    C6 9578   3.777   4.322  15.491  0.3245  0.4144  0.5174
  647TMC3     C 9579   3.652   4.468  15.117 -0.4534  0.2419 -0.5245
  647TMC3     O 9580   3.534   4.509  15.101  0.3484  0.4471 -0.8509
  647TMC3     H 9581   3.501   4.378  15.297 -0.0169  0.5142 -0.3357
  647TMC3    H1 9582   3.897   4.484  15.210 -0.3334 -0.1339  0.0185
  647TMC3    H2 9583   3.816   4.288  15.586 -0.9325 -1.3330  0.3980
  647TMC3    C7 9584   4.002   4.339  15.398 -0.0087  0.3224  0.2548
  647TMC3    C8 9585   3.549   4.259  15.547  0.6219 -0.2567  0.0981
  647TMC3    O1 9586   4.029   4.243  15.467  0.1267 -0.2082 -0.1441
  647TMC3    O2 9587   3.588   4.183  15.640 -0.4226  0.1677 -0.2613
  648TMC3    C1 9588   2.841   1.979  16.325 -0.5258  0.6352  0.5281
  648TMC3    C2 9589   2.881   1.875  16.242  0.1679 -0.1799  0.4012
  648TMC3    C3 9590   2.831   1.881  16.115  0.2740  0.6017  0.3971
  648TMC3    C4 9591   2.743   2.073  16.289 -0.1626 -0.0109 -0.0929
  648TMC3    C5 9592   2.703   2.076  16.154  0.5060 -0.2630 -0.4869
  648TMC3    C6 9593   2.744   1.978  16.066 -0.1821 -0.2369  0.0340
  648TMC3     C 9594   2.904   1.985  16.453 -0.3691  0.2662  0.1131
  648TMC3     O 9595   3.001   1.913  16.465 -0.5502  0.2958  0.1122
  648TMC3     H 9596   2.961   1.805  16.265  0.8926  0.4309 -0.2477
  648TMC3    H1 9597   2.696   2.137  16.363 -1.9445 -0.6342 -0.6801
  648TMC3    H2 9598   2.710   1.983  15.963  0.0140 -1.3968 -0.0824
  648TMC3    C7 9599   2.612   2.172  16.101 -0.2908 -0.2444  0.1992
  648TMC3    C8 9600   2.881   1.779  16.026 -0.0649  0.4961  0.4222
  648TMC3    O1 9601   2.621   2.179  15.981 -0.0375  0.7150  0.0608
  648TMC3    O2 9602   2.899   1.815  15.907 -0.8292 -0.2105  0.3600
  649TMC3    C1 9603   2.201   3.212  13.133  0.2726 -0.1940 -0.6074
  649TMC3    C2 9604   2.333   3.227  13.122 -0.3942 -0.3623 -0.0613
  649TMC3    C3 9605   2.409   3.172  13.225 -0.3036 -0.1978  0.5463
  649TMC3    C4 9606   2.142   3.138  13.224  0.4633 -0.0566 -0.3724
  649TMC3    C5 9607   2.212   3.081  13.323 -0.5154  0.5801 -0.1883
  649TMC3    C6 9608   2.351   3.089  13.318 -0.1794 -0.8579  0.0225
  649TMC3     C 9609   2.113   3.239  13.015  0.0879  0.3302 -0.0900
  649TMC3     O 9610   1.997   3.258  13.039 -0.6309 -0.3048  0.0003
  649TMC3     H 9611   2.368   3.305  13.056 -0.3385  0.3496  0.8045
  649TMC3    H1 9612   2.037   3.112  13.215  0.3223 -0.4209  2.5457
  649TMC3    H2 9613   2.416   3.044  13.393 -0.3120 -2.2383 -0.6884
  649TMC3    C7 9614   2.144   3.007  13.422  0.1277 -0.1212 -0.3178
  649TMC3    C8 9615   2.559   3.171  13.210 -0.5694  0.0159  0.7333
  649TMC3    O1 9616   2.020   3.014  13.414  0.1779  0.1589 -0.5792
  649TMC3    O2 9617   2.609   3.065  13.242  0.1612 -0.6729  0.1076
  650TMC3    C1 9618   4.587   0.172  13.065 -0.1398  0.0756 -0.3319
  650TMC3    C2 9619   4.538   0.282  13.122 -0.3758  0.3662  0.2310
  650TMC3    C3 9620   4.461   0.364  13.037 -0.0222 -0.0815  0.2050
  650TMC3    C4 9621   4.581   0.149  12.926 -0.4170  0.2796  0.8978
  650TMC3    C5 9622   4.504   0.228  12.851  0.4745 -0.0457  0.0464
  650TMC3    C6 9623   4.440   0.334  12.905  1.5570  0.6559  0.2539
  650TMC3     C 9624   4.688   0.102  13.144  0.4642  0.3899 -0.6979
  650TMC3     O 9625   4.711   0.134  13.259 -0.1832  0.3291  0.0368
  650TMC3     H 9626   4.551   0.298  13.228 -1.8447 -1.6751  0.7229
  650TMC3    H1 9627   4.647   0.080  12.874  1.4973  0.7493  2.7034
  650TMC3    H2 9628   4.375   0.402  12.851  0.3309 -0.2178  0.6230
  650TMC3    C7 9629   4.535   0.233  12.708 -0.5392 -0.1145 -0.3031
  650TMC3    C8 9630   4.486   0.501  13.060  0.2020  0.1618  0.0815
  650TMC3    O1 9631   4.546   0.126  12.653  0.0877 -0.1331 -0.1939
  650TMC3    O2 9632   4.517   0.568  12.966 -0.0833 -0.7124 -0.4146
  651MPD2     C 9633   3.643   1.207  11.093  0.2705 -0.9317 -0.4878
  651MPD2    C1 9634   3.597   1.334  11.111 -0.4026  0.0433  0.1405
  651MPD2    C2 9635   3.686   1.438  11.115  0.9360 -0.1630 -0.2198
  651MPD2    C3 9636   3.821   1.421  11.094  0.2948 -0.4649  0.2482
  651MPD2    C4 9637   3.862   1.293  11.070 -0.3462  0.4720  0.3161
  651MPD2    C5 9638   3.776   1.188  11.066  0.9131  0.3109 -0.3357
  651MPD2     H 9639   3.644   1.537  11.115  0.5537 -0.3251 -2.1197
  651MPD2    H1 9640   3.966   1.272  11.048 -0.4142  1.3023 -0.7814
  651MPD2    H2 9641   3.587   1.114  11.097 -2.7531  0.9317  0.4141
  651MPD2    H3 9642   3.814   1.088  11.055 -1.1234 -0.4741 -0.2433
  651MPD2     N 9643   3.914   1.527  11.099  0.5360 -0.1860  0.0040
  651MPD2    H5 9644   3.866   1.611  11.130  0.2135 -0.7520  1.0413
  651MPD2    N1 9645   3.460   1.366  11.128 -0.2332 -0.5697 -0.1486
  651MPD2    H7 9646   3.447   1.462  11.160 -1.2767 -0.1432 -1.8506
  652TMC3    C1 9647   4.273   1.828  11.074  0.3179 -0.7987  0.5218
  652TMC3    C2 9648   4.230   1.697  11.069  0.1038 -0.3495  0.0672
  652TMC3    C3 9649   4.095   1.675  11.035  0.3799  0.4920 -0.4528
  652TMC3    C4 9650   4.184   1.932  11.064 -0.4251 -0.3563 -0.1780
  652TMC3    C5 9651   4.051   1.903  11.033 -0.1187 -0.4002 -0.1459
  652TMC3    C6 9652   4.006   1.779  11.011 -0.2613  0.0013  0.0490
  652TMC3     C 9653   4.414   1.859  11.104  0.4944 -0.1322  0.1268
  652TMC3     O 9654   4.481   1.777  11.166  0.4308 -0.2377  0.3917
  652TMC3     H 9655   4.302   1.618  11.086  0.0795 -0.1283  1.1613
  652TMC3    H1 9656   4.221   2.030  11.091  0.7797 -1.2134  1.2876
  652TMC3    H2 9657   3.919   1.757  10.951 -0.5260 -1.4574  0.9610
  652TMC3    C7 9658   3.953   2.005  11.072 -0.4168  0.2128 -0.5070
  652TMC3    C8 9659   4.046   1.535  11.045  0.0742  0.4036 -0.1111
  652TMC3    O1 9660   3.843   1.952  11.083  0.5622  0.5117 -0.1347
  652TMC3    O2 9661   4.129   1.450  11.017 -0.2309 -0.2961  0.4427
  653MPD2     C 9662   1.731   2.021   0.608  0.1269 -0.0547 -0.2296
  653MPD2    C1 9663   1.779   2.082   0.491 -0.7908  0.2737 -0.4340
  653MPD2    C2 9664   1.773   2.012   0.370  0.0018 -0.5030 -0.4721
  653MPD2    C3 9665   1.715   1.888   0.372 -0.7127  0.2678  0.9166
  653MPD2    C4 9666   1.670   1.828   0.482  0.4323 -0.5586 -0.0765
  653MPD2    C5 9667   1.684   1.893   0.603  0.4361  0.9072  0.2895
  653MPD2     H 9668   1.799   2.063   0.278 -1.7612  0.9037 -0.1809
  653MPD2    H1 9669   1.625   1.729   0.482 -0.2355 -0.2534  0.1781
  653MPD2    H2 9670   1.730   2.073   0.703 -1.6564 -2.6049  1.1312
  653MPD2    H3 9671   1.641   1.849   0.693 -1.2143  1.0710 -0.4174
  653MPD2     N 9672   1.697   1.828   0.243 -0.5566  0.0920  0.4264
  653MPD2    H5 9673   1.715   1.885   0.161  1.1112 -0.1090  0.6453
  653MPD2    N1 9674   1.830   2.211   0.476  0.8205 -0.0047  0.5293
  653MPD2    H7 9675   1.866   2.231   0.383  0.3199  1.5556  0.6620
  654TMC3    C1 9676   1.583   1.675   0.101 -0.8286  0.0591  0.3679
  654TMC3    C2 9677   1.526   1.777   0.031  0.1821  0.3713  0.1173
  654TMC3    C3 9678   1.486   1.747  17.606  0.0525 -0.2813  0.1958
  654TMC3    C4 9679   1.586   1.544   0.057  0.4222 -0.9077 -0.4675
  654TMC3    C5 9680   1.529   1.513  17.639 -0.3140  0.3904  0.0073
  654TMC3    C6 9681   1.480   1.619  17.558 -0.2837  0.0143  0.1460
  654TMC3     C 9682   1.647   1.698   0.228 -0.7584  0.5476 -0.7035
  654TMC3     O 9683   1.642   1.593   0.299 -0.0913  0.2396  0.3066
  654TMC3     H 9684   1.534   1.877   0.071  1.1620  0.8684 -1.2943
  654TMC3    H1 9685   1.646   1.464   0.099 -0.5954 -0.9648  0.8836
  654TMC3    H2 9686   1.452   1.599  17.455 -0.7847  1.1312  0.0686
  654TMC3    C7 9687   1.528   1.374  17.587  0.1840 -0.0682  0.2340
  654TMC3    C8 9688   1.444   1.857  17.522  0.6456 -0.5874 -0.2237
  654TMC3    O1 9689   1.467   1.364  17.486 -0.4627 -0.1832  0.0873
  654TMC3    O2 9690   1.359   1.926  17.580  0.1615  0.7767  0.2594
  655MPD2     C 9691   3.360   2.434  16.120 -0.0732 -0.4670 -0.1211
  655MPD2    C1 9692   3.254   2.404  16.034 -1.1604  0.1761  0.8144
  655MPD2    C2 9693   3.287   2.344  15.917  0.3945 -0.8452 -0.8050
  655MPD2    C3 9694   3.417   2.330  15.880 -0.4463  0.4199 -1.0855
  655MPD2    C4 9695   3.524   2.367  15.956  0.3706  0.0516 -0.2318
  655MPD2    C5 9696   3.492   2.421  16.080  0.2916 -0.1834 -0.5092
  655MPD2     H 9697   3.207   2.304  15.856 -1.3706 -1.3492  1.8870
  655MPD2    H1 9698   3.623   2.366  15.912  0.6055 -1.9005  0.3356
  655MPD2    H2 9699   3.336   2.483  16.214  2.0062  1.2613 -0.4991
  655MPD2    H3 9700   3.565   2.453  16.153  1.5276 -2.8906 -0.5463
  655MPD2     N 9701   3.438   2.266  15.755 -0.0579  0.0467 -0.0895
  655MPD2    H5 9702   3.357   2.226  15.708 -0.9281  0.1744  1.2771
  655MPD2    N1 9703   3.120   2.410  16.071 -0.0252  0.1284  0.2227
  655MPD2    H7 9704   3.053   2.374  16.004  0.5700 -0.1861 -0.1922
  656TMC3    C1 9705   2.934   2.466  16.209 -0.0348 -0.4275  0.0505
  656TMC3    C2 9706   2.869   2.453  16.331  0.3499  0.9920  0.1792
  656TMC3    C3 9707   2.749   2.505  16.345  0.0048 -1.0215 -0.1663
  656TMC3    C4 9708   2.874   2.547  16.116  0.2942 -0.2398 -0.1345
  656TMC3    C5 9709   2.740   2.594  16.138 -0.0223  0.8088  0.7902
  656TMC3    C6 9710   2.682   2.584  16.253  0.1216  0.8476 -0.3063
  656TMC3     C 9711   3.074   2.428  16.199  0.6028  0.3286 -0.3013
  656TMC3     O 9712   3.130   2.398  16.302  0.3826  0.4722  0.2470
  656TMC3     H 9713   2.905   2.410  16.424 -2.3314 -1.1830  0.1929
  656TMC3    H1 9714   2.918   2.555  16.018 -0.9540  0.4266 -0.6396
  656TMC3    H2 9715   2.575   2.599  16.265 -0.1038 -0.2581 -0.9382
  656TMC3    C7 9716   2.684   2.669  16.025  0.2155 -0.4800 -0.1988
  656TMC3    C8 9717   2.671   2.447  16.453 -0.1681 -0.5654  0.1076
  656TMC3    O1 9718   2.733   2.660  15.913 -0.8422  0.0663 -0.2211
  656TMC3    O2 9719   2.682   2.325  16.475  0.2993  0.7333 -0.5189
  657TMC3    C1 9720   2.646   1.313  14.998 -0.0624 -0.4846 -0.2492
  657TMC3    C2 9721   2.576   1.338  15.119 -0.0625 -0.4492 -0.1718
  657TMC3    C3 9722   2.560   1.466  15.161  0.5032 -0.2016  0.3838
  657TMC3    C4 9723   2.699   1.422  14.927  0.5429 -0.1878  0.2383
  657TMC3    C5 9724   2.671   1.548  14.977 -0.2969 -0.3629  0.1187
  657TMC3    C6 9725   2.605   1.574  15.094  0.8550 -0.0214  0.1982
  657TMC3     C 9726   2.641   1.190  14.928 -0.1060 -0.2172  0.5420
  657TMC3     O 9727   2.648   1.192  14.808 -0.5171 -0.2076  0.2302
  657TMC3     H 9728   2.539   1.249  15.170  0.7284 -0.7618 -0.1259
  657TMC3    H1 9729   2.724   1.411  14.822 -1.1594 -1.1449 -0.0594
  657TMC3    H2 9730   2.587   1.672  15.136  2.0344  0.2669  0.0360
  657TMC3    C7 9731   2.734   1.654  14.910 -0.0581 -0.6851  0.0249
  657TMC3    C8 9732   2.508   1.477  15.296  0.6190 -0.0148  0.7054
  657TMC3    O1 9733   2.829   1.630  14.839  0.0914  1.0347  0.1344
  657TMC3    O2 9734   2.463   1.589  15.332  0.2358 -0.0031  0.0187
  658MPD2     C 9735   4.001   2.177  15.070  0.1503  0.1909  0.3041
  658MPD2    C1 9736   3.871   2.213  15.087  0.6393 -0.0716  0.3333
  658MPD2    C2 9737   3.829   2.304  14.997 -0.5712 -0.4559  0.5930
  658MPD2    C3 9738   3.906   2.353  14.888 -0.9614 -0.0529  0.0109
  658MPD2    C4 9739   4.033   2.306  14.874  0.1165 -0.2483  0.2488
  658MPD2    C5 9740   4.074   2.220  14.972  0.1680  0.0057  1.2454
  658MPD2     H 9741   3.733   2.352  15.014 -1.5561 -1.4473 -2.2122
  658MPD2    H1 9742   4.105   2.335  14.798  0.9053 -0.1682  1.0302
  658MPD2    H2 9743   4.055   2.113  15.138  1.4449 -1.5096 -2.3126
  658MPD2    H3 9744   4.177   2.188  14.973  0.5125  0.9563 -2.0472
  658MPD2     N 9745   3.844   2.456  14.816  0.0774  0.0248  0.2335
  658MPD2    H5 9746   3.759   2.500  14.850  0.5723  0.6077  0.7176
  658MPD2    N1 9747   3.800   2.169  15.196 -0.2775 -0.0795  0.1751
  658MPD2    H7 9748   3.839   2.108  15.267 -2.0200 -1.4431 -0.0376
  659TMC3    C1 9749   3.612   2.138  15.340 -0.0421  0.1813  0.4198
  659TMC3    C2 9750   3.630   2.213  15.452 -0.8387  0.9393 -0.7151
  659TMC3    C3 9751   3.556   2.174  15.562  0.4812  0.1913 -0.4820
  659TMC3    C4 9752   3.516   2.049  15.318  0.4386  0.0898 -0.7940
  659TMC3    C5 9753   3.433   2.034  15.420  0.0010  0.0267  0.2396
  659TMC3    C6 9754   3.455   2.086  15.546 -0.2179 -0.7843 -0.1000
  659TMC3     C 9755   3.665   2.199  15.213 -0.0367 -0.3589 -0.7121
  659TMC3     O 9756   3.580   2.221  15.127  0.3907  0.3502  0.5540
  659TMC3     H 9757   3.713   2.283  15.457  0.2202 -0.3229 -0.5356
  659TMC3    H1 9758   3.502   2.019  15.215  1.4004  1.2434 -1.2625
  659TMC3    H2 9759   3.384   2.072  15.627  0.7129 -0.8179  0.7025
  659TMC3    C7 9760   3.346   1.920  15.419 -0.2794  0.5615 -0.1861
  659TMC3    C8 9761   3.561   2.259  15.684  0.2404 -0.5587  0.8169
  659TMC3    O1 9762   3.284   1.907  15.522 -0.2257 -0.1327  0.2092
  659TMC3    O2 9763   3.654   2.339  15.690  0.4122  0.1081 -0.0953
  660MPD2     C 9764   1.764   1.269  13.062 -0.4143  0.2763 -0.0619
  660MPD2    C1 9765   1.808   1.144  13.046  0.0246  0.2355  0.9191
  660MPD2    C2 9766   1.756   1.038  13.127 -0.2594 -0.4614 -0.1722
  660MPD2    C3 9767   1.652   1.064  13.213 -0.5412  0.0057 -0.0091
  660MPD2    C4 9768   1.616   1.190  13.238 -0.0810 -0.2902  0.1448
  660MPD2    C5 9769   1.667   1.290  13.159  0.5001  0.2202 -0.8032
  660MPD2     H 9770   1.780   0.936  13.102 -0.4560 -1.1876  2.6469
  660MPD2    H1 9771   1.544   1.207  13.317 -1.4686 -1.8429 -0.7736
  660MPD2    H2 9772   1.805   1.357  13.014  1.5259 -0.9505 -0.6503
  660MPD2    H3 9773   1.627   1.390  13.171  2.8331  0.9630  0.7558
  660MPD2     N 9774   1.571   0.958  13.273  0.3704  0.1868  0.2147
  660MPD2    H5 9775   1.499   0.994  13.336 -0.5833 -0.3822 -0.5468
  660MPD2    N1 9776   1.897   1.127  12.949 -0.0794 -0.1164 -0.1566
  660MPD2    H7 9777   1.902   1.209  12.890  1.3379  1.3749  2.0458
  661TMC3    C1 9778   1.985   0.987  12.785  0.4905  0.4174  0.0259
  661TMC3    C2 9779   1.973   1.079  12.679 -0.2338  0.2701  0.7407
  661TMC3    C3 9780   1.942   1.031  12.555  1.1817  0.3159  0.1540
  661TMC3    C4 9781   1.970   0.858  12.750 -0.1547 -0.2918 -0.2765
  661TMC3    C5 9782   1.948   0.812  12.628  0.2012 -0.2157  0.7206
  661TMC3    C6 9783   1.942   0.900  12.524 -0.0845  0.6350 -0.5094
  661TMC3     C 9784   1.972   1.016  12.924 -0.3916  0.0186 -0.1538
  661TMC3     O 9785   1.984   0.919  12.997 -0.2993 -0.1220  0.4692
  661TMC3     H 9786   1.995   1.184  12.694 -3.3146  1.2563 -1.6326
  661TMC3    H1 9787   1.959   0.784  12.829 -1.0302  1.4415  1.2391
  661TMC3    H2 9788   1.898   0.875  12.428 -0.6770  2.6746 -0.7732
  661TMC3    C7 9789   1.848   0.705  12.619  0.4827  0.2303  0.6198
  661TMC3    C8 9790   1.916   1.122  12.443  0.3099  0.0409  0.0719
  661TMC3    O1 9791   1.863   0.621  12.706  0.1356  0.1492 -0.1317
  661TMC3    O2 9792   1.944   1.083  12.330 -0.2341  0.3469  0.7236
  662MPD2     C 9793   1.283   0.901  17.471  0.2429 -0.6025  0.1195
  662MPD2    C1 9794   1.336   0.838  17.583 -0.7122  0.2490  0.1141
  662MPD2    C2 9795   1.336   0.904   0.004  0.1813  0.3625  0.1079
  662MPD2    C3 9796   1.291   1.038   0.006 -1.0245  0.3338 -0.1312
  662MPD2    C4 9797   1.241   1.097  17.598  0.3835 -0.2009 -0.8760
  662MPD2    C5 9798   1.231   1.028  17.484 -0.5597  0.0529 -0.4120
  662MPD2     H 9799   1.392   0.853   0.081 -0.1548 -0.6739 -0.3406
  662MPD2    H1 9800   1.204   1.198  17.615  0.4111 -0.2875 -0.3303
  662MPD2    H2 9801   1.274   0.855  17.373  0.0465  2.9814 -1.5501
  662MPD2    H3 9802   1.186   1.081  17.401 -2.1009  2.3974  1.9482
  662MPD2     N 9803   1.296   1.119   0.120 -0.0210  0.3732  0.4990
  662MPD2    H5 9804   1.253   1.211   0.110  0.7804  0.7763  0.7579
  662MPD2    N1 9805   1.398   0.706  17.584 -0.3600  0.1505  0.4950
  662MPD2    H7 9806   1.411   0.659  17.674  0.2502  3.1397  1.9553
  663TMC3    C1 9807   1.465   0.501  17.512  0.0249 -0.2821  0.1056
  663TMC3    C2 9808   1.521   0.495  17.633  0.3642 -0.4155 -0.2221
  663TMC3    C3 9809   1.518   0.384   0.006 -0.8508  0.3797 -0.3350
  663TMC3    C4 9810   1.389   0.398  17.479 -0.3338  0.2348  0.4958
  663TMC3    C5 9811   1.364   0.293  17.564  0.7364 -0.2162  0.9138
  663TMC3    C6 9812   1.420   0.292  17.686 -0.3635 -0.0721 -0.0404
  663TMC3     C 9813   1.417   0.633  17.475  0.4507  0.0518  0.3587
  663TMC3     O 9814   1.389   0.649  17.358  0.1553  0.2109  0.3460
  663TMC3     H 9815   1.605   0.561  17.653 -0.8843  1.8681 -2.5083
  663TMC3    H1 9816   1.338   0.394  17.384  0.6117  2.0962 -0.0792
  663TMC3    H2 9817   1.434   0.194   0.024 -0.0511  0.0091  0.0437
  663TMC3    C7 9818   1.313   0.175  17.497 -0.0868  0.3229 -0.2907
  663TMC3    C8 9819   1.529   0.426   0.139  0.0692  0.6053  0.2368
  663TMC3    O1 9820   1.291   0.184  17.378 -0.5879  0.1282 -0.1076
  663TMC3    O2 9821   1.586   0.531   0.164 -0.3059 -0.6478  0.0511
  664MPD2     C 9822   4.442   3.246   0.074  0.3703 -0.5631 -0.7338
  664MPD2    C1 9823   4.511   3.369   0.053  0.0350  0.1091  0.3743
  664MPD2    C2 9824   4.588   3.426   0.150  0.7789  0.7055 -0.0814
  664MPD2    C3 9825   4.611   3.355   0.269  0.6770  0.5591  0.2932
  664MPD2    C4 9826   4.544   3.237   0.286  0.7995 -1.0282 -0.1685
  664MPD2    C5 9827   4.450   3.193   0.197  0.6087 -0.5642  0.0299
  664MPD2     H 9828   4.623   3.528   0.147  0.2128  0.9077  0.2786
  664MPD2    H1 9829   4.543   3.188   0.383 -0.3924 -1.1923 -0.2609
  664MPD2    H2 9830   4.376   3.200   0.001 -0.8073 -1.1583  0.7192
  664MPD2    H3 9831   4.386   3.107   0.214 -0.1664  0.0975  0.4548
  664MPD2     N 9832   4.691   3.409   0.373  0.4562 -0.0111  0.0507
  664MPD2    H5 9833   4.696   3.510   0.366  0.4251 -0.0371 -0.3384
  664MPD2    N1 9834   4.497   3.440  17.637  0.1868  0.2576  0.1099
  664MPD2    H7 9835   4.546   3.529  17.636 -1.9350  1.4567  2.2749
  665TMC3    C1 9836   0.049   3.421   0.593  0.6963  0.9197  0.0484
  665TMC3    C2 9837   0.039   3.360   0.718  0.4005 -0.1069  0.3546
  665TMC3    C3 9838   0.040   3.439   0.836 -0.5553  0.2177  0.4669
  665TMC3    C4 9839   0.074   3.555   0.583  0.0580 -1.1039 -0.2744
  665TMC3    C5 9840   0.064   3.627   0.701 -0.7693  0.1450  0.1432
  665TMC3    C6 9841   0.037   3.574   0.823  0.3460  0.4357 -0.1501
  665TMC3     C 9842   0.009   3.339   0.481 -0.4446  0.0158  0.0702
  665TMC3     O 9843   0.012   3.217   0.501  0.6480 -0.2618  0.0493
  665TMC3     H 9844   0.036   3.252   0.728 -0.3913  0.0702  2.0515
  665TMC3    H1 9845   0.093   3.607   0.490 -0.6810 -0.1847  0.0921
  665TMC3    H2 9846   0.006   3.637   0.906  0.5543  2.0015 -1.2596
  665TMC3    C7 9847   0.093   3.769   0.689  0.2387 -1.2004  0.4403
  665TMC3    C8 9848   4.703   3.384   0.953  0.3985 -0.6656 -0.2376
  665TMC3    O1 9849   0.093   3.819   0.578  1.0124 -0.0620  0.0713
  665TMC3    O2 9850   0.006   3.438   1.059  0.0997 -0.1052  0.2925
  666TMC3    C1 9851   0.048   2.998  10.348  0.3037 -0.2380 -0.4654
  666TMC3    C2 9852   0.038   2.958  10.483 -0.9140 -0.1165 -0.6985
  666TMC3    C3 9853   0.047   3.056  10.575  0.8236  0.4316 -0.0179
  666TMC3    C4 9854   0.053   3.134  10.319 -0.0311 -0.2993 -0.1909
  666TMC3    C5 9855   0.048   3.224  10.421  0.1257  0.3542 -0.5897
  666TMC3    C6 9856   0.047   3.190  10.555  0.5308  0.4798 -0.3793
  666TMC3     C 9857   0.036   2.904  10.234  0.3273  0.1528  0.3523
  666TMC3     O 9858   0.101   2.926  10.133  0.5045 -0.7318 -0.2514
  666TMC3     H 9859   0.035   2.852  10.507 -2.3868 -0.2949 -1.6694
  666TMC3    H1 9860   0.050   3.155  10.213 -0.0404  2.0021  0.2634
  666TMC3    H2 9861   0.044   3.268  10.631  0.3616 -1.6284  1.7693
  666TMC3    C7 9862   0.011   3.352  10.393  0.9447  0.3808 -0.1136
  666TMC3    C8 9863   0.016   3.013  10.708 -0.0367  0.6359 -0.2323
  666TMC3    O1 9864   4.652   3.399  10.470 -0.3110 -0.1247  0.6509
  666TMC3    O2 9865   4.649   2.930  10.721 -0.4616 -0.3908  0.1846
  667MPD2     C 9866   1.036   3.771  14.759 -0.0845 -0.9134  0.1313
  667MPD2    C1 9867   0.975   3.778  14.882 -0.3985  0.6213  0.7634
  667MPD2    C2 9868   0.915   3.662  14.933  0.3339 -0.3885  0.2344
  667MPD2    C3 9869   0.896   3.551  14.850  0.0298 -0.5629 -0.5754
  667MPD2    C4 9870   0.956   3.549  14.729  0.2208 -0.3335  0.8688
  667MPD2    C5 9871   1.021   3.660  14.683 -0.4323 -0.2195 -0.4677
  667MPD2     H 9872   0.877   3.663  15.034 -0.2343 -0.5068  0.0219
  667MPD2    H1 9873   0.950   3.470  14.655 -0.7520  1.4609 -0.9543
  667MPD2    H2 9874   1.096   3.851  14.717 -1.5389  0.8946  1.5007
  667MPD2    H3 9875   1.063   3.650  14.583  0.6515  0.2285 -0.0539
  667MPD2     N 9876   0.818   3.440  14.888  0.2133  0.2766  0.3738
  667MPD2    H5 9877   0.805   3.363  14.823  0.1979  0.9146 -0.3748
  667MPD2    N1 9878   1.004   3.878  14.979  0.7347  0.0516 -0.4513
  667MPD2    H7 9879   0.978   3.848  15.072 -1.8648 -1.5635 -1.7038
  668TMC3    C1 9880   1.117   4.060  15.075 -0.3236 -0.3285 -0.3723
  668TMC3    C2 9881   1.162   4.187  15.069 -0.3402  0.8962  0.2048
  668TMC3    C3 9882   1.212   4.241  15.183  0.2289 -0.3832  0.8256
  668TMC3    C4 9883   1.105   3.998  15.198  0.3055  0.2594  0.5831
  668TMC3    C5 9884   1.147   4.065  15.310 -0.6819  0.1634 -0.7749
  668TMC3    C6 9885   1.198   4.186  15.304  0.1290 -0.2019  0.5315
  668TMC3     C 9886   1.065   3.994  14.950 -0.1675  0.1484  0.1344
  668TMC3     O 9887   1.097   4.057  14.847 -0.1318 -0.0957 -0.4526
  668TMC3     H 9888   1.165   4.234  14.972 -0.0095 -3.1937 -1.7486
  668TMC3    H1 9889   1.091   3.891  15.208  2.3779 -0.2114 -1.6483
  668TMC3    H2 9890   1.239   4.240  15.388  1.1489  0.9092 -0.6772
  668TMC3    C7 9891   1.131   4.007  15.438 -0.4593 -0.4268 -0.3931
  668TMC3    C8 9892   1.284   4.364  15.183 -0.3798 -0.1562 -0.1794
  668TMC3    O1 9893   1.225   4.033  15.511  0.1837  0.1392  0.0163
  668TMC3    O2 9894   1.294   4.419  15.291  0.6000  0.3753  0.7849
  669TMC3    C1 9895   3.595   3.724  14.768 -0.0218  0.4645  0.1676
  669TMC3    C2 9896   3.513   3.775  14.667 -0.0045 -0.7280  0.3249
  669TMC3    C3 9897   3.562   3.787  14.542 -0.3235  0.8125  0.1938
  669TMC3    C4 9898   3.731   3.703  14.740 -0.0976  0.0769 -0.0628
  669TMC3    C5 9899   3.778   3.723  14.613  0.1547  0.0840  0.2594
  669TMC3    C6 9900   3.694   3.765  14.515 -0.4739  0.6359  0.4682
  669TMC3     C 9901   3.538   3.703  14.898 -0.1476  0.4220 -0.5009
  669TMC3     O 9902   3.414   3.694  14.903  0.1882 -0.5502  1.1011
  669TMC3     H 9903   3.407   3.782  14.688 -0.1828  0.7069 -1.1641
  669TMC3    H1 9904   3.800   3.667  14.816  0.0839  0.9386  0.1832
  669TMC3    H2 9905   3.718   3.776  14.410  0.3351  1.2272  0.7070
  669TMC3    C7 9906   3.921   3.733  14.591 -0.0826 -0.1839  0.4930
  669TMC3    C8 9907   3.473   3.801  14.419 -0.2270  0.2359 -0.4222
  669TMC3    O1 9908   3.952   3.800  14.493  0.3539 -0.0851 -0.1302
  669TMC3    O2 9909   3.513   3.739  14.319 -0.2356  0.4287  0.3057
  670MPD2     C 9910   1.874   1.802  13.822 -0.0008 -0.0852 -0.1554
  670MPD2    C1 9911   1.972   1.732  13.881  0.6631  0.0835 -0.0904
  670MPD2    C2 9912   1.942   1.639  13.982  0.1021  0.3268 -0.3421
  670MPD2    C3 9913   1.818   1.625  14.030  0.3926 -0.3635 -0.7081
  670MPD2    C4 9914   1.722   1.689  13.972  0.4578 -0.6753  0.6321
  670MPD2    C5 9915   1.749   1.779  13.872  0.2409  0.3059  0.4077
  670MPD2     H 9916   2.023   1.589  14.033 -0.1833  3.1778  2.9897
  670MPD2    H1 9917   1.618   1.676  14.000  0.3314  0.0686  0.5079
  670MPD2    H2 9918   1.883   1.867  13.736  0.0640 -2.3115 -1.8330
  670MPD2    H3 9919   1.663   1.828  13.828  0.1631 -0.9983 -0.9195
  670MPD2     N 9920   1.802   1.530  14.131  0.2548  0.0682  0.6775
  670MPD2    H5 9921   1.892   1.487  14.152  1.7054  1.7497 -2.0506
  670MPD2    N1 9922   2.108   1.743  13.838 -0.7350  0.4506 -0.2743
  670MPD2    H7 9923   2.174   1.697  13.900 -1.7606 -1.0629 -0.2997
  671TMC3    C1 9924   1.693   1.344  14.222  0.1030 -0.0378 -0.2016
  671TMC3    C2 9925   1.806   1.276  14.201 -0.6351 -0.1924 -0.3402
  671TMC3    C3 9926   1.802   1.142  14.207  0.0483 -0.9852 -0.6006
  671TMC3    C4 9927   1.581   1.279  14.261  0.4626 -0.4072 -0.3971
  671TMC3    C5 9928   1.581   1.142  14.266 -0.1941 -0.2265  0.7827
  671TMC3    C6 9929   1.693   1.068  14.238 -0.8869  0.3005  0.1869
  671TMC3     C 9930   1.683   1.481  14.172 -0.1378 -0.2047  0.3013
  671TMC3     O 9931   1.573   1.533  14.178  0.5685 -0.8249 -0.1490
  671TMC3     H 9932   1.894   1.312  14.149 -0.2994 -0.0260  0.3535
  671TMC3    H1 9933   1.494   1.338  14.288  0.3424 -0.0536 -1.5505
  671TMC3    H2 9934   1.696   0.960  14.243 -0.7389  0.2687 -0.7282
  671TMC3    C7 9935   1.452   1.073  14.249  0.1083 -0.0624  0.1828
  671TMC3    C8 9936   1.928   1.069  14.212 -0.2423  0.1460 -0.4205
  671TMC3    O1 9937   1.446   0.981  14.165 -0.4128 -0.2989  0.0286
  671TMC3    O2 9938   1.917   0.949  14.210 -0.1357 -0.7650  0.3523
  672MPD2     C 9939   2.116   2.169   1.255 -0.7607 -0.3142 -0.2424
  672MPD2    C1 9940   2.217   2.070   1.251  0.4912 -0.3067  0.5655
  672MPD2    C2 9941   2.337   2.107   1.205 -0.3903 -0.0790  0.2214
  672MPD2    C3 9942   2.362   2.234   1.156 -0.6799  0.5196  0.9921
  672MPD2    C4 9943   2.265   2.332   1.165 -0.6248  0.2671 -0.5860
  672MPD2    C5 9944   2.144   2.299   1.219  0.4626  0.9012  0.4374
  672MPD2     H 9945   2.403   2.022   1.205 -0.1105  0.1368  0.4861
  672MPD2    H1 9946   2.283   2.435   1.136 -1.0654 -0.1830 -2.4719
  672MPD2    H2 9947   2.015   2.150   1.290 -1.7157  1.4998 -2.0508
  672MPD2    H3 9948   2.069   2.376   1.227 -2.9484 -2.7286  3.6326
  672MPD2     N 9949   2.481   2.266   1.086 -1.1065 -0.4163 -0.4618
  672MPD2    H5 9950   2.498   2.362   1.058 -1.8799  0.5940  2.5385
  672MPD2    N1 9951   2.202   1.939   1.304  0.5697  0.6306 -0.2660
  672MPD2    H7 9952   2.275   1.871   1.283  0.5676 -0.3496  2.9708
  673TMC3    C1 9953   2.065   1.752   1.375 -0.4007 -0.0605  0.0707
  673TMC3    C2 9954   2.096   1.677   1.269 -0.1592  0.4098 -0.9418
  673TMC3    C3 9955   2.014   1.569   1.249 -0.4263 -0.8640 -0.0043
  673TMC3    C4 9956   1.965   1.720   1.466 -0.2430  0.2119  0.6220
  673TMC3    C5 9957   1.876   1.621   1.429 -0.1808  0.0925 -0.4056
  673TMC3    C6 9958   1.912   1.538   1.327 -0.8294  0.4294  0.2389
  673TMC3     C 9959   2.083   1.898   1.362 -0.4622 -0.4673  0.1185
  673TMC3     O 9960   1.981   1.958   1.398  0.6344 -0.0302  0.0084
  673TMC3     H 9961   2.166   1.702   1.190 -0.5322  1.3075 -0.9864
  673TMC3    H1 9962   1.934   1.784   1.547  1.5382  2.5639 -0.5575
  673TMC3    H2 9963   1.840   1.462   1.300  0.7640 -0.7580 -0.6431
  673TMC3    C7 9964   1.735   1.676   1.431 -0.6756  0.0161 -0.6882
  673TMC3    C8 9965   2.048   1.480   1.139  0.3888  0.5738 -0.0107
  673TMC3    O1 9966   1.652   1.595   1.391 -0.0420  0.4921  0.7518
  673TMC3    O2 9967   1.957   1.420   1.091 -0.6469 -0.1881 -0.2898
  674MPD2     C 9968   2.259   1.870   0.886 -0.6781  0.3697  0.2901
  674MPD2    C1 9969   2.199   1.748   0.876  1.1986 -0.0301  0.4839
  674MPD2    C2 9970   2.061   1.750   0.905 -0.3877  0.2847  0.6208
  674MPD2    C3 9971   1.989   1.865   0.941  0.2098 -0.2723 -0.5934
  674MPD2    C4 9972   2.054   1.992   0.933 -0.4753  0.3668 -0.1559
  674MPD2    C5 9973   2.191   1.986   0.903  0.0868  0.4057  0.3070
  674MPD2     H 9974   2.012   1.653   0.907 -0.8862  0.5607  2.1775
  674MPD2    H1 9975   2.005   2.087   0.954 -1.4690 -0.3354  0.6855
  674MPD2    H2 9976   2.368   1.876   0.883 -0.6863  0.9271  1.1286
  674MPD2    H3 9977   2.247   2.079   0.904  1.2303 -0.2518 -1.1023
  674MPD2     N 9978   1.856   1.844   0.970  0.2148  0.4226 -0.4283
  674MPD2    H5 9979   1.829   1.746   0.973  1.1046  0.1705 -0.5923
  674MPD2    N1 9980   2.260   1.625   0.839 -0.9467  0.4812  0.2656
  674MPD2    H7 9981   2.197   1.545   0.840  0.6396 -0.7631 -3.2900
  675TMC3    C1 9982   2.431   1.476   0.768 -0.2521  0.0620  0.2301
  675TMC3    C2 9983   2.336   1.400   0.712 -0.9039  0.1517  0.3726
  675TMC3    C3 9984   2.376   1.283   0.653 -0.4006  0.4412 -0.8546
  675TMC3    C4 9985   2.564   1.449   0.750 -0.1741 -0.1055  0.4039
  675TMC3    C5 9986   2.598   1.329   0.698 -0.2316 -0.2107 -0.2278
  675TMC3    C6 9987   2.503   1.240   0.646  0.2256 -0.3656  0.1461
  675TMC3     C 9988   2.394   1.605   0.816  0.5816  0.3306  0.0020
  675TMC3     O 9989   2.480   1.688   0.814  0.3744  0.5276 -0.2281
  675TMC3     H 9990   2.232   1.430   0.714 -1.0665 -0.5945  3.6561
  675TMC3    H1 9991   2.636   1.513   0.800 -1.2078 -0.3960  2.2617
  675TMC3    H2 9992   2.530   1.149   0.593  0.6008 -1.2810  1.9021
  675TMC3    C7 9993   2.741   1.294   0.700 -0.0611 -0.1140  0.6806
  675TMC3    C8 9994   2.273   1.194   0.600  0.1784 -0.5076 -0.5989
  675TMC3    O1 9995   2.808   1.388   0.734  0.1583 -0.0569 -0.4733
  675TMC3    O2 9996   2.309   1.119   0.509 -0.4786 -0.2942 -0.7226
  676MPD2     C 9997   4.660   4.665  11.065 -0.0172 -0.4154 -0.3164
  676MPD2    C1 9998   4.608   4.606  11.178  0.4274 -0.2793 -0.2686
  676MPD2    C2 9999   4.583   4.472  11.176 -0.7055  0.5270 -0.4482
  676MPD2    C310000   4.631   4.394  11.071 -0.1252 -0.4029  0.2400
  676MPD2    C410001   4.706   4.458  10.970  0.3485  0.5540  1.6862
  676MPD2    C510002   4.719   4.595  10.968 -0.1796 -0.2008  0.3804
  676MPD2     H10003   4.515   4.420  11.242  2.7487 -2.2574  0.9485
  676MPD2    H110004   0.028   4.399  10.892 -0.3639  1.0482  0.8717
  676MPD2    H210005   4.679   0.045  11.056 -0.0610 -0.1329  2.7755
  676MPD2    H310006   0.047   4.644  10.888  1.9943 -0.6134  1.6016
  676MPD2     N10007   4.608   4.256  11.052  0.7801 -0.0866 -0.1036
  676MPD2    H510008   4.647   4.213  10.969 -1.6785 -0.0105 -1.2952
  676MPD2    N110009   4.554   4.683  11.281  0.2774 -0.1696  0.2686
  676MPD2    H710010   4.510   4.623  11.350  0.5986 -0.4707  0.2140
  677TMC3    C110011   4.500   0.121  11.428 -0.0675 -0.3905 -1.3466
  677TMC3    C210012   4.409   0.027  11.479  0.7571 -0.1166  0.6061
  677TMC3    C310013   4.359   0.050  11.601 -0.4515 -0.6113 -0.2856
  677TMC3    C410014   4.562   0.216  11.504  0.4519 -0.2587 -0.2461
  677TMC3    C510015   4.502   0.229  11.625 -0.2284 -0.6150 -0.0819
  677TMC3    C610016   4.400   0.154  11.675  0.2396  0.5933  0.2414
  677TMC3     C10017   4.565   0.095  11.307 -0.8821  0.0524 -0.2095
  677TMC3     O10018   4.627   0.190  11.263  0.1766  0.2116 -0.1847
  677TMC3     H10019   4.358   4.684  11.412  0.7578  1.5308 -1.1214
  677TMC3    H110020   4.629   0.287  11.457  0.4505  1.0099  1.6892
  677TMC3    H210021   4.345   0.181  11.763 -0.8739  1.7119 -0.7974
  677TMC3    C710022   4.562   0.309  11.730  0.2126  0.0809  0.1025
  677TMC3    C810023   4.233   4.708  11.630  0.0841  0.5868  0.7182
  677TMC3    O110024   4.501   0.327  11.838 -0.0451  0.5809 -0.1342
  677TMC3    O210025   4.173   4.681  11.529 -0.4342 -0.4239  0.1068
  678MPD2     C10026   1.155   4.450   1.694  0.7840  0.5902 -0.1529
  678MPD2    C110027   1.165   4.396   1.563  0.3879 -0.1257  0.7016
  678MPD2    C210028   1.048   4.388   1.489 -0.3867 -0.3668  0.2187
  678MPD2    C310029   0.926   4.424   1.533  0.1117 -0.1739 -0.0744
  678MPD2    C410030   0.929   4.471   1.666  0.1628  0.3514 -0.1536
  678MPD2    C510031   1.034   4.479   1.751 -0.4107  0.0060  0.2023
  678MPD2     H10032   1.048   4.336   1.394  0.4060  0.3034 -0.1474
  678MPD2    H110033   0.833   4.502   1.705  1.0081 -0.5278  2.6428
  678MPD2    H210034   1.240   4.455   1.761  0.2548  0.4199  0.5272
  678MPD2    H310035   1.030   4.522   1.851  0.9378  0.8750 -0.1190
  678MPD2     N10036   0.809   4.407   1.444  0.1052 -0.2216 -0.4557
  678MPD2    H510037   0.833   4.386   1.348  0.7458  2.3015 -0.8679
  678MPD2    N110038   1.283   4.355   1.500 -0.5311 -0.5331  0.3367
  678MPD2    H710039   1.268   4.308   1.411  1.2403 -1.0796  0.3220
  679TMC3    C110040   1.696   4.156   1.497  0.0268 -0.3306 -0.8877
  679TMC3    C210041   1.616   4.244   1.566 -0.1126 -0.7132  0.1627
  679TMC3    C310042   1.487   4.247   1.519 -0.8236  1.3051  0.4935
  679TMC3    C410043   1.664   4.078   1.390 -0.2243 -0.5590 -0.4128
  679TMC3    C510044   1.529   4.071   1.366 -0.3987 -0.3787 -0.0896
  679TMC3    C610045   1.438   4.151   1.430  0.3837  0.1293 -0.2751
  679TMC3     C10046   1.818   4.112   1.567  0.3683  0.0591  0.2061
  679TMC3     O10047   1.889   4.038   1.499 -0.3417 -0.5492 -0.4080
  679TMC3     H10048   1.644   4.318   1.641 -0.0342 -0.0700 -0.4946
  679TMC3    H110049   1.731   4.002   1.350  0.3985 -0.4723  0.4696
  679TMC3    H210050   1.335   4.152   1.397  0.4393  0.9352 -0.4192
  679TMC3    C710051   1.490   4.055   1.227  0.0271  0.1273 -0.3671
  679TMC3    C810052   1.408   4.363   1.559  0.2632 -0.2505  0.3264
  679TMC3    O110053   1.553   4.118   1.147 -0.1959  0.1117  0.2314
  679TMC3    O210054   1.439   4.407   1.672  0.1294 -0.0974 -0.4844
  680MPD2     C10055   1.307   3.197  13.740 -0.0356  0.4969  0.1094
  680MPD2    C110056   1.435   3.148  13.735 -0.4408 -0.2262 -0.4872
  680MPD2    C210057   1.544   3.236  13.735  0.3614  0.4446  0.5459
  680MPD2    C310058   1.525   3.378  13.744 -1.0127  0.2936  0.6756
  680MPD2    C410059   1.392   3.420  13.749 -0.2074  0.0458 -0.2449
  680MPD2    C510060   1.285   3.337  13.740  0.3321 -0.3672 -0.6154
  680MPD2     H10061   1.642   3.190  13.730 -0.2270 -0.7964  0.3703
  680MPD2    H110062   1.377   3.526  13.765 -0.6662 -0.0013 -0.3785
  680MPD2    H210063   1.225   3.127  13.754 -1.8214  2.6272  0.3714
  680MPD2    H310064   1.186   3.380  13.729  0.3010 -0.6349 -1.4332
  680MPD2     N10065   1.635   3.460  13.747  0.1761 -0.2959  0.2461
  680MPD2    H510066   1.727   3.418  13.753  1.0616  1.6145 -0.0166
  680MPD2    N110067   1.481   3.019  13.753  0.1721 -0.0491 -0.2060
  680MPD2    H710068   1.579   3.017  13.779  0.2292  1.7222 -0.2687
  681TMC3    C110069   1.464   2.783  13.800 -0.3813  0.5746  0.4037
  681TMC3    C210070   1.386   2.671  13.823 -1.0000 -0.4408  0.1638
  681TMC3    C310071   1.448   2.570  13.882 -0.7064  0.2082  0.4735
  681TMC3    C410072   1.605   2.774  13.806  0.1382 -0.1436 -0.2505
  681TMC3    C510073   1.663   2.667  13.862 -0.2434 -0.8052  0.2676
  681TMC3    C610074   1.580   2.565  13.911  0.4355 -0.1756 -0.4531
  681TMC3     C10075   1.397   2.907  13.767 -0.3543  0.0284  0.0187
  681TMC3     O10076   1.277   2.906  13.765 -0.2345  0.0340 -0.1208
  681TMC3     H10077   1.277   2.677  13.821 -0.9630 -0.1094 -0.4868
  681TMC3    H110078   1.665   2.864  13.799  1.0941 -0.7830 -0.2797
  681TMC3    H210079   1.620   2.466  13.926  0.5239 -0.1341 -0.4127
  681TMC3    C710080   1.803   2.640  13.847 -0.0755 -0.1126 -0.3948
  681TMC3    C810081   1.365   2.468  13.931  0.1885  0.3713  0.1713
  681TMC3    O110082   1.858   2.566  13.925  0.3409  0.8474  0.1927
  681TMC3    O210083   1.268   2.434  13.864 -0.0607  0.3020  1.0353
  682MPD2     C10084   4.132   4.465  10.565  0.2270  0.5450 -0.1977
  682MPD2    C110085   4.109   4.339  10.620 -0.3535 -0.2653 -0.3690
  682MPD2    C210086   4.051   4.319  10.748 -0.3136 -0.6006  0.9542
  682MPD2    C310087   4.006   4.429  10.821 -0.0664  0.5018 -0.5261
  682MPD2    C410088   4.021   4.555  10.766  0.3636 -0.1279  0.6338
  682MPD2    C510089   4.088   4.573  10.643 -0.0192 -0.0139 -0.2016
  682MPD2     H10090   4.040   4.216  10.779 -0.4205 -1.0011 -0.4547
  682MPD2    H110091   3.988   4.636  10.831  0.1092 -0.7644  1.3064
  682MPD2    H210092   4.169   4.497  10.468 -0.0100 -1.6164 -0.9880
  682MPD2    H310093   4.118   4.672  10.611  2.7114 -0.6509  0.4078
  682MPD2     N10094   3.926   4.407  10.934  0.1851 -0.0961  0.4313
  682MPD2    H510095   3.886   4.492  10.972  3.3068  0.8353  1.6607
  682MPD2    N110096   4.139   4.215  10.546 -0.2129 -0.2220 -0.0100
  682MPD2    H710097   4.116   4.128  10.592  0.0838 -0.5914 -0.5670
  683TMC3    C110098   3.778   4.383  11.312  0.8818 -0.1064 -0.4455
  683TMC3    C210099   3.735   4.264  11.352 -0.3809 -0.2596  0.4421
  683TMC3    C310100   3.718   4.163  11.261  0.2390  0.4963  0.5603
  683TMC3    C410101   3.818   4.403  11.184 -0.4802 -0.6072 -0.8186
  683TMC3    C510102   3.807   4.300  11.100 -0.3700 -0.0885 -0.4282
  683TMC3    C610103   3.747   4.180  11.134  0.1359 -0.7654 -0.3594
  683TMC3     C10104   3.804   4.490  11.407 -0.5559  0.3258 -0.3164
  683TMC3     O10105   3.789   4.606  11.368 -0.2527 -0.0829 -0.5563
  683TMC3     H10106   3.680   4.250  11.444  0.0373  0.2520  0.7737
  683TMC3    H110107   3.850   4.503  11.158  1.3551 -1.7779 -3.0032
  683TMC3    H210108   3.751   4.095  11.067 -1.5531  1.3328 -3.0789
  683TMC3    C710109   3.890   4.289  10.986  0.0904  0.6186  0.0435
  683TMC3    C810110   3.658   4.035  11.299  0.0551  0.1077  0.0142
  683TMC3    O110111   3.925   4.174  10.954 -0.1965  0.9378 -0.4488
  683TMC3    O210112   3.634   3.963  11.202 -0.0282 -0.1265 -0.4433
  684MPD2     C10113   1.527   3.802  16.830  0.0696  0.4083 -0.7379
  684MPD2    C110114   1.539   3.866  16.709 -0.3605 -0.4124  0.1072
  684MPD2    C210115   1.511   4.007  16.701 -0.6217 -0.4454  0.1047
  684MPD2    C310116   1.474   4.074  16.818  0.2508  0.0172 -0.7802
  684MPD2    C410117   1.453   4.005  16.937 -0.0190 -0.2473 -0.2272
  684MPD2    C510118   1.484   3.872  16.941 -0.1897  0.5594 -0.4911
  684MPD2     H10119   1.526   4.051  16.603  2.9858  1.3990  1.5072
  684MPD2    H110120   1.422   4.053  17.029  0.0946 -0.9939  0.1970
  684MPD2    H210121   1.539   3.695  16.833 -2.0442  0.2656  3.3804
  684MPD2    H310122   1.470   3.812  17.030 -2.2290  2.1201  0.2340
  684MPD2     N10123   1.460   4.217  16.822  0.3522  0.5249 -0.9015
  684MPD2    H510124   1.457   4.256  16.916 -0.4631 -0.6579 -0.4428
  684MPD2    N110125   1.573   3.795  16.594 -0.0877 -0.9227 -0.1934
  684MPD2    H710126   1.582   3.853  16.510 -0.5032  2.2839  1.9901
  685TMC3    C110127   1.646   3.628  16.451  0.3615  0.0099 -0.5480
  685TMC3    C210128   1.604   3.695  16.345 -0.7830  0.2639  0.6685
  685TMC3    C310129   1.693   3.712  16.240  0.5133  0.1683  0.1866
  685TMC3    C410130   1.771   3.577  16.465 -0.4534  0.8212 -0.1135
  685TMC3    C510131   1.863   3.602  16.363  0.1864 -0.8922 -0.1154
  685TMC3    C610132   1.826   3.673  16.250  0.3739  0.2038  0.3525
  685TMC3     C10133   1.596   3.659  16.581  0.4112 -0.5044 -0.0931
  685TMC3     O10134   1.587   3.564  16.652  0.0640 -0.0379 -0.0795
  685TMC3     H10135   1.504   3.738  16.341 -0.1409  1.7423  0.3431
  685TMC3    H110136   1.789   3.537  16.563 -1.0762  1.0560  0.0998
  685TMC3    H210137   1.890   3.666  16.163  0.1993  0.4590  0.2038
  685TMC3    C710138   1.994   3.602  16.415  0.4540 -0.3940  0.1523
  685TMC3    C810139   1.656   3.765  16.107  0.7467 -0.3481  0.2407
  685TMC3    O110140   2.005   3.534  16.514  0.1792 -0.4828 -0.7312
  685TMC3    O210141   1.744   3.806  16.025 -0.0048  0.4357 -0.4621
  686MPD2     C10142   2.617   3.973  15.597 -0.5429  0.5493 -0.6724
  686MPD2    C110143   2.665   3.884  15.692 -0.3008 -0.3145  0.1210
  686MPD2    C210144   2.776   3.811  15.664 -0.3830  0.1094 -0.1552
  686MPD2    C310145   2.843   3.814  15.541  0.9210 -0.0845  0.1461
  686MPD2    C410146   2.805   3.906  15.450  0.1393  0.0687  0.2370
  686MPD2    C510147   2.691   3.985  15.479  0.1351 -0.5157 -0.3222
  686MPD2     H10148   2.804   3.743  15.744  0.3960  0.1589 -0.3871
  686MPD2    H110149   2.856   3.917  15.355 -0.2195  1.1245  0.1655
  686MPD2    H210150   2.526   4.028  15.614 -1.3040 -0.9321 -0.0020
  686MPD2    H310151   2.659   4.051  15.399  3.8299  0.4183 -1.0228
  686MPD2     N10152   2.957   3.736  15.508 -0.3351 -0.3956  0.0894
  686MPD2    H510153   3.022   3.777  15.442  2.6875 -1.6549  2.3330
  686MPD2    N110154   2.597   3.879  15.811  0.3510  0.5207 -0.0663
  686MPD2    H710155   2.505   3.922  15.816  0.7020  1.2536 -0.0704
  687TMC3    C110156   2.889   3.526  15.623  0.0965 -0.0522  0.0253
  687TMC3    C210157   2.763   3.522  15.573 -0.3393  0.3374 -0.1811
  687TMC3    C310158   2.665   3.467  15.644 -0.3049 -0.4690  0.7191
  687TMC3    C410159   2.917   3.478  15.749 -0.6892  0.5147  0.1984
  687TMC3    C510160   2.812   3.429  15.821 -0.1893 -0.3275 -0.3617
  687TMC3    C610161   2.688   3.419  15.767 -0.5073  0.6375 -0.4483
  687TMC3     C10162   2.988   3.622  15.578  0.7136 -0.4935 -0.0882
  687TMC3     O10163   3.100   3.583  15.604 -0.3248 -0.0078 -0.5155
  687TMC3     H10164   2.752   3.565  15.474  0.4874 -0.1429 -0.4852
  687TMC3    H110165   3.007   3.502  15.803  0.8224 -2.3623 -1.0515
  687TMC3    H210166   2.613   3.394  15.840 -0.1440  0.5324 -0.1105
  687TMC3    C710167   2.828   3.422  15.964  0.3109 -0.1866  0.0681
  687TMC3    C810168   2.525   3.509  15.619 -0.2789  0.2827 -0.4173
  687TMC3    O110169   2.723   3.438  16.027  0.1144  0.0226 -0.5642
  687TMC3    O210170   2.441   3.463  15.696 -0.2268  0.9773 -0.3163
  688MPD2     C10171   2.027   2.721  17.652 -0.1230  0.0984  0.5377
  688MPD2    C110172   2.120   2.639   0.003 -0.1842  0.0250  0.2252
  688MPD2    C210173   2.235   2.605  17.631 -0.8056  0.4364 -0.6894
  688MPD2    C310174   2.246   2.663  17.504 -0.5358 -0.2832  0.5607
  688MPD2    C410175   2.157   2.762  17.461 -1.0939 -0.5700 -0.1415
  688MPD2    C510176   2.052   2.799  17.541 -0.2979 -0.1547 -0.2134
  688MPD2     H10177   2.296   2.523  17.666  0.3085  2.2327  1.6457
  688MPD2    H110178   2.156   2.815  17.367 -0.3628 -0.4514 -0.0774
  688MPD2    H210179   1.943   2.754   0.007 -0.3489  1.1267 -0.3572
  688MPD2    H310180   1.991   2.887  17.521  1.7618  0.9483 -1.6943
  688MPD2     N10181   2.338   2.640  17.400  0.0550 -0.0525  0.6550
  688MPD2    H510182   2.330   2.701  17.319  0.1261  1.4087  1.7486
  688MPD2    N110183   2.107   2.592   0.136 -0.4555 -0.2033 -0.0178
  688MPD2    H710184   2.189   2.578   0.193 -0.0382  1.5597 -0.1801
  689TMC3    C110185   1.991   2.548   0.337 -0.8380  0.5085  0.7058
  689TMC3    C210186   2.079   2.613   0.425  0.2258  0.0194 -0.3413
  689TMC3    C310187   2.077   2.580   0.560  0.2744 -0.4365  0.5909
  689TMC3    C410188   1.905   2.460   0.392 -0.0433  0.0406 -0.9486
  689TMC3    C510189   1.919   2.421   0.523  0.0724 -0.4353 -0.0012
  689TMC3    C610190   2.011   2.476   0.610 -0.8668 -0.0044  0.1754
  689TMC3     C10191   1.986   2.577   0.193  0.4424  0.2619 -0.5123
  689TMC3     O10192   1.882   2.547   0.132  0.0243 -0.6257  0.3092
  689TMC3     H10193   2.138   2.696   0.388  2.2651 -0.8360  1.0225
  689TMC3    H110194   1.838   2.401   0.329  1.7669 -1.4432 -1.4900
  689TMC3    H210195   2.019   2.431   0.708 -0.5107  0.3176  0.2918
  689TMC3    C710196   1.849   2.300   0.575 -0.2386 -0.5072 -0.2218
  689TMC3    C810197   2.110   2.683   0.656 -0.0792  0.6287 -0.6504
  689TMC3    O110198   1.816   2.295   0.693  0.4206 -0.7177 -0.1312
  689TMC3    O210199   2.139   2.641   0.765  0.0416  0.3923  0.0073
  690MPD2     C10200   4.507   4.339  15.893  0.1631 -0.4459 -0.4706
  690MPD2    C110201   4.436   4.404  15.794 -0.0095 -0.3684  0.0967
  690MPD2    C210202   4.510   4.486  15.716  0.3784  0.4946  0.6993
  690MPD2    C310203   4.649   4.498  15.733 -0.3437  1.1376 -0.5663
  690MPD2    C410204   4.713   4.439  15.840  0.1898 -0.3142 -0.6094
  690MPD2    C510205   4.643   4.350  15.912  0.7632  0.5050 -0.5224
  690MPD2     H10206   4.470   4.534  15.628 -0.5658 -2.9471 -0.7632
  690MPD2    H110207   0.095   4.441  15.856  0.2882  0.6239 -1.4208
  690MPD2    H210208   4.455   4.271  15.960  2.3542  0.4584  2.1435
  690MPD2    H310209   4.691   4.301  15.996  0.9244 -1.7551 -1.9255
  690MPD2     N10210   4.725   4.582  15.646  0.2361  0.3649  0.1469
  690MPD2    H510211   4.678   4.621  15.565 -0.8154 -0.6714  0.2663
  690MPD2    N110212   4.300   4.380  15.767  0.0923 -0.5588  0.3578
  690MPD2    H710213   4.251   4.441  15.702 -0.1944 -1.1669  0.0084
  691TMC3    C110214   4.098   4.260  15.783 -0.0070  0.4764  0.4869
  691TMC3    C210215   4.017   4.356  15.839 -0.4363  0.0866  0.3596
  691TMC3    C310216   3.892   4.325  15.884  0.3000 -0.5600 -0.4750
  691TMC3    C410217   4.046   4.139  15.771 -0.2169 -0.2483  0.0787
  691TMC3    C510218   3.918   4.108  15.802  0.2195 -0.2792 -0.0499
  691TMC3    C610219   3.844   4.200  15.870  0.8047  0.1643  0.3184
  691TMC3     C10220   4.240   4.264  15.801  0.6055  0.2351  0.4812
  691TMC3     O10221   4.285   4.161  15.843  0.2769 -0.1969  0.0609
  691TMC3     H10222   4.062   4.454  15.854  1.6179 -0.7077 -0.7184
  691TMC3    H110223   4.109   4.059  15.734 -1.8277 -0.4341 -2.2476
  691TMC3    H210224   3.744   4.181  15.907  0.5266  0.4446 -0.2926
  691TMC3    C710225   3.883   3.972  15.783  0.3356  0.2573  0.2966
  691TMC3    C810226   3.837   4.395  15.997 -0.3388  0.4025 -0.3338
  691TMC3    O110227   3.969   3.891  15.753 -0.5000 -0.3927  0.3747
  691TMC3    O210228   3.809   4.311  16.085  0.7365 -0.3165 -0.4409
  692TMC3    C110229   1.415   0.608  15.938 -0.5906  0.0882  0.1398
  692TMC3    C210230   1.499   0.705  15.903 -0.0635  0.6556 -0.4059
  692TMC3    C310231   1.630   0.678  15.906 -0.2363  0.2614 -0.2121
  692TMC3    C410232   1.451   0.485  15.976  0.3392 -0.0254 -0.4720
  692TMC3    C510233   1.584   0.459  15.953 -0.1693  0.3000  0.4907
  692TMC3    C610234   1.674   0.552  15.911 -0.0445 -0.7706 -0.7476
  692TMC3     C10235   1.289   0.652  15.996  0.5239  0.6863  0.7765
  692TMC3     O10236   1.235   0.584  16.079 -0.2592  0.0702 -0.3874
  692TMC3     H10237   1.467   0.787  15.839  2.8205  1.2964 -1.0340
  692TMC3    H110238   1.381   0.412  16.014  0.9119 -0.3778 -0.1020
  692TMC3    H210239   1.778   0.528  15.930 -0.4389 -1.1276  1.0119
  692TMC3    C710240   1.624   0.325  15.962  0.3710  0.0044 -0.1279
  692TMC3    C810241   1.673   0.754  16.021 -0.4120  0.2297 -0.2250
  692TMC3    O110242   1.697   0.280  15.877  0.0759 -0.1086  0.4860
  692TMC3    O210243   1.729   0.683  16.107  0.3774 -0.2124  0.0052
  693MPD2     C10244   1.122   3.533  10.828  0.1512  0.5858  0.1321
  693MPD2    C110245   1.083   3.399  10.822 -0.8740  0.0329  0.3573
  693MPD2    C210246   1.176   3.296  10.804 -0.1565  0.4829 -0.1763
  693MPD2    C310247   1.310   3.323  10.781 -0.0271  0.1511 -0.3005
  693MPD2    C410248   1.344   3.456  10.771  0.3361  0.1817 -0.0704
  693MPD2    C510249   1.258   3.556  10.802  0.3914  0.3104  0.0555
  693MPD2     H10250   1.147   3.192  10.807  0.5426  0.3178  0.6765
  693MPD2    H110251   1.445   3.485  10.747  0.2211  1.5537  1.0911
  693MPD2    H210252   1.052   3.613  10.846 -0.8604 -0.9239  2.9648
  693MPD2    H310253   1.286   3.660  10.789 -0.9374  0.7526  0.6831
  693MPD2     N10254   1.415   3.215  10.780  0.3126  0.1773 -0.0006
  693MPD2    H510255   1.511   3.249  10.783  0.5083 -0.1953 -2.4070
  693MPD2    N110256   0.939   3.375  10.845  0.2732 -0.0213  0.4222
  693MPD2    H710257   0.894   3.454  10.890  0.5306  0.6629 -0.5111
  694TMC3    C110258   0.751   3.247  10.883  0.7451 -0.2566 -0.0665
  694TMC3    C210259   0.675   3.140  10.840  0.1341  0.6982  0.3710
  694TMC3    C310260   0.594   3.076  10.931 -0.1496 -0.0536 -0.3000
  694TMC3    C410261   0.736   3.305  11.010 -0.1703  0.7550  0.4684
  694TMC3    C510262   0.640   3.249  11.092  1.0225 -0.5365 -0.0424
  694TMC3    C610263   0.577   3.128  11.060 -0.2848 -0.5491  0.0059
  694TMC3     C10264   0.878   3.256  10.822 -0.2113  0.8886  0.1562
  694TMC3     O10265   0.927   3.163  10.763  0.5612  0.5479 -0.3700
  694TMC3     H10266   0.694   3.100  10.742 -1.1702 -0.5386  0.6271
  694TMC3    H110267   0.811   3.370  11.053 -0.5740  1.5709 -0.0591
  694TMC3    H210268   0.508   3.081  11.130 -1.6929  0.1703 -0.8956
  694TMC3    C710269   0.628   3.297  11.229 -0.0113  0.2141  0.1847
  694TMC3    C810270   0.498   2.968  10.891 -0.1779  0.5453 -0.1250
  694TMC3    O110271   0.690   3.400  11.247  0.3097 -0.1430  0.3275
  694TMC3    O210272   0.433   2.914  10.981  0.1322 -0.1226  0.0217
  695MPD2     C10273   1.802   0.263  13.875  0.5473  0.0047 -0.0708
  695MPD2    C110274   1.827   0.379  13.942  0.4029 -0.2044 -0.1633
  695MPD2    C210275   1.729   0.474  13.957  0.4513 -0.3294 -0.4872
  695MPD2    C310276   1.601   0.445  13.925 -0.1128 -0.5483  0.3459
  695MPD2    C410277   1.571   0.315  13.868  1.1330 -0.8509  0.2778
  695MPD2    C510278   1.674   0.227  13.850 -0.3995 -0.5792  0.4295
  695MPD2     H10279   1.746   0.573  13.998  1.5422 -0.5781 -0.3547
  695MPD2    H110280   1.468   0.286  13.849  0.4371  1.3603  0.6149
  695MPD2    H210281   1.873   0.186  13.844 -0.7911 -2.2111  2.3585
  695MPD2    H310282   1.649   0.136  13.796 -2.0088  0.9124 -1.3306
  695MPD2     N10283   1.515   0.554  13.939 -0.0938 -0.0060 -0.2389
  695MPD2    H510284   1.562   0.639  13.969  0.7946  0.2865 -2.4564
  695MPD2    N110285   1.958   0.414  13.979  0.0453  0.3977  0.2842
  695MPD2    H710286   1.966   0.500  14.032  2.8195  0.9669 -1.0467
  696TMC3    C110287   1.325   0.680  13.956 -0.2257 -0.0246 -0.3138
  696TMC3    C210288   1.205   0.659  14.008  0.6324 -0.1754 -0.6031
  696TMC3    C310289   1.125   0.766  14.011  0.0580  0.6001 -0.0551
  696TMC3    C410290   1.366   0.801  13.894  0.9811 -0.0856 -0.3600
  696TMC3    C510291   1.286   0.905  13.913  0.0967 -0.3505 -0.0379
  696TMC3    C610292   1.160   0.887  13.967 -0.7115  0.3852  0.1067
  696TMC3     C10293   1.383   0.554  13.907 -0.4084 -0.2403 -0.9264
  696TMC3     O10294   1.313   0.463  13.868 -0.7659 -0.1761 -0.1518
  696TMC3     H10295   1.174   0.571  14.063  2.3129 -2.3801 -3.1677
  696TMC3    H110296   1.465   0.810  13.851  1.3461  0.8047  0.6643
  696TMC3    H210297   1.099   0.973  13.995 -1.0490  0.3069 -0.3894
  696TMC3    C710298   1.341   1.038  13.888 -0.5508 -0.0781  0.8806
  696TMC3    C810299   1.001   0.750  14.090 -0.1859 -0.3948 -0.5685
  696TMC3    O110300   1.439   1.051  13.813 -0.1006  0.7529 -0.3016
  696TMC3    O210301   0.963   0.636  14.084 -0.4214 -0.2524  0.5084
  697MPD2     C10302   0.850   2.440  15.927  0.6241  0.2769 -0.2789
  697MPD2    C110303   0.877   2.391  15.799 -0.4496 -0.9257 -0.0853
  697MPD2    C210304   0.905   2.484  15.699  0.0084 -0.1299  0.2746
  697MPD2    C310305   0.910   2.622  15.724  0.1250  0.1180 -0.1288
  697MPD2    C410306   0.887   2.664  15.853 -0.1226 -0.2022  0.6245
  697MPD2    C510307   0.856   2.578  15.953 -0.3079  0.6791  0.0535
  697MPD2     H10308   0.915   2.444  15.598  2.3657 -3.7749  1.9726
  697MPD2    H110309   0.875   2.770  15.874 -2.3841 -0.1239 -0.9955
  697MPD2    H210310   0.808   2.379  16.006 -0.5408  0.8954 -0.4256
  697MPD2    H310311   0.831   2.615  16.051 -0.3160  0.8000  0.0052
  697MPD2     N10312   0.933   2.710  15.614  0.3214 -0.4787 -0.3935
  697MPD2    H510313   0.945   2.671  15.521  0.4080 -2.0265  0.2649
  697MPD2    N110314   0.879   2.250  15.770 -0.0688  0.5201 -0.5754
  697MPD2    H710315   0.898   2.226  15.673 -1.2264 -0.5427 -0.5486
  698TMC3    C110316   1.031   2.879  15.509  0.7205 -0.0002  0.3824
  698TMC3    C210317   1.135   2.965  15.516 -0.6575  0.2435 -0.7857
  698TMC3    C310318   1.223   2.982  15.413 -0.2089 -0.1841  0.6066
  698TMC3    C410319   1.019   2.811  15.393  0.2945  0.1142  0.2514
  698TMC3    C510320   1.102   2.838  15.287 -0.2216  0.1052  0.4373
  698TMC3    C610321   1.210   2.917  15.290 -0.0285 -0.3623  0.8641
  698TMC3     C10322   0.960   2.842  15.628 -0.8361  0.2887  0.2199
  698TMC3     O10323   0.974   2.909  15.731 -0.0622  0.4896 -0.3754
  698TMC3     H10324   1.154   3.021  15.607 -1.4558  0.0849 -0.5176
  698TMC3    H110325   0.927   2.758  15.372 -0.3383  1.4904 -0.4157
  698TMC3    H210326   1.280   2.928  15.209 -0.8753 -4.2594 -0.4043
  698TMC3    C710327   1.088   2.756  15.163 -0.0445 -0.6395  0.6920
  698TMC3    C810328   1.318   3.090  15.432 -0.4664 -0.7574  0.1183
  698TMC3    O110329   1.163   2.785  15.072  0.4262 -0.2255  0.1330
  698TMC3    O210330   1.315   3.147  15.541 -0.0321  0.7271 -0.8359
  699TMC3    C110331   1.478   0.747  13.336  0.0772 -0.8139  0.2622
  699TMC3    C210332   1.507   0.623  13.376 -0.0503  0.4703 -0.1827
  699TMC3    C310333   1.424   0.567  13.469  1.1018 -0.1412  0.2535
  699TMC3    C410334   1.373   0.822  13.388  0.0235  0.1732  0.0962
  699TMC3    C510335   1.297   0.764  13.481 -0.2875  0.4328 -0.2088
  699TMC3    C610336   1.319   0.636  13.524 -0.2107  0.0525  0.0105
  699TMC3     C10337   1.582   0.821  13.256 -0.5061 -0.1072 -0.0035
  699TMC3     O10338   1.661   0.753  13.190  0.3738  0.0017  0.0007
  699TMC3     H10339   1.594   0.576  13.333  1.1296  1.0067  1.6019
  699TMC3    H110340   1.342   0.919  13.351  0.0381 -0.0632 -0.5432
  699TMC3    H210341   1.260   0.598  13.607  2.3247 -1.3275  1.1653
  699TMC3    C710342   1.201   0.840  13.562  0.2538  0.5607 -0.2072
  699TMC3    C810343   1.438   0.432  13.512  0.1612  0.2578  0.2168
  699TMC3    O110344   1.120   0.772  13.623 -0.0029 -0.0511 -0.0263
  699TMC3    O210345   1.351   0.404  13.598  0.2197 -0.0124  0.3943
  700TMC3    C110346   4.720   2.967  17.643  0.0163 -0.5253 -0.0238
  700TMC3    C210347   0.074   2.861  17.626 -0.5278 -0.3167  0.0247
  700TMC3    C310348   0.196   2.853  17.693 -0.4636 -0.1807  0.0842
  700TMC3    C410349   0.027   3.071   0.029  0.5744  0.1291 -0.6404
  700TMC3    C510350   0.155   3.072   0.082  0.5963 -0.7525 -0.1214
  700TMC3    C610351   0.240   2.961   0.066  0.0457 -0.5242  0.3372
  700TMC3     C10352   4.654   3.013  17.520  0.7651  0.6428 -0.0609
  700TMC3     O10353   4.567   2.947  17.466 -0.6024 -0.6050 -0.4053
  700TMC3     H10354   0.048   2.793  17.545  2.3484 -0.2189 -0.9694
  700TMC3    H110355   4.686   3.156   0.026  0.6707  0.2447  0.4042
  700TMC3    H210356   0.337   2.955   0.115  0.9739  0.3516 -1.3719
  700TMC3    C710357   0.223   3.200   0.085  0.6849 -0.2704 -0.5885
  700TMC3    C810358   0.290   2.767  17.628  0.0902  0.5168 -0.1239
  700TMC3    O110359   0.340   3.189   0.121  0.3631 -0.2859 -0.5803
  700TMC3    O210360   0.390   2.828  17.587  0.3006  0.0357 -0.4162
  701TMC3    C110361   0.254   1.436  16.136 -0.0279 -0.2832 -0.0475
  701TMC3    C210362   0.251   1.356  16.031  0.1509 -0.5805 -0.1369
  701TMC3    C310363   0.282   1.416  15.908 -0.1437  0.1168 -0.7640
  701TMC3    C410364   0.301   1.559  16.126  0.1204 -0.1086 -0.2793
  701TMC3    C510365   0.346   1.612  16.007 -0.6427  0.1035  0.0755
  701TMC3    C610366   0.324   1.544  15.885  0.5247 -0.0033  0.2392
  701TMC3     C10367   0.203   1.391  16.262  0.8823  0.6227  0.0719
  701TMC3     O10368   0.233   1.452  16.364 -0.6523 -0.6466 -0.1853
  701TMC3     H10369   0.212   1.255  16.026  1.0106 -0.8906 -0.6419
  701TMC3    H110370   0.298   1.628  16.210 -1.1960  1.3220 -1.4847
  701TMC3    H210371   0.354   1.588  15.790 -1.3043 -0.6926 -0.6579
  701TMC3    C710372   0.388   1.747  15.986 -0.0002  0.0517 -0.6505
  701TMC3    C810373   0.258   1.322  15.798 -0.2713 -0.0535  0.6124
  701TMC3    O110374   0.407   1.785  15.872 -0.5396  0.1133 -0.6904
  701TMC3    O210375   0.259   1.202  15.816 -0.0563  0.4791  0.3944
  702MPD2     C10376   0.264   3.883  10.649  0.1240  0.5300 -0.4920
  702MPD2    C110377   0.166   3.979  10.685  0.2147 -0.2793 -0.1393
  702MPD2    C210378   0.202   4.114  10.668 -0.0608 -0.2770  0.6051
  702MPD2    C310379   0.309   4.159  10.595 -0.1500  0.2497 -0.3264
  702MPD2    C410380   0.388   4.063  10.542 -0.0540 -0.5711  0.2618
  702MPD2    C510381   0.372   3.927  10.576 -0.3648  0.0659  0.0417
  702MPD2     H10382   0.131   4.187  10.704 -0.3280 -0.8419  1.2175
  702MPD2    H110383   0.480   4.090  10.490 -0.1651  0.9662  0.8750
  702MPD2    H210384   0.256   3.779  10.679 -3.5063  0.4612 -1.6565
  702MPD2    H310385   0.447   3.854  10.550 -0.2046  0.2347  0.0286
  702MPD2     N10386   0.339   4.296  10.576 -0.3255  0.1650 -0.8463
  702MPD2    H510387   0.418   4.309  10.513 -0.3404 -0.2840 -0.9624
  702MPD2    N110388   0.042   3.962  10.754 -0.0367  0.6230  0.2353
  702MPD2    H710389   4.718   4.049  10.770 -0.8550  0.1314  0.3780
  703TMC3    C110390   0.329   4.533  10.601  0.1079 -0.2686 -0.7370
  703TMC3    C210391   0.239   4.630  10.619  0.2468 -0.0953 -0.3149
  703TMC3    C310392   0.250   0.025  10.565  0.1279 -0.4093 -0.4942
  703TMC3    C410393   0.435   4.553  10.513  0.1070 -0.1881 -0.2846
  703TMC3    C510394   0.449   4.679  10.458 -0.3377 -0.3169 -0.9791
  703TMC3    C610395   0.360   0.050  10.492  0.4836 -0.5565  0.3629
  703TMC3     C10396   0.289   4.399  10.643 -0.1738  0.0472  0.3524
  703TMC3     O10397   0.238   4.388  10.753  0.5532  0.1528 -0.6624
  703TMC3     H10398   0.184   4.621  10.713 -0.0978  2.7498 -0.2409
  703TMC3    H110399   0.508   4.477  10.488  1.0563  0.2543  1.1228
  703TMC3    H210400   0.375   0.156  10.473 -0.0067 -0.3239  1.2642
  703TMC3    C710401   0.574   4.715  10.396  0.0250  0.1842  0.6916
  703TMC3    C810402   0.162   0.135  10.609  0.1490 -0.1921 -0.6068
  703TMC3    O110403   0.676   4.657  10.431 -0.2990 -0.3990  0.0374
  703TMC3    O210404   0.219   0.243  10.604 -0.2713  0.1480 -0.4799
  704TMC3    C110405   2.857   2.036  13.060  0.7136  0.1189  0.5062
  704TMC3    C210406   2.921   2.076  12.945 -0.0648  0.1670  0.2922
  704TMC3    C310407   3.052   2.035  12.929 -0.1394  0.3916 -0.6384
  704TMC3    C410408   2.918   1.955  13.155 -0.7630  0.2686 -0.1485
  704TMC3    C510409   3.042   1.903  13.124  0.2473  0.1496 -0.3759
  704TMC3    C610410   3.111   1.956  13.022 -0.1586  0.5282 -0.1189
  704TMC3     C10411   2.724   1.991  13.046 -0.2009 -0.2632 -0.0119
  704TMC3     O10412   2.664   1.961  13.143  0.4039  0.1170 -0.5338
  704TMC3     H10413   2.873   2.130  12.864 -0.6163 -1.4886 -0.4839
  704TMC3    H110414   2.873   1.932  13.251  0.3678  3.4975  1.1353
  704TMC3    H210415   3.213   1.921  13.007 -0.0733  1.1208 -0.9238
  704TMC3    C710416   3.049   1.760  13.137 -0.4948  0.0778  0.3054
  704TMC3    C810417   3.115   2.063  12.807  0.8031  0.1238 -0.1306
  704TMC3    O110418   3.125   1.705  13.055  0.5622 -0.6691 -0.2446
  704TMC3    O210419   3.029   2.078  12.719  0.1901 -0.1561  0.1190
  705MPD2     C10420   1.852   0.621  17.000  0.0828  0.1777  0.1979
  705MPD2    C110421   1.762   0.625  16.899 -0.4441 -0.2925  0.0337
  705MPD2    C210422   1.628   0.641  16.928 -0.4689  0.2535  0.1835
  705MPD2    C310423   1.586   0.640  17.058 -0.6944 -0.3921 -0.5698
  705MPD2    C410424   1.677   0.621  17.158  0.3882  0.5720  0.0437
  705MPD2    C510425   1.804   0.612  17.133  0.3946 -0.0124  0.9318
  705MPD2     H10426   1.559   0.659  16.847  1.8556  0.2149 -1.8280
  705MPD2    H110427   1.646   0.628  17.262  2.1226 -1.0485  0.6867
  705MPD2    H210428   1.959   0.636  16.988  0.3844 -0.1069  2.6722
  705MPD2    H310429   1.876   0.613  17.213  1.6407 -2.1062 -0.1593
  705MPD2     N10430   1.452   0.647  17.095 -0.3097  0.5193  0.2499
  705MPD2    H510431   1.421   0.639  17.191 -0.9803  0.0300 -0.0063
  705MPD2    N110432   1.803   0.628  16.758  0.2857  0.4532  0.5005
  705MPD2    H710433   1.729   0.636  16.689  0.4451  1.7338  0.4714
  706TMC3    C110434   2.046   0.521  16.388  0.3456 -0.2037  0.2156
  706TMC3    C210435   1.988   0.620  16.311  0.4451  0.6584  0.2235
  706TMC3    C310436   1.920   0.719  16.382 -0.7448  0.0675 -0.1465
  706TMC3    C410437   2.016   0.499  16.519 -0.4429 -0.7313  0.4600
  706TMC3    C510438   1.939   0.594  16.573 -0.3641  0.2519 -0.3960
  706TMC3    C610439   1.889   0.707  16.514 -0.4325  0.5190 -0.9558
  706TMC3     C10440   2.105   0.405  16.327 -0.2620  0.6027  0.3082
  706TMC3     O10441   2.175   0.338  16.402  0.2341  0.1362 -0.7394
  706TMC3     H10442   2.015   0.642  16.209  1.1987 -1.6915 -0.0887
  706TMC3    H110443   2.057   0.424  16.586  1.6340  1.2445  1.4071
  706TMC3    H210444   1.830   0.777  16.572  1.0893  0.3236  0.8503
  706TMC3    C710445   1.924   0.585  16.714 -0.0073 -0.2541  0.1236
  706TMC3    C810446   1.931   0.860  16.348 -0.1866  0.3385  0.1575
  706TMC3    O110447   2.027   0.550  16.769 -0.3398  0.3058  0.4361
  706TMC3    O210448   1.944   0.882  16.225  0.2050 -0.2330  0.0227
  707TMC3    C110449   3.860   4.271   1.580  0.0354  0.1084 -0.7568
  707TMC3    C210450   3.867   4.180   1.685 -0.3901 -0.7385 -0.2154
  707TMC3    C310451   3.749   4.147   1.738 -0.4726  0.6950  0.1948
  707TMC3    C410452   3.743   4.335   1.537  0.2771  0.4098 -0.3190
  707TMC3    C510453   3.624   4.286   1.597  0.1103 -0.1838  0.1686
  707TMC3    C610454   3.626   4.198   1.705  0.2800 -0.8379 -0.1542
  707TMC3     C10455   3.994   4.308   1.524 -0.6219 -0.0014  0.1380
  707TMC3     O10456   4.091   4.250   1.569  0.1217 -0.5401  0.2173
  707TMC3     H10457   3.964   4.137   1.711 -0.3797 -0.3362  0.4200
  707TMC3    H110458   3.743   4.416   1.466  0.6195 -0.8744 -1.7916
  707TMC3    H210459   3.534   4.177   1.758 -1.2852  1.1106 -2.1289
  707TMC3    C710460   3.489   4.342   1.571  0.2969  0.3121 -0.6290
  707TMC3    C810461   3.755   4.033   1.830 -0.0986  0.2879 -0.1275
  707TMC3    O110462   3.402   4.334   1.656 -0.4770 -0.3649 -0.0113
  707TMC3    O210463   3.669   4.031   1.916  0.3290  0.3003 -0.1777
  708MPD2     C10464   0.724   3.212  13.991  0.0151 -0.2993 -0.7621
  708MPD2    C110465   0.701   3.335  13.936  0.1012  0.0637  0.6990
  708MPD2    C210466   0.587   3.412  13.976 -0.3565 -0.2881  0.6905
  708MPD2    C310467   0.516   3.376  14.089  0.1394 -0.0852  0.6714
  708MPD2    C410468   0.551   3.264  14.156  0.2282 -0.7984  0.3674
  708MPD2    C510469   0.650   3.185  14.107  0.2492  0.7531 -0.3142
  708MPD2     H10470   0.556   3.502  13.926 -0.7769 -0.5948  0.4015
  708MPD2    H110471   0.502   3.236  14.248 -1.4069  1.1751  0.0799
  708MPD2    H210472   0.815   3.155  13.975  0.8694 -0.0834  3.2587
  708MPD2    H310473   0.670   3.097  14.167  1.7779  1.1140 -0.2881
  708MPD2     N10474   0.424   3.469  14.137  0.0605  0.2164  0.6949
  708MPD2    H510475   0.407   3.549  14.076 -0.5039  1.0868  1.9812
  708MPD2    N110476   0.796   3.385  13.842 -0.8263 -0.1733 -0.4902
  708MPD2    H710477   0.872   3.329  13.804 -1.4749 -1.1762 -0.3014
  709TMC3    C110478   0.905   3.557  13.712 -0.3820  0.1617  0.6848
  709TMC3    C210479   0.893   3.507  13.588 -0.1759  0.2513  0.0928
  709TMC3    C310480   0.890   3.597  13.485  0.0202  0.0674 -0.3614
  709TMC3    C410481   0.926   3.696  13.726  0.7181 -0.1191  0.0266
  709TMC3    C510482   0.923   3.777  13.622  1.1793  0.4086 -0.2632
  709TMC3    C610483   0.904   3.729  13.500 -0.4006  0.0564  0.0074
  709TMC3     C10484   0.808   3.518  13.814  0.1203  0.4811 -0.0078
  709TMC3     O10485   0.750   3.612  13.864 -0.4661 -0.1275  0.2340
  709TMC3     H10486   0.866   3.402  13.576 -0.1513  0.1979  0.4938
  709TMC3    H110487   0.931   3.730  13.829 -0.2214  1.1342 -0.3465
  709TMC3    H210488   0.902   3.807  13.425 -0.4788  0.9809  0.9764
  709TMC3    C710489   0.843   3.895  13.649 -0.0787 -0.5549 -0.1206
  709TMC3    C810490   0.848   3.547  13.357 -0.4544 -0.4985  1.0689
  709TMC3    O110491   0.858   3.996  13.578 -0.1000  0.3743 -0.7718
  709TMC3    O210492   0.824   3.424  13.353 -0.3359 -0.4095 -0.4127
  710TMC3    C110493   1.061   4.608   0.790  0.4234  0.1785 -0.7305
  710TMC3    C210494   1.161   4.707   0.776 -0.2433 -0.7168 -0.4169
  710TMC3    C310495   1.290   4.662   0.752  0.6340 -0.0475 -0.1407
  710TMC3    C410496   1.092   4.482   0.809  0.4909  0.5794  0.8864
  710TMC3    C510497   1.220   4.439   0.791  0.8895  0.5848  0.6954
  710TMC3    C610498   1.317   4.531   0.751  0.1081  0.0581 -0.6186
  710TMC3     C10499   0.919   4.647   0.788  0.3886 -0.0872 -0.1198
  710TMC3     O10500   0.831   4.563   0.766  0.1222  0.4296  0.1975
  710TMC3     H10501   1.139   0.084   0.753  2.8728 -0.1309 -0.8352
  710TMC3    H110502   1.016   4.413   0.842  0.8295  0.0289  0.5238
  710TMC3    H210503   1.415   4.499   0.719  1.3477  1.9650  1.2434
  710TMC3    C710504   1.270   4.304   0.820  0.9026 -0.1781 -0.2740
  710TMC3    C810505   1.375   0.013   0.655 -0.5516 -0.0079  0.7676
  710TMC3    O110506   1.390   4.304   0.846 -0.2879 -0.0543 -0.3922
  710TMC3    O210507   1.408   4.681   0.552 -0.0417 -0.3468  0.2986
  711TMC3    C110508   1.155   1.141  14.916 -0.3197 -0.1458 -0.0710
  711TMC3    C210509   1.109   1.170  15.037  0.6055  0.3829 -0.0665
  711TMC3    C310510   1.186   1.243  15.122  0.0119  0.7327 -0.3065
  711TMC3    C410511   1.281   1.168  14.882  0.1530  0.4843  0.0904
  711TMC3    C510512   1.355   1.248  14.970 -0.2496 -0.3752  0.9916
  711TMC3    C610513   1.316   1.287  15.091 -0.3417  0.1689 -0.3675
  711TMC3     C10514   1.066   1.068  14.836  0.3282 -0.3914 -0.2015
  711TMC3     O10515   0.948   1.096  14.854  0.4642  0.3623 -0.3314
  711TMC3     H10516   1.008   1.145  15.067  0.9879  0.5476  1.3443
  711TMC3    H110517   1.318   1.151  14.781  0.2526 -1.5256  0.4659
  711TMC3    H210518   1.376   1.351  15.153 -2.6784  0.5170  1.5097
  711TMC3    C710519   1.497   1.262  14.952  0.6914  0.0669  0.2348
  711TMC3    C810520   1.131   1.283  15.250  0.2566  0.3858  0.1152
  711TMC3    O110521   1.555   1.354  15.010  0.3890  0.1121  0.0046
  711TMC3    O210522   1.010   1.277  15.267 -0.4219  0.0356  0.0187
  712MPD2     C10523   2.907   2.561  14.105  0.4523 -0.1792  0.1563
  712MPD2    C110524   2.773   2.575  14.070  0.2328 -0.3513 -0.0813
  712MPD2    C210525   2.731   2.680  13.986  0.1574 -0.7464 -0.1878
  712MPD2    C310526   2.831   2.756  13.922  0.3767  0.0318  0.2328
  712MPD2    C410527   2.963   2.729  13.953 -0.4555 -0.1000 -0.2297
  712MPD2    C510528   2.998   2.642  14.046  0.1077 -1.1498 -0.1099
  712MPD2     H10529   2.624   2.694  13.974  0.3609  0.2650 -0.7532
  712MPD2    H110530   3.050   2.775  13.907 -0.6886  0.2240 -0.3483
  712MPD2    H210531   2.929   2.485  14.180 -2.9738 -2.0735 -0.7398
  712MPD2    H310532   3.100   2.621  14.076  0.7244  2.6040  0.4495
  712MPD2     N10533   2.810   2.859  13.825  0.3308 -0.7529 -0.1984
  712MPD2    H510534   2.885   2.912  13.783  1.6750 -1.8898  0.7816
  712MPD2    N110535   2.667   2.496  14.120  0.7633  0.1136  1.1508
  712MPD2    H710536   2.573   2.519  14.092  0.9980 -2.9241 -2.1387
  713TMC3    C110537   2.685   3.018  13.691 -0.6021 -0.4863 -0.1235
  713TMC3    C210538   2.804   3.047  13.618  0.5815  0.1400 -0.1299
  713TMC3    C310539   2.796   3.150  13.534  0.2503 -0.3415 -0.9062
  713TMC3    C410540   2.574   3.096  13.681  0.3582 -0.2117  0.3824
  713TMC3    C510541   2.580   3.210  13.607  0.2924 -0.1141 -0.5734
  713TMC3    C610542   2.692   3.241  13.537 -0.3622  0.6721  0.0262
  713TMC3     C10543   2.687   2.911  13.790  0.9682 -0.1523 -0.4098
  713TMC3     O10544   2.580   2.880  13.841  0.2917  0.0151 -0.8262
  713TMC3     H10545   2.887   2.977  13.614 -0.4551 -1.0375 -1.3424
  713TMC3    H110546   2.482   3.068  13.731 -0.4659  1.1383 -0.3528
  713TMC3    H210547   2.678   3.319  13.464 -0.3930 -0.6973 -1.4221
  713TMC3    C710548   2.444   3.260  13.575  0.3108  0.6234 -0.4218
  713TMC3    C810549   2.914   3.189  13.455  0.3811 -0.0304  0.2861
  713TMC3    O110550   2.343   3.200  13.603  0.6412  0.4094 -0.1040
  713TMC3    O210551   2.917   3.309  13.420 -0.2585  0.1296 -0.2469
  714MPD2     C10552   4.239   1.106   1.850  0.5424  0.9475  0.1123
  714MPD2    C110553   4.278   1.072   1.725 -0.6969  0.3362  0.1364
  714MPD2    C210554   4.228   1.126   1.611  0.6326  0.0483 -0.1561
  714MPD2    C310555   4.130   1.221   1.627  0.2378  0.3640  0.1857
  714MPD2    C410556   4.097   1.268   1.755 -0.4432 -0.6089 -0.1081
  714MPD2    C510557   4.146   1.202   1.870 -0.3091  0.4588 -0.3742
  714MPD2     H10558   4.252   1.092   1.511 -0.9227  0.9247 -0.8179
  714MPD2    H110559   4.020   1.340   1.778  0.4124  0.2708  0.0193
  714MPD2    H210560   4.288   1.071   1.941 -0.9132 -3.0922 -0.6650
  714MPD2    H310561   4.134   1.240   1.970 -2.0556 -1.2089  0.0491
  714MPD2     N10562   4.074   1.274   1.510  0.8875  0.4397  0.3520
  714MPD2    H510563   4.126   1.253   1.425 -0.7655 -0.6800 -0.3924
  714MPD2    N110564   4.382   0.979   1.726 -0.2432 -0.0553 -0.4503
  714MPD2    H710565   4.427   0.955   1.814 -0.9998  2.3254  0.5847
  715TMC3    C110566   4.575   0.868   1.640 -0.9522 -0.1247  0.5477
  715TMC3    C210567   4.633   0.783   1.547  0.4070  0.2926  0.3345
  715TMC3    C310568   0.036   0.752   1.556 -0.4784 -0.4217 -0.4164
  715TMC3    C410569   4.645   0.905   1.751  0.0241  0.7883  0.2508
  715TMC3    C510570   0.047   0.856   1.758 -0.2859  0.4395  0.2719
  715TMC3    C610571   0.115   0.785   1.663  0.3310  0.3140 -1.0249
  715TMC3     C10572   4.437   0.923   1.616 -0.2190 -0.0806 -0.7757
  715TMC3     O10573   4.383   0.891   1.508  0.1933  0.3075 -0.0809
  715TMC3     H10574   4.586   0.763   1.452  0.4548 -0.3722  0.4470
  715TMC3    H110575   4.613   0.977   1.826 -0.1374  0.1829  0.7611
  715TMC3    H210576   0.217   0.751   1.671 -0.2019 -0.5995  1.9227
  715TMC3    C710577   0.130   0.916   1.856 -0.4931 -0.1131 -0.0076
  715TMC3    C810578   0.085   0.662   1.451  0.4593  0.0655 -1.0543
  715TMC3    O110579   0.249   0.908   1.826 -0.2084  0.1226  0.0848
  715TMC3    O210580   0.008   0.593   1.383  0.4741  0.3541 -0.5030
  716MPD2     C10581   0.842   2.976  10.476  0.7799  0.1422 -0.2734
  716MPD2    C110582   0.818   3.024  10.349  0.5047 -0.0855  0.3096
  716MPD2    C210583   0.750   2.936  10.257  0.0770  0.5980  0.1868
  716MPD2    C310584   0.736   2.798  10.292 -0.3760  0.3944  0.4549
  716MPD2    C410585   0.789   2.751  10.407 -0.3119  0.4404  0.1798
  716MPD2    C510586   0.830   2.840  10.503 -0.1601  0.3241 -0.2855
  716MPD2     H10587   0.723   2.959  10.155  2.2246  3.2616  0.2172
  716MPD2    H110588   0.773   2.647  10.435 -0.7745  0.7564  1.0952
  716MPD2    H210589   0.883   3.043  10.551 -0.6053  1.0424 -0.3170
  716MPD2    H310590   0.846   2.802  10.603 -1.3926  2.3638  0.6624
  716MPD2     N10591   0.690   2.714  10.186  0.3325 -0.0543 -0.5002
  716MPD2    H510592   0.663   2.768  10.104  0.0768  2.1183  1.0257
  716MPD2    N110593   0.855   3.154  10.307 -0.2670  0.3669  0.3687
  716MPD2    H710594   0.882   3.217  10.382  0.4518 -0.5394  0.8735
  717TMC3    C110595   0.660   2.524  10.038  0.2708  0.8140 -0.1076
  717TMC3    C210596   0.645   2.614   9.938  0.2742  0.1522 -0.3984
  717TMC3    C310597   0.577   2.569   9.827  0.1611 -0.6620  0.0076
  717TMC3    C410598   0.620   2.394  10.027  0.2538 -0.2120  0.0765
  717TMC3    C510599   0.562   2.355   9.909  0.3653  0.0060  0.4390
  717TMC3    C610600   0.541   2.440   9.806 -0.5872 -0.0786  0.2278
  717TMC3     C10601   0.687   2.574  10.175  0.0499  0.2991  0.2588
  717TMC3     O10602   0.716   2.486  10.259  0.7062  0.5292 -0.4093
  717TMC3     H10603   0.665   2.719   9.952 -0.9011  0.1671  1.1323
  717TMC3    H110604   0.619   2.329  10.113  2.9494  0.6459  0.7386
  717TMC3    H210605   0.466   2.428   9.728 -0.2622 -1.1582  0.0862
  717TMC3    C710606   0.512   2.219   9.903  0.2185  0.6738  0.3247
  717TMC3    C810607   0.548   2.666   9.725 -0.5782 -0.8641  0.3412
  717TMC3    O110608   0.503   2.150  10.005  0.1227 -0.3393 -0.2339
  717TMC3    O210609   0.545   2.778   9.765  0.5182 -0.2070 -0.5024
  718MPD2     C10610   4.214   2.656  13.826 -0.8216  0.6092 -0.3061
  718MPD2    C110611   4.190   2.671  13.694 -0.0956  0.1160  0.0354
  718MPD2    C210612   4.069   2.626  13.645 -0.0226 -0.1460 -0.2641
  718MPD2    C310613   3.976   2.556  13.726 -0.6285 -0.1980 -0.0661
  718MPD2    C410614   4.006   2.539  13.863  0.7022 -0.1733  0.5050
  718MPD2    C510615   4.132   2.582  13.907 -0.2284 -0.2763  0.2570
  718MPD2     H10616   4.051   2.619  13.539 -0.8976 -1.5779 -0.0260
  718MPD2    H110617   3.940   2.489  13.932  0.6038  1.1939  1.4256
  718MPD2    H210618   4.309   2.689  13.867 -0.3891 -0.1637 -0.6855
  718MPD2    H310619   4.163   2.574  14.011  0.1955  1.0890  0.2325
  718MPD2     N10620   3.860   2.503  13.665  0.0790 -0.8283 -0.3304
  718MPD2    H510621   3.865   2.512  13.564  1.7560 -2.3288 -0.3821
  718MPD2    N110622   4.278   2.753  13.620  0.7209 -0.3213  0.0605
  718MPD2    H710623   4.336   2.810  13.681  1.2190  1.0797 -1.7061
  719TMC3    C110624   4.346   2.869  13.426 -0.0899  0.5341  0.2493
  719TMC3    C210625   4.251   2.967  13.416 -0.3910  0.4497  0.6048
  719TMC3    C310626   4.237   3.040  13.299 -0.1287  0.0677  0.7314
  719TMC3    C410627   4.407   2.824  13.311  0.4660 -0.2301  0.7688
  719TMC3    C510628   4.396   2.901  13.190  0.1269  0.0173  0.3881
  719TMC3    C610629   4.315   3.014  13.185  0.6635  0.6607 -0.4111
  719TMC3     C10630   4.277   2.755  13.480 -0.4165  0.2879  0.3249
  719TMC3     O10631   4.218   2.682  13.402  0.0610 -0.0993  0.3323
  719TMC3     H10632   4.189   3.001  13.498 -2.9022  0.3548 -1.2564
  719TMC3    H110633   4.453   2.726  13.312 -1.2622 -0.9893  3.4664
  719TMC3    H210634   4.306   3.077  13.097 -1.2960  1.9076  0.6860
  719TMC3    C710635   4.481   2.891  13.072  0.0683  0.4967 -0.6689
  719TMC3    C810636   4.098   3.049  13.257 -0.8442  0.2074  0.4958
  719TMC3    O110637   4.472   2.969  12.978  0.7374 -0.1743 -0.7579
  719TMC3    O210638   4.071   3.140  13.183 -0.7300  0.6565  0.1158
  720MPD2     C10639   2.614   4.231  13.950 -0.3704  0.4848  0.4031
  720MPD2    C110640   2.703   4.328  13.910 -0.3105 -0.3362  0.8410
  720MPD2    C210641   2.827   4.345  13.975  0.5700 -0.0601 -0.4456
  720MPD2    C310642   2.849   4.285  14.098  0.6336  0.3599 -0.2091
  720MPD2    C410643   2.771   4.175  14.126  0.4285 -0.3455  0.0502
  720MPD2    C510644   2.655   4.152  14.049 -0.3689 -0.5768 -0.0049
  720MPD2     H10645   2.895   4.409  13.920  2.7295 -2.8421 -1.0419
  720MPD2    H110646   2.789   4.109  14.210  2.2475 -1.1082 -0.9445
  720MPD2    H210647   2.517   4.221  13.904  0.0927  0.4524 -0.5693
  720MPD2    H310648   2.600   4.060  14.066  1.6159 -1.4882  1.5022
  720MPD2     N10649   2.961   4.328  14.179 -0.2868  0.0396 -0.1543
  720MPD2    H510650   3.020   4.399  14.137 -0.3262  0.9836  1.3690
  720MPD2    N110651   2.674   4.411  13.794 -0.1283  0.2794 -0.1941
  720MPD2    H710652   2.743   4.473  13.752  1.5694  0.2204  2.5122
  721TMC3    C110653   3.108   4.332  14.379 -0.5450 -0.0309 -0.2018
  721TMC3    C210654   3.107   4.303  14.512  0.0738 -0.4440  0.5655
  721TMC3    C310655   3.227   4.283  14.576 -0.2117  0.0284 -0.4409
  721TMC3    C410656   3.225   4.334  14.307 -0.4648  0.2243  0.0435
  721TMC3    C510657   3.338   4.317  14.375  0.1097 -0.6837 -1.0050
  721TMC3    C610658   3.345   4.283  14.507  0.1231  0.5540  0.1257
  721TMC3     C10659   2.976   4.309  14.319 -0.3912  0.0631  0.4319
  721TMC3     O10660   2.890   4.267  14.391  0.0769 -0.2076 -0.2231
  721TMC3     H10661   3.014   4.302  14.568 -0.0191 -1.3078  0.3957
  721TMC3    H110662   3.212   4.353  14.201  1.2443  1.2991  0.0367
  721TMC3    H210663   3.443   4.271  14.553  0.0713  1.5290  0.4841
  721TMC3    C710664   3.465   4.324  14.299 -0.6893 -0.0534 -0.1437
  721TMC3    C810665   3.241   4.313  14.714  0.1708  0.5824 -0.6998
  721TMC3    O110666   3.463   4.397  14.204 -0.7343 -0.9698 -0.3518
  721TMC3    O210667   3.355   4.344  14.748  0.5997 -0.5856 -0.4857
  722MPD2     C10668   1.678   2.937  12.968 -0.2027 -0.2164  0.5861
  722MPD2    C110669   1.579   3.025  13.012 -0.3759 -0.3428 -0.4415
  722MPD2    C210670   1.461   3.028  12.940  0.0923  0.5011  0.2659
  722MPD2    C310671   1.447   2.957  12.823  0.3816  0.3198 -0.5289
  722MPD2    C410672   1.552   2.877  12.778  0.3955 -0.2888 -0.0283
  722MPD2    C510673   1.661   2.860  12.859 -0.8471 -1.2397  0.0051
  722MPD2     H10674   1.387   3.101  12.971 -1.8934 -1.5815  0.3635
  722MPD2    H110675   1.570   2.837  12.680  0.9621 -1.3074  0.4954
  722MPD2    H210676   1.774   2.931  13.018 -0.0068  3.4362  0.6629
  722MPD2    H310677   1.737   2.791  12.824 -2.4585 -2.8159 -0.3680
  722MPD2     N10678   1.326   2.974  12.745  0.0532 -0.3768  0.1725
  722MPD2    H510679   1.248   3.015  12.795  0.3915  1.9652 -1.2138
  722MPD2    N110680   1.602   3.124  13.113 -0.5679 -0.1739 -0.1547
  722MPD2    H710681   1.533   3.193  13.140  0.1528  0.8224 -0.8709
  723TMC3    C110682   1.190   3.005  12.561  0.0642 -0.3850 -0.6798
  723TMC3    C210683   1.077   2.944  12.613  0.0404  0.1245 -0.3008
  723TMC3    C310684   0.953   2.984  12.559 -0.2104 -0.2944  0.4554
  723TMC3    C410685   1.182   3.056  12.434  0.0230 -0.0836 -0.0223
  723TMC3    C510686   1.059   3.078  12.379 -0.1289  0.1224 -0.7957
  723TMC3    C610687   0.940   3.054  12.443  0.1029  0.1279 -0.2064
  723TMC3     C10688   1.318   2.963  12.607  0.5882 -0.2100  0.6045
  723TMC3     O10689   1.411   2.948  12.528 -0.3977  0.5974 -1.0011
  723TMC3     H10690   1.087   2.879  12.699 -0.7102 -1.4246 -1.4030
  723TMC3    H110691   1.272   3.099  12.391  0.9697 -1.9984  0.0491
  723TMC3    H210692   0.845   3.072  12.393  0.6625 -1.2804 -1.7815
  723TMC3    C710693   1.057   3.195  12.296 -0.3483 -0.1018  0.1049
  723TMC3    C810694   0.830   2.921  12.603  0.6186  0.3355  0.1311
  723TMC3    O110695   1.134   3.192  12.199  0.8861  0.5416 -0.3211
  723TMC3    O210696   0.727   2.958  12.546 -0.0742 -0.0031  0.7134
  724TMC3    C110697   1.303   1.227  10.233  0.2701 -0.0358 -0.3528
  724TMC3    C210698   1.444   1.216  10.242  0.1972  0.5050  0.4233
  724TMC3    C310699   1.505   1.289  10.144  0.9419  0.0616  0.1256
  724TMC3    C410700   1.225   1.318  10.165 -0.1047  0.1842 -0.4729
  724TMC3    C510701   1.303   1.396  10.084 -0.6378  0.4971  0.1326
  724TMC3    C610702   1.437   1.378  10.057 -0.1011 -0.4298 -0.4736
  724TMC3     C10703   1.237   1.118  10.293  0.3873  0.1859 -0.6643
  724TMC3     O10704   1.154   1.064  10.221  0.0008  0.4590 -0.5168
  724TMC3     H10705   1.483   1.118  10.267  0.1312 -0.0847 -1.8763
  724TMC3    H110706   1.117   1.308  10.157 -0.3117  1.6885  0.2714
  724TMC3    H210707   1.472   1.424   9.965 -0.9850 -1.3416 -1.2654
  724TMC3    C710708   1.238   1.510  10.022 -0.0038 -0.1926 -0.5840
  724TMC3    C810709   1.650   1.271  10.130 -0.9216  0.4455 -0.7443
  724TMC3    O110710   1.127   1.502   9.970 -0.1053  0.0510  0.5810
  724TMC3    O210711   1.704   1.212  10.221  0.9299  0.4185  0.1231
  725TMC3    C110712   2.999   0.586  12.959 -0.2030  0.6631 -0.8400
  725TMC3    C210713   2.977   0.550  12.833 -0.3268 -0.4129  0.0531
  725TMC3    C310714   3.030   0.432  12.787  0.3112 -0.1620 -0.1266
  725TMC3    C410715   3.075   0.512  13.045 -0.6441  0.2552  0.7986
  725TMC3    C510716   3.142   0.404  12.989  0.5132 -1.1022  0.4049
  725TMC3    C610717   3.114   0.360  12.866 -1.1890  0.3461 -0.0724
  725TMC3     C10718   2.962   0.719  13.004 -0.1054 -0.6751  0.2530
  725TMC3     O10719   2.965   0.812  12.924  0.2638  0.4708  0.6956
  725TMC3     H10720   2.933   0.627  12.770 -0.1409 -0.4630 -0.1375
  725TMC3    H110721   3.101   0.547  13.144 -1.4915  1.6569  0.5318
  725TMC3    H210722   3.157   0.270  12.823  0.7609  0.3899  1.8291
  725TMC3    C710723   3.250   0.344  13.075 -0.4469 -0.2860  0.5531
  725TMC3    C810724   2.951   0.336  12.705  0.5193 -0.0541  0.1627
  725TMC3    O110725   3.254   0.361  13.193 -0.1487 -0.0208 -0.1855
  725TMC3    O210726   2.944   0.222  12.743  0.0558  0.4274 -0.4091
  726MPD2     C10727   1.438   1.476  10.520 -0.1397  0.0087 -0.5713
  726MPD2    C110728   1.329   1.552  10.467  0.2476 -0.1848 -0.2186
  726MPD2    C210729   1.202   1.512  10.496 -0.9255 -0.6934 -0.0095
  726MPD2    C310730   1.176   1.403  10.575 -0.1550 -0.2261 -0.4234
  726MPD2    C410731   1.283   1.333  10.619 -0.1269 -0.0765  1.3408
  726MPD2    C510732   1.413   1.371  10.597 -0.0879  0.1583  0.1122
  726MPD2     H10733   1.125   1.576  10.455 -1.5280 -1.6173 -0.3384
  726MPD2    H110734   1.262   1.247  10.682  1.9691  0.3034  2.5695
  726MPD2    H210735   1.540   1.507  10.500  0.6326 -2.1093  0.0788
  726MPD2    H310736   1.500   1.315  10.628  0.7756  0.8894 -0.9715
  726MPD2     N10737   1.047   1.352  10.604 -0.1563 -0.0448 -0.5583
  726MPD2    H510738   1.036   1.273  10.667 -0.3097 -0.5638 -1.2394
  726MPD2    N110739   1.349   1.674  10.395  0.1928  0.0401 -0.0360
  726MPD2    H710740   1.265   1.718  10.359 -0.9799 -1.6190  0.6617
  727TMC3    C110741   1.451   1.866  10.316  0.8035 -0.3001  0.1716
  727TMC3    C210742   1.553   1.961  10.342 -0.0376 -0.6095  0.7344
  727TMC3    C310743   1.532   2.082  10.276 -0.0488  0.8364  0.1413
  727TMC3    C410744   1.343   1.892  10.241  0.7656  0.7521 -0.7300
  727TMC3    C510745   1.319   2.013  10.193  0.1891  0.0179 -0.2226
  727TMC3    C610746   1.417   2.112  10.197 -0.7741  0.1706 -0.0057
  727TMC3     C10747   1.473   1.741  10.377  0.3945  0.0089  0.9579
  727TMC3     O10748   1.574   1.723  10.443 -0.4429 -0.2853  0.6865
  727TMC3     H10749   1.639   1.946  10.405  0.8446  0.1438 -0.2970
  727TMC3    H110750   1.284   1.810  10.201  0.4255  0.0666  1.1835
  727TMC3    H210751   1.398   2.206  10.148  0.2102  1.1339  1.4452
  727TMC3    C710752   1.204   2.038  10.109 -0.4605  0.4949  0.9431
  727TMC3    C810753   1.608   2.191  10.340  0.0258  0.0302  0.0439
  727TMC3    O110754   1.129   1.940  10.089 -0.2609  0.3141  0.4055
  727TMC3    O210755   1.698   2.160  10.412  0.0589  0.4969  0.2326
  728TMC3    C110756   0.171   4.681  15.529  0.0702  0.1174 -0.0766
  728TMC3    C210757   0.303   4.699  15.506  0.1891 -0.0357 -0.6811
  728TMC3    C310758   0.349   0.011  15.380 -0.0231  0.6924  0.9331
  728TMC3    C410759   0.081   4.702  15.429  0.4267 -0.5901  0.3897
  728TMC3    C510760   0.132   0.047  15.322 -0.0857 -0.0962 -0.0640
  728TMC3    C610761   0.263   0.054  15.287 -0.0190  0.3969  0.1468
  728TMC3     C10762   0.129   4.620  15.658 -0.4799 -0.5627 -0.0822
  728TMC3     O10763   0.207   4.621  15.752 -0.4337 -0.3981  0.3522
  728TMC3     H10764   0.370   4.709  15.591 -0.7052  0.3331 -0.0258
  728TMC3    H110765   4.700   4.695  15.442  0.2595 -1.4646 -1.5048
  728TMC3    H210766   0.295   0.106  15.198  1.5339 -1.7127 -0.5127
  728TMC3    C710767   0.029   0.120  15.249 -0.4935 -0.4576 -0.1126
  728TMC3    C810768   0.498   0.022  15.371 -0.1360 -0.1838  0.2867
  728TMC3    O110769   4.637   0.087  15.268  0.2017 -0.8483  0.4919
  728TMC3    O210770   0.562   0.011  15.477 -0.3527  0.0586 -0.8074
  729MPD2     C10771   2.351   0.706  17.246 -1.0356 -0.4482  0.2982
  729MPD2    C110772   2.351   0.837  17.271 -0.1031 -0.1124 -0.6779
  729MPD2    C210773   2.249   0.883  17.348  0.0781 -1.1679  0.2614
  729MPD2    C310774   2.155   0.812  17.411 -0.1714 -0.2382 -0.4035
  729MPD2    C410775   2.156   0.677  17.395  0.8104 -0.3357  0.3412
  729MPD2    C510776   2.252   0.626  17.307 -0.0039 -0.2208  0.3345
  729MPD2     H10777   2.261   0.989  17.366  2.7964 -1.5677  0.7798
  729MPD2    H110778   2.069   0.626  17.437 -0.0428 -1.3729 -2.6780
  729MPD2    H210779   2.426   0.652  17.190 -1.0653 -0.4629  0.2731
  729MPD2    H310780   2.260   0.520  17.284 -0.4633 -0.1377 -0.2246
  729MPD2     N10781   2.060   0.880  17.495  0.0777  0.2177  0.3055
  729MPD2    H510782   1.987   0.824  17.538 -1.9915  2.9885  0.3933
  729MPD2    N110783   2.450   0.915  17.207 -0.4046  0.6509  0.5272
  729MPD2    H710784   2.525   0.863  17.163  1.2101  1.0483  2.8094
  730TMC3    C110785   1.965   1.056  17.619  0.1161 -0.1875  0.9011
  730TMC3    C210786   1.999   0.992   0.029  0.2457 -0.2242  0.8182
  730TMC3    C310787   2.013   1.072   0.137  0.2419 -0.3519  0.6827
  730TMC3    C410788   1.932   1.190  17.619  0.1778 -0.7334  0.5827
  730TMC3    C510789   1.942   1.260   0.033  0.2041 -0.6579  0.0728
  730TMC3    C610790   1.983   1.198   0.145  0.1067  0.6086  0.0798
  730TMC3     C10791   2.039   1.016  17.500 -0.7258 -0.1536  0.4578
  730TMC3     O10792   2.082   1.107  17.426  1.1299 -0.0791 -0.7010
  730TMC3     H10793   2.045   0.895   0.020  0.9574  0.4043 -2.6505
  730TMC3    H110794   1.917   1.243  17.526 -2.5626 -0.1182  1.3736
  730TMC3    H210795   2.007   1.255   0.234 -0.0974  0.3264  0.3172
  730TMC3    C710796   1.971   1.404   0.022 -0.1098  0.6923 -0.2343
  730TMC3    C810797   2.151   1.045   0.178  0.9889  0.1989 -0.0684
  730TMC3    O110798   1.978   1.451  17.611  0.0599  0.2372 -0.5218
  730TMC3    O210799   2.166   0.937   0.239 -0.1739  0.0659  0.1236
  731MPD2     C10800   2.820   4.303  12.308  0.8921 -0.2577  1.2287
  731MPD2    C110801   2.943   4.256  12.331  0.1555 -0.2275 -0.2401
  731MPD2    C210802   2.985   4.238  12.465 -0.5510  1.0586 -0.4688
  731MPD2    C310803   2.890   4.247  12.569 -0.1104 -0.2033  0.3058
  731MPD2    C410804   2.761   4.274  12.538 -0.9553 -0.2306 -0.4769
  731MPD2    C510805   2.728   4.305  12.414  0.4141 -0.1828 -0.0159
  731MPD2     H10806   3.090   4.230  12.490 -1.1057 -0.9188  1.2168
  731MPD2    H110807   2.693   4.291  12.621  0.7850  0.6299  0.7856
  731MPD2    H210808   2.793   4.327  12.205  2.2079 -1.8426  0.5223
  731MPD2    H310809   2.622   4.311  12.392  0.2819  2.3192  1.2718
  731MPD2     N10810   2.937   4.224  12.700 -0.1487  0.7108 -0.1973
  731MPD2    H510811   3.036   4.206  12.716 -0.2639  1.3436  1.2294
  731MPD2    N110812   3.031   4.247  12.218  0.0474  0.1087  0.7245
  731MPD2    H710813   2.994   4.251  12.124  0.3735 -0.1389  0.5840
  732TMC3    C110814   3.232   4.214  12.111 -0.0850 -0.1258  0.2404
  732TMC3    C210815   3.178   4.116  12.025 -0.6430 -0.3271 -0.5885
  732TMC3    C310816   3.262   4.071  11.923  0.0148 -0.2257 -0.8392
  732TMC3    C410817   3.355   4.271  12.089 -0.2134  0.2280 -0.4965
  732TMC3    C510818   3.433   4.219  11.989 -0.7563 -0.0160 -0.5918
  732TMC3    C610819   3.382   4.127  11.905  0.0105  0.0898  0.6760
  732TMC3     C10820   3.164   4.222  12.236  0.1331 -0.5952 -0.3334
  732TMC3     O10821   3.241   4.216  12.329 -0.1345  0.2316  0.3878
  732TMC3     H10822   3.087   4.070  12.061 -0.4163 -1.6640 -1.6879
  732TMC3    H110823   3.390   4.346  12.159  0.6234 -1.4288  0.8515
  732TMC3    H210824   3.445   4.086  11.826 -0.2398 -0.2403  0.6457
  732TMC3    C710825   3.585   4.223  11.997 -0.1382 -0.2979 -0.6152
  732TMC3    C810826   3.206   3.986  11.817  0.2661 -0.7340  0.1107
  732TMC3    O110827   3.648   4.146  11.929 -0.4222  0.3340  0.0984
  732TMC3    O210828   3.274   3.940  11.726  0.5332 -0.4044 -0.2011
  733TMC3    C110829   3.448   2.343  13.579  0.4955  0.4969  0.1451
  733TMC3    C210830   3.557   2.349  13.658 -0.3412 -0.3320  0.1505
  733TMC3    C310831   3.658   2.430  13.619 -0.6533  0.1267 -0.7554
  733TMC3    C410832   3.440   2.424  13.466 -0.4655  0.0308  0.4932
  733TMC3    C510833   3.550   2.493  13.430  0.4513  0.3653  0.0002
  733TMC3    C610834   3.663   2.500  13.503 -0.1853  0.2629  0.3581
  733TMC3     C10835   3.345   2.255  13.633 -0.1123 -0.2736 -0.2902
  733TMC3     O10836   3.376   2.173  13.719  0.0492  0.0764  0.2458
  733TMC3     H10837   3.565   2.288  13.748  0.2273 -1.0987 -0.4223
  733TMC3    H110838   3.356   2.434  13.398 -0.6001 -0.9183  0.5080
  733TMC3    H210839   3.737   2.579  13.490  0.0940  0.3204  2.3804
  733TMC3    C710840   3.558   2.574  13.311 -0.6498 -0.1280  0.2563
  733TMC3    C810841   3.747   2.458  13.723 -0.1965  0.3137 -0.5385
  733TMC3    O110842   3.451   2.615  13.272 -0.1392  0.1272  0.4715
  733TMC3    O210843   3.700   2.461  13.837 -0.2195 -0.0349 -0.1411
  734MPD2     C10844   1.299   0.159  12.978  0.0906 -0.6911 -0.3169
  734MPD2    C110845   1.176   0.194  12.925 -0.3462 -0.7274 -1.0507
  734MPD2    C210846   1.165   0.212  12.788  0.6276  0.0528  0.0556
  734MPD2    C310847   1.269   0.174  12.712 -0.3253 -0.0066  0.1713
  734MPD2    C410848   1.390   0.148  12.763 -0.4053 -0.2657 -0.4869
  734MPD2    C510849   1.405   0.140  12.897  0.2698 -0.5812 -0.5369
  734MPD2     H10850   1.072   0.243  12.741 -0.1472  0.1489  1.6545
  734MPD2    H110851   1.476   0.135  12.698 -0.8250 -0.5107 -0.9895
  734MPD2    H210852   1.316   0.138  13.083  0.0122  3.2862  0.4944
  734MPD2    H310853   1.496   0.106  12.945  0.0899 -1.9773 -1.1964
  734MPD2     N10854   1.247   0.173  12.570 -0.2424 -0.8208 -0.2554
  734MPD2    H510855   1.153   0.203  12.544 -0.0553  0.2810  0.3319
  734MPD2    N110856   1.071   0.214  13.015 -1.1394  0.5994 -0.5055
  734MPD2    H710857   1.079   0.197  13.115 -1.3006  1.3220 -0.3661
  735TMC3    C110858   0.851   0.218  13.084  0.2213 -0.2771 -0.1014
  735TMC3    C210859   0.720   0.248  13.040  0.1991  0.6021  0.1348
  735TMC3    C310860   0.618   0.150  13.036  0.5352  0.4750 -0.2282
  735TMC3    C410861   0.879   0.095  13.141 -0.9866 -0.4010  0.5474
  735TMC3    C510862   0.780   4.722  13.126  0.2712 -0.6594  0.2664
  735TMC3    C610863   0.659   0.025  13.070 -0.3784 -0.5523 -0.6865
  735TMC3     C10864   0.943   0.233  12.978 -0.0394  0.1826 -0.1909
  735TMC3     O10865   0.897   0.259  12.868 -0.2986  0.5886  0.0920
  735TMC3     H10866   0.705   0.347  12.997  2.7891  1.0025  0.1899
  735TMC3    H110867   0.975   0.053  13.169 -0.4761 -0.1568 -0.8576
  735TMC3    H210868   0.578   4.682  13.048  1.0177 -2.7438  0.9940
  735TMC3    C710869   0.827   4.592  13.079  0.3885  0.3780 -0.2025
  735TMC3    C810870   0.547   0.146  12.915 -0.1207  0.7281 -0.2379
  735TMC3    O110871   0.765   4.531  12.997  0.0503  0.6736  0.1091
  735TMC3    O210872   0.440   0.092  12.904  0.0658  0.0168 -0.8581
  736MPD2     C10873   1.093   4.388  13.216  0.1407  0.7248  0.2002
  736MPD2    C110874   1.015   4.439  13.116 -0.1432  0.0715  0.9260
  736MPD2    C210875   1.010   4.378  12.992  0.4779  0.5148  0.5230
  736MPD2    C310876   1.084   4.260  12.957  0.4069 -0.7479 -0.0952
  736MPD2    C410877   1.160   4.211  13.061  0.7043 -0.0739 -0.0955
  736MPD2    C510878   1.163   4.276  13.185 -0.1431 -0.2596  0.1788
  736MPD2     H10879   0.941   4.423  12.921 -0.1974 -1.0570  0.1996
  736MPD2    H110880   1.228   4.129  13.045 -0.4843 -1.5071  2.0820
  736MPD2    H210881   1.100   4.433  13.314 -1.6769  1.3761  0.0279
  736MPD2    H310882   1.229   4.230  13.257  4.0120  1.0457 -2.8002
  736MPD2     N10883   1.096   4.193  12.825  0.8348  0.3428 -0.5502
  736MPD2    H510884   1.160   4.117  12.804  0.0941 -0.6146  0.6982
  736MPD2    N110885   0.939   4.551  13.151 -0.0150  0.1609 -0.2422
  736MPD2    H710886   0.961   4.605  13.235  0.2576  0.4325 -0.4888
  737TMC3    C110887   1.080   4.206  12.589 -0.0764 -0.1957  0.0711
  737TMC3    C210888   1.085   4.305  12.497  0.3526 -0.3108 -0.4600
  737TMC3    C310889   1.150   4.279  12.374  0.4112  0.2199  0.0979
  737TMC3    C410890   1.129   4.077  12.566  0.1055 -0.8268  0.0995
  737TMC3    C510891   1.189   4.055  12.445 -0.3944 -0.4610  0.5966
  737TMC3    C610892   1.209   4.157  12.349  0.6287 -0.6300 -0.2790
  737TMC3     C10893   1.033   4.246  12.716  0.3563 -0.6541  0.2152
  737TMC3     O10894   0.960   4.345  12.717  0.4294  0.3092 -0.2690
  737TMC3     H10895   1.037   4.400  12.517  1.5347 -0.2996  2.3412
  737TMC3    H110896   1.127   3.997  12.639 -0.6965  0.0659  1.0443
  737TMC3    H210897   1.287   4.148  12.274 -1.0397 -0.0676 -2.0617
  737TMC3    C710898   1.240   3.920  12.416 -0.3864 -0.3527  0.7129
  737TMC3    C810899   1.176   4.396  12.287 -0.2743 -0.7052  0.0388
  737TMC3    O110900   1.262   3.845  12.512 -0.4267  0.3019  0.5574
  737TMC3    O210901   1.156   4.506  12.336 -0.7978 -0.0370 -0.2387
  738MPD2     C10902   1.533   3.305  15.421  0.6355  0.0404 -0.1230
  738MPD2    C110903   1.463   3.251  15.311  0.6957  0.1334 -0.2602
  738MPD2    C210904   1.488   3.301  15.188  0.2190 -0.0305  0.1649
  738MPD2    C310905   1.569   3.416  15.171  0.1794 -0.0515  0.2258
  738MPD2    C410906   1.609   3.483  15.284 -0.1052  0.1972  0.3019
  738MPD2    C510907   1.594   3.422  15.411 -0.6070  0.0426 -0.1557
  738MPD2     H10908   1.448   3.243  15.105 -2.7777  0.9724  0.9131
  738MPD2    H110909   1.670   3.572  15.278 -0.3292  0.2407 -1.5041
  738MPD2    H210910   1.522   3.275  15.525  1.3789 -1.1560 -0.3872
  738MPD2    H310911   1.649   3.463  15.496 -0.3913  1.7496 -1.1074
  738MPD2     N10912   1.604   3.464  15.042  0.2940 -0.0439  0.2675
  738MPD2    H510913   1.662   3.548  15.037  1.7609 -1.0917 -0.1845
  738MPD2    N110914   1.368   3.141  15.320 -0.0068 -0.6545 -0.0611
  738MPD2    H710915   1.336   3.113  15.228 -0.5649 -0.1740 -0.0114
  739TMC3    C110916   1.640   3.506  14.816  0.0853  0.4809  0.3847
  739TMC3    C210917   1.697   3.440  14.710  0.0765  0.4626  0.3627
  739TMC3    C310918   1.811   3.494  14.655 -0.0300 -0.6273 -0.4843
  739TMC3    C410919   1.690   3.626  14.856 -0.1250  0.0281  0.4493
  739TMC3    C510920   1.800   3.676  14.794 -0.2529  0.0929  0.0838
  739TMC3    C610921   1.873   3.611  14.701 -0.7815 -0.2938 -0.0028
  739TMC3     C10922   1.564   3.432  14.919  0.2589  0.2931  0.9834
  739TMC3     O10923   1.501   3.342  14.872 -0.4336  0.3275  0.3725
  739TMC3     H10924   1.658   3.349  14.664 -0.7692  1.5331 -1.0272
  739TMC3    H110925   1.643   3.679  14.937 -1.0930 -0.0102 -0.0812
  739TMC3    H210926   1.946   3.665  14.641 -1.3294 -0.1336 -0.5282
  739TMC3    C710927   1.846   3.811  14.825  0.4747 -0.0273 -0.1440
  739TMC3    C810928   1.834   3.479  14.517 -0.0651  0.6524 -0.2027
  739TMC3    O110929   1.760   3.896  14.843  0.2742  0.3660  0.2991
  739TMC3    O210930   1.745   3.465  14.440  0.2476 -0.2810 -0.4236
  740TMC3    C110931   2.412   4.640  14.522  0.6930 -0.9775 -0.1754
  740TMC3    C210932   2.442   4.526  14.596 -0.9716  0.3887 -0.6442
  740TMC3    C310933   2.544   4.443  14.553 -0.0608  0.5663 -0.5868
  740TMC3    C410934   2.484   4.675  14.409  0.1289  0.2800  0.5881
  740TMC3    C510935   2.594   4.600  14.375 -0.1075  0.4346 -0.0228
  740TMC3    C610936   2.616   4.485  14.444 -0.0834 -0.4806 -0.4070
  740TMC3     C10937   2.303   4.720  14.570 -0.0446  0.0213  0.0644
  740TMC3     O10938   2.255   0.076  14.494 -0.7306 -0.5635  0.0453
  740TMC3     H10939   2.387   4.490  14.683 -0.4949  2.2630  0.4312
  740TMC3    H110940   2.464   0.042  14.356 -0.4521  0.5797  1.3306
  740TMC3    H210941   2.709   4.435  14.419  0.3434  0.5369 -0.8580
  740TMC3    C710942   2.684   4.624  14.263 -0.0637  0.1906  0.2129
  740TMC3    C810943   2.555   4.313  14.617  0.3656  0.4823 -0.2208
  740TMC3    O110944   2.801   4.599  14.284  0.0246  0.1281 -0.2984
  740TMC3    O210945   2.479   4.293  14.708  0.1968  0.0889  0.8670
  741TMC3    C110946   2.448   3.851  13.929 -0.2780 -0.1563 -0.0424
  741TMC3    C210947   2.322   3.897  13.962  0.1132  0.2998  0.7170
  741TMC3    C310948   2.287   3.886  14.094 -1.1527 -0.4085 -0.8780
  741TMC3    C410949   2.536   3.792  14.024  0.3767  0.2274  0.0271
  741TMC3    C510950   2.488   3.778  14.154 -0.2659  0.4909 -0.1170
  741TMC3    C610951   2.374   3.839  14.192 -0.9573 -0.3296  0.0717
  741TMC3     C10952   2.487   3.842  13.786 -0.6572  1.0012 -0.7432
  741TMC3     O10953   2.580   3.771  13.756 -0.2568 -0.0779 -0.1614
  741TMC3     H10954   2.247   3.932  13.892  1.4446  2.2308  0.2363
  741TMC3    H110955   2.632   3.758  13.990  0.1400 -1.0746  0.6735
  741TMC3    H210956   2.344   3.829  14.296  0.3028  0.4513  0.5021
  741TMC3    C710957   2.554   3.693  14.254 -0.8109 -0.6365  0.5925
  741TMC3    C810958   2.146   3.899  14.124 -0.2497 -0.1664  0.4116
  741TMC3    O110959   2.507   3.699  14.368 -0.1525 -0.0116 -0.3848
  741TMC3    O210960   2.064   3.898  14.033 -0.2717 -0.4594  0.0704
  742TMC3    C110961   2.067   2.350  15.765 -0.4806  0.5275  0.0851
  742TMC3    C210962   1.982   2.337  15.660 -0.1093  0.5345  0.5286
  742TMC3    C310963   1.996   2.236  15.570  0.7395  0.3631 -0.2805
  742TMC3    C410964   2.143   2.246  15.809 -0.0764 -0.1807 -0.1394
  742TMC3    C510965   2.154   2.146  15.720  0.6504 -0.0209  0.0428
  742TMC3    C610966   2.082   2.137  15.602 -0.8254 -0.3162  0.6364
  742TMC3     C10967   2.016   2.436  15.867  0.7790 -0.1578 -0.0162
  742TMC3     O10968   1.991   2.553  15.841  0.0344 -0.2582  0.4219
  742TMC3     H10969   1.922   2.425  15.638  1.3671  1.4283  0.0739
  742TMC3    H110970   2.204   2.263  15.897 -1.1197 -1.3110  0.7879
  742TMC3    H210971   2.082   2.052  15.535 -0.8232  0.3033 -0.1456
  742TMC3    C710972   2.241   2.036  15.749  0.2015  0.1325 -0.6173
  742TMC3    C810973   1.929   2.224  15.438 -0.1561 -0.5508  0.1907
  742TMC3    O110974   2.285   1.977  15.648  0.3830 -0.4958 -0.3355
  742TMC3    O210975   1.964   2.132  15.366  0.0807 -0.4675  0.1905
  743MPD2     C10976   4.562   3.380   2.209  0.3200 -0.3360  1.0502
  743MPD2    C110977   4.613   3.352   2.087 -0.5149 -0.6035 -0.2030
  743MPD2    C210978   0.021   3.338   2.075  0.0694 -0.3801  0.1095
  743MPD2    C310979   0.105   3.358   2.185 -0.2407 -0.3570  0.2178
  743MPD2    C410980   0.056   3.392   2.307  0.5860  0.0271  0.4904
  743MPD2    C510981   4.649   3.404   2.316 -0.0435  0.5299 -0.1553
  743MPD2     H10982   0.067   3.306   1.982  1.4757 -1.2662  1.1023
  743MPD2    H110983   0.114   3.418   2.395 -0.5587 -0.2736  1.3373
  743MPD2    H210984   4.455   3.387   2.225  0.5177 -0.9390  2.6247
  743MPD2    H310985   4.601   3.426   2.411 -2.4103 -0.5978 -1.0862
  743MPD2     N10986   0.246   3.346   2.162  0.3051  0.2806  0.8032
  743MPD2    H510987   0.261   3.353   2.062  0.9951  0.0568  0.8937
  743MPD2    N110988   4.525   3.343   1.975 -0.3693  0.1203  0.4952
  743MPD2    H710989   4.427   3.362   1.995 -0.6440 -1.4403  0.6610
  744TMC3    C110990   4.450   3.340   1.751  0.3186  0.2784  0.2633
  744TMC3    C210991   4.347   3.430   1.786  0.0256  0.0576  0.4134
  744TMC3    C310992   4.236   3.431   1.709 -0.0536  0.2913 -0.4539
  744TMC3    C410993   4.440   3.255   1.644  0.1773 -0.1290 -0.0948
  744TMC3    C510994   4.316   3.253   1.577 -0.1058  0.4937  0.1321
  744TMC3    C610995   4.214   3.343   1.609  0.9419  0.3823  0.5447
  744TMC3     C10996   4.560   3.313   1.845 -0.4389  0.2620  0.3981
  744TMC3     O10997   4.664   3.254   1.808  0.3710 -0.6845 -0.4931
  744TMC3     H10998   4.363   3.499   1.868 -0.6378 -0.3436  0.8749
  744TMC3    H110999   4.520   3.186   1.620  3.0763  1.6593  4.4773
  744TMC3    H211000   4.126   3.355   1.546  1.6679  0.3343 -0.4799
  744TMC3    C711001   4.304   3.202   1.446 -0.0870  0.0052  0.1532
  744TMC3    C811002   4.131   3.523   1.740  0.0510  0.0058  0.0413
  744TMC3    O111003   4.193   3.171   1.404 -0.1325 -0.0738 -0.1679
  744TMC3    O211004   4.043   3.535   1.653 -0.1032  0.1651  0.1404
  745TMC3    C111005   2.545   2.339  14.234  0.1367  0.0635 -0.1435
  745TMC3    C211006   2.507   2.342  14.365  0.0503 -0.6847 -0.0605
  745TMC3    C311007   2.376   2.337  14.401  0.0337 -0.7073  0.1174
  745TMC3    C411008   2.458   2.341  14.129  0.0069 -0.3056 -0.4757
  745TMC3    C511009   2.327   2.320  14.168 -0.1266 -0.8026 -0.3367
  745TMC3    C611010   2.289   2.325  14.298 -0.2207  0.1689 -0.2483
  745TMC3     C11011   2.679   2.385  14.207 -0.2719  0.5374  0.7090
  745TMC3     O11012   2.773   2.352  14.278 -0.3044  0.4348 -0.0668
  745TMC3     H11013   2.585   2.349  14.440  2.3093  0.2041 -2.4726
  745TMC3    H111014   2.501   2.357  14.030  1.5622 -0.7804  0.1216
  745TMC3    H211015   2.186   2.307  14.327 -1.1867  1.3540 -2.9970
  745TMC3    C711016   2.221   2.284  14.067  0.0058 -0.3723  0.5518
  745TMC3    C811017   2.333   2.374  14.538  0.7229 -0.4341  0.6981
  745TMC3    O111018   2.106   2.267  14.105 -0.0223  0.1913 -0.0102
  745TMC3    O211019   2.425   2.413  14.609  0.4106  0.2925  0.2526
  746TMC3    C111020   4.540   4.035  11.065  0.1991  0.5199 -0.2250
  746TMC3    C211021   4.640   3.998  10.974  0.3363 -0.4978  0.1693
  746TMC3    C311022   4.630   3.876  10.914 -0.9017 -0.8392  0.0482
  746TMC3    C411023   4.436   3.945  11.095  0.6968 -0.6340 -0.3536
  746TMC3    C511024   4.441   3.815  11.046  0.1267  0.6537 -0.1741
  746TMC3    C611025   4.540   3.780  10.958 -0.2424 -0.3240 -0.5984
  746TMC3     C11026   4.535   4.166  11.126 -0.7847  0.3306 -0.1986
  746TMC3     O11027   4.457   4.185  11.219 -0.1005 -0.6061 -0.1602
  746TMC3     H11028   0.003   4.060  10.963 -1.3546  1.6408 -1.4542
  746TMC3    H111029   4.348   3.991  11.139  0.9188 -0.5636  0.0189
  746TMC3    H211030   4.547   3.678  10.920 -0.9274  0.1127 -1.8992
  746TMC3    C711031   4.332   3.713  11.058 -0.1736  0.5762 -0.4071
  746TMC3    C811032   4.721   3.845  10.808 -0.8368 -0.6774  0.1592
  746TMC3    O111033   4.324   3.623  10.977  0.1057 -0.2476 -0.5453
  746TMC3    O211034   0.015   3.730  10.770  0.3387 -0.4501  0.2201
  747TMC3    C111035   1.724   3.780  11.519  0.0348  0.3690 -0.1800
  747TMC3    C211036   1.661   3.791  11.644 -0.0256  0.6144  0.3785
  747TMC3    C311037   1.729   3.855  11.744  0.1004 -0.4419 -0.2036
  747TMC3    C411038   1.847   3.836  11.494  0.8890 -0.4086  0.4218
  747TMC3    C511039   1.919   3.869  11.606 -0.4881  0.1666 -0.2919
  747TMC3    C611040   1.861   3.883  11.723 -0.0292 -0.0081 -0.0950
  747TMC3     C11041   1.635   3.770  11.403 -0.8483  0.3596  1.0664
  747TMC3     O11042   1.516   3.779  11.429 -0.2526  0.0165  0.3419
  747TMC3     H11043   1.559   3.758  11.657 -0.3842  1.9487  1.0101
  747TMC3    H111044   1.899   3.834  11.399 -1.0615 -0.1108 -0.6467
  747TMC3    H211045   1.935   3.916  11.795  0.1825 -2.8782  0.9835
  747TMC3    C711046   2.047   3.939  11.574 -0.1361 -0.2550  1.0747
  747TMC3    C811047   1.713   3.793  11.874  0.1829 -0.0438 -0.6659
  747TMC3    O111048   2.051   4.053  11.610  0.1396 -0.3661  0.1763
  747TMC3    O211049   1.796   3.715  11.915 -0.0984 -0.6111  0.2377
  748MPD2     C11050   3.658   4.456   1.895 -0.3439 -0.4459  0.1618
  748MPD2    C111051   3.787   4.429   1.927  0.0971 -0.5578 -0.0090
  748MPD2    C211052   3.879   4.486   1.850 -0.0963 -1.1381  0.1609
  748MPD2    C311053   3.855   4.578   1.754 -0.1206  0.2683 -0.2069
  748MPD2    C411054   3.720   4.614   1.734  0.0036  0.6629 -0.3047
  748MPD2    C511055   3.622   4.554   1.808  0.3875  0.5782  0.7411
  748MPD2     H11056   3.981   4.454   1.866  0.1022  0.4131  2.0350
  748MPD2    H111057   3.691   4.695   1.669 -2.1590 -0.6382 -0.9527
  748MPD2    H211058   3.576   4.403   1.942  0.4725 -1.1319  0.8220
  748MPD2    H311059   3.519   4.574   1.780  0.6464  1.3657  0.3609
  748MPD2     N11060   3.961   4.640   1.682  0.0130 -0.6435 -0.3221
  748MPD2    H511061   4.054   4.647   1.723 -0.5583  0.8388  0.7218
  748MPD2    N111062   3.802   4.320   2.013  0.6246  0.8105  0.2017
  748MPD2    H711063   3.728   4.288   2.074  2.1743 -3.0689  0.0904
  749TMC3    C111064   4.048   0.071   1.521  0.0271  0.1322 -0.2507
  749TMC3    C211065   4.164   0.061   1.589  0.1445  0.1203 -0.1356
  749TMC3    C311066   4.253   0.167   1.566  0.7504 -0.4772  0.3232
  749TMC3    C411067   4.014   0.168   1.433 -0.3651 -0.0343 -0.1852
  749TMC3    C511068   4.098   0.279   1.433  0.6518  0.9465 -1.3030
  749TMC3    C611069   4.221   0.277   1.498 -0.0647 -0.0967  1.1744
  749TMC3     C11070   3.935   4.712   1.561 -0.7776 -0.2688  0.0472
  749TMC3     O11071   3.845   4.701   1.481  0.3727 -0.7931  0.2022
  749TMC3     H11072   4.190   4.699   1.646 -1.0264  0.6871  1.2588
  749TMC3    H111073   3.925   0.174   1.372 -0.7457 -0.8139  0.2829
  749TMC3    H211074   4.284   0.365   1.491 -0.7646  0.1995 -1.1326
  749TMC3    C711075   4.073   0.396   1.350  0.1468  0.0634  0.6426
  749TMC3    C811076   4.375   0.156   1.637  0.1460  0.4013  0.0276
  749TMC3    O111077   4.135   0.497   1.383 -0.1290  0.0885  0.1496
  749TMC3    O211078   4.434   0.263   1.662  0.2257  0.1206  0.1653
  750MPD2     C11079   0.379   1.265  11.691  0.5880 -0.5660  0.0757
  750MPD2    C111080   0.242   1.242  11.695 -0.2244  0.2467 -0.5674
  750MPD2    C211081   0.204   1.111  11.657  0.3260  0.2923 -0.4399
  750MPD2    C311082   0.286   1.019  11.588 -0.5855  0.3309 -0.3833
  750MPD2    C411083   0.413   1.063  11.571  0.7971 -0.2153  0.0744
  750MPD2    C511084   0.461   1.179  11.623 -0.1932 -0.2295  0.4819
  750MPD2     H11085   0.096   1.101  11.662  0.1353  2.6736  0.2286
  750MPD2    H111086   0.485   0.995  11.527  1.2247 -0.6294  1.4322
  750MPD2    H211087   0.418   1.361  11.724  0.7127  0.1049 -2.0417
  750MPD2    H311088   0.568   1.198  11.620 -0.2737  0.0634 -0.6678
  750MPD2     N11089   0.233   0.909  11.521 -0.0804  0.0474 -1.0533
  750MPD2    H511090   0.284   0.878  11.440  0.7918 -0.9293 -0.1295
  750MPD2    N111091   0.152   1.339  11.740  0.4857  0.1096  0.1491
  750MPD2    H711092   0.189   1.430  11.767  0.8108 -0.4360  1.5030
  751TMC3    C111093   0.081   0.742  11.462  0.5312  0.1010  0.6253
  751TMC3    C211094   4.669   0.708  11.465  0.4465  0.3385 -0.2338
  751TMC3    C311095   4.635   0.588  11.398  0.7331 -0.5186  0.1264
  751TMC3    C411096   0.184   0.667  11.400 -0.2545  0.3035  0.4407
  751TMC3    C511097   0.135   0.561  11.324 -1.3553  0.4408  0.2151
  751TMC3    C611098   0.002   0.520  11.322 -0.2642 -0.0380  0.3191
  751TMC3     C11099   0.112   0.854  11.554  0.1072 -1.2855 -0.1219
  751TMC3     O11100   0.038   0.866  11.650 -0.5302 -0.0036 -0.6084
  751TMC3     H11101   4.598   0.774  11.515 -0.0284  0.5545 -1.1919
  751TMC3    H111102   0.289   0.693  11.393  0.0691 -0.4243  2.5581
  751TMC3    H211103   4.690   0.444  11.255 -0.8984  0.2815  0.3175
  751TMC3    C711104   0.236   0.510  11.224 -0.3748 -0.2806  0.4577
  751TMC3    C811105   4.495   0.548  11.387  0.2774 -0.1710 -0.5222
  751TMC3    O111106   0.325   0.577  11.176  0.3744  0.1869  0.1366
  751TMC3    O211107   4.473   0.499  11.280  0.5484  0.1042 -0.1252
  752TMC3    C111108   3.137   1.307   0.148  0.6840 -0.6277 -0.5713
  752TMC3    C211109   2.998   1.334   0.157  0.2157 -0.2377 -0.0678
  752TMC3    C311110   2.944   1.378   0.270  0.7513  0.2271 -0.1699
  752TMC3    C411111   3.221   1.342   0.253 -0.3016  0.2016 -0.4625
  752TMC3    C511112   3.159   1.386   0.370 -0.6154  0.4611 -0.3516
  752TMC3    C611113   3.024   1.402   0.388  0.4002 -0.8545  0.2675
  752TMC3     C11114   3.191   1.249   0.036 -0.1564  0.2345 -0.1003
  752TMC3     O11115   3.306   1.282   0.011  0.0179 -0.0375  0.0555
  752TMC3     H11116   2.931   1.305   0.076  0.0059  2.1553 -0.7346
  752TMC3    H111117   3.328   1.332   0.240 -0.1150  0.2958  1.0253
  752TMC3    H211118   2.973   1.413   0.483  0.6643  1.6653  0.1348
  752TMC3    C711119   3.247   1.445   0.469  0.8436  0.2723 -0.6454
  752TMC3    C811120   2.797   1.383   0.273  0.1644 -0.2361 -0.4455
  752TMC3    O111121   3.357   1.405   0.456  0.6050 -0.2878  0.1775
  752TMC3    O211122   2.745   1.321   0.178  0.4580 -0.3746 -0.3434
  753TMC3    C111123   0.654   2.025  13.505 -0.1348  0.1909  0.5087
  753TMC3    C211124   0.730   2.028  13.622 -0.3185  0.3305  0.8640
  753TMC3    C311125   0.691   1.946  13.721  0.5351  0.7299 -0.6845
  753TMC3    C411126   0.544   1.942  13.487  0.3892 -0.1397  0.4703
  753TMC3    C511127   0.514   1.862  13.592  0.0224  0.1759 -0.2359
  753TMC3    C611128   0.589   1.863  13.708  0.0386 -0.0041 -0.2440
  753TMC3     C11129   0.660   2.135  13.411  0.0583 -0.6506 -0.3031
  753TMC3     O11130   0.554   2.153  13.360 -0.0495  0.3474 -0.1644
  753TMC3     H11131   0.806   2.106  13.627  0.9018 -0.9391  2.2554
  753TMC3    H111132   0.484   1.948  13.397 -1.0739  2.2787  1.6110
  753TMC3    H211133   0.549   1.812  13.795  1.3959 -0.0616  0.3379
  753TMC3    C711134   0.373   1.841  13.610 -0.3599 -0.8548  0.4830
  753TMC3    C811135   0.734   1.956  13.856 -0.1980 -0.4395  0.1131
  753TMC3    O111136   0.335   1.841  13.728  0.1126  0.1387  0.2222
  753TMC3    O211137   0.737   1.848  13.912  0.5080  0.4769 -0.1579
  754MPD2     C11138   3.385   0.719  13.067 -0.1431  0.0627 -0.5830
  754MPD2    C111139   3.456   0.803  13.152 -0.7396  0.6261 -0.1537
  754MPD2    C211140   3.448   0.937  13.132  0.9735 -0.2875 -0.6068
  754MPD2    C311141   3.352   0.993  13.042 -0.3166 -0.2203 -0.1976
  754MPD2    C411142   3.278   0.903  12.971  0.0919 -0.2913 -0.5541
  754MPD2    C511143   3.300   0.768  12.979 -0.1757  0.2611 -0.8106
  754MPD2     H11144   3.513   1.009  13.180 -1.3121  0.8242  0.8541
  754MPD2    H111145   3.212   0.953  12.901  0.1900  0.9525  0.2465
  754MPD2    H211146   3.390   0.612  13.080 -2.4146  0.0153 -0.1376
  754MPD2    H311147   3.237   0.708  12.915  0.0577 -0.0225 -0.7733
  754MPD2     N11148   3.337   1.134  13.019 -0.5345  0.3075  0.3225
  754MPD2    H511149   3.251   1.160  12.973 -1.3613 -0.3325  1.5297
  754MPD2    N111150   3.529   0.755  13.261  0.3405 -0.0653  0.5602
  754MPD2    H711151   3.526   0.655  13.277 -0.2840 -0.0713  0.4030
  755MPD2     C11152   3.613   1.656  13.757  0.1360 -0.0145  0.5411
  755MPD2    C111153   3.482   1.614  13.763 -0.4637 -0.4533 -0.0297
  755MPD2    C211154   3.411   1.586  13.648  0.0195 -0.1694  0.1980
  755MPD2    C311155   3.479   1.592  13.526 -0.0620  0.5069  0.0873
  755MPD2    C411156   3.603   1.639  13.518 -0.1575  0.5821  0.1680
  755MPD2    C511157   3.678   1.670  13.632  0.1209  0.1537  0.0833
  755MPD2     H11158   3.305   1.561  13.655 -0.3998  1.2050 -1.2646
  755MPD2    H111159   3.658   1.644  13.425 -0.6824  1.9473 -0.0620
  755MPD2    H211160   3.673   1.658  13.847  0.1150  0.0760  0.5531
  755MPD2    H311161   3.783   1.696  13.635  0.6288 -1.7577 -1.5038
  755MPD2     N11162   3.417   1.556  13.404 -0.1199  0.4278 -0.0324
  755MPD2    H511163   3.468   1.576  13.319 -0.6797  0.5455 -0.3447
  755MPD2    N111164   3.399   1.614  13.876  0.3171 -0.5498 -0.4957
  755MPD2    H711165   3.302   1.587  13.866  0.4708 -2.0082  1.8088
  756MPD2     C11166   0.400   1.245   9.880 -0.3547 -0.5302  0.5858
  756MPD2    C111167   0.293   1.214   9.958  0.0795 -0.3820  0.2209
  756MPD2    C211168   0.209   1.105   9.937  0.2199 -0.2621  0.0428
  756MPD2    C311169   0.242   1.031   9.819 -0.6018  0.1169 -0.5361
  756MPD2    C411170   0.345   1.067   9.736  0.1304 -0.0042 -0.0846
  756MPD2    C511171   0.434   1.160   9.778  0.4691 -0.1499  0.1851
  756MPD2     H11172   0.123   1.085   9.999 -0.7735  0.0849 -1.2160
  756MPD2    H111173   0.382   1.006   9.655 -1.8831 -2.3735  0.7885
  756MPD2    H211174   0.462   1.334   9.886  1.1886 -1.6830  1.7944
  756MPD2    H311175   0.507   1.197   9.706 -0.2756 -0.7666 -0.8831
  756MPD2     N11176   0.169   0.907   9.803 -0.1044  0.2704  0.2265
  756MPD2    H511177   0.101   0.876   9.873 -0.2766  0.8528  0.3148
  756MPD2    N111178   0.257   1.280  10.074  0.0377 -0.3232 -0.2521
  756MPD2    H711179   0.175   1.253  10.127  0.5162  0.2675  0.7764
  757MPD2     C11180   4.074   0.357   9.926 -0.8137 -0.2955  0.3045
  757MPD2    C111181   4.163   0.266   9.862  0.0776  0.7184  0.2764
  757MPD2    C211182   4.281   0.307   9.807  0.2711 -0.3020  0.8136
  757MPD2    C311183   4.313   0.437   9.800  0.2053 -0.7441 -0.0969
  757MPD2    C411184   4.221   0.533   9.844 -0.6554 -0.0853  0.4009
  757MPD2    C511185   4.109   0.485   9.907  0.1189  0.0724 -0.3217
  757MPD2     H11186   4.356   0.234   9.778  2.0604  1.4226  1.1266
  757MPD2    H111187   4.242   0.639   9.836  2.4215 -0.7747 -0.8046
  757MPD2    H211188   3.988   0.320   9.979 -0.2311 -1.8759  0.1604
  757MPD2    H311189   4.059   0.566   9.959 -0.1973 -1.2303  1.4014
  757MPD2     N11190   4.439   0.467   9.751  0.2242  0.2984  0.5827
  757MPD2    H511191   4.491   0.388   9.716 -0.0872  1.0600 -1.6216
  757MPD2    N111192   4.125   0.137   9.860  0.0404 -0.4645  0.3389
  757MPD2    H711193   4.047   0.119   9.923  1.9708 -2.6682  2.0699
  758MPD2     C11194   3.993   0.114  16.190  0.1682 -0.3757  0.0646
  758MPD2    C111195   4.095   0.073  16.279  0.9631 -0.0764  0.1405
  758MPD2    C211196   4.115   0.141  16.391  0.5656  1.0183  0.2349
  758MPD2    C311197   4.029   0.241  16.425 -0.2622 -0.1744  0.1625
  758MPD2    C411198   3.918   0.271  16.353  0.5978  0.0965  0.1804
  758MPD2    C511199   3.906   0.211  16.233 -0.0479  0.6126  0.1676
  758MPD2     H11200   4.197   0.107  16.452  0.4042  0.4005  0.1110
  758MPD2    H111201   3.841   0.339  16.386 -0.3835 -1.0828  0.3563
  758MPD2    H211202   3.975   0.071  16.093  0.2670 -1.3259  0.4711
  758MPD2    H311203   3.827   0.245  16.167  0.7781 -1.8420 -2.1045
  758MPD2     N11204   4.051   0.322  16.537  0.1886  0.1745  0.6006
  758MPD2    H511205   3.976   0.380  16.572 -0.1550 -0.0285  0.2033
  758MPD2    N111206   4.198   4.709  16.239 -0.2379  0.3878  0.0510
  758MPD2    H711207   4.280   4.690  16.295 -0.2522 -1.0541 -0.4286
  759MPD2     C11208   3.360   3.532  10.369  0.1583 -0.4515 -0.2263
  759MPD2    C111209   3.462   3.446  10.368 -0.0057 -0.4244 -0.0854
  759MPD2    C211210   3.585   3.485  10.302 -0.0286 -0.4810 -0.1118
  759MPD2    C311211   3.595   3.609  10.234  0.6698 -0.3149 -0.1518
  759MPD2    C411212   3.481   3.692  10.235 -0.7427  0.7522 -0.6239
  759MPD2    C511213   3.367   3.655  10.300 -0.2311 -0.3498  0.1617
  759MPD2     H11214   3.668   3.415  10.297  0.1573 -0.0139 -3.6132
  759MPD2    H111215   3.486   3.794  10.196 -2.4850  0.6410 -1.1050
  759MPD2    H211216   3.268   3.496  10.413  1.6543  0.8781  3.9715
  759MPD2    H311217   3.294   3.734  10.312 -0.7190 -0.6861 -0.5846
  759MPD2     N11218   3.718   3.640  10.169  0.8425 -0.0115  0.0634
  759MPD2    H511219   3.793   3.572  10.177  0.4146 -0.4019  0.6863
  759MPD2    N111220   3.447   3.325  10.438  0.2595 -0.7928  0.0275
  759MPD2    H711221   3.356   3.299  10.476  0.0219 -2.1787 -1.4740
  760MPD2     C11222   2.616   1.166  12.138 -0.0835 -0.6701 -0.2856
  760MPD2    C111223   2.667   1.136  12.011 -0.0651  0.2863 -0.3524
  760MPD2    C211224   2.643   1.010  11.956 -0.5614  0.3346  0.3200
  760MPD2    C311225   2.582   0.912  12.029 -0.4062  0.7900 -0.8437
  760MPD2    C411226   2.552   0.934  12.154  0.4988  0.5418 -0.4425
  760MPD2    C511227   2.569   1.061  12.211  0.8114  0.1353  0.0483
  760MPD2     H11228   2.683   0.987  11.858 -0.9091 -0.1837  0.2960
  760MPD2    H111229   2.516   0.857  12.220 -0.1585  0.5925 -0.7411
  760MPD2    H211230   2.610   1.266  12.181  0.1275 -0.9203  0.3181
  760MPD2    H311231   2.543   1.067  12.316 -0.5575  1.3534 -0.3585
  760MPD2     N11232   2.560   0.781  11.979 -0.3694  0.4010 -0.7561
  760MPD2    H511233   2.517   0.720  12.048 -0.1904  1.3863  0.2149
  760MPD2    N111234   2.732   1.237  11.932  0.3411  0.4868 -0.2897
  760MPD2    H711235   2.758   1.202  11.841 -0.2579 -0.9549  0.0945
  761MPD2     C11236   4.090   0.321  11.600 -0.5102 -0.4531 -0.0074
  761MPD2    C111237   4.149   0.311  11.479 -0.4783  0.3187  0.1038
  761MPD2    C211238   4.246   0.399  11.443 -0.1770  0.1117 -0.7244
  761MPD2    C311239   4.300   0.488  11.533  0.0573 -0.8498 -0.0206
  761MPD2    C411240   4.241   0.498  11.660 -1.0389  0.1621  0.0784
  761MPD2    C511241   4.139   0.413  11.689  0.2624  0.5163 -0.4166
  761MPD2     H11242   4.288   0.397  11.343  1.0891  1.3283 -0.2152
  761MPD2    H111243   4.272   0.571  11.734  0.2405  0.4855 -0.7817
  761MPD2    H211244   4.014   0.250  11.631  0.3360 -1.3096  0.0927
  761MPD2    H311245   4.106   0.424  11.792  1.6481  2.3696 -0.1687
  761MPD2     N11246   4.419   0.560  11.506  0.0823  0.7517  0.0003
  761MPD2    H511247   4.462   0.618  11.577 -0.4318  1.4675 -0.2704
  761MPD2    N111248   4.102   0.215  11.383  0.0599 -0.3650  0.1917
  761MPD2    H711249   4.009   0.179  11.403  0.7029 -0.9802  2.0715
  762MPD2     C11250   4.552   0.291  10.967  0.1354 -0.0831 -0.1383
  762MPD2    C111251   4.497   0.180  10.904  0.4761 -0.3204 -0.5016
  762MPD2    C211252   4.570   0.119  10.800 -0.1850  0.3112  0.2355
  762MPD2    C311253   4.696   0.168  10.759 -0.0337  0.9854  0.4819
  762MPD2    C411254   0.022   0.272  10.831 -0.1236 -0.1616  0.7084
  762MPD2    C511255   4.672   0.336  10.923 -0.6906 -0.9119  0.1842
  762MPD2     H11256   4.534   0.033  10.744  1.3986 -0.0330 -0.2519
  762MPD2    H111257   0.121   0.310  10.809 -0.7206 -0.1499 -1.9876
  762MPD2    H211258   4.506   0.344  11.050 -0.6983 -2.0612  0.6650
  762MPD2    H311259   0.006   0.409  10.977  0.3646 -1.9685  0.4601
  762MPD2     N11260   0.042   0.094  10.664  0.3014 -0.5084 -0.3004
  762MPD2    H511261   0.005   0.002  10.643  1.0325 -0.5931 -1.2133
  762MPD2    N111262   4.384   0.125  10.960  0.1184 -0.0100 -0.1076
  762MPD2    H711263   4.340   0.179  11.034 -0.0126  0.5188 -0.5763
  763MPD2     C11264   1.043   0.449  16.546 -0.0058  0.2028 -0.2484
  763MPD2    C111265   1.100   0.504  16.436  0.0075  0.2557  0.5716
  763MPD2    C211266   1.110   0.638  16.424 -0.3039 -0.1263 -0.0944
  763MPD2    C311267   1.071   0.713  16.535  0.0118 -0.6197 -0.1067
  763MPD2    C411268   1.018   0.660  16.644 -0.6267  0.0900  0.1454
  763MPD2    C511269   0.999   0.527  16.649 -0.3036  0.5410  0.0828
  763MPD2     H11270   1.156   0.680  16.335  0.2593  1.2525  0.8403
  763MPD2    H111271   0.999   0.724  16.729 -1.5529 -0.7591  0.5755
  763MPD2    H211272   1.033   0.342  16.560  1.8413  0.3105  1.7408
  763MPD2    H311273   0.976   0.481  16.744  1.4065  0.6551  0.5626
  763MPD2     N11274   1.081   0.853  16.534 -0.0939 -0.0969  0.1522
  763MPD2    H511275   1.038   0.899  16.614  3.2193  3.1338  0.1160
  763MPD2    N111276   1.124   0.436  16.319 -0.1248 -0.1627  0.4513
  763MPD2    H711277   1.154   0.495  16.243 -2.9270 -0.1627 -0.6663
  764MPD2     C11278   3.829   2.395  17.438 -0.4099 -0.8032  0.8898
  764MPD2    C111279   3.765   2.276  17.413 -0.0827 -0.2259 -0.0755
  764MPD2    C211280   3.710   2.206  17.522 -0.4271 -0.1935 -1.2053
  764MPD2    C311281   3.733   2.253  17.650 -0.3542  0.4080  0.6531
  764MPD2    C411282   3.810   2.365  17.671 -0.3949 -0.5324 -0.4814
  764MPD2    C511283   3.867   2.427  17.561  0.1941  0.4106  0.4697
  764MPD2     H11284   3.655   2.114  17.509 -0.4970 -0.4121  0.6144
  764MPD2    H111285   3.843   2.400   0.063  0.1143  0.4863 -1.0151
  764MPD2    H211286   3.864   2.453  17.354 -2.6432 -0.9451 -0.1391
  764MPD2    H311287   3.934   2.511  17.573  0.7540  0.0057  0.1582
  764MPD2     N11288   3.664   2.180   0.052  0.0929  0.2469 -0.3637
  764MPD2    H511289   3.633   2.086   0.032  1.5051 -0.7503  2.0468
  764MPD2    N111290   3.739   2.253  17.278 -0.0384 -0.2523 -0.3277
  764MPD2    H711291   3.753   2.331  17.215  0.8034 -0.3331 -0.2332
  765MPD2     C11292   3.616   0.043  16.245 -0.8821 -0.0782 -0.3452
  765MPD2    C111293   3.629   0.089  16.113 -0.5117  0.0251 -0.1160
  765MPD2    C211294   3.694   0.004  16.027  0.2455 -0.0626 -0.8716
  765MPD2    C311295   3.741   4.608  16.072  0.4583  0.5359 -0.2654
  765MPD2    C411296   3.722   4.565  16.202  0.3093  0.2917 -0.2070
  765MPD2    C511297   3.668   4.653  16.296 -0.3230  1.2375 -0.0436
  765MPD2     H11298   3.707   0.026  15.922  1.0643  0.3167 -0.6952
  765MPD2    H111299   3.772   4.479  16.246 -2.5912  0.4372  3.3804
  765MPD2    H211300   3.549   0.102  16.306  0.3430 -0.5187  1.4273
  765MPD2    H311301   3.654   4.622  16.399 -0.7013 -1.7882 -0.9974
  765MPD2     N11302   3.808   4.530  15.973 -0.0864 -0.5403 -0.5238
  765MPD2    H511303   3.829   4.563  15.880  0.0352 -0.9714 -0.6482
  765MPD2    N111304   3.568   0.211  16.071  0.7608 -0.7400  0.5074
  765MPD2    H711305   3.491   0.247  16.127  1.1487 -2.0316  1.8549
  766MPD2     C11306   3.047   0.190  15.598  0.5894  0.5681  0.3741
  766MPD2    C111307   3.184   0.211  15.610  0.2104  0.8453 -0.3191
  766MPD2    C211308   3.265   0.158  15.514  0.6758  0.7347  0.4726
  766MPD2    C311309   3.225   0.079  15.415 -0.1431 -0.0274  0.7858
  766MPD2    C411310   3.094   0.040  15.417  0.1654 -0.1073 -0.2651
  766MPD2    C511311   3.009   0.097  15.503 -0.5130 -0.8459  0.1155
  766MPD2     H11312   3.366   0.193  15.529  1.5694 -1.9263  0.5550
  766MPD2    H111313   3.052   4.702  15.340 -0.5060  1.1270 -0.9480
  766MPD2    H211314   2.975   0.242  15.662 -1.5665 -1.1329 -0.6933
  766MPD2    H311315   2.902   0.086  15.490 -0.2866 -0.3502 -2.0437
  766MPD2     N11316   3.317   0.040  15.312  0.2866  0.1459 -0.1014
  766MPD2    H511317   3.277   4.722  15.230 -0.7732  0.6070  0.1662
  766MPD2    N111318   3.243   0.293  15.704 -0.2949 -0.5209 -0.4211
  766MPD2    H711319   3.336   0.322  15.676  0.5367 -0.9659  1.8490
  767MPD2     C11320   2.931   0.139  15.170  0.4651  0.0840 -0.7365
  767MPD2    C111321   3.039   0.203  15.117  0.3859 -0.1081 -0.0031
  767MPD2    C211322   3.095   0.146  15.005 -0.6055  0.4095 -0.3153
  767MPD2    C311323   3.028   0.051  14.929 -0.4423  0.1401 -0.2739
  767MPD2    C411324   2.915   4.718  14.983  0.2232 -0.2609 -0.2088
  767MPD2    C511325   2.875   0.026  15.110 -0.3194  0.7379 -0.1989
  767MPD2     H11326   3.193   0.182  14.975 -0.6400 -0.8644 -1.9568
  767MPD2    H111327   2.870   4.639  14.925  3.2813 -1.5322 -0.8754
  767MPD2    H211328   2.883   0.174  15.261 -2.2240 -1.1884 -1.6472
  767MPD2    H311329   2.796   4.700  15.163 -0.1385  1.2346  0.5634
  767MPD2     N11330   3.086   0.022  14.799 -0.8757 -0.0696 -0.2504
  767MPD2    H511331   3.171   0.072  14.776 -0.6006  0.0147  0.9658
  767MPD2    N111332   3.101   0.313  15.192  0.3747  0.4882 -0.4313
  767MPD2    H711333   3.066   0.335  15.284 -0.4063  0.6625 -0.7754
  768MPD2     C11334   4.335   3.221  10.865  0.1893  0.2050  0.2556
  768MPD2    C111335   4.286   3.172  10.981  0.1239  0.1072  0.5905
  768MPD2    C211336   4.352   3.194  11.102 -0.6971  0.0181  0.0006
  768MPD2    C311337   4.484   3.246  11.102  0.3175 -0.9516 -0.1944
  768MPD2    C411338   4.537   3.280  10.979  0.7576  0.1065  0.0388
  768MPD2    C511339   4.466   3.267  10.861 -0.3829 -0.1637 -1.1377
  768MPD2     H11340   4.303   3.171  11.196 -1.4656 -0.6323 -0.5603
  768MPD2    H111341   4.638   3.316  10.962  0.4781  1.0090  0.3159
  768MPD2    H211342   4.277   3.232  10.774 -1.9049  2.2428  1.8258
  768MPD2    H311343   4.521   3.302  10.774 -1.4715 -1.1554 -2.2199
  768MPD2     N11344   4.563   3.276  11.212 -0.2582 -0.1037  0.3584
  768MPD2    H511345   4.662   3.292  11.202 -0.4440  0.3682 -0.6628
  768MPD2    N111346   4.153   3.132  10.993 -0.0383  0.0014  0.4220
  768MPD2    H711347   4.113   3.134  11.087  3.1768  2.0127  1.7399
  769MPD2     C11348   0.092   1.202  15.344 -0.2449 -0.1168  0.4846
  769MPD2    C111349   0.037   1.329  15.371  0.3931 -0.2515 -0.8318
  769MPD2    C211350   0.074   1.391  15.486  0.2474  0.6425  0.2012
  769MPD2    C311351   0.175   1.334  15.563  0.1701 -0.7689 -0.6055
  769MPD2    C411352   0.242   1.225  15.525  0.6728 -0.2609  0.0548
  769MPD2    C511353   0.195   1.157  15.419  0.1752  0.1113 -0.3381
  769MPD2     H11354   0.039   1.490  15.516  0.6403  0.8418  0.0015
  769MPD2    H111355   0.320   1.179  15.585 -0.0952 -1.1062  0.4097
  769MPD2    H211356   0.062   1.132  15.266 -0.2966 -1.0667  1.3562
  769MPD2    H311357   0.239   1.061  15.393  2.4460  0.5153  1.9790
  769MPD2     N11358   0.195   1.388  15.694 -0.5670  0.4785  0.5566
  769MPD2    H511359   0.174   1.486  15.708 -1.3527  0.3667  0.1385
  769MPD2    N111360   4.660   1.373  15.286  0.0703 -0.2063 -0.0932
  769MPD2    H711361   4.658   1.325  15.196 -0.8233 -2.1128  0.9545
  770MPD2     C11362   4.099   0.874  15.513 -0.4791  0.0180 -0.0618
  770MPD2    C111363   4.177   0.868  15.400  0.2964  0.3129  0.8635
  770MPD2    C211364   4.189   0.979  15.318 -0.3780 -0.2947  0.4055
  770MPD2    C311365   4.144   1.102  15.358 -0.1327  0.2119  0.0414
  770MPD2    C411366   4.084   1.111  15.482 -0.1895 -0.4146  0.3074
  770MPD2    C511367   4.046   0.999  15.555 -0.6769  0.2893 -0.7977
  770MPD2     H11368   4.216   0.960  15.214 -0.8955  2.1497 -0.1894
  770MPD2    H111369   4.038   1.201  15.523  1.0625 -0.5413  1.9891
  770MPD2    H211370   4.073   0.785  15.569  0.0011  0.1628  0.3946
  770MPD2    H311371   3.993   1.012  15.649 -1.2627 -1.9800 -0.8087
  770MPD2     N11372   4.165   1.210  15.275  0.4720 -0.0887 -0.0901
  770MPD2    H511373   4.214   1.183  15.190 -0.8524  1.5107 -1.3585
  770MPD2    N111374   4.241   0.754  15.360 -0.3950 -0.4891 -0.3657
  770MPD2    H711375   4.216   0.669  15.409 -0.2022 -0.7301 -0.6889
  771MPD2     C11376   1.188   3.857  13.385  0.4257  0.0097 -0.9756
  771MPD2    C111377   1.115   3.973  13.365  0.8186  0.7579 -0.6616
  771MPD2    C211378   1.028   3.980  13.258 -0.1122  0.1795 -0.1863
  771MPD2    C311379   1.019   3.880  13.158  0.2986 -0.2918  0.1031
  771MPD2    C411380   1.100   3.769  13.179  0.3850  0.4462 -0.3411
  771MPD2    C511381   1.175   3.756  13.294  0.2240  0.0982 -0.1997
  771MPD2     H11382   0.973   4.072  13.245  0.7880  0.5685 -1.1931
  771MPD2    H111383   1.097   3.692  13.103  3.4932  0.2765 -0.2886
  771MPD2    H211384   1.268   3.845  13.456  0.7062  3.2605 -0.7491
  771MPD2    H311385   1.237   3.667  13.297 -1.4345 -1.0768 -0.6493
  771MPD2     N11386   0.934   3.899  13.048 -0.4276  0.6026 -0.0232
  771MPD2    H511387   0.871   3.978  13.055 -2.5562 -1.1715  0.7370
  771MPD2    N111388   1.121   4.081  13.454 -0.0229 -0.0931 -0.0691
  771MPD2    H711389   1.049   4.152  13.448  1.0093  0.9929  0.4987
  772MPD2     C11390   0.677   4.557  13.414  1.2481 -0.5712  0.2814
  772MPD2    C111391   0.765   4.611  13.505  0.4161  0.1537  0.3111
  772MPD2    C211392   0.739   0.007  13.560 -0.2659  0.0480 -0.5044
  772MPD2    C311393   0.625   0.080  13.530  0.4764 -0.5578 -0.8528
  772MPD2    C411394   0.546   0.029  13.433 -0.5015 -0.6534 -0.1500
  772MPD2    C511395   0.567   4.629  13.377 -0.2643  0.1622  1.1329
  772MPD2     H11396   0.817   0.050  13.622  2.6019 -1.2352 -3.2129
  772MPD2    H111397   0.455   0.082  13.407  0.6854  1.6691  0.4640
  772MPD2    H211398   0.693   4.457  13.377  0.0782 -0.8220  0.4502
  772MPD2    H311399   0.501   4.588  13.302  0.2314  0.5135  0.5048
  772MPD2     N11400   0.584   0.202  13.593  0.8077 -0.1823 -0.3083
  772MPD2    H511401   0.496   0.247  13.567  0.5713 -0.1124  0.6316
  772MPD2    N111402   0.880   4.542  13.554 -0.0413 -0.1085 -0.5814
  772MPD2    H711403   0.938   4.600  13.615 -1.3444  0.7774 -0.1820
  773MPD2     C11404   4.551   0.780   0.417  0.2462  0.2252  0.2069
  773MPD2    C111405   4.457   0.682   0.385 -0.2843  0.3501 -0.0629
  773MPD2    C211406   4.440   0.581   0.469 -0.3589 -0.3064  0.1117
  773MPD2    C311407   4.521   0.563   0.572  0.8666  0.5935  0.3564
  773MPD2    C411408   4.597   0.666   0.621  0.1730 -0.3598  0.5285
  773MPD2    C511409   4.617   0.779   0.538 -0.2350  0.1311  0.2946
  773MPD2     H11410   4.369   0.505   0.438 -1.5575  0.3098  1.3883
  773MPD2    H111411   4.657   0.653   0.710 -0.8643  0.9310  1.4171
  773MPD2    H211412   4.581   0.863   0.354  0.5357 -0.1137 -0.0979
  773MPD2    H311413   4.695   0.853   0.550 -1.2724  0.9515  1.9485
  773MPD2     N11414   4.524   0.428   0.624 -0.4841  0.1372  0.1292
  773MPD2    H511415   4.470   0.357   0.575 -0.7213  1.1280 -1.0563
  773MPD2    N111416   4.399   0.671   0.261  0.2590  0.8427  0.5022
  773MPD2    H711417   4.341   0.588   0.246  0.6872  0.4121  1.2794
  774MPD2     C11418   3.673   4.661  13.663 -0.2272  0.5045 -0.0247
  774MPD2    C111419   3.777   0.014  13.709  0.5376 -0.9564  0.1062
  774MPD2    C211420   3.752   0.145  13.718  0.5458  0.3672 -0.3473
  774MPD2    C311421   3.631   0.200  13.674  1.0823  0.3444 -0.1164
  774MPD2    C411422   3.528   0.122  13.633  0.0774 -0.1739 -0.4766
  774MPD2    C511423   3.553   4.711  13.625 -0.0744  0.0656 -0.1693
  774MPD2     H11424   3.828   0.214  13.752  1.3727 -0.2427 -0.9814
  774MPD2    H111425   3.435   0.163  13.596  0.9817  0.5121 -2.0294
  774MPD2    H211426   3.690   4.553  13.660 -1.0662  0.3389  1.0882
  774MPD2    H311427   3.480   4.645  13.578 -0.0071 -0.4226  0.4109
  774MPD2     N11428   3.624   0.340  13.685  0.7963  0.6656 -0.2396
  774MPD2    H511429   3.711   0.378  13.722  1.6715 -1.9320  0.3966
  774MPD2    N111430   3.895   4.675  13.750  0.5205  0.2107  0.1556
  774MPD2    H711431   3.905   4.574  13.748 -0.6726  0.0776  0.8301
  775MPD2     C11432   0.588   1.187  15.935 -0.1743  0.1863 -0.2385
  775MPD2    C111433   0.591   1.285  16.037  0.3553 -0.3628  0.3847
  775MPD2    C211434   0.637   1.412  15.998  0.0671 -0.5445  1.1596
  775MPD2    C311435   0.667   1.439  15.861  0.2254  0.2616 -0.0743
  775MPD2    C411436   0.649   1.343  15.760 -0.2443  0.4970 -0.3242
  775MPD2    C511437   0.610   1.216  15.800  0.1118  0.1634  0.5018
  775MPD2     H11438   0.651   1.498  16.062 -1.2192  0.5088  0.0358
  775MPD2    H111439   0.660   1.361  15.654  0.4680 -0.6850 -0.4518
  775MPD2    H211440   0.566   1.085  15.966 -0.4427  0.2556 -0.2021
  775MPD2    H311441   0.608   1.135  15.728  1.5541  0.5393  0.0363
  775MPD2     N11442   0.708   1.568  15.814  0.4742 -0.1464 -0.3373
  775MPD2    H511443   0.721   1.569  15.713  1.9643  0.0292 -0.1480
  775MPD2    N111444   0.554   1.251  16.170 -0.0042  0.4581 -0.2741
  775MPD2    H711445   0.505   1.162  16.182 -0.5224  0.7649 -0.1328
  776MPD2     C11446   4.517   2.108  11.610  0.0925  0.0397 -0.2442
  776MPD2    C111447   4.620   2.028  11.650 -0.0023  0.3399  0.0251
  776MPD2    C211448   0.020   2.084  11.652  0.2466  0.2337 -1.1175
  776MPD2    C311449   0.042   2.223  11.631 -0.1306 -0.0829  0.5148
  776MPD2    C411450   4.651   2.302  11.600  0.0589 -0.3252  0.0822
  776MPD2    C511451   4.530   2.238  11.588  0.3257  0.4914 -0.3262
  776MPD2     H11452   0.105   2.024  11.683 -1.6263  0.0071  3.6151
  776MPD2    H111453   4.653   2.410  11.589 -0.6234 -0.2764  0.4123
  776MPD2    H211454   4.417   2.067  11.615  0.9883 -1.9430  1.3035
  776MPD2    H311455   4.445   2.305  11.583 -0.3144 -0.3302 -0.3956
  776MPD2     N11456   0.164   2.292  11.639  0.1533 -0.0617  0.2179
  776MPD2    H511457   0.153   2.392  11.628  1.2359 -0.0359 -0.6508
  776MPD2    N111458   4.598   1.889  11.682 -0.4767  0.1950 -0.2841
  776MPD2    H711459   4.502   1.864  11.704 -0.2906  1.4011  1.8133
  777MPD2     C11460   0.138   4.222   0.924  0.3852  0.9258 -1.1700
  777MPD2    C111461   0.161   4.126   1.017  0.2221 -0.2164 -0.2068
  777MPD2    C211462   0.154   4.000   0.967  0.5749  0.2265  0.1637
  777MPD2    C311463   0.127   3.969   0.837  0.0193  0.2272 -0.2542
  777MPD2    C411464   0.101   4.067   0.748 -0.2989 -0.7740 -0.4955
  777MPD2    C511465   0.104   4.192   0.795 -0.4089  0.4357 -0.2829
  777MPD2     H11466   0.168   3.913   1.030  1.1808  0.6567  0.6023
  777MPD2    H111467   0.078   4.051   0.643  2.8434 -0.3910 -1.2676
  777MPD2    H211468   0.148   4.322   0.963 -0.1911  0.6004 -0.1797
  777MPD2    H311469   0.097   4.269   0.719 -1.5516  1.3331  0.7396
  777MPD2     N11470   0.111   3.828   0.812  0.5660 -0.9543 -0.1010
  777MPD2    H511471   0.102   3.768   0.893  0.0470  0.2630  0.7554
  777MPD2    N111472   0.196   4.157   1.149  0.5071  0.1715 -0.3486
  777MPD2    H711473   0.194   4.252   1.185  1.4529  0.1424 -0.2305
  778MPD2     C11474   1.418   4.619  15.104  0.1088 -0.4249 -0.6233
  778MPD2    C111475   1.403   4.510  15.018  0.7149  0.3016 -0.1074
  778MPD2    C211476   1.472   4.508  14.898 -0.1178  0.1450  0.1755
  778MPD2    C311477   1.544   4.622  14.867  0.2014 -0.3483  0.2900
  778MPD2    C411478   1.550   0.006  14.947 -0.3192 -0.0629  0.3080
  778MPD2    C511479   1.490   0.003  15.073  0.0989 -0.0510 -0.4435
  778MPD2     H11480   1.474   4.422  14.833  1.7882  1.0051 -0.8930
  778MPD2    H111481   1.614   0.093  14.938  0.3297 -0.6395 -0.6040
  778MPD2    H211482   1.362   4.624  15.197  2.3920 -0.3462  0.7386
  778MPD2    H311483   1.500   0.088  15.140 -0.7272  0.6965 -1.2700
  778MPD2     N11484   1.624   4.616  14.752 -0.0846 -0.0391  0.4116
  778MPD2    H511485   1.647   4.523  14.718 -0.1840  0.7803 -1.8711
  778MPD2    N111486   1.330   4.392  15.059  0.6671  0.1426  0.1979
  778MPD2    H711487   1.346   4.316  14.994 -0.9462 -0.2230  0.2228
  779MPD2     C11488   1.524   2.853  14.219  0.8993 -0.0147 -0.3346
  779MPD2    C111489   1.397   2.908  14.214 -0.2428 -0.2382 -0.2543
  779MPD2    C211490   1.379   3.031  14.146 -0.2851  1.0280 -0.1893
  779MPD2    C311491   1.485   3.099  14.098 -0.4208 -0.1683  0.5509
  779MPD2    C411492   1.615   3.042  14.111  0.0939  0.9321  0.9126
  779MPD2    C511493   1.632   2.924  14.175  0.2116  0.1717  0.7901
  779MPD2     H11494   1.279   3.072  14.138 -0.5732  0.6148  1.2159
  779MPD2    H111495   1.706   3.084  14.070  0.5932 -0.8923  0.1353
  779MPD2    H211496   1.543   2.755  14.260 -0.2825  0.0662  0.3975
  779MPD2    H311497   1.732   2.883  14.181  0.3376  0.7327  2.7532
  779MPD2     N11498   1.482   3.239  14.067  0.0019  0.2343  0.2976
  779MPD2    H511499   1.568   3.291  14.049 -0.1767  0.3820 -0.1355
  779MPD2    N111500   1.280   2.843  14.249  0.0020  0.0911  0.3958
  779MPD2    H711501   1.195   2.895  14.229 -0.1520 -0.5519 -0.6229
  780MPD2     C11502   0.851   3.146   1.233  0.0830  0.4806  0.0295
  780MPD2    C111503   0.720   3.109   1.235 -0.8071 -0.0998 -0.6397
  780MPD2    C211504   0.652   3.133   1.116 -0.2982 -0.6921 -0.3537
  780MPD2    C311505   0.716   3.170   0.998  0.1523  0.4971 -0.0273
  780MPD2    C411506   0.841   3.210   1.002 -0.9310  0.0925  0.4416
  780MPD2    C511507   0.911   3.197   1.122 -0.1797 -0.1697 -0.2291
  780MPD2     H11508   0.550   3.101   1.101 -0.3534 -0.2375 -0.9465
  780MPD2    H111509   0.900   3.236   0.915 -1.1842  1.5103  0.6990
  780MPD2    H211510   0.914   3.139   1.321  0.4029 -0.5710 -0.2809
  780MPD2    H311511   1.017   3.217   1.112 -0.5027  1.5214 -0.2131
  780MPD2     N11512   0.634   3.175   0.878  0.0694 -0.3943  0.0925
  780MPD2    H511513   0.555   3.112   0.873 -0.0485 -0.4798  2.8507
  780MPD2    N111514   0.659   3.066   1.352 -0.1485  0.4665  0.0488
  780MPD2    H711515   0.721   3.063   1.432 -2.6691 -1.0497  1.9439
  781MPD2     C11516   2.302   0.311  11.911 -0.4578 -0.2217  0.0817
  781MPD2    C111517   2.373   0.198  11.930  0.7072  0.0647 -0.4171
  781MPD2    C211518   2.399   0.116  11.823 -0.0296 -0.2876  0.1145
  781MPD2    C311519   2.367   0.151  11.698  0.0415 -0.0485 -0.0074
  781MPD2    C411520   2.288   0.266  11.681 -0.5135  0.8026  0.4230
  781MPD2    C511521   2.260   0.347  11.784 -0.6471  0.4144  0.4850
  781MPD2     H11522   2.433   0.016  11.848  0.6338  0.2709  1.4685
  781MPD2    H111523   2.255   0.291  11.581 -0.0074  0.7645  0.2440
  781MPD2    H211524   2.269   0.381  11.986  0.7119  1.3216 -0.8427
  781MPD2    H311525   2.205   0.439  11.768 -0.7373  0.1080 -0.9896
  781MPD2     N11526   2.398   0.078  11.582  0.1881 -0.4858 -0.1287
  781MPD2    H511527   2.375   0.107  11.487  0.1568 -0.6999 -0.1871
  781MPD2    N111528   2.414   0.163  12.066 -0.0318  0.3444 -0.3972
  781MPD2    H711529   2.458   0.072  12.065  0.6703  0.6596  1.1193
  782MPD2     C11530   0.465   0.750  10.270 -0.4682 -0.4538 -0.4510
  782MPD2    C111531   0.525   0.742  10.396 -0.1270  0.3822  0.2564
  782MPD2    C211532   0.523   0.854  10.482 -0.1460 -0.0554 -0.2956
  782MPD2    C311533   0.489   0.977  10.441 -0.1357  0.0897 -0.3483
  782MPD2    C411534   0.433   0.991  10.318  0.6356  0.0438 -0.2263
  782MPD2    C511535   0.418   0.880  10.231  0.1688  0.3924 -0.3604
  782MPD2     H11536   0.557   0.843  10.584 -0.2831  1.2934 -0.1020
  782MPD2    H111537   0.385   1.084  10.289 -2.1534 -0.7569  1.7752
  782MPD2    H211538   0.468   0.662  10.207 -0.4940 -0.8658  0.1256
  782MPD2    H311539   0.379   0.898  10.131 -2.3375 -0.5155  0.4313
  782MPD2     N11540   0.511   1.075  10.534 -0.8650  0.3343  0.2626
  782MPD2    H511541   0.530   1.046  10.630 -1.7058 -0.3324  0.2261
  782MPD2    N111542   0.588   0.618  10.430  0.0266 -0.2664  0.5388
  782MPD2    H711543   0.557   0.537  10.378 -1.3657  0.0001  0.9503
  783MPD2     C11544   0.223   0.164  11.110 -0.0112 -0.3971  0.4265
  783MPD2    C111545   0.258   0.298  11.097  0.6760 -0.6005 -0.3458
  783MPD2    C211546   0.351   0.334  10.999  0.7845  0.1328  0.0587
  783MPD2    C311547   0.399   0.240  10.915  0.0894 -0.1368  0.3297
  783MPD2    C411548   0.355   0.108  10.924 -0.3139 -0.9272 -0.0011
  783MPD2    C511549   0.274   0.070  11.023 -0.4173 -0.2836  0.1524
  783MPD2     H11550   0.387   0.435  10.984 -0.4691  0.5532 -0.0780
  783MPD2    H111551   0.381   0.030  10.853 -0.3824 -0.9173 -0.0364
  783MPD2    H211552   0.169   0.135  11.199 -1.7173  1.9569  0.1690
  783MPD2    H311553   0.242   4.693  11.025  0.1996 -0.5339 -2.5896
  783MPD2     N11554   0.487   0.276  10.811 -0.6571  0.1776  0.9829
  783MPD2    H511555   0.503   0.374  10.793 -1.1913 -0.0516 -0.7342
  783MPD2    N111556   0.204   0.380  11.194  0.4608 -0.7432 -0.5264
  783MPD2    H711557   0.133   0.332  11.250  0.5530 -0.0206  0.2116
  784MPD2     C11558   2.398   1.147   0.962  0.0317 -0.2872 -0.6994
  784MPD2    C111559   2.457   1.248   1.035  0.5195 -0.4144  0.8827
  784MPD2    C211560   2.385   1.352   1.083  0.4847  0.8265 -0.1486
  784MPD2    C311561   2.250   1.359   1.072 -0.4748  0.3984 -0.1015
  784MPD2    C411562   2.184   1.260   1.002 -0.5035  0.8860 -0.1967
  784MPD2    C511563   2.264   1.161   0.945 -0.1144 -0.1319 -0.5813
  784MPD2     H11564   2.436   1.435   1.130 -0.2224  1.4598 -0.4941
  784MPD2    H111565   2.077   1.266   0.984 -0.5367  2.5562  0.6169
  784MPD2    H211566   2.441   1.060   0.914  1.6182 -1.3740  2.7025
  784MPD2    H311567   2.222   1.084   0.882  0.7391 -0.8164 -0.3196
  784MPD2     N11568   2.181   1.470   1.123 -0.5500  0.2521 -0.3682
  784MPD2    H511569   2.241   1.526   1.184 -1.3314  0.0632  0.5766
  784MPD2    N111570   2.596   1.242   1.062  0.3925 -0.3968  1.2719
  784MPD2    H711571   2.641   1.317   1.114 -0.3863  1.7041 -1.1004
  785MPD2     C11572   2.190   3.899  10.413  0.2047  0.2953  0.0628
  785MPD2    C111573   2.156   4.024  10.466 -0.4783  0.4621  0.3888
  785MPD2    C211574   2.127   4.130  10.382 -1.2522  0.1314  0.4156
  785MPD2    C311575   2.124   4.105  10.239 -0.0961 -0.4232 -0.1773
  785MPD2    C411576   2.156   3.981  10.192  0.2114 -0.4285 -0.3852
  785MPD2    C511577   2.191   3.881  10.277  0.3372  0.0649  0.4429
  785MPD2     H11578   2.112   4.227  10.429 -0.5527  0.6769 -0.4983
  785MPD2    H111579   2.155   3.947  10.089 -0.4806  1.4197 -0.9842
  785MPD2    H211580   2.209   3.807  10.466 -1.2576  0.0586  0.1701
  785MPD2    H311581   2.224   3.788  10.231  1.0958 -0.4493  2.0216
  785MPD2     N11582   2.103   4.223  10.161 -0.4043 -0.2567  0.1108
  785MPD2    H511583   2.102   4.311  10.211  0.4341 -0.5304  0.6167
  785MPD2    N111584   2.158   4.032  10.607  0.4806  0.0361 -0.4435
  785MPD2    H711585   2.195   3.948  10.652  0.9240  2.0705  2.9908
  786MPD2     C11586   1.666   2.420  15.034 -0.0047 -0.4590 -0.0995
  786MPD2    C111587   1.720   2.296  15.041  0.3762  0.2163  0.0711
  786MPD2    C211588   1.777   2.267  15.166 -0.8597 -0.8009  0.1385
  786MPD2    C311589   1.800   2.362  15.272  0.1038 -0.2713 -0.0211
  786MPD2    C411590   1.744   2.491  15.252 -0.0403 -0.2670  0.5590
  786MPD2    C511591   1.682   2.513  15.130 -0.1395 -0.3618 -0.5078
  786MPD2     H11592   1.803   2.162  15.169  1.5880 -0.2293 -0.5998
  786MPD2    H111593   1.746   2.574  15.322 -2.1944  0.1038  0.2040
  786MPD2    H211594   1.607   2.450  14.948  0.6073 -0.6272 -0.5750
  786MPD2    H311595   1.651   2.615  15.111 -0.5688 -0.3944  0.0073
  786MPD2     N11596   1.857   2.333  15.400 -0.5358 -1.2560  0.2975
  786MPD2    H511597   1.829   2.400  15.471  5.0330  0.7389  0.6873
  786MPD2    N111598   1.683   2.188  14.950 -0.0679  0.2853 -0.3158
  786MPD2    H711599   1.711   2.093  14.970 -1.7635 -0.5852 -2.0660
  787MPD2     C11600   1.711   1.873  15.238 -0.6270  0.3178  0.0315
  787MPD2    C111601   1.680   1.792  15.135 -0.4740  0.0293  0.0238
  787MPD2    C211602   1.740   1.669  15.120  1.0428 -0.2699  0.2323
  787MPD2    C311603   1.835   1.621  15.213 -0.2594 -0.2821 -0.0003
  787MPD2    C411604   1.871   1.704  15.317  0.8165 -0.0464  0.0479
  787MPD2    C511605   1.805   1.829  15.326  0.1524  0.5616 -0.0164
  787MPD2     H11606   1.717   1.601  15.039  1.6148 -0.3445  0.1340
  787MPD2    H111607   1.941   1.675  15.394 -0.5247 -1.5160  0.7144
  787MPD2    H211608   1.664   1.968  15.259  2.2312  1.9873 -1.1221
  787MPD2    H311609   1.831   1.892  15.410 -1.2046  0.9297  0.1279
  787MPD2     N11610   1.904   1.496  15.186  0.1158  0.0666  0.2012
  787MPD2    H511611   1.880   1.435  15.108 -2.3301  0.2800  0.7851
  787MPD2    N111612   1.578   1.839  15.048 -0.6908 -0.3661  0.2302
  787MPD2    H711613   1.539   1.931  15.062 -1.6248 -0.6973 -0.1813
  788MPD2     C11614   3.343   0.664   0.657  0.0939  0.8913  0.5371
  788MPD2    C111615   3.297   0.534   0.678  0.3737 -0.4797 -0.2750
  788MPD2    C211616   3.204   0.478   0.592  0.5264  0.5849  0.6980
  788MPD2    C311617   3.177   0.550   0.478  0.1222 -0.4188  0.5784
  788MPD2    C411618   3.229   0.675   0.457 -0.0187 -1.1120  0.3968
  788MPD2    C511619   3.305   0.736   0.547 -0.0075  1.1025  0.6218
  788MPD2     H11620   3.170   0.377   0.612  1.2647  0.2549  0.2825
  788MPD2    H111621   3.204   0.730   0.368 -0.1328  0.3692  1.3514
  788MPD2    H211622   3.407   0.704   0.734  0.9268  3.7614 -1.6461
  788MPD2    H311623   3.334   0.839   0.528  2.4509  0.0893 -0.9599
  788MPD2     N11624   3.096   0.489   0.374 -0.2453  0.1923  0.4584
  788MPD2    H511625   3.092   0.545   0.290  1.1685  1.3147  1.1333
  788MPD2    N111626   3.360   0.463   0.784  0.8118 -0.0349 -0.3075
  788MPD2    H711627   3.405   0.515   0.858  0.7531  0.4634 -0.6168
  789MPD2     C11628   3.544   0.407  17.066 -0.0059 -0.2898 -0.0206
  789MPD2    C111629   3.438   0.333  17.113 -0.3607 -0.0566 -0.6893
  789MPD2    C211630   3.333   0.401  17.178  0.0024  0.4119  0.2932
  789MPD2    C311631   3.337   0.539  17.185 -0.1079 -0.0885  0.3660
  789MPD2    C411632   3.440   0.612  17.122  0.4839 -0.8923  0.1910
  789MPD2    C511633   3.546   0.544  17.073  0.2404 -0.0052  0.1876
  789MPD2     H11634   3.249   0.342  17.212  0.2891 -0.8207 -1.1263
  789MPD2    H111635   3.441   0.720  17.114  0.6958 -0.7747  1.7326
  789MPD2    H211636   3.634   0.361  17.028  0.4160  1.9766 -1.8100
  789MPD2    H311637   3.636   0.591  17.033  0.9510 -1.2999  0.2587
  789MPD2     N11638   3.223   0.615  17.234 -0.1986  0.8588  0.0701
  789MPD2    H511639   3.214   0.713  17.207 -2.6910  0.6002  0.0067
  789MPD2    N111640   3.428   0.195  17.106  0.3957  0.0181  0.4947
  789MPD2    H711641   3.347   0.163  17.159  0.0941  0.9424  0.5785
  790MPD2     C11642   4.489   2.341  13.900 -0.1425  0.5996 -0.5253
  790MPD2    C111643   4.553   2.217  13.901 -0.3958 -0.1825 -0.3641
  790MPD2    C211644   4.571   2.147  13.777  0.3234 -0.2023 -0.3446
  790MPD2    C311645   4.531   2.195  13.656 -0.3434  0.5882  0.4634
  790MPD2    C411646   4.475   2.320  13.660 -0.0336  0.3716  0.1668
  790MPD2    C511647   4.453   2.395  13.781 -0.4926 -0.2703  0.5466
  790MPD2     H11648   4.632   2.058  13.772  1.3843  0.6005 -1.6577
  790MPD2    H111649   4.452   2.375  13.570 -2.1951  0.8742  1.0183
  790MPD2    H211650   4.472   2.405  13.986  0.0127 -0.2021  0.1026
  790MPD2    H311651   4.402   2.491  13.777  0.1580  0.0588  0.0947
  790MPD2     N11652   4.555   2.122  13.535  0.1793  0.2499 -0.6373
  790MPD2    H511653   4.608   2.036  13.533  2.7630  1.8208  0.1124
  790MPD2    N111654   4.608   2.162  14.020 -0.0688  0.2650  0.2197
  790MPD2    H711655   4.604   2.225  14.100 -1.4144  0.5439 -0.0672
  791MPD2     C11656   3.945   1.978  13.080 -0.3777  0.3325  0.5397
  791MPD2    C111657   4.028   1.869  13.097  0.5908 -0.5288 -0.1656
  791MPD2    C211658   3.988   1.745  13.041  0.5780  0.4626 -0.1510
  791MPD2    C311659   3.863   1.732  12.978 -0.5834 -0.2352 -0.2013
  791MPD2    C411660   3.779   1.842  12.981  0.0634  0.2606 -0.2660
  791MPD2    C511661   3.818   1.965  13.028 -0.3664 -0.1929 -0.2823
  791MPD2     H11662   4.044   1.652  13.049 -0.6885 -0.4116 -1.3991
  791MPD2    H111663   3.680   1.837  12.938  1.4783  0.9938 -3.6148
  791MPD2    H211664   3.978   2.077  13.109  0.6453 -0.2650  1.4816
  791MPD2    H311665   3.745   2.045  13.021  0.1564  0.1840 -1.3812
  791MPD2     N11666   3.825   1.601  12.929 -0.6514 -0.7690  0.4357
  791MPD2    H511667   3.899   1.538  12.897  0.4496  0.4392  0.5949
  791MPD2    N111668   4.156   1.893  13.146  0.0707 -0.4096  0.0908
  791MPD2    H711669   4.185   1.989  13.154 -0.5145 -0.1731 -0.6423
  792MPD2     C11670   0.377   1.400  11.325 -0.0612 -0.5234 -0.5646
  792MPD2    C111671   0.293   1.489  11.392 -0.0842 -0.1238 -0.5144
  792MPD2    C211672   0.159   1.461  11.407  0.7029 -0.3286  0.4280
  792MPD2    C311673   0.110   1.329  11.372 -0.3496 -0.9852 -0.0105
  792MPD2    C411674   0.204   1.239  11.321 -1.3084  0.0784 -0.1562
  792MPD2    C511675   0.328   1.279  11.287 -0.0842 -0.3091  1.0419
  792MPD2     H11676   0.100   1.536  11.459  0.1965  0.2844 -1.0221
  792MPD2    H111677   0.181   1.134  11.311  0.3006 -0.4130  1.3972
  792MPD2    H211678   0.475   1.431  11.289  1.3277 -1.9077  2.0342
  792MPD2    H311679   0.400   1.217  11.235 -2.2120 -1.3784 -0.6220
  792MPD2     N11680   4.708   1.280  11.404 -0.9081  0.2975  0.2421
  792MPD2    H511681   4.686   1.188  11.368  1.1387 -0.2042  0.2593
  792MPD2    N111682   0.331   1.620  11.433  0.4449 -0.1946  0.0558
  792MPD2    H711683   0.265   1.687  11.472 -0.8921 -0.6715 -1.4126
  793MPD2     C11684   4.407   1.406  10.514 -0.3295  0.0078 -0.5338
  793MPD2    C111685   4.522   1.430  10.594 -0.2057  0.3694  0.0155
  793MPD2    C211686   4.514   1.404  10.730  1.0771 -0.2027  0.0909
  793MPD2    C311687   4.386   1.373  10.782  0.2969  0.8529  0.2988
  793MPD2    C411688   4.281   1.346  10.700  0.3927 -0.0568  0.6453
  793MPD2    C511689   4.294   1.365  10.565 -0.1155 -0.3266  0.7734
  793MPD2     H11690   4.597   1.429  10.795  0.7140  1.3806 -0.0635
  793MPD2    H111691   4.195   1.297  10.744  0.0933  0.3770  0.5470
  793MPD2    H211692   4.410   1.420  10.407 -0.0344  0.7792 -0.4308
  793MPD2    H311693   4.213   1.343  10.497 -0.4174 -0.1867  1.0919
  793MPD2     N11694   4.356   1.346  10.918  0.2192 -0.0440  0.3170
  793MPD2    H511695   4.259   1.333  10.943  0.2344 -1.3053 -0.3073
  793MPD2    N111696   4.651   1.466  10.538  0.1828  0.5258 -0.1670
  793MPD2    H711697   0.008   1.473  10.596 -0.1719 -1.1594  0.5323
  794MPD2     C11698   4.419   0.775  17.105  0.7209 -0.1391 -0.0656
  794MPD2    C111699   4.308   0.845  17.153  0.1270 -0.2885  0.2374
  794MPD2    C211700   4.215   0.902  17.066  0.0659 -0.2314  1.0395
  794MPD2    C311701   4.244   0.894  16.927 -0.1875 -0.2501  0.7591
  794MPD2    C411702   4.364   0.847  16.880 -0.3930  0.3969 -0.8036
  794MPD2    C511703   4.439   0.768  16.967  0.0737 -0.1548 -0.2369
  794MPD2     H11704   4.124   0.943  17.107 -1.5185 -1.7437 -0.9719
  794MPD2    H111705   4.389   0.857  16.775  1.5748 -0.4497 -0.4302
  794MPD2    H211706   4.491   0.726  17.170  0.3459  0.9549  1.1719
  794MPD2    H311707   4.530   0.719  16.933  0.5357  0.7560 -0.3259
  794MPD2     N11708   4.159   0.956  16.829 -0.5678 -0.3643  0.1294
  794MPD2    H511709   4.186   0.927  16.736  0.2020  1.1711 -0.1165
  794MPD2    N111710   4.273   0.840  17.295 -0.2195 -0.1237  0.5781
  794MPD2    H711711   4.179   0.860  17.329  0.1945 -0.9476  2.2575
  795MPD2     C11712   2.125   3.631  13.424  0.7987  0.4306 -0.4462
  795MPD2    C111713   2.097   3.503  13.466 -0.3538 -0.1103  0.5349
  795MPD2    C211714   2.203   3.415  13.503  0.6612 -0.1294 -1.1177
  795MPD2    C311715   2.334   3.466  13.504  0.1590  0.5616 -0.0745
  795MPD2    C411716   2.357   3.596  13.463  0.2153  0.4836 -0.2948
  795MPD2    C511717   2.252   3.679  13.432  0.6630 -0.5106 -0.9845
  795MPD2     H11718   2.175   3.312  13.523  1.3069 -0.0056  0.4825
  795MPD2    H111719   2.455   3.641  13.477 -0.3360  1.5426  0.2100
  795MPD2    H211720   2.045   3.702  13.406 -0.8155 -1.0777  0.6619
  795MPD2    H311721   2.279   3.782  13.412 -2.0381  0.0776 -1.6165
  795MPD2     N11722   2.450   3.395  13.548 -0.4465  0.4192 -0.5998
  795MPD2    H511723   2.535   3.449  13.561 -1.6447  1.8857  1.2284
  795MPD2    N111724   1.970   3.447  13.456  0.5619  0.0955  0.0564
  795MPD2    H711725   1.964   3.348  13.476 -0.1643  0.0671 -0.2888
  796MPD2     C11726   1.652   4.606  16.212 -0.5017 -0.1373 -0.3100
  796MPD2    C111727   1.597   4.696  16.301 -0.1590  0.0804 -0.4890
  796MPD2    C211728   1.581   0.097  16.258 -0.2263 -0.0743 -0.5003
  796MPD2    C311729   1.610   0.138  16.125  0.0997 -0.4231  0.6960
  796MPD2    C411730   1.665   0.050  16.042 -0.3852 -0.3935  0.2302
  796MPD2    C511731   1.681   4.648  16.088 -0.7266  0.3350  0.9588
  796MPD2     H11732   1.531   0.168  16.323  0.4591 -2.8010  2.9808
  796MPD2    H111733   1.700   0.070  15.941 -0.8843 -0.9429 -0.0479
  796MPD2    H211734   1.674   4.503  16.236  0.2661  0.0389 -0.2621
  796MPD2    H311735   1.721   4.579  16.015 -1.7505  0.8938 -0.1190
  796MPD2     N11736   1.574   0.265  16.082 -0.1563 -0.5183  0.2217
  796MPD2    H511737   1.527   0.321  16.152  0.0553 -1.6079  1.2407
  796MPD2    N111738   1.559   4.652  16.431  0.1359  0.1466 -0.2950
  796MPD2    H711739   1.579   4.555  16.453 -0.0744  0.2231  0.2274
  797MPD2     C11740   2.389   4.068  17.660  0.1066 -0.1594 -0.1723
  797MPD2    C111741   2.429   4.194  17.627 -0.4002 -0.4099 -0.0506
  797MPD2    C211742   2.339   4.301  17.628  0.0801  0.3285  0.6432
  797MPD2    C311743   2.206   4.286  17.668  0.4973 -0.2331  0.5644
  797MPD2    C411744   2.174   4.160   0.003 -0.6084  0.6161 -0.0003
  797MPD2    C511745   2.256   4.058   0.004 -0.5842  0.1221  0.8170
  797MPD2     H11746   2.377   4.399  17.601  0.6397 -0.2097 -0.5303
  797MPD2    H111747   2.073   4.152   0.042 -0.8769  1.4673 -0.5111
  797MPD2    H211748   2.449   3.978  17.649 -1.0061 -1.1052  1.6504
  797MPD2    H311749   2.212   3.962   0.028  0.2803 -1.0235 -2.1699
  797MPD2     N11750   2.120   4.391  17.688 -0.0133 -0.1121 -0.4356
  797MPD2    H511751   2.027   4.385   0.024  0.8961 -1.6164  1.4409
  797MPD2    N111752   2.556   4.221  17.577  0.3718  0.4699  1.1176
  797MPD2    H711753   2.572   4.317  17.550  0.5091  0.4479  1.1226
  798MPD2     C11754   2.570   0.194  17.680  0.0101  0.0585  0.0826
  798MPD2    C111755   2.498   0.080  17.647  0.1938 -0.0684  1.0979
  798MPD2    C211756   2.563   4.702  17.591  0.4527 -0.1813 -0.0941
  798MPD2    C311757   2.702   4.696  17.578 -0.1559  0.4103  0.1986
  798MPD2    C411758   2.772   0.086  17.616  0.2103  0.0799 -0.3360
  798MPD2    C511759   2.704   0.196  17.661  0.2305  0.0614 -0.8217
  798MPD2     H11760   2.517   4.609  17.560  0.0836 -0.3196  0.8916
  798MPD2    H111761   2.880   0.093  17.612  0.2447  0.5212  1.2750
  798MPD2    H211762   2.536   0.283   0.027  1.8631 -0.5305  2.3394
  798MPD2    H311763   2.760   0.285  17.690  0.9920 -0.2783 -1.2679
  798MPD2     N11764   2.759   4.574  17.530 -0.2170 -0.1642 -0.5156
  798MPD2    H511765   2.697   4.506  17.489  1.1132 -0.0019 -2.7656
  798MPD2    N111766   2.360   0.073  17.662 -0.2814 -0.1318 -0.2739
  798MPD2    H711767   2.317   4.714  17.629 -0.8843 -0.1676  0.6122
  799MPD2     C11768   2.010   1.219  14.590 -0.7915  0.3359 -0.2998
  799MPD2    C111769   1.887   1.160  14.568  0.3543  0.0444 -0.9024
  799MPD2    C211770   1.771   1.237  14.565  0.1138  0.0188  0.5209
  799MPD2    C311771   1.771   1.369  14.601 -0.6423 -0.2210 -0.7523
  799MPD2    C411772   1.899   1.431  14.616  0.4407 -0.6914  0.0298
  799MPD2    C511773   2.013   1.356  14.600  0.1048  0.9137  1.0286
  799MPD2     H11774   1.676   1.188  14.545  0.9736 -0.6566 -1.8200
  799MPD2    H111775   1.915   1.535  14.639 -1.0494 -0.7067  1.1243
  799MPD2    H211776   2.101   1.161  14.601 -1.3007 -0.0068  2.0964
  799MPD2    H311777   2.110   1.404  14.611  1.0871 -0.4570 -1.5198
  799MPD2     N11778   1.661   1.462  14.609 -0.2210 -0.0630 -0.6507
  799MPD2    H511779   1.683   1.556  14.641  1.9423  0.3202 -3.3594
  799MPD2    N111780   1.871   1.023  14.553 -0.3312 -0.5102 -0.3351
  799MPD2    H711781   1.780   0.980  14.537 -0.6575  0.0543  0.0366
  800MPD2     C11782   1.959   2.494  14.867 -0.9716 -0.5909  0.2289
  800MPD2    C111783   2.093   2.517  14.881  0.7268 -0.5363  0.8868
  800MPD2    C211784   2.181   2.473  14.782 -0.4937  0.3578 -0.5720
  800MPD2    C311785   2.126   2.421  14.664 -0.7414  0.2878 -0.3459
  800MPD2    C411786   1.995   2.398  14.662 -0.5671 -0.0801 -0.4606
  800MPD2    C511787   1.906   2.435  14.754  0.4734  0.2499 -0.4235
  800MPD2     H11788   2.287   2.492  14.796 -0.2719 -0.4424 -1.1954
  800MPD2    H111789   1.956   2.358  14.569 -0.8212 -1.5551  0.2701
  800MPD2    H211790   1.891   2.537  14.940  0.4622 -1.0435  1.8415
  800MPD2    H311791   1.801   2.447  14.732  0.7227  0.3048 -1.5954
  800MPD2     N11792   2.200   2.373  14.558 -0.2429 -0.3642 -0.3537
  800MPD2    H511793   2.139   2.324  14.493 -0.4198  0.8479 -1.0979
  800MPD2    N111794   2.134   2.580  14.998 -0.5497  0.1806 -0.0050
  800MPD2    H711795   2.062   2.631  15.048 -1.3330  0.3210 -1.2972
  801MPD2     C11796   1.930   2.805  14.569 -0.2343  0.5934 -0.3490
  801MPD2    C111797   1.898   2.809  14.712  0.0116  0.4119 -0.2268
  801MPD2    C211798   1.776   2.766  14.749  0.5945  0.0369 -0.1359
  801MPD2    C311799   1.682   2.723  14.661  0.4627  1.1944 -1.0181
  801MPD2    C411800   1.718   2.713  14.525 -0.0470  0.6952  0.4061
  801MPD2    C511801   1.842   2.751  14.481 -1.3453  0.3975  0.1093
  801MPD2     H11802   1.752   2.771  14.854  0.6523 -4.0319  0.0496
  801MPD2    H111803   1.650   2.683  14.447 -1.1047  0.6329  1.3581
  801MPD2    H211804   2.026   2.840  14.532 -0.5173  0.4437 -1.2073
  801MPD2    H311805   1.863   2.752  14.374 -1.0299 -1.0510  0.1636
  801MPD2     N11806   1.548   2.686  14.693  0.4644 -0.2871  0.1419
  801MPD2    H511807   1.493   2.637  14.622  1.7718 -3.1054  1.0800
  801MPD2    N111808   1.992   2.855  14.811  0.6731 -0.3804  0.1487
  801MPD2    H711809   1.965   2.851  14.909  1.3128 -0.1257  0.3396
  802MPD2     C11810   1.599   3.820   0.370 -0.0966  0.3737  0.0734
  802MPD2    C111811   1.481   3.790   0.301  0.2711  0.4287 -0.1116
  802MPD2    C211812   1.468   3.668   0.235 -0.5471  0.9011  0.6062
  802MPD2    C311813   1.580   3.588   0.223  0.8766 -0.0515 -0.3720
  802MPD2    C411814   1.700   3.621   0.293 -0.3838  0.1422 -0.5448
  802MPD2    C511815   1.704   3.735   0.365 -1.0836  0.4477 -0.0596
  802MPD2     H11816   1.375   3.647   0.183  1.1808 -0.1740 -2.0319
  802MPD2    H111817   1.791   3.562   0.294 -0.1324  0.5650  1.5251
  802MPD2    H211818   1.601   3.905   0.438 -1.0891 -0.4082  1.0660
  802MPD2    H311819   1.800   3.754   0.413 -0.8845  0.4563 -0.4588
  802MPD2     N11820   1.560   3.455   0.174  0.1778 -0.2448 -0.0726
  802MPD2    H511821   1.471   3.425   0.134 -0.0857 -1.0804  1.1163
  802MPD2    N111822   1.364   3.865   0.325  0.2781  0.1078  0.5197
  802MPD2    H711823   1.278   3.828   0.286  0.9182  0.0284 -0.7884
  803MPD2     C11824   2.758   1.837  11.925 -0.5803  0.0412  0.0889
  803MPD2    C111825   2.819   1.865  12.048 -0.5355 -0.6023  0.3495
  803MPD2    C211826   2.761   1.817  12.165  0.1911 -0.6519  0.7397
  803MPD2    C311827   2.644   1.748  12.158  0.2880  0.1595 -0.2460
  803MPD2    C411828   2.581   1.724  12.034  0.2275 -0.5037 -0.0338
  803MPD2    C511829   2.646   1.764  11.920 -1.1753  0.4346  0.1793
  803MPD2     H11830   2.818   1.828  12.256 -2.1155  1.9762  1.9042
  803MPD2    H111831   2.491   1.666  12.018  0.3675 -0.1302 -2.2551
  803MPD2    H211832   2.801   1.877  11.834  1.9359  2.8235  2.4899
  803MPD2    H311833   2.611   1.743  11.819 -1.1472  0.5212  0.1516
  803MPD2     N11834   2.589   1.678  12.262  0.5179 -0.1504 -0.5359
  803MPD2    H511835   2.532   1.601  12.231  1.1993 -1.7080  2.0911
  803MPD2    N111836   2.947   1.929  12.054 -0.0134 -0.0593  0.0816
  803MPD2    H711837   2.985   1.967  12.141 -0.4513 -1.5601  0.9176
  804MPD2     C11838   1.639   2.860  17.479  0.2321  0.3494  0.8532
  804MPD2    C111839   1.687   2.820  17.600 -0.5051  0.4038  0.4332
  804MPD2    C211840   1.764   2.914  17.676 -0.1447  0.1603  0.1486
  804MPD2    C311841   1.808   3.026  17.616 -0.2738  0.8076  0.5881
  804MPD2    C411842   1.759   3.066  17.497  0.0077 -0.7243 -0.4221
  804MPD2    C511843   1.676   2.984  17.434 -0.0433 -0.5177  0.3954
  804MPD2     H11844   1.800   2.881   0.068  0.7359  1.8117  0.3936
  804MPD2    H111845   1.792   3.157  17.447  3.0655 -1.8876 -0.5165
  804MPD2    H211846   1.586   2.800  17.405  2.9255 -3.3980  1.9370
  804MPD2    H311847   1.656   3.007  17.330  0.6176 -1.0112  0.1586
  804MPD2     N11848   1.913   3.092  17.680  0.0121 -0.3292 -0.1370
  804MPD2    H511849   1.941   3.045   0.060 -0.8766 -0.3617  0.1410
  804MPD2    N111850   1.657   2.698  17.661 -0.0053  0.1187  0.6142
  804MPD2    H711851   1.699   2.675   0.045 -2.4796 -1.3176  1.4331
  805MPD2     C11852   1.080   1.334  15.548 -0.1496 -0.1738  0.2679
  805MPD2    C111853   1.191   1.373  15.477 -0.7393  0.0609  0.0479
  805MPD2    C211854   1.298   1.432  15.540 -0.2100  0.0033 -0.2414
  805MPD2    C311855   1.303   1.438  15.679 -0.0870  1.0249  0.0734
  805MPD2    C411856   1.192   1.407  15.751 -0.2410  0.5005 -0.2503
  805MPD2    C511857   1.078   1.370  15.685  0.0402 -0.0047  0.2233
  805MPD2     H11858   1.391   1.455  15.490 -1.4064  2.7443 -1.2208
  805MPD2    H111859   1.175   1.424  15.857 -2.5693  1.4982 -0.7865
  805MPD2    H211860   0.988   1.300  15.502  0.8653  0.6159 -2.3428
  805MPD2    H311861   0.986   1.350  15.739  0.0370  0.1228  0.2643
  805MPD2     N11862   1.426   1.473  15.736  0.3682 -0.8070 -0.1641
  805MPD2    H511863   1.503   1.507  15.680  0.3976 -1.1366 -0.3243
  805MPD2    N111864   1.220   1.343  15.336  0.2109 -0.0158  0.5427
  805MPD2    H711865   1.310   1.365  15.294 -0.5911  0.1589 -1.0623
  806MPD2     C11866   1.805   0.968   0.633 -0.1876  0.5660 -0.5976
  806MPD2    C111867   1.798   1.077   0.720 -0.4382 -0.1716 -0.3361
  806MPD2    C211868   1.916   1.158   0.718  0.0028 -0.4219  0.2655
  806MPD2    C311869   2.025   1.132   0.634  0.1792 -0.1849 -0.2532
  806MPD2    C411870   2.019   1.030   0.546  0.0376 -0.4307 -0.6360
  806MPD2    C511871   1.910   0.957   0.542  0.2986 -0.0425  0.4969
  806MPD2     H11872   1.926   1.236   0.793  1.1639  0.0098 -0.3377
  806MPD2    H111873   2.089   1.005   0.467 -0.7142 -1.4602 -0.9768
  806MPD2    H211874   1.716   0.906   0.623  0.8171 -1.2642  1.8897
  806MPD2    H311875   1.912   0.887   0.459 -0.2869  2.1369 -1.3583
  806MPD2     N11876   2.139   1.209   0.651 -0.4603  0.9027  0.2510
  806MPD2    H511877   2.121   1.294   0.704 -0.3006  2.5033 -2.2583
  806MPD2    N111878   1.686   1.092   0.803  0.4328 -0.9507  0.4861
  806MPD2    H711879   1.633   1.006   0.817 -0.5588 -0.3613  0.4208
  807MPD2     C11880   1.300   0.605   1.261 -0.1654  0.4467  0.2759
  807MPD2    C111881   1.398   0.684   1.322 -0.2302  0.8106  0.5644
  807MPD2    C211882   1.441   0.628   1.440  0.2772  0.2979  0.4570
  807MPD2    C311883   1.412   0.507   1.495  0.6255  1.0371  0.3665
  807MPD2    C411884   1.306   0.433   1.436  0.0473 -0.5999  0.0575
  807MPD2    C511885   1.250   0.489   1.319 -0.2721  0.9933 -0.6242
  807MPD2     H11886   1.518   0.684   1.491 -0.0248  1.4529 -0.3540
  807MPD2    H111887   1.259   0.346   1.482  0.0062 -1.7710 -2.1647
  807MPD2    H211888   1.254   0.632   1.166  1.4241 -0.2411 -0.6878
  807MPD2    H311889   1.168   0.440   1.268  0.2418 -1.3664  0.8042
  807MPD2     N11890   1.473   0.464   1.610 -0.2238 -0.3310  0.2389
  807MPD2    H511891   1.553   0.521   1.635 -2.0644  1.4411  2.0822
  807MPD2    N111892   1.444   0.806   1.271  0.3078 -0.5403 -0.2542
  807MPD2    H711893   1.504   0.858   1.335 -0.8708 -0.5821  0.8879
  808MPD2     C11894   2.272   2.449   9.993  0.1853 -0.5885 -1.0655
  808MPD2    C111895   2.298   2.315  10.014 -0.3655 -0.6197  1.0883
  808MPD2    C211896   2.390   2.271  10.104 -0.2876 -0.6369  1.3426
  808MPD2    C311897   2.469   2.357  10.176 -0.4528 -0.0961 -0.2120
  808MPD2    C411898   2.446   2.500  10.154 -0.5983  0.7076 -0.0343
  808MPD2    C511899   2.350   2.537  10.062  0.0008 -0.0089  0.0003
  808MPD2     H11900   2.408   2.164  10.109  2.4085 -0.3191 -1.4035
  808MPD2    H111901   2.508   2.565  10.215 -0.3665  0.9672 -0.5495
  808MPD2    H211902   2.200   2.477   9.917 -0.7126 -0.7309 -0.2724
  808MPD2    H311903   2.340   2.643  10.042 -0.6881  0.2156  1.4917
  808MPD2     N11904   2.563   2.316  10.271  0.3527 -0.7366 -0.0837
  808MPD2    H511905   2.632   2.385  10.298 -0.7531  0.3548 -0.0651
  808MPD2    N111906   2.223   2.212   9.954  0.6282  0.7884 -0.1714
  808MPD2    H711907   2.216   2.123  10.003  1.1779  2.3800  2.7862
  809MPD2     C11908   2.965   1.417  10.505 -0.3693  0.0698  0.1396
  809MPD2    C111909   3.067   1.507  10.499  0.3209 -0.4677  1.1249
  809MPD2    C211910   3.026   1.644  10.492  0.2187  0.2697  0.5147
  809MPD2    C311911   2.892   1.682  10.500 -0.3570 -1.3534  0.5737
  809MPD2    C411912   2.796   1.584  10.513 -0.2119  0.1926 -0.7882
  809MPD2    C511913   2.832   1.449  10.512  0.3310 -0.1263 -0.0295
  809MPD2     H11914   3.095   1.728  10.485 -0.2487  0.5436 -0.8302
  809MPD2    H111915   2.691   1.611  10.512 -0.6457 -1.5087 -1.2646
  809MPD2    H211916   2.979   1.310  10.514  0.4913  0.1706 -0.0211
  809MPD2    H311917   2.763   1.367  10.530 -0.8797  1.1052  0.9531
  809MPD2     N11918   2.849   1.818  10.491 -0.1150 -0.0489 -0.4339
  809MPD2    H511919   2.749   1.828  10.479  0.0998 -0.6051 -2.7657
  809MPD2    N111920   3.204   1.472  10.489 -0.4518  0.5736 -0.2525
  809MPD2    H711921   3.274   1.545  10.497 -2.4341  2.3958  0.5757
  810MPD2     C11922   1.957   2.086  11.456 -0.2205 -0.3811  0.4312
  810MPD2    C111923   1.991   2.062  11.328  0.8652  0.5672 -0.1739
  810MPD2    C211924   2.004   2.175  11.243  0.5333  0.6738 -0.1063
  810MPD2    C311925   1.974   2.299  11.297  0.5256  0.0595 -0.0513
  810MPD2    C411926   1.951   2.320  11.431  0.5560  0.0464  0.5402
  810MPD2    C511927   1.940   2.211  11.512 -0.0285  0.2244 -0.3587
  810MPD2     H11928   2.037   2.163  11.140  0.9059 -1.5336  0.2638
  810MPD2    H111929   1.948   2.419  11.475 -1.9211 -0.2412  1.0173
  810MPD2    H211930   1.941   2.003  11.523  0.7115 -0.9919 -0.0975
  810MPD2    H311931   1.914   2.215  11.617  0.3045 -0.4307 -0.2505
  810MPD2     N11932   1.964   2.408  11.210  0.0339  0.3227 -0.2179
  810MPD2    H511933   1.964   2.499  11.256 -1.5390 -0.0674  0.5661
  810MPD2    N111934   2.014   1.932  11.285  0.3221 -0.4556 -0.5172
  810MPD2    H711935   1.970   1.855  11.335 -0.0393  1.1439  1.5945
  811MPD2     C11936   1.861   1.514  10.466  0.1382 -0.2561  0.4116
  811MPD2    C111937   1.897   1.628  10.536 -0.0916 -0.4041  0.1735
  811MPD2    C211938   1.900   1.748  10.466  0.5353  0.3489 -0.1346
  811MPD2    C311939   1.896   1.753  10.332  0.6786 -0.0056  0.5999
  811MPD2    C411940   1.863   1.635  10.260  0.2069 -0.0662 -0.2154
  811MPD2    C511941   1.839   1.519  10.328 -0.3172  0.1691  0.1305
  811MPD2     H11942   1.939   1.836  10.517 -0.3749 -0.7106  2.3697
  811MPD2    H111943   1.874   1.645  10.153  2.0974 -1.2249 -0.1139
  811MPD2    H211944   1.840   1.417  10.510 -1.8790  0.3723  0.8436
  811MPD2    H311945   1.815   1.429  10.274  1.5618 -0.4781  0.3840
  811MPD2     N11946   1.911   1.873  10.264 -0.0489 -0.2206  0.7003
  811MPD2    H511947   1.967   1.939  10.317 -0.3406 -0.3939  1.2313
  811MPD2    N111948   1.926   1.621  10.677  0.0741 -0.0946  0.4481
  811MPD2    H711949   1.922   1.530  10.722 -0.5504  1.1597  2.9671
  812MPD2     C11950   0.973   1.813  12.621 -0.0563  0.0642 -0.0167
  812MPD2    C111951   0.858   1.852  12.691 -0.5547 -0.4581  0.1663
  812MPD2    C211952   0.792   1.756  12.766 -0.7137 -0.4929  0.2359
  812MPD2    C311953   0.840   1.630  12.778 -0.0839  0.2244 -0.4618
  812MPD2    C411954   0.960   1.597  12.716 -0.2006  0.5008 -0.7650
  812MPD2    C511955   1.023   1.685  12.630  0.3707  0.7373 -0.1540
  812MPD2     H11956   0.703   1.788  12.820 -0.5660 -1.1006  0.8432
  812MPD2    H111957   1.010   1.502  12.731 -1.9287  0.0425  2.0939
  812MPD2    H211958   1.022   1.873  12.545 -1.3551 -0.6812 -1.4421
  812MPD2    H311959   1.111   1.654  12.574  1.1470  2.5841  0.0177
  812MPD2     N11960   0.769   1.541  12.860  0.2081 -0.6944  0.1021
  812MPD2    H511961   0.692   1.584  12.910  0.1959 -1.7217  0.9545
  812MPD2    N111962   0.816   1.981  12.665  0.0849 -0.1856 -0.0268
  812MPD2    H711963   0.884   2.035  12.611 -2.3523  0.6885 -2.1840
  813MPD2     C11964   4.659   3.510  12.995 -1.1639  0.3868 -0.5711
  813MPD2    C111965   4.668   3.647  13.010  0.1461 -0.3065  0.5939
  813MPD2    C211966   4.609   3.700  13.126  0.2144  0.7656 -0.5947
  813MPD2    C311967   4.544   3.616  13.223 -0.3771  0.2347  0.1437
  813MPD2    C411968   4.538   3.477  13.196 -0.6461  0.3604  0.0057
  813MPD2    C511969   4.585   3.430  13.080 -0.4502  0.8619  0.6059
  813MPD2     H11970   4.619   3.805  13.148  1.0276  0.6936 -0.6113
  813MPD2    H111971   4.493   3.408  13.267  3.0501 -1.9003  0.1396
  813MPD2    H211972   4.698   3.472  12.901 -1.2926  1.2094 -0.9614
  813MPD2    H311973   4.572   3.324  13.062  2.5216  0.2191  2.2764
  813MPD2     N11974   4.492   3.673  13.337  0.6973 -0.5612  0.7490
  813MPD2    H511975   4.490   3.775  13.344 -0.2071 -0.5925  1.0269
  813MPD2    N111976   0.005   3.727  12.911 -0.2608  0.0438  0.1187
  813MPD2    H711977   0.046   3.677  12.832  1.6927  0.6414  0.7583
  814MPD2     C11978   0.218   0.310  12.520  0.0894 -0.3542  0.7631
  814MPD2    C111979   0.306   0.322  12.419 -0.0044 -0.3151  0.6416
  814MPD2    C211980   0.409   0.414  12.429  0.4761 -0.8643  0.2488
  814MPD2    C311981   0.416   0.497  12.539 -0.5363 -0.0359  0.2287
  814MPD2    C411982   0.323   0.486  12.643 -0.2675  0.3560  0.3746
  814MPD2    C511983   0.227   0.394  12.629  1.4788 -0.0992 -0.8385
  814MPD2     H11984   0.488   0.413  12.355 -1.3161 -0.3046 -1.6807
  814MPD2    H111985   0.332   0.546  12.733 -1.9084  0.2507  0.6004
  814MPD2    H211986   0.131   0.247  12.507  0.3005 -0.6693  0.8564
  814MPD2    H311987   0.148   0.385  12.701  0.9201 -1.6209 -1.6457
  814MPD2     N11988   0.522   0.594  12.564 -0.1453 -0.7523  0.3326
  814MPD2    H511989   0.516   0.661  12.640  0.4090 -0.3764  0.0469
  814MPD2    N111990   0.301   0.252  12.294 -0.0846  0.1805 -0.4420
  814MPD2    H711991   0.361   0.294  12.223 -0.9954  1.3857 -0.4944
  815MPD2     C11992   0.634   3.594  12.115  0.1377  0.5982  0.0662
  815MPD2    C111993   0.662   3.457  12.115 -0.0321 -0.1699  0.4882
  815MPD2    C211994   0.615   3.371  12.217 -0.0863  0.2479  0.5576
  815MPD2    C311995   0.522   3.418  12.306 -0.1100 -0.1129 -0.2810
  815MPD2    C411996   0.503   3.551  12.307  0.2621  0.1392 -0.6023
  815MPD2    C511997   0.565   3.643  12.226  0.0608 -0.6192  0.1372
  815MPD2     H11998   0.628   3.265  12.203  0.0053  0.2932  0.3052
  815MPD2    H111999   0.432   3.596  12.375  1.0372  0.3026  0.0921
  815MPD2    H212000   0.691   3.659  12.050  0.1600 -0.3432 -0.8671
  815MPD2    H312001   0.547   3.750  12.229  0.1174 -0.6141  0.3335
  815MPD2     N12002   0.449   3.326  12.381 -0.0530 -0.2027 -0.7159
  815MPD2    H512003   0.456   3.228  12.355 -1.3300 -0.2186 -1.0240
  815MPD2    N112004   0.733   3.403  12.010 -0.3196  0.7627  0.1581
  815MPD2    H712005   0.764   3.467  11.938  0.7764  1.8845  1.6453
  816MPD2     C12006   0.240   2.425  17.499  0.3158  0.7035  0.6898
  816MPD2    C112007   0.306   2.539  17.546  0.0991  0.1746  0.2396
  816MPD2    C212008   0.446   2.545  17.546 -0.7673 -0.4937  0.1960
  816MPD2    C312009   0.514   2.442  17.481  0.5797  0.0541  0.5555
  816MPD2    C412010   0.445   2.337  17.430  1.0013  0.1024 -0.2469
  816MPD2    C512011   0.309   2.324  17.445 -0.1214 -0.4294  0.3232
  816MPD2     H12012   0.495   2.632  17.587 -0.5563  0.2660 -1.6841
  816MPD2    H112013   0.501   2.255  17.387  1.9134  0.0632  0.9808
  816MPD2    H212014   0.131   2.419  17.498  0.2855  1.3670  0.0944
  816MPD2    H312015   0.265   2.230  17.413  0.0304  1.1193 -4.3984
  816MPD2     N12016   0.654   2.446  17.461 -0.1733  0.0906 -0.0253
  816MPD2    H512017   0.696   2.528  17.504  0.8075  0.2599 -1.2906
  816MPD2    N112018   0.233   2.647  17.596 -0.0792 -0.2771  0.1442
  816MPD2    H712019   0.133   2.628  17.605  0.0494 -0.8933  0.2796
  817MPD2     C12020   0.668   4.027  10.094 -0.9200  0.0423  0.1336
  817MPD2    C112021   0.792   4.099  10.097  0.1654  0.7515  0.4090
  817MPD2    C212022   0.796   4.216  10.015 -0.3241  0.4975 -0.2701
  817MPD2    C312023   0.687   4.255   9.937 -0.2810 -0.1767  0.0572
  817MPD2    C412024   0.573   4.177   9.934 -0.2170 -0.7268  0.0512
  817MPD2    C512025   0.571   4.066  10.007 -0.2705 -0.1596  0.1512
  817MPD2     H12026   0.885   4.276  10.025 -0.2001  0.4711 -1.2365
  817MPD2    H112027   0.488   4.200   9.870  1.2420  0.1618 -1.5751
  817MPD2    H212028   0.652   3.932  10.144 -1.0581  0.1759  0.3392
  817MPD2    H312029   0.484   4.005   9.986 -1.3417  0.9611  1.2883
  817MPD2     N12030   0.692   4.380   9.878  0.5417  0.3674  0.0992
  817MPD2    H512031   0.766   4.441   9.910  1.8928 -1.1740 -0.0962
  817MPD2    N112032   0.904   4.051  10.175 -0.2805  0.2124  0.4557
  817MPD2    H712033   0.975   4.123  10.177 -3.1993  3.1077  0.7378
  818MPD2     C12034   4.610   3.709  10.053 -0.1172  0.5968  0.3829
  818MPD2    C112035   4.534   3.653  10.155 -0.3287 -0.4109 -0.1437
  818MPD2    C212036   4.584   3.547  10.228 -0.5007 -0.3523 -0.5687
  818MPD2    C312037   4.711   3.493  10.197  0.4715  0.1326  0.1687
  818MPD2    C412038   0.052   3.555  10.092 -0.1738 -0.1223 -0.1146
  818MPD2    C512039   0.000   3.658  10.016  0.5762 -0.1109 -0.3559
  818MPD2     H12040   4.518   3.518  10.309  4.2379  0.0719  3.4433
  818MPD2    H112041   0.148   3.516  10.060  0.0567 -1.2018  1.9288
  818MPD2    H212042   4.574   3.795   9.996 -1.4638 -0.4253 -0.2960
  818MPD2    H312043   0.055   3.698   9.932 -0.5850 -2.6894 -2.3495
  818MPD2     N12044   0.054   3.398  10.274 -0.0878 -0.3884  0.1944
  818MPD2    H512045   0.140   3.356  10.239  0.8309  1.3817  0.3243
  818MPD2    N112046   4.420   3.729  10.199 -0.2264 -0.0019 -0.4403
  818MPD2    H712047   4.359   3.679  10.263 -0.9194  0.8673 -0.4352
  819MPD2     C12048   2.083   1.444  15.942  0.0823 -0.5974  0.4405
  819MPD2    C112049   2.011   1.323  15.934  0.4775 -0.4270  0.1152
  819MPD2    C212050   2.047   1.222  16.020  0.3386 -0.7403  0.2771
  819MPD2    C312051   2.149   1.238  16.110 -0.3023 -0.3813 -1.0745
  819MPD2    C412052   2.227   1.355  16.106 -0.4764  0.3117  0.3660
  819MPD2    C512053   2.179   1.458  16.040 -0.2848 -0.0585 -0.4668
  819MPD2     H12054   1.992   1.129  16.020  2.3399 -1.9230  2.1289
  819MPD2    H112055   2.320   1.372  16.159 -1.2076  2.1585  1.0859
  819MPD2    H212056   2.069   1.525  15.871 -0.8663  1.0587  2.5242
  819MPD2    H312057   2.242   1.546  16.048 -0.9662  0.5053 -1.3040
  819MPD2     N12058   2.172   1.128  16.187 -0.4117  0.1516  0.2902
  819MPD2    H512059   2.107   1.051  16.173 -1.1919  1.5065 -3.5779
  819MPD2    N112060   1.913   1.316  15.832  0.0874  0.0842  0.2392
  819MPD2    H712061   1.918   1.391  15.764  1.1760 -0.6831 -0.5146
  820MPD2     C12062   1.756   1.015  14.884 -0.2568  0.2304  0.5770
  820MPD2    C112063   1.677   1.097  14.958  0.6185  0.1688  0.4514
  820MPD2    C212064   1.709   1.134  15.084  0.4111 -0.1610  0.3661
  820MPD2    C312065   1.823   1.066  15.141 -0.3217  0.3120 -0.3529
  820MPD2    C412066   1.904   0.988  15.068 -0.2049 -0.1262 -0.4705
  820MPD2    C512067   1.873   0.960  14.938  0.3498  0.0709 -0.3021
  820MPD2     H12068   1.634   1.185  15.143 -1.1108 -1.6229 -0.2718
  820MPD2    H112069   1.983   0.928  15.112 -1.0231  1.3337  2.9406
  820MPD2    H212070   1.733   0.995  14.780  3.1867 -3.4122  0.4998
  820MPD2    H312071   1.926   0.878  14.891 -0.4730 -0.4263 -0.3530
  820MPD2     N12072   1.846   1.087  15.281  0.7974  0.1241 -0.4511
  820MPD2    H512073   1.900   1.028  15.344  0.8981  0.1553 -0.5076
  820MPD2    N112074   1.555   1.143  14.907  0.2354  0.5506  0.1075
  820MPD2    H712075   1.506   1.081  14.844  0.0535  1.2559 -0.4396
  821MPD2     C12076   2.048   2.268  13.811 -1.3946  0.0238 -0.3323
  821MPD2    C112077   2.183   2.256  13.820 -0.8546  0.4243 -0.1292
  821MPD2    C212078   2.256   2.243  13.703  0.1491  0.1169 -0.2312
  821MPD2    C312079   2.195   2.246  13.583  0.0084  0.6377 -0.3549
  821MPD2    C412080   2.064   2.264  13.574  0.0447 -0.3620  0.1288
  821MPD2    C512081   1.990   2.279  13.687 -0.3167  0.2395 -0.1772
  821MPD2     H12082   2.363   2.237  13.718 -0.2516 -1.5507  2.0691
  821MPD2    H112083   2.004   2.265  13.484 -1.0641 -3.2132  0.8363
  821MPD2    H212084   1.980   2.295  13.891 -0.9637 -1.8935  0.6694
  821MPD2    H312085   1.884   2.298  13.672  0.2259  2.2094 -1.4798
  821MPD2     N12086   2.264   2.261  13.464  0.5906 -0.5354 -0.4131
  821MPD2    H512087   2.213   2.281  13.378 -1.3913  3.0455  1.6005
  821MPD2    N112088   2.265   2.271  13.939  0.6869 -0.4341  0.0286
  821MPD2    H712089   2.366   2.265  13.931  0.7271  1.6961 -0.8665
  822MPD2     C12090   2.404   2.370  16.029  0.6941  0.3625  0.1840
  822MPD2    C112091   2.425   2.330  16.158  0.1409  0.0554 -0.2827
  822MPD2    C212092   2.351   2.391  16.260  0.3802  0.2958  0.2349
  822MPD2    C312093   2.269   2.498  16.234  0.3972 -0.5705 -0.8035
  822MPD2    C412094   2.261   2.549  16.102  0.5040  0.4821 -0.2879
  822MPD2    C512095   2.327   2.484  16.001  0.5085 -0.9536 -0.5348
  822MPD2     H12096   2.363   2.368  16.366  2.1881  0.0149 -0.0317
  822MPD2    H112097   2.204   2.637  16.078  0.6402 -0.0930 -2.6541
  822MPD2    H212098   2.451   2.329  15.941 -1.2962  0.8122 -1.0847
  822MPD2    H312099   2.317   2.520  15.900  0.7481 -1.8153 -0.8667
  822MPD2     N12100   2.204   2.555  16.348 -0.1492 -0.9342  0.0307
  822MPD2    H512101   2.209   2.511  16.440 -0.6016 -0.2752  0.3723
  822MPD2    N112102   2.523   2.227  16.189 -0.1012  0.0545 -0.1301
  822MPD2    H712103   2.526   2.188  16.283 -1.2432  0.6886  0.1653
  823MPD2     C12104   1.864   2.658  17.119  0.0350 -0.1463 -0.1297
  823MPD2    C112105   1.962   2.600  17.041  0.3505  0.1590 -0.3904
  823MPD2    C212106   2.043   2.496  17.088  0.8794 -0.2096 -0.2898
  823MPD2    C312107   2.037   2.465  17.223  0.3733 -0.2824 -0.5287
  823MPD2    C412108   1.947   2.526  17.306 -0.6069 -0.5418  0.8814
  823MPD2    C512109   1.861   2.623  17.251 -0.2990 -0.1419  0.3952
  823MPD2     H12110   2.104   2.439  17.019  1.1435 -2.0571  1.4670
  823MPD2    H112111   1.933   2.493  17.408  0.6065 -1.2443  0.8146
  823MPD2    H212112   1.791   2.730  17.086 -0.7917 -1.2587 -0.7166
  823MPD2    H312113   1.775   2.669  17.300  0.5325  0.5687  1.1754
  823MPD2     N12114   2.112   2.366  17.285  0.8433  1.4123 -0.2292
  823MPD2    H512115   2.100   2.346  17.384  0.5615  0.4723 -0.4550
  823MPD2    N112116   1.973   2.656  16.916  0.0795 -0.0135  0.5035
  823MPD2    H712117   1.936   2.750  16.915  3.3280  1.2781  0.9439
  824MPD2     C12118   2.971   1.423  16.111 -0.0511 -0.2191 -0.0645
  824MPD2    C112119   2.970   1.547  16.044 -0.2196 -0.2394 -0.4733
  824MPD2    C212120   3.051   1.554  15.928  0.5908  0.2650  0.0183
  824MPD2    C312121   3.122   1.445  15.883 -0.0202 -0.9125  0.2479
  824MPD2    C412122   3.107   1.330  15.947  0.0774  0.3119  0.0338
  824MPD2    C512123   3.032   1.317  16.056 -0.6307 -0.4050  0.1327
  824MPD2     H12124   3.058   1.643  15.866 -0.2540  1.1350  1.1652
  824MPD2    H112125   3.156   1.238  15.916 -0.2298 -0.3907  1.6461
  824MPD2    H212126   2.911   1.406  16.200  1.4403 -0.8056  0.8163
  824MPD2    H312127   3.031   1.217  16.099  1.7671  0.0025  1.1327
  824MPD2     N12128   3.199   1.471  15.760  0.2323  0.2414  0.1182
  824MPD2    H512129   3.216   1.568  15.736  0.8222 -0.1448 -1.0568
  824MPD2    N112130   2.894   1.657  16.089  0.5702  0.3649  0.6648
  824MPD2    H712131   2.842   1.636  16.173  0.9637 -0.3559  0.7309
  825MPD2     C12132   3.643   1.879  15.860  0.3885  0.8648  0.5556
  825MPD2    C112133   3.678   1.841  15.732  0.2621  0.5226 -0.2397
  825MPD2    C212134   3.778   1.912  15.662 -0.3405  0.0489 -0.0868
  825MPD2    C312135   3.838   2.024  15.715 -0.3035  0.0188  0.7908
  825MPD2    C412136   3.789   2.067  15.836  0.4322 -0.5177  0.2973
  825MPD2    C512137   3.696   1.996  15.905 -0.1536 -0.3063  0.1953
  825MPD2     H12138   3.815   1.874  15.568  0.6302  0.5717  0.0770
  825MPD2    H112139   3.830   2.155  15.884 -0.5914  0.6655 -0.9907
  825MPD2    H212140   3.570   1.827  15.921  0.2541  0.5489  0.1201
  825MPD2    H312141   3.649   2.038  15.993 -3.1178 -1.1006 -1.0196
  825MPD2     N12142   3.942   2.095  15.656 -0.4975  0.3524  0.2533
  825MPD2    H512143   4.001   2.145  15.722  1.1389 -0.1580 -0.8322
  825MPD2    N112144   3.607   1.729  15.681  0.3689  0.4880  0.0558
  825MPD2    H712145   3.541   1.680  15.742 -0.9848 -0.3090 -2.0636
  826MPD2     C12146   3.905   1.837  14.318 -0.0809  0.2228  0.7854
  826MPD2    C112147   3.855   1.847  14.188 -0.0738  0.6551  0.9270
  826MPD2    C212148   3.726   1.905  14.169  0.0762  0.7514  0.4664
  826MPD2    C312149   3.650   1.944  14.278 -0.5200  0.0638  0.0569
  826MPD2    C412150   3.707   1.940  14.410  0.2540  0.9710  0.0786
  826MPD2    C512151   3.835   1.886  14.424  0.5308 -0.2140 -0.1407
  826MPD2     H12152   3.677   1.900  14.072  0.2407 -0.0006  0.4231
  826MPD2    H112153   3.653   1.979  14.495 -1.1359  1.2279 -0.9192
  826MPD2    H212154   3.999   1.789  14.342 -0.3827 -0.1957  1.1176
  826MPD2    H312155   3.884   1.877  14.520  0.2314 -0.0468  0.0267
  826MPD2     N12156   3.510   1.982  14.269  0.2175  0.1064  0.2423
  826MPD2    H512157   3.459   2.017  14.350 -0.5574 -0.5301  0.0320
  826MPD2    N112158   3.930   1.794  14.082  0.3753  0.3957 -0.6684
  826MPD2    H712159   4.018   1.753  14.110 -1.2200 -2.9960 -0.5565
  827MPD2     C12160   4.548   2.323  10.275  0.2820  0.0916  0.6959
  827MPD2    C112161   4.497   2.280  10.405  0.7473  0.0792 -0.4027
  827MPD2    C212162   4.447   2.151  10.414  0.8172 -0.5873  0.1416
  827MPD2    C312163   4.442   2.062  10.303 -0.3661  0.3190  0.1990
  827MPD2    C412164   4.490   2.107  10.180 -0.2753  0.1533  0.0725
  827MPD2    C512165   4.547   2.230  10.174  0.1402  0.2772 -0.0066
  827MPD2     H12166   4.414   2.122  10.513 -1.7075 -4.1134 -1.7468
  827MPD2    H112167   4.493   2.044  10.092 -2.2377 -0.5079  0.4782
  827MPD2    H212168   4.591   2.421  10.260 -0.3397  0.5350  1.8073
  827MPD2    H312169   4.585   2.258  10.076  1.2082  0.0543  0.3538
  827MPD2     N12170   4.400   1.931  10.328  0.0181 -0.1145  0.1760
  827MPD2    H512171   4.352   1.912  10.415 -1.4025 -0.9555 -0.7705
  827MPD2    N112172   4.510   2.365  10.515  0.0696 -1.1378 -0.4632
  827MPD2    H712173   4.559   2.450  10.489  0.2559 -1.4611 -1.1624
  828MPD2     C12174   2.914   2.444  12.819  0.1497 -0.0877 -0.1444
  828MPD2    C112175   2.864   2.380  12.711 -0.0173 -0.5117  0.6963
  828MPD2    C212176   2.927   2.374  12.586  0.7436 -1.0580  0.3917
  828MPD2    C312177   3.060   2.425  12.579  1.0116 -0.1423 -0.4172
  828MPD2    C412178   3.109   2.498  12.687  0.2165 -0.1764  0.2291
  828MPD2    C512179   3.037   2.501  12.807  0.1020  0.1673 -0.3886
  828MPD2     H12180   2.877   2.328  12.501 -0.9400 -0.5238  1.1020
  828MPD2    H112181   3.202   2.552  12.674 -0.2994  0.9397  1.1349
  828MPD2    H212182   2.853   2.447  12.909  2.1558  4.0470  1.0749
  828MPD2    H312183   3.084   2.559  12.885  0.3778  0.6656 -0.9244
  828MPD2     N12184   3.138   2.443  12.457  0.5268 -0.4003 -0.3979
  828MPD2    H512185   3.220   2.503  12.456  0.8576 -0.8384  0.5618
  828MPD2    N112186   2.727   2.333  12.709 -0.7525 -0.3078 -0.3263
  828MPD2    H712187   2.707   2.295  12.618  0.4372  0.2083 -0.7990
  829MPD2     C12188   2.327   2.571  11.967  1.0724  0.0197 -0.8518
  829MPD2    C112189   2.231   2.569  12.065  1.2060  0.1944  0.5919
  829MPD2    C212190   2.256   2.511  12.194 -0.5977  0.4111  0.0989
  829MPD2    C312191   2.366   2.429  12.209  0.4164 -0.0734  0.0479
  829MPD2    C412192   2.452   2.416  12.100  0.0186 -0.2516 -0.5420
  829MPD2    C512193   2.427   2.480  11.980  0.3743 -0.0259  0.3125
  829MPD2     H12194   2.196   2.523  12.284  0.1487 -0.2670  0.6897
  829MPD2    H112195   2.550   2.372  12.103 -0.7555 -1.8661  0.8902
  829MPD2    H212196   2.320   2.624  11.873 -0.6341  0.6393 -0.3647
  829MPD2    H312197   2.486   2.464  11.891  0.3794  0.2143  0.2748
  829MPD2     N12198   2.408   2.378  12.333  0.2547 -0.5306  0.0836
  829MPD2    H512199   2.506   2.368  12.355 -0.4081 -3.6056  1.5657
  829MPD2    N112200   2.112   2.641  12.045  0.3796 -0.6067 -0.2666
  829MPD2    H712201   2.102   2.697  11.961  0.3060 -0.7138 -0.3297
  830MPD2     C12202   2.513   0.346  16.192  0.4024 -0.7294  0.4635
  830MPD2    C112203   2.455   0.448  16.124 -0.4727 -0.7006 -0.1357
  830MPD2    C212204   2.449   0.455  15.985  0.5751 -0.1429 -0.3675
  830MPD2    C312205   2.520   0.357  15.913  0.8938 -0.7750  0.4745
  830MPD2    C412206   2.578   0.259  15.989  0.1210  0.1099  1.5830
  830MPD2    C512207   2.576   0.247  16.127  0.1411  0.2832  0.5734
  830MPD2     H12208   2.401   0.526  15.919 -0.4541  1.9471  2.6372
  830MPD2    H112209   2.638   0.188  15.933  0.3850 -0.3370  2.4322
  830MPD2    H212210   2.521   0.341  16.300 -0.5941  2.2023  0.6636
  830MPD2    H312211   2.630   0.170  16.180  0.8031  1.4402  1.5785
  830MPD2     N12212   2.543   0.358  15.777 -0.3212  0.0132 -0.3921
  830MPD2    H512213   2.606   0.288  15.740 -2.4682 -0.6495 -2.8398
  830MPD2    N112214   2.401   0.547  16.200 -0.8553 -0.6270  0.0391
  830MPD2    H712215   2.399   0.514  16.296 -0.1379 -0.3368  0.1478
  831MPD2     C12216   2.463   2.643  16.675 -0.4170  0.3273  0.4798
  831MPD2    C112217   2.513   2.529  16.619 -0.2379 -0.0642 -0.1518
  831MPD2    C212218   2.476   2.405  16.662 -0.0439  0.1213  0.0917
  831MPD2    C312219   2.394   2.396  16.774 -0.2137 -0.4480  0.3026
  831MPD2    C412220   2.363   2.511  16.837 -0.7167 -0.2194 -0.0041
  831MPD2    C512221   2.398   2.635  16.791  0.5562 -0.1667  0.2259
  831MPD2     H12222   2.506   2.315  16.610 -0.3364  0.4517 -0.6498
  831MPD2    H112223   2.312   2.511  16.933  0.8445 -0.9933  0.8210
  831MPD2    H212224   2.488   2.745  16.647 -0.6597  0.3564  0.3696
  831MPD2    H312225   2.366   2.721  16.848  1.1837  0.7425 -0.7770
  831MPD2     N12226   2.345   2.278  16.838 -0.2746  0.2218  0.3882
  831MPD2    H512227   2.265   2.285  16.901 -0.5651  0.8123 -0.0474
  831MPD2    N112228   2.600   2.552  16.510  0.9206  0.4638  0.2217
  831MPD2    H712229   2.618   2.643  16.470 -1.7518  0.4332 -1.0516
  832MPD2     C12230   1.101   3.507  17.594 -0.4020  1.5741  0.1095
  832MPD2    C112231   1.064   3.634  17.566 -0.5134  0.3136  0.3566
  832MPD2    C212232   0.938   3.662  17.516 -0.1670  0.0760  0.1753
  832MPD2    C312233   0.852   3.559  17.481  1.5064  0.2973  0.0045
  832MPD2    C412234   0.890   3.431  17.510  0.0051  0.9035  0.7855
  832MPD2    C512235   1.014   3.402  17.566 -0.5670  0.7278 -0.5191
  832MPD2     H12236   0.916   3.764  17.486  1.5437  0.0503 -1.1530
  832MPD2    H112237   0.827   3.354  17.467  0.5351  0.8740  0.0477
  832MPD2    H212238   1.199   3.485  17.635 -0.6573 -0.9763 -0.6486
  832MPD2    H312239   1.039   3.299  17.588  1.5540  1.4152  0.2691
  832MPD2     N12240   0.726   3.578  17.413 -0.1909 -0.3964  0.4443
  832MPD2    H512241   0.673   3.493  17.394  0.7818 -0.1105 -3.4683
  832MPD2    N112242   1.150   3.738  17.611 -0.2288 -0.0956 -0.5322
  832MPD2    H712243   1.232   3.706  17.661  1.5575  4.1051 -0.7825
  833MPD2     C12244   3.503   0.884  12.303  0.1427 -0.3719 -0.2726
  833MPD2    C112245   3.442   0.860  12.185 -0.5507  0.6645 -0.7860
  833MPD2    C212246   3.532   0.818  12.085 -0.4524 -0.0265  0.7851
  833MPD2    C312247   3.659   0.781  12.104 -0.2479  0.4231  0.2619
  833MPD2    C412248   3.711   0.800  12.231 -0.2786  0.2029  0.0125
  833MPD2    C512249   3.631   0.854  12.332 -0.4746 -0.6001 -0.5690
  833MPD2     H12250   3.499   0.788  11.986 -2.8560  1.3895  1.1483
  833MPD2    H112251   3.813   0.768  12.250 -0.3098  0.1059  0.0170
  833MPD2    H212252   3.446   0.929  12.383 -0.3257  0.1690 -0.9186
  833MPD2    H312253   3.668   0.870  12.432 -4.0432  3.1720  0.1536
  833MPD2     N12254   3.737   0.725  11.999 -0.6984  0.2893  0.0403
  833MPD2    H512255   3.832   0.698  12.021 -0.3717  1.1990 -0.2550
  833MPD2    N112256   3.308   0.899  12.160  0.7469 -0.2492  0.2410
  833MPD2    H712257   3.259   0.925  12.245  0.5988  1.6347 -0.4430
  834MPD2     C12258   3.877   4.487  11.768  0.8145  0.3170 -0.5296
  834MPD2    C112259   3.849   4.538  11.644  0.1732  0.0270  1.0101
  834MPD2    C212260   3.826   4.679  11.647 -0.0092  0.2708 -0.3099
  834MPD2    C312261   3.826   0.028  11.757  0.2848  0.1587 -0.2979
  834MPD2    C412262   3.861   4.698  11.878 -0.5292  0.2661 -0.1325
  834MPD2    C512263   3.890   4.567  11.878  0.4514 -0.2846  0.1398
  834MPD2     H12264   3.786   0.006  11.561  1.3162 -0.0193 -1.1080
  834MPD2    H112265   3.869   0.032  11.968 -0.7160 -1.1918  0.8611
  834MPD2    H212266   3.902   4.384  11.793 -1.4597 -0.3635 -1.0769
  834MPD2    H312267   3.919   4.518  11.971  2.5177  1.5809  0.4802
  834MPD2     N12268   3.804   0.163  11.738  0.2800  0.0532 -0.0324
  834MPD2    H512269   3.760   0.190  11.651  1.7611 -0.9742 -1.0837
  834MPD2    N112270   3.838   4.453  11.536  0.2335  0.5772  0.4931
  834MPD2    H712271   3.860   4.355  11.551  3.3886  0.8684 -2.1898
  835MPD2     C12272   3.454   2.177  10.895 -0.0622 -0.4006  0.5082
  835MPD2    C112273   3.396   2.301  10.911  0.7822 -0.2129  0.4001
  835MPD2    C212274   3.375   2.348  11.040  1.2488  0.3825 -0.9924
  835MPD2    C312275   3.409   2.272  11.151 -0.2724 -0.3390  0.1387
  835MPD2    C412276   3.471   2.151  11.131 -0.5719  0.1291  0.0137
  835MPD2    C512277   3.488   2.101  11.004  0.3892 -0.4300 -0.7746
  835MPD2     H12278   3.358   2.453  11.062  1.0727  0.5284 -1.8185
  835MPD2    H112279   3.505   2.090  11.213 -1.8585 -2.1838 -1.1732
  835MPD2    H212280   3.492   2.143  10.800 -0.4372  0.9627 -0.1250
  835MPD2    H312281   3.537   2.009  10.976 -0.5724 -0.5089 -2.2341
  835MPD2     N12282   3.370   2.312  11.286 -0.0521  0.1373 -0.2187
  835MPD2    H512283   3.418   2.262  11.360  0.7713 -0.0910 -0.9129
  835MPD2    N112284   3.359   2.371  10.794 -0.2956  0.0784  0.3944
  835MPD2    H712285   3.403   2.342  10.707 -0.6039 -0.3904  0.3965
  836MPD2     C12286   2.744   2.746  11.521 -0.1773 -0.8582 -0.0211
  836MPD2    C112287   2.818   2.693  11.622 -0.5849 -0.7540  0.0543
  836MPD2    C212288   2.767   2.702  11.758  0.2090  0.1349  0.5215
  836MPD2    C312289   2.648   2.761  11.781  0.7750  0.2767 -0.1856
  836MPD2    C412290   2.579   2.811  11.678  0.1659  0.3336  0.1617
  836MPD2    C512291   2.624   2.804  11.551  0.1648 -0.2278 -0.4523
  836MPD2     H12292   2.822   2.663  11.843 -1.6599 -0.7593  1.3244
  836MPD2    H112293   2.481   2.854  11.695  0.4023  0.9990 -0.1722
  836MPD2    H212294   2.783   2.724  11.422  0.2591  0.1703 -0.0776
  836MPD2    H312295   2.560   2.848  11.475 -2.8239 -0.8820  1.6821
  836MPD2     N12296   2.589   2.783  11.914 -0.0049  0.5150 -0.0299
  836MPD2    H512297   2.510   2.846  11.921  0.1515  0.8188 -0.9750
  836MPD2    N112298   2.951   2.648  11.598  0.6707 -0.1008 -0.2407
  836MPD2    H712299   2.988   2.637  11.504  2.8198 -1.4430  0.7536
  837MPD2     C12300   2.098   2.621  10.416  0.9628  0.2914  0.5013
  837MPD2    C112301   2.053   2.611  10.284 -0.1530  0.2669 -0.0985
  837MPD2    C212302   2.035   2.724  10.207 -0.3105  0.2983  0.3042
  837MPD2    C312303   2.034   2.848  10.266  0.1109  0.4685  0.7435
  837MPD2    C412304   2.081   2.862  10.393 -0.8674  0.2319  0.3073
  837MPD2    C512305   2.115   2.747  10.465  0.8555  0.0384 -0.1522
  837MPD2     H12306   1.997   2.701  10.108  1.8962  0.3379 -0.5298
  837MPD2    H112307   2.079   2.959  10.442  1.8151 -1.2067  3.2652
  837MPD2    H212308   2.113   2.528  10.470 -1.9246  0.9755  2.4767
  837MPD2    H312309   2.145   2.753  10.569  2.4018 -3.4127 -0.4142
  837MPD2     N12310   1.965   2.944  10.199  0.8476  0.5024 -0.1532
  837MPD2    H512311   1.925   2.923  10.108  1.6035 -2.4826  0.1892
  837MPD2    N112312   2.028   2.484  10.217  0.2131 -0.2423 -0.0229
  837MPD2    H712313   1.997   2.494  10.120  2.3505 -0.1464 -0.6969
  838MPD2     C12314   0.876   0.985  12.084  0.0048 -0.5560 -0.4590
  838MPD2    C112315   0.758   0.923  12.046 -0.2492  0.1043  0.2250
  838MPD2    C212316   0.647   0.950  12.122 -0.0963 -0.9031  0.7018
  838MPD2    C312317   0.647   1.025  12.244 -0.6794  0.5382  0.3167
  838MPD2    C412318   0.772   1.087  12.275  0.5483  0.0428  1.0694
  838MPD2    C512319   0.881   1.067  12.192  0.0642 -0.5699 -0.8417
  838MPD2     H12320   0.559   0.899  12.086 -2.9651  3.7288  1.1838
  838MPD2    H112321   0.786   1.149  12.363 -3.0923  1.5184  0.6190
  838MPD2    H212322   0.971   0.968  12.033 -0.6261 -0.0947 -1.7838
  838MPD2    H312323   0.974   1.113  12.223  1.3869 -2.7472 -1.5587
  838MPD2     N12324   0.530   1.025  12.325 -0.7489  0.8350 -0.1690
  838MPD2    H512325   0.526   1.095  12.399  2.2346  0.2199  0.5874
  838MPD2    N112326   0.729   0.841  11.935 -0.8191  0.3250 -0.0718
  838MPD2    H712327   0.648   0.782  11.949 -1.9710  1.7725 -0.6653
  839MPD2     C12328   4.724   0.525  11.862 -0.0586 -0.6318  0.1139
  839MPD2    C112329   0.043   0.442  11.757 -0.5843  0.3420 -0.5984
  839MPD2    C212330   0.174   0.475  11.701 -0.0413 -0.1736 -0.0713
  839MPD2    C312331   0.253   0.570  11.772 -0.1851  0.1452  0.8676
  839MPD2    C412332   0.211   0.638  11.884  0.5322  0.7010  0.1527
  839MPD2    C512333   0.085   0.608  11.926 -0.2483 -0.4341  0.2077
  839MPD2     H12334   0.208   0.428  11.610  2.0036 -2.1293  1.7021
  839MPD2    H112335   0.268   0.711  11.941  1.4969  1.1839 -1.4181
  839MPD2    H212336   4.620   0.520  11.895  0.5983 -0.1923  2.2604
  839MPD2    H312337   0.053   0.659  12.016  1.8815  1.4295 -0.0684
  839MPD2     N12338   0.376   0.620  11.729  0.0152 -0.1996  0.1188
  839MPD2    H512339   0.423   0.686  11.791  1.1988 -1.7976  0.9241
  839MPD2    N112340   4.683   0.348  11.688 -0.2761 -0.1664 -0.0972
  839MPD2    H712341   4.726   0.292  11.614 -0.6925  0.5472 -0.8809
  840MPD2     C12342   0.306   2.659  10.535  0.0061 -0.8251 -0.5503
  840MPD2    C112343   0.268   2.678  10.666  0.1879 -0.0199 -0.4710
  840MPD2    C212344   0.332   2.776  10.744 -0.5480 -0.1549 -0.1491
  840MPD2    C312345   0.438   2.849  10.687  0.6606  0.7584 -0.1083
  840MPD2    C412346   0.484   2.821  10.563 -0.4451 -0.3610 -0.3570
  840MPD2    C512347   0.422   2.718  10.488  0.1293 -0.3356 -0.0004
  840MPD2     H12348   0.304   2.791  10.848  3.3372  0.6323  0.8186
  840MPD2    H112349   0.564   2.874  10.512 -1.1515  0.7795 -0.2598
  840MPD2    H212350   0.258   2.581  10.478 -0.9128 -0.5450 -0.1578
  840MPD2    H312351   0.468   2.684  10.395  0.2359  1.4010 -0.5920
  840MPD2     N12352   0.507   2.946  10.757 -0.2526 -0.6855  0.1322
  840MPD2    H512353   0.582   2.987  10.703 -0.8053 -0.4187 -0.4337
  840MPD2    N112354   0.154   2.604  10.710  0.3815 -0.2330 -0.2388
  840MPD2    H712355   0.113   2.541  10.642  0.5114 -0.2082 -0.3402
  841MPD2     C12356   0.181   2.835  14.468  0.5991 -0.1182  0.0513
  841MPD2    C112357   0.207   2.776  14.589 -0.0896  0.2005  0.9254
  841MPD2    C212358   0.282   2.846  14.686  0.1310  0.3929  0.4943
  841MPD2    C312359   0.339   2.973  14.664 -0.0150 -0.4790  0.0809
  841MPD2    C412360   0.321   3.027  14.534  0.3733  0.3711  0.7136
  841MPD2    C512361   0.246   2.953  14.441 -0.2859 -0.2107 -0.1475
  841MPD2     H12362   0.278   2.802  14.784 -1.2247 -0.8781 -0.1421
  841MPD2    H112363   0.336   3.131  14.508 -1.2499 -0.5364 -3.8636
  841MPD2    H212364   0.122   2.778  14.397 -1.0515  1.6222  0.0235
  841MPD2    H312365   0.236   2.996  14.341 -1.7246  1.6452  0.7929
  841MPD2     N12366   0.390   3.041  14.774  0.0642 -0.3654  0.0108
  841MPD2    H512367   0.371   2.999  14.864 -2.2132  0.8234  0.0922
  841MPD2    N112368   0.138   2.653  14.619 -0.3148 -0.4522 -0.0186
  841MPD2    H712369   0.083   2.611  14.545 -1.0572  1.1983 -0.4006
  842MPD2     C12370   4.111   3.579  16.612 -0.0045 -0.0959 -0.2777
  842MPD2    C112371   4.053   3.619  16.728  0.2493  0.1464  0.1680
  842MPD2    C212372   4.112   3.586  16.852 -0.6060  0.5214 -0.1608
  842MPD2    C312373   4.238   3.533  16.854 -0.7380  0.1874 -0.9369
  842MPD2    C412374   4.294   3.497  16.734 -0.0652  0.2314 -0.4995
  842MPD2    C512375   4.228   3.503  16.616  0.9178 -0.4178 -0.1481
  842MPD2     H12376   4.074   3.617  16.949 -0.8285  0.0300 -0.0913
  842MPD2    H112377   4.394   3.454  16.739 -0.5755 -0.7706  1.2201
  842MPD2    H212378   4.068   3.614  16.519 -0.5551 -1.4736 -0.5418
  842MPD2    H312379   4.282   3.464  16.530 -0.3069  0.5168 -1.3471
  842MPD2     N12380   4.315   3.520  16.968 -0.0965 -0.2080  0.3913
  842MPD2    H512381   4.416   3.508  16.968 -0.0986 -0.2313  0.7023
  842MPD2    N112382   3.949   3.711  16.729  0.2120  0.5977  0.5256
  842MPD2    H712383   3.933   3.762  16.643  1.5081  0.5749  0.2783
  843MPD2     C12384   2.588   3.125   0.390 -0.3156 -0.0822 -0.4004
  843MPD2    C112385   2.612   3.185   0.512  0.1661 -0.2285  0.1445
  843MPD2    C212386   2.701   3.294   0.515 -0.6948 -0.1839  0.1528
  843MPD2    C312387   2.756   3.349   0.405  0.3738 -1.0024  0.2841
  843MPD2    C412388   2.732   3.292   0.283 -0.6311 -0.4082 -0.0834
  843MPD2    C512389   2.650   3.177   0.272 -0.1929  0.0537  0.2731
  843MPD2     H12390   2.712   3.331   0.616  0.9605  1.0393 -0.4876
  843MPD2    H112391   2.772   3.334   0.191  0.3702 -0.1926  0.4474
  843MPD2    H212392   2.511   3.051   0.372 -1.5350  0.8852  0.8006
  843MPD2    H312393   2.626   3.132   0.176  0.8738  1.8406 -0.8345
  843MPD2     N12394   2.825   3.480   0.412  0.0488 -0.0309 -0.8161
  843MPD2    H512395   2.838   3.529   0.324 -1.1389  0.7437 -0.5576
  843MPD2    N112396   2.557   3.146   0.634 -0.7302 -0.3231 -0.4729
  843MPD2    H712397   2.591   3.188   0.720 -0.9113  1.1371 -1.1231
  844MPD2     C12398   0.411   3.685  16.719 -0.5340 -0.5155 -0.4296
  844MPD2    C112399   0.490   3.580  16.754 -0.4604  0.0968 -0.3274
  844MPD2    C212400   0.601   3.604  16.829  0.1717 -0.3484 -0.0751
  844MPD2    C312401   0.624   3.736  16.883 -0.0308 -0.2462 -0.0439
  844MPD2    C412402   0.541   3.835  16.844 -0.0726 -0.0527 -0.1148
  844MPD2    C512403   0.437   3.815  16.757 -0.0269  0.9043 -0.2658
  844MPD2     H12404   0.671   3.526  16.857 -0.0290 -0.3977  0.2974
  844MPD2    H112405   0.559   3.938  16.874  1.3393 -0.2309 -0.3808
  844MPD2    H212406   0.325   3.672  16.654 -0.5163 -0.4506 -0.4661
  844MPD2    H312407   0.366   3.894  16.735 -0.7689  0.4447  0.4362
  844MPD2     N12408   0.735   3.756  16.973  0.2120 -0.0376  0.3815
  844MPD2    H512409   0.792   3.675  16.997 -0.2166 -0.2148  0.7986
  844MPD2    N112410   0.481   3.448  16.704  0.1592 -0.2132 -0.2717
  844MPD2    H712411   0.540   3.382  16.755  2.6772  2.0650 -0.2037
  845MPD2     C12412   1.198   4.593  17.000 -0.4082  0.2792 -0.8049
  845MPD2    C112413   1.120   4.523  16.914 -0.3341 -0.2427  0.0549
  845MPD2    C212414   1.112   4.391  16.932  0.2987  0.0673 -0.0451
  845MPD2    C312415   1.152   4.333  17.048 -0.4005  0.0105  0.3637
  845MPD2    C412416   1.207   4.405  17.148  0.3922  0.0568  0.3500
  845MPD2    C512417   1.237   4.535  17.120  0.4423 -0.1441  0.0460
  845MPD2     H12418   1.060   4.334  16.856  1.8914  0.5083 -1.4725
  845MPD2    H112419   1.233   4.356  17.241  2.4668 -2.3736 -1.5152
  845MPD2    H212420   1.234   4.694  16.983  2.7321 -0.8506 -0.9333
  845MPD2    H312421   1.301   4.600  17.178 -1.8260  0.3284  2.0064
  845MPD2     N12422   1.122   4.190  17.059 -0.4072 -0.8132 -0.3873
  845MPD2    H512423   1.071   4.142  16.985  0.7599 -0.6629 -1.2921
  845MPD2    N112424   1.070   4.592  16.801 -0.1428 -0.3482  0.1875
  845MPD2    H712425   1.106   4.681  16.769 -1.9039  1.2664  2.6654
  846MPD2     C12426   2.782   0.036  13.773 -0.1623  0.0830  0.1998
  846MPD2    C112427   2.655   0.081  13.801  0.1866  0.5138 -0.7308
  846MPD2    C212428   2.601   0.043  13.924 -0.1103 -0.7017  0.0737
  846MPD2    C312429   2.673   4.700  14.025 -0.3866  0.1048 -0.0165
  846MPD2    C412430   2.799   4.655  13.990  1.1311  0.3714 -0.1476
  846MPD2    C512431   2.846   4.677  13.864 -0.2229  0.1853  0.3418
  846MPD2     H12432   2.499   0.074  13.947 -0.0205  0.5731 -1.2963
  846MPD2    H112433   2.873   4.604  14.051  1.7759  0.9922 -0.4093
  846MPD2    H212434   2.838   0.061  13.684 -1.2829 -2.5277 -1.2314
  846MPD2    H312435   2.947   4.641  13.853 -1.1630 -2.4879  0.4344
  846MPD2     N12436   2.612   4.669  14.150 -0.0513 -0.0134  0.0984
  846MPD2    H512437   2.514   4.694  14.155 -0.7907 -2.8777 -0.2770
  846MPD2    N112438   2.575   0.156  13.705  0.2121  0.1332 -0.1188
  846MPD2    H712439   2.479   0.179  13.730  0.0928  0.3851 -0.8287
  847MPD2     C12440   2.779   0.796  14.239  0.1451 -0.2367 -0.9466
  847MPD2    C112441   2.842   0.836  14.354 -0.1741  0.3270  0.0374
  847MPD2    C212442   2.887   0.738  14.448  0.0029 -0.1400  0.2208
  847MPD2    C312443   2.863   0.602  14.429 -0.3349 -0.6942 -0.2445
  847MPD2    C412444   2.802   0.564  14.313  0.4739 -0.8328  0.0876
  847MPD2    C512445   2.770   0.661  14.214 -0.6552 -0.2685  0.2077
  847MPD2     H12446   2.925   0.768  14.545 -0.3194 -0.3819  0.4207
  847MPD2    H112447   2.767   0.461  14.304  0.4139 -0.7667 -0.4301
  847MPD2    H212448   2.735   0.866  14.168  0.6706  0.7600 -0.2962
  847MPD2    H312449   2.719   0.625  14.125  0.4175  1.1331 -0.9834
  847MPD2     N12450   2.903   0.521  14.532  0.3045 -0.3680  0.3656
  847MPD2    H512451   2.941   0.573  14.611 -0.3644  1.9559 -0.8652
  847MPD2    N112452   2.866   0.971  14.396  0.2450  0.7995  0.2182
  847MPD2    H712453   2.913   0.987  14.484  1.5448  2.4163 -0.7698
  848MPD2     C12454   0.260   4.163  16.975  0.5861 -0.7484 -0.0898
  848MPD2    C112455   0.222   4.031  16.959  0.0149  0.2860 -0.2428
  848MPD2    C212456   0.143   4.002  16.848  0.1081 -0.3470 -1.4315
  848MPD2    C312457   0.095   4.098  16.762 -0.0044  0.7409  0.3343
  848MPD2    C412458   0.132   4.229  16.788  0.4000  0.1773  0.0153
  848MPD2    C512459   0.208   4.261  16.895 -0.7022  0.4770 -0.6981
  848MPD2     H12460   0.124   3.896  16.830 -1.1426 -0.6346  1.5693
  848MPD2    H112461   0.120   4.313  16.721 -4.1447 -1.2260 -0.9169
  848MPD2    H212462   0.327   4.205  17.050  0.5762  0.2306 -0.6344
  848MPD2    H312463   0.242   4.362  16.914  1.5467 -0.7168  1.7051
  848MPD2     N12464   0.025   4.064  16.642  0.6163 -0.5379  0.1353
  848MPD2    H512465   4.715   4.140  16.586 -2.7739 -1.8529  0.5046
  848MPD2    N112466   0.262   3.921  17.041 -0.0155 -0.0210  0.3042
  848MPD2    H712467   0.221   3.830  17.022 -1.5298  0.5246  0.9566
  849MPD2     C12468   0.638   4.064  13.777 -0.6179  0.6500  0.0072
  849MPD2    C112469   0.633   3.925  13.777  0.6569  0.2676 -0.3740
  849MPD2    C212470   0.522   3.871  13.834  0.8392  0.3421 -0.3417
  849MPD2    C312471   0.415   3.939  13.888 -0.1421 -0.1860 -0.1272
  849MPD2    C412472   0.422   4.077  13.874  0.1834 -0.5432 -0.0669
  849MPD2    C512473   0.531   4.138  13.823  1.0384 -0.0897  0.3047
  849MPD2     H12474   0.528   3.764  13.850  1.0946  0.8058  2.8393
  849MPD2    H112475   0.344   4.140  13.916 -0.5133 -1.2673 -0.2712
  849MPD2    H212476   0.722   4.113  13.731  1.9313 -0.3062  3.6004
  849MPD2    H312477   0.533   4.246  13.821 -0.7519 -0.0477  0.4078
  849MPD2     N12478   0.339   3.860  13.972  0.4959  0.8547  0.2560
  849MPD2    H512479   0.369   3.763  13.973  1.1071  1.0244 -1.5167
  849MPD2    N112480   0.742   3.851  13.732  0.3291  0.2305 -0.0713
  849MPD2    H712481   0.737   3.756  13.767  1.9678  0.6884  1.4260
  850MPD2     C12482   3.211   1.460  15.264  0.1584  0.1406 -0.2412
  850MPD2    C112483   3.151   1.541  15.352  0.3774  0.1769 -0.2990
  850MPD2    C212484   3.203   1.671  15.368 -0.2955  0.0244  0.3570
  850MPD2    C312485   3.314   1.706  15.302 -0.2368  0.0853 -1.1866
  850MPD2    C412486   3.376   1.619  15.216 -0.2715 -0.2360  0.3599
  850MPD2    C512487   3.317   1.495  15.193  0.2074  0.2386  0.6536
  850MPD2     H12488   3.151   1.747  15.425 -0.1196  0.1759  0.3151
  850MPD2    H112489   3.465   1.638  15.157  0.1857  1.6327  1.6394
  850MPD2    H212490   3.171   1.360  15.247  1.4959 -0.5022  0.3377
  850MPD2    H312491   3.362   1.428  15.121 -0.0025 -0.1391  0.8751
  850MPD2     N12492   3.376   1.829  15.317 -0.0270  0.3721 -0.1690
  850MPD2    H512493   3.450   1.847  15.250  0.4209 -0.2170  0.1665
  850MPD2    N112494   3.036   1.493  15.421  0.4238 -0.1750 -0.0981
  850MPD2    H712495   2.987   1.412  15.385 -1.5549 -0.1295  2.5402
  851MPD2     C12496   3.143   0.942  15.619 -0.5592  0.3060 -0.0670
  851MPD2    C112497   3.010   0.969  15.640 -0.4145  0.5903 -0.0447
  851MPD2    C212498   2.921   0.866  15.616 -0.6360  0.2561  0.3011
  851MPD2    C312499   2.959   0.747  15.552 -1.0235 -0.0171 -0.0372
  851MPD2    C412500   3.093   0.743  15.504 -0.5429  0.0774 -0.4195
  851MPD2    C512501   3.186   0.833  15.543 -0.2358  0.2043 -0.2349
  851MPD2     H12502   2.818   0.873  15.649 -0.7181 -1.5186  0.3954
  851MPD2    H112503   3.129   0.658  15.448 -0.3574  1.3487 -2.2308
  851MPD2    H212504   3.219   1.017  15.639  1.0821 -1.6964  1.1578
  851MPD2    H312505   3.287   0.822  15.505 -0.4674 -1.9490 -0.2015
  851MPD2     N12506   2.871   0.634  15.540 -0.2575  0.0687  0.7509
  851MPD2    H512507   2.779   0.638  15.583 -0.6516 -0.6684 -0.0167
  851MPD2    N112508   2.975   1.097  15.684  0.4592  0.2710  0.0084
  851MPD2    H712509   3.053   1.162  15.678  0.0019  0.4355 -4.7962
  852MPD2     C12510   2.750   4.528   9.924  0.8096  0.5770  0.2628
  852MPD2    C112511   2.674   4.428   9.981  0.3227  0.6582  0.4906
  852MPD2    C212512   2.745   4.325  10.043  0.1483 -0.1612  0.7022
  852MPD2    C312513   2.884   4.320  10.049 -0.2628 -0.0060  0.2492
  852MPD2    C412514   2.952   4.421   9.986 -0.0456  0.4501  0.0022
  852MPD2    C512515   2.886   4.519   9.921  0.0233  0.6383 -0.2886
  852MPD2     H12516   2.691   4.245  10.093  0.4543 -0.8080 -0.0056
  852MPD2    H112517   3.059   4.434  10.002  0.1051  0.8582 -1.3588
  852MPD2    H212518   2.703   4.616   9.883  0.5359  0.6621  0.7553
  852MPD2    H312519   2.942   4.598   9.873 -2.9347  2.9769  0.0503
  852MPD2     N12520   2.949   4.205  10.115  0.2105 -0.4973  0.0770
  852MPD2    H512521   2.887   4.129  10.144  2.2722 -1.7983  1.0491
  852MPD2    N112522   2.533   4.431   9.993  0.0678 -0.0368  0.1334
  852MPD2    H712523   2.506   4.342  10.035 -0.3398 -0.6017 -1.3411
  853MPD2     C12524   4.415   4.050  12.759  0.4030 -0.2008 -0.3599
  853MPD2    C112525   4.400   4.176  12.717 -0.8300  0.3348 -0.3227
  853MPD2    C212526   4.429   4.201  12.584 -0.6146 -0.4371 -0.0504
  853MPD2    C312527   4.470   4.099  12.498  0.4987  0.0561 -0.1157
  853MPD2    C412528   4.500   3.977  12.551  0.4397  0.4693 -0.1512
  853MPD2    C512529   4.465   3.953  12.678  0.1926  0.4131 -0.4667
  853MPD2     H12530   4.416   4.299  12.540 -1.9919  0.5572  2.5130
  853MPD2    H112531   4.553   3.903  12.493 -2.1357 -0.2405 -1.6056
  853MPD2    H212532   4.391   4.030  12.863 -0.6191 -0.0035 -0.5575
  853MPD2    H312533   4.478   3.854  12.720 -1.5748 -0.2737 -1.5338
  853MPD2     N12534   4.496   4.115  12.360 -0.2513  0.6316 -0.1609
  853MPD2    H512535   4.532   4.031  12.316 -1.4458  1.1426 -2.0955
  853MPD2    N112536   4.376   4.272  12.816  0.6507 -0.3630  0.0095
  853MPD2    H712537   4.371   4.236  12.911  0.9525 -1.7403 -0.5015
  854MPD2     C12538   1.408   4.518  12.623 -0.5148  0.3472 -0.4899
  854MPD2    C112539   1.459   4.458  12.513 -0.0678  0.8060 -0.5259
  854MPD2    C212540   1.472   4.318  12.515 -0.1044  0.0712  0.1462
  854MPD2    C312541   1.447   4.251  12.637 -0.1511 -0.7483  0.1742
  854MPD2    C412542   1.394   4.320  12.740 -0.2378 -0.6500 -0.1531
  854MPD2    C512543   1.375   4.455  12.735 -0.4212 -0.3351 -0.4400
  854MPD2     H12544   1.518   4.260  12.436  3.1202  0.6304  1.6134
  854MPD2    H112545   1.381   4.271  12.836  2.2202 -0.4043  0.3090
  854MPD2    H212546   1.394   4.625  12.625 -0.7063  0.2931  0.6761
  854MPD2    H312547   1.347   4.513  12.822  2.7446 -2.0359  1.6874
  854MPD2     N12548   1.476   4.114  12.655 -0.4797  0.1461 -0.0179
  854MPD2    H512549   1.452   4.072  12.744  2.0132  0.6257  0.8693
  854MPD2    N112550   1.494   4.530  12.400  0.1816  0.0215  0.0654
  854MPD2    H712551   1.480   4.631  12.403  0.9212  0.0142  3.3425
  855MPD2     C12552   1.949   4.090  13.353 -0.0160 -0.2358  0.0906
  855MPD2    C112553   1.903   3.963  13.353  0.7835 -0.2651  0.1560
  855MPD2    C212554   1.834   3.909  13.243  0.1194 -0.7862 -0.3751
  855MPD2    C312555   1.832   3.989  13.123 -0.7002 -1.3219  0.4272
  855MPD2    C412556   1.888   4.117  13.126 -0.2311  0.0084 -0.5807
  855MPD2    C512557   1.951   4.164  13.240 -0.6272 -0.0623 -0.2114
  855MPD2     H12558   1.807   3.804  13.245  0.3931 -0.7691  4.3143
  855MPD2    H112559   1.865   4.190  13.049 -0.4278  0.2976 -0.2498
  855MPD2    H212560   1.991   4.141  13.439 -0.9340  1.6984 -0.5978
  855MPD2    H312561   1.992   4.264  13.233 -0.6878  0.0273  0.6630
  855MPD2     N12562   1.779   3.947  12.997 -0.7130 -0.0546  0.0236
  855MPD2    H512563   1.766   4.018  12.925  0.8260 -1.5344 -1.6994
  855MPD2    N112564   1.893   3.888  13.475 -0.7023  0.2910  0.3281
  855MPD2    H712565   1.859   3.793  13.466 -1.8357  0.5550  1.9070
  856MPD2     C12566   3.613   0.237  14.038  0.1956  1.0939  0.0185
  856MPD2    C112567   3.687   0.349  14.059 -0.1901 -0.7438  0.3402
  856MPD2    C212568   3.614   0.470  14.061 -0.0982 -0.1174  0.4026
  856MPD2    C312569   3.479   0.478  14.040  0.2603 -0.5168  0.0389
  856MPD2    C412570   3.412   0.364  14.008  0.4639  0.2243  0.4357
  856MPD2    C512571   3.479   0.243  14.012  0.6206 -0.0534 -0.7071
  856MPD2     H12572   3.677   0.555  14.083  0.4405 -0.1558 -0.9864
  856MPD2    H112573   3.307   0.360  13.983  0.7628 -0.2164 -0.7427
  856MPD2    H212574   3.656   0.137  14.033  0.1435  1.0189  1.1725
  856MPD2    H312575   3.426   0.150  13.992 -0.8597  0.9538 -1.4666
  856MPD2     N12576   3.396   0.594  14.030  0.6871  0.1223  0.2230
  856MPD2    H512577   3.310   0.578  13.979  0.9375  0.1000 -0.1924
  856MPD2    N112578   3.828   0.361  14.064  0.5640 -0.0942  0.2186
  856MPD2    H712579   3.866   0.455  14.075  0.0869 -0.1900  2.6170
  857MPD2     C12580   0.584   2.573  12.870  0.3261  0.2238  0.3506
  857MPD2    C112581   0.715   2.539  12.880  0.3106  0.3552 -0.5588
  857MPD2    C212582   0.804   2.624  12.822 -0.7599  0.2683  0.0915
  857MPD2    C312583   0.761   2.734  12.747  0.9589  0.2683 -0.1184
  857MPD2    C412584   0.633   2.770  12.749  0.0675  0.8878  0.1436
  857MPD2    C512585   0.541   2.689  12.817  0.0333 -0.7733  0.1741
  857MPD2     H12586   0.909   2.602  12.833 -0.4263  2.2120  0.7217
  857MPD2    H112587   0.587   2.850  12.693  0.3383  2.1759  1.7402
  857MPD2    H212588   0.504   2.508  12.901 -0.1491  0.0880 -1.1339
  857MPD2    H312589   0.435   2.704  12.805 -0.1701 -2.5187 -0.0840
  857MPD2     N12590   0.855   2.810  12.679 -0.0217  0.6153 -0.0722
  857MPD2    H512591   0.953   2.789  12.695  0.0869  1.9289  0.9970
  857MPD2    N112592   0.744   2.411  12.938  0.5541 -0.3578  0.6958
  857MPD2    H712593   0.667   2.359  12.980  0.8013 -1.0118  0.3320
  858MPD2     C12594   1.389   1.098  16.991 -0.2839 -0.9067  0.0936
  858MPD2    C112595   1.304   1.194  16.945  0.0489 -0.1033  0.0707
  858MPD2    C212596   1.254   1.299  17.027 -0.1875  0.4123 -0.6212
  858MPD2    C312597   1.283   1.290  17.160  0.2001 -0.5785 -0.0596
  858MPD2    C412598   1.376   1.195  17.206  0.0533 -0.0150  0.0336
  858MPD2    C512599   1.423   1.102  17.123 -0.0768  0.5274  0.5572
  858MPD2     H12600   1.183   1.371  16.989  2.0872  2.1559 -1.5901
  858MPD2    H112601   1.400   1.189  17.312 -0.4455  1.1077  0.2100
  858MPD2    H212602   1.422   1.019  16.924 -0.8126  1.0241 -2.4150
  858MPD2    H312603   1.488   1.025  17.163  2.5171  1.4427 -1.9097
  858MPD2     N12604   1.237   1.373  17.268  0.1148  0.0448 -0.4209
  858MPD2    H512605   1.279   1.353  17.359 -2.4089  1.5263  1.0666
  858MPD2    N112606   1.263   1.179  16.809 -0.6783  0.4184 -0.2318
  858MPD2    H712607   1.284   1.098  16.752 -5.1863 -0.6801 -0.3181
  859MPD2     C12608   4.257   3.730  15.738 -0.2203  0.4187  0.2158
  859MPD2    C112609   4.371   3.684  15.683  0.2839  1.1248  0.1224
  859MPD2    C212610   4.392   3.546  15.688 -0.0528  0.1248  0.1102
  859MPD2    C312611   4.318   3.468  15.770 -0.7108  0.3786 -0.4757
  859MPD2    C412612   4.205   3.516  15.838 -0.1843  0.5736 -0.0766
  859MPD2    C512613   4.172   3.650  15.805  0.1038  0.4132  0.3505
  859MPD2     H12614   4.473   3.499  15.634  1.4289 -0.4116  2.7998
  859MPD2    H112615   4.146   3.458  15.907 -0.6113  1.5419  0.3697
  859MPD2    H212616   4.225   3.833  15.724  0.1907  0.2526 -1.9464
  859MPD2    H312617   4.083   3.697  15.846  1.4300  1.5481  1.9247
  859MPD2     N12618   4.349   3.333  15.786 -0.4071  0.1910  0.6322
  859MPD2    H512619   4.296   3.281  15.855  0.1481  1.0469  1.6881
  859MPD2    N112620   4.459   3.770  15.612 -0.2507  0.4672  0.5043
  859MPD2    H712621   4.442   3.870  15.613 -0.1728  0.4943 -1.7888
  860MPD2     C12622   3.030   3.821  11.643  0.0568 -0.1018  0.2686
  860MPD2    C112623   2.984   3.908  11.735  0.7509  0.7595 -0.3464
  860MPD2    C212624   2.848   3.918  11.746  0.0612  0.1846 -0.1856
  860MPD2    C312625   2.756   3.842  11.680  0.3635  0.1900 -0.4593
  860MPD2    C412626   2.803   3.767  11.569  0.1445  0.4121  0.3447
  860MPD2    C512627   2.937   3.748  11.557 -0.2768  0.3117  0.1548
  860MPD2     H12628   2.806   3.992  11.813  2.5099 -1.1281  2.8590
  860MPD2    H112629   2.737   3.705  11.509 -1.4290  1.0291  1.4436
  860MPD2    H212630   3.136   3.804  11.631 -0.1691 -0.1000 -1.6857
  860MPD2    H312631   2.973   3.679  11.482  0.3893  0.4763  0.3305
  860MPD2     N12632   2.622   3.876  11.698  0.5137  0.9935  0.2116
  860MPD2    H512633   2.611   3.950  11.767 -0.8384  0.4036  0.6215
  860MPD2    N112634   3.070   3.979  11.821  0.7900  0.4770  0.0797
  860MPD2    H712635   3.026   4.045  11.884  0.7461  2.2942 -1.8546
  861MPD2     C12636   1.506   2.211  11.340  0.3733  0.3179  0.5682
  861MPD2    C112637   1.387   2.226  11.412 -0.1037  0.8298  0.0474
  861MPD2    C212638   1.279   2.275  11.345 -0.6142  0.6084 -0.0513
  861MPD2    C312639   1.282   2.300  11.210  0.6655 -0.4143 -0.2634
  861MPD2    C412640   1.396   2.278  11.140 -0.2708  0.4281  0.2035
  861MPD2    C512641   1.507   2.234  11.206  0.7454 -0.4303  0.1522
  861MPD2     H12642   1.183   2.285  11.394 -1.1466  1.7823 -1.3050
  861MPD2    H112643   1.409   2.294  11.034 -0.0259  0.5438  0.2514
  861MPD2    H212644   1.607   2.199  11.377  0.3603 -1.6292  0.0007
  861MPD2    H312645   1.599   2.220  11.151  1.2713  1.7102  0.4580
  861MPD2     N12646   1.175   2.352  11.135 -0.1632  0.3587 -0.8447
  861MPD2    H512647   1.189   2.372  11.037 -1.1989 -1.6646 -1.4118
  861MPD2    N112648   1.378   2.203  11.555 -0.0565 -0.0240 -1.0174
  861MPD2    H712649   1.286   2.195  11.599 -0.2141  1.6172 -1.0406
  862MPD2     C12650   0.944   2.321  10.480  0.3126 -0.2942 -0.5188
  862MPD2    C112651   1.026   2.302  10.596 -0.5840 -0.1763  0.4314
  862MPD2    C212652   1.088   2.185  10.603  0.6731  0.4979  0.9247
  862MPD2    C312653   1.066   2.078  10.515 -0.2933  0.5406 -0.0020
  862MPD2    C412654   0.975   2.096  10.410 -0.3631 -0.5449  0.3621
  862MPD2    C512655   0.920   2.219  10.390 -0.7075 -0.0859 -0.5557
  862MPD2     H12656   1.150   2.167  10.691  2.2500 -0.9060 -0.4642
  862MPD2    H112657   0.963   2.021  10.332  0.3966 -0.2208 -0.0749
  862MPD2    H212658   0.892   2.415  10.463  0.9477  0.6458  2.7687
  862MPD2    H312659   0.843   2.233  10.314 -0.5714  0.8637 -0.5171
  862MPD2     N12660   1.112   1.949  10.541 -0.3352 -0.3836  0.0071
  862MPD2    H512661   1.053   1.869  10.517 -1.4104 -0.1330  1.8773
  862MPD2    N112662   1.033   2.388  10.701 -0.0167 -0.3194  0.5998
  862MPD2    H712663   1.097   2.354  10.772  0.5948  0.2485  0.3167
  863MPD2     C12664   4.300   4.714  17.055 -0.3360 -0.2159 -0.0719
  863MPD2    C112665   4.355   0.109  17.088 -0.6112  0.5351 -0.7828
  863MPD2    C212666   4.445   0.110  17.195 -1.0372  0.1051 -0.4557
  863MPD2    C312667   4.486   0.007  17.272  0.3846  0.0404  0.3135
  863MPD2    C412668   4.427   4.611  17.238 -0.4099  0.2308  0.9422
  863MPD2    C512669   4.339   4.608  17.131  1.3848  0.1223 -1.0012
  863MPD2     H12670   4.483   0.211  17.206 -1.2843  0.1379  0.1287
  863MPD2    H112671   4.458   4.520  17.288  0.3727 -1.3723 -2.4015
  863MPD2    H212672   4.227   4.711  16.976 -1.6298 -3.7224  1.2274
  863MPD2    H312673   4.295   4.510  17.118 -0.5566  0.9108 -0.2748
  863MPD2     N12674   4.584   0.010  17.376 -0.1052  0.2519 -0.7653
  863MPD2    H512675   4.604   4.655  17.435  0.6523 -0.2658 -1.7227
  863MPD2    N112676   4.320   0.221  17.010  0.2830 -0.0677 -0.1645
  863MPD2    H712677   4.285   0.198  16.917 -0.1589  0.1466 -0.0490
  864MPD2     C12678   0.010   1.042  17.587  0.5227 -0.0852  0.9442
  864MPD2    C112679   0.108   0.995  17.500  0.1414 -0.0843  1.0303
  864MPD2    C212680   0.199   1.085  17.441  0.0422  0.0663 -0.1313
  864MPD2    C312681   0.190   1.220  17.467 -0.3948  0.3143  0.9424
  864MPD2    C412682   0.093   1.264  17.563 -0.2168  0.0875 -0.2786
  864MPD2    C512683   0.006   1.174  17.627  0.4758 -0.6659  0.2234
  864MPD2     H12684   0.261   1.044  17.362  0.3850 -1.6862  1.0638
  864MPD2    H112685   0.082   1.369  17.584 -0.2462  0.0082  0.1015
  864MPD2    H212686   4.675   0.972  17.643  0.3058  0.9483  2.0127
  864MPD2    H312687   4.656   1.210  17.696  1.9753  1.1918  0.8938
  864MPD2     N12688   0.266   1.316  17.396 -0.1939 -0.3376  0.2894
  864MPD2    H512689   0.251   1.412  17.424  2.1354  0.6876 -2.1002
  864MPD2    N112690   0.111   0.855  17.475  0.4263 -0.2804 -0.3304
  864MPD2    H712691   0.030   0.806  17.511  2.1761 -1.6556  1.7876
  865MPD2     C12692   0.287   1.721  16.612  0.4399  0.2457  0.3049
  865MPD2    C112693   0.289   1.617  16.706  0.5697 -0.5719 -0.0827
  865MPD2    C212694   0.257   1.637  16.841 -0.3860 -0.8600  0.4372
  865MPD2    C312695   0.243   1.771  16.877 -0.2713  0.3239 -0.5822
  865MPD2    C412696   0.257   1.874  16.786  0.3663 -0.2584  0.2272
  865MPD2    C512697   0.281   1.846  16.655 -0.5543  0.6814 -1.1329
  865MPD2     H12698   0.241   1.557  16.912  0.1419  0.6470  2.2752
  865MPD2    H112699   0.237   1.975  16.817 -0.3865 -0.1243 -0.7136
  865MPD2    H212700   0.317   1.703  16.509 -0.5027  2.7626 -0.3992
  865MPD2    H312701   0.291   1.917  16.574 -0.6016  0.1866 -1.5688
  865MPD2     N12702   0.212   1.809  17.007  0.2457 -0.4338  0.0918
  865MPD2    H512703   0.174   1.902  17.016 -1.7523 -1.1794 -0.6929
  865MPD2    N112704   0.335   1.498  16.655 -0.1957  0.3881 -0.2969
  865MPD2    H712705   0.343   1.494  16.554  3.3971  0.7712 -0.0178
  866MPD2     C12706   1.762   2.403  11.961  0.8063 -0.0262 -0.6649
  866MPD2    C112707   1.813   2.439  11.846 -0.1415  0.2976  0.0499
  866MPD2    C212708   1.740   2.516  11.756  0.0252 -0.6159  0.5142
  866MPD2    C312709   1.613   2.563  11.790 -1.0052 -0.5620 -0.1642
  866MPD2    C412710   1.573   2.548  11.920 -0.3226 -0.4574  0.5203
  866MPD2    C512711   1.647   2.463  12.001  0.2368  0.1210 -0.3424
  866MPD2     H12712   1.780   2.555  11.663 -1.2570 -0.3902  0.0585
  866MPD2    H112713   1.483   2.597  11.954 -0.8525 -0.9469 -0.1818
  866MPD2    H212714   1.830   2.362  12.034 -1.0972 -2.4577 -0.2683
  866MPD2    H312715   1.610   2.459  12.103 -0.2620  0.9911 -0.4850
  866MPD2     N12716   1.525   2.632  11.701 -0.2089 -0.0328  0.1461
  866MPD2    H512717   1.428   2.650  11.726 -0.6295 -0.2943 -1.2978
  866MPD2    N112718   1.950   2.404  11.820  0.1772 -0.0538  0.2630
  866MPD2    H712719   1.995   2.338  11.883 -0.0292  0.9972  1.5103
  867MPD2     C12720   3.658   1.610  16.391 -0.1723  0.3518  0.4387
  867MPD2    C112721   3.703   1.578  16.519  0.4549 -0.3836 -0.8678
  867MPD2    C212722   3.684   1.685  16.612 -0.1680 -0.2376 -0.3163
  867MPD2    C312723   3.619   1.807  16.585  0.3991  0.2725 -0.7306
  867MPD2    C412724   3.578   1.828  16.451 -0.0962 -0.3703  0.5356
  867MPD2    C512725   3.596   1.727  16.360 -0.4750 -0.1241 -0.5329
  867MPD2     H12726   3.730   1.664  16.708 -1.9589 -0.1011  0.5833
  867MPD2    H112727   3.523   1.917  16.425  1.6171  0.3786 -0.5344
  867MPD2    H212728   3.670   1.531  16.318  1.3649  0.6360  0.3684
  867MPD2    H312729   3.563   1.741  16.258 -0.6901  0.9391 -0.3183
  867MPD2     N12730   3.626   1.922  16.672 -0.6661 -0.5371 -0.1045
  867MPD2    H512731   3.597   2.012  16.635  1.3328  0.9412  1.9271
  867MPD2    N112732   3.760   1.450  16.526  0.4009 -0.0648  0.4232
  867MPD2    H712733   3.756   1.393  16.442  0.9819 -0.6579  0.7969
  868MPD2     C12734   1.172   1.196  13.591 -0.8434  0.2343 -0.4331
  868MPD2    C112735   1.137   1.063  13.617  0.6652 -0.2819  0.5217
  868MPD2    C212736   1.034   1.032  13.707 -0.4863 -0.5103 -0.0459
  868MPD2    C312737   0.977   1.139  13.780  0.5622  0.1333 -0.1174
  868MPD2    C412738   1.008   1.269  13.748 -0.2145  0.6237  0.1899
  868MPD2    C512739   1.109   1.293  13.662  0.0143 -0.2939 -0.9426
  868MPD2     H12740   1.005   0.931  13.735 -0.5141 -0.5509 -0.2209
  868MPD2    H112741   0.968   1.361  13.789  0.7623  1.6419 -1.1450
  868MPD2    H212742   1.254   1.229  13.529 -2.2224  2.3787 -1.1391
  868MPD2    H312743   1.135   1.397  13.646 -0.9083  0.0464 -0.2395
  868MPD2     N12744   0.864   1.107  13.861  0.7999  0.2970 -0.5930
  868MPD2    H512745   0.850   1.012  13.893 -0.7572  0.3982 -0.9775
  868MPD2    N112746   1.211   0.971  13.549  0.2925 -0.2101 -0.0140
  868MPD2    H712747   1.289   1.009  13.496  0.1388 -0.9200 -0.7494
  869MPD2     C12748   2.787   3.717   2.404  0.2628 -0.2569 -0.2310
  869MPD2    C112749   2.721   3.603   2.382  0.1959 -0.1374 -0.5098
  869MPD2    C212750   2.645   3.573   2.270  0.5090  0.4293 -0.2542
  869MPD2    C312751   2.639   3.673   2.171 -0.8475  0.3642  0.4322
  869MPD2    C412752   2.708   3.791   2.191  0.4045 -0.7566 -0.0899
  869MPD2    C512753   2.784   3.811   2.304 -0.1533  0.2751 -0.1282
  869MPD2     H12754   2.570   3.494   2.266 -0.1968  1.1106 -0.6154
  869MPD2    H112755   2.715   3.874   2.122  0.9281 -2.0401 -1.5936
  869MPD2    H212756   2.851   3.735   2.490 -0.5412  0.1999  0.2716
  869MPD2    H312757   2.848   3.897   2.315  0.0358  0.5087 -3.1245
  869MPD2     N12758   2.564   3.660   2.052 -0.0261 -0.2483  0.7757
  869MPD2    H512759   2.551   3.734   1.983  0.4985 -0.2822  0.6386
  869MPD2    N112760   2.719   3.518   2.494  0.2752 -0.5791  0.2721
  869MPD2    H712761   2.750   3.558   2.581  1.7251 -0.0702 -0.4833
  870MPD2     C12762   1.168   3.012   1.984  0.6486  0.2919  0.3029
  870MPD2    C112763   1.299   2.967   2.014  0.4735  0.0985  0.4314
  870MPD2    C212764   1.399   3.045   1.962  0.2126  0.0420 -0.7158
  870MPD2    C312765   1.370   3.168   1.899 -0.1108 -0.6568 -0.6744
  870MPD2    C412766   1.241   3.204   1.872  1.1199  1.2037  0.3771
  870MPD2    C512767   1.142   3.126   1.915 -0.2987  0.0829 -0.8976
  870MPD2     H12768   1.501   3.021   1.990  0.2382 -0.5894 -1.3492
  870MPD2    H112769   1.216   3.289   1.809 -0.3961 -0.0234 -0.6731
  870MPD2    H212770   1.085   2.954   2.024 -0.1381  1.6974  0.7100
  870MPD2    H312771   1.039   3.156   1.902 -1.1186 -2.8869 -1.4224
  870MPD2     N12772   1.482   3.245   1.851  0.0327  0.5442 -0.1096
  870MPD2    H512773   1.569   3.193   1.847 -1.0946 -1.4080  0.6024
  870MPD2    N112774   1.316   2.851   2.101 -0.4810 -0.7897  0.5049
  870MPD2    H712775   1.237   2.812   2.152  0.1990  1.3612  3.2157
  871MPD2     C12776   2.619   1.876  16.922  0.2602 -0.3923 -0.2200
  871MPD2    C112777   2.567   1.828  17.041  0.4443  0.3963  0.1755
  871MPD2    C212778   2.566   1.689  17.052  0.9204  0.2682  0.0422
  871MPD2    C312779   2.618   1.605  16.954 -0.0304  0.2632 -0.1738
  871MPD2    C412780   2.669   1.661  16.840  0.1300  0.1368  0.1814
  871MPD2    C512781   2.670   1.796  16.827 -0.1888  0.4814  0.1858
  871MPD2     H12782   2.514   1.647  17.137 -1.3432 -1.0550 -1.9884
  871MPD2    H112783   2.698   1.606  16.751 -3.0720 -0.2924 -0.5973
  871MPD2    H212784   2.631   1.980  16.894 -1.8826  0.1847  0.9877
  871MPD2    H312785   2.721   1.847  16.745  0.3662  1.9423  1.4295
  871MPD2     N12786   2.633   1.468  16.986 -0.3352 -0.0929 -0.2749
  871MPD2    H512787   2.584   1.434  17.068 -0.0200 -0.1362 -0.1049
  871MPD2    N112788   2.519   1.916  17.139 -0.0648 -0.7195  0.0417
  871MPD2    H712789   2.522   2.014  17.111  2.1853 -1.4420 -2.2197
  872MPD2     C12790   3.942   4.172  14.222 -0.4248 -0.0761 -0.3540
  872MPD2    C112791   3.880   4.284  14.175 -0.0140 -0.3894 -0.5089
  872MPD2    C212792   3.747   4.299  14.200  0.1293  0.1696  0.1292
  872MPD2    C312793   3.682   4.205  14.286 -0.1361  0.1118  0.1310
  872MPD2    C412794   3.751   4.095  14.332  0.0908  0.2503 -0.4054
  872MPD2    C512795   3.877   4.081  14.295 -0.2668  0.2999  0.0420
  872MPD2     H12796   3.701   4.395  14.179 -0.4899 -0.8141 -2.9946
  872MPD2    H112797   3.703   4.010  14.380  1.4413 -0.2393  0.0864
  872MPD2    H212798   4.048   4.149  14.214 -0.4873 -0.6156  0.3646
  872MPD2    H312799   3.936   3.999  14.334  0.6606  1.8491  1.9004
  872MPD2     N12800   3.554   4.228  14.340  0.5969  0.2831  0.4584
  872MPD2    H512801   3.532   4.175  14.424 -0.6159 -0.7207 -0.4942
  872MPD2    N112802   3.953   4.386  14.115  0.6729  0.0432  0.1780
  872MPD2    H712803   3.899   4.465  14.080 -0.5935 -0.8153  0.2122
  873MPD2     C12804   0.452   4.125   0.758 -0.0405  0.2989  0.3638
  873MPD2    C112805   0.480   4.094   0.888  0.2728 -0.0769 -0.0001
  873MPD2    C212806   0.483   3.961   0.928 -0.2298 -0.3208  0.6551
  873MPD2    C312807   0.467   3.854   0.835 -0.4606 -0.4538  0.1073
  873MPD2    C412808   0.426   3.887   0.709  0.0236 -0.5603  0.3351
  873MPD2    C512809   0.422   4.024   0.675 -0.4712  0.4618  0.0011
  873MPD2     H12810   0.506   3.930   1.029  2.0295  1.5758  0.7250
  873MPD2    H112811   0.403   3.822   0.625  0.2029 -0.4803  0.2237
  873MPD2    H212812   0.457   4.221   0.709  1.1590 -2.0557 -4.1413
  873MPD2    H312813   0.393   4.053   0.575  1.9960  0.7370 -0.6349
  873MPD2     N12814   0.490   3.728   0.887 -0.1062  0.6448 -0.3762
  873MPD2    H512815   0.520   3.714   0.983 -0.8629 -0.1148 -0.2480
  873MPD2    N112816   0.494   4.203   0.970  0.0659  0.0515  0.1880
  873MPD2    H712817   0.472   4.294   0.932 -1.5854 -0.0677  0.8745
  874MPD2     C12818   3.956   4.331  16.439  0.2432  0.2396  0.3035
  874MPD2    C112819   4.011   4.246  16.531 -0.6090  0.2107  0.7303
  874MPD2    C212820   4.142   4.205  16.518  0.3280 -0.1291 -0.3313
  874MPD2    C312821   4.221   4.239  16.413  0.0886 -0.1917  0.0920
  874MPD2    C412822   4.161   4.317  16.313  0.2009  0.5351  0.8359
  874MPD2    C512823   4.031   4.356  16.327 -0.8291 -0.8002 -0.1913
  874MPD2     H12824   4.182   4.146  16.600 -0.6647 -1.2473 -0.6603
  874MPD2    H112825   4.219   4.332  16.222 -0.2682  2.2233  0.8168
  874MPD2    H212826   3.855   4.370  16.437  0.3135  0.4404  0.6129
  874MPD2    H312827   3.991   4.412  16.243 -1.9776 -1.1079  0.1506
  874MPD2     N12828   4.344   4.177  16.406 -0.4170  0.4982  0.8458
  874MPD2    H512829   4.378   4.120  16.484  2.2887 -0.2781 -0.8885
  874MPD2    N112830   3.933   4.184  16.629 -0.7201 -1.5238 -0.0624
  874MPD2    H712831   3.992   4.123  16.684  3.0329 -0.1295 -2.5235
  875MPD2     C12832   0.902   2.417  14.848 -0.6192  0.5126  0.2259
  875MPD2    C112833   0.951   2.544  14.827  0.2405 -0.4991 -0.6188
  875MPD2    C212834   0.983   2.621  14.933 -0.4877  0.0777  0.1521
  875MPD2    C312835   0.970   2.572  15.064  0.6758 -0.0041 -0.4607
  875MPD2    C412836   0.915   2.445  15.082  0.0936  0.2029 -0.0317
  875MPD2    C512837   0.898   2.363  14.974 -0.0054  0.1485 -0.2347
  875MPD2     H12838   1.026   2.718  14.913  0.2271 -0.0724  0.9553
  875MPD2    H112839   0.920   2.403  15.182  0.9537 -1.9106 -0.9732
  875MPD2    H212840   0.878   2.354  14.764  1.2243  3.1209 -2.2410
  875MPD2    H312841   0.859   2.262  14.979 -0.6914  0.3140 -2.2250
  875MPD2     N12842   1.006   2.648  15.174  0.0266 -0.8022  0.4353
  875MPD2    H512843   0.966   2.620  15.262 -1.5915 -2.1191 -0.7259
  875MPD2    N112844   0.977   2.598  14.696 -0.2890 -0.8038 -0.1125
  875MPD2    H712845   1.018   2.690  14.687 -2.1287 -0.1404 -1.6165
  876MPD2     C12846   4.587   3.927  15.932 -0.0232 -0.4783 -0.3411
  876MPD2    C112847   4.709   3.857  15.933  1.1479  0.0445  0.0622
  876MPD2    C212848   4.721   3.726  15.977 -0.4718 -0.4292 -0.0226
  876MPD2    C312849   4.618   3.662  16.036  0.5438  0.0359  0.5084
  876MPD2    C412850   4.494   3.724  16.047 -0.4033 -0.3720  0.3517
  876MPD2    C512851   4.479   3.848  15.983  0.3004  0.6897  0.3577
  876MPD2     H12852   0.091   3.675  15.972 -0.7569 -0.9258 -0.4646
  876MPD2    H112853   4.407   3.686  16.099  0.2112  0.0878  1.7211
  876MPD2    H212854   4.571   4.027  15.893 -0.6313  0.5858  2.6030
  876MPD2    H312855   4.381   3.894  15.987 -1.0715 -2.1698 -0.3822
  876MPD2     N12856   4.655   3.539  16.099  0.6824 -0.0645  0.1617
  876MPD2    H512857   0.024   3.514  16.077  0.8450  1.0830 -0.4606
  876MPD2    N112858   0.098   3.928  15.890 -0.0289 -0.7079  0.1920
  876MPD2    H712859   0.089   4.009  15.831  0.4761 -1.1114 -0.4350
  877MPD2     C12860   0.212   4.354  15.380 -0.1886  0.1071  1.1622
  877MPD2    C112861   0.346   4.348  15.418 -0.5712 -0.9724 -0.0423
  877MPD2    C212862   0.441   4.404  15.334 -0.1313 -0.1481  0.3210
  877MPD2    C312863   0.415   4.447  15.207  0.9054  0.1403  0.2180
  877MPD2    C412864   0.285   4.450  15.172  0.9224  0.9693 -0.2266
  877MPD2    C512865   0.184   4.407  15.255 -0.5487 -0.7057 -0.6171
  877MPD2     H12866   0.542   4.409  15.370 -0.0989 -0.1388  0.2291
  877MPD2    H112867   0.252   4.484  15.074  1.0692 -0.9681 -0.9486
  877MPD2    H212868   0.133   4.330  15.451  0.5495  2.8477  2.9129
  877MPD2    H312869   0.081   4.419  15.223 -0.5417  1.8827  0.2435
  877MPD2     N12870   0.516   4.499  15.121 -0.4310 -0.4762 -0.4483
  877MPD2    H512871   0.481   4.517  15.027  1.8244  1.4590 -0.9265
  877MPD2    N112872   0.384   4.310  15.548 -0.9348  0.0563 -0.4892
  877MPD2    H712873   0.483   4.319  15.567 -0.9385  0.3806 -0.6275
  878MPD2     C12874   0.584   3.556  12.911 -0.4889  0.7714  0.0270
  878MPD2    C112875   0.568   3.679  12.984 -0.2726 -0.0323 -0.1464
  878MPD2    C212876   0.640   3.697  13.096 -0.3330  0.4325  0.1057
  878MPD2    C312877   0.720   3.597  13.150 -0.1762  0.6386 -0.4279
  878MPD2    C412878   0.742   3.482  13.081  0.6266 -0.3137  0.0813
  878MPD2    C512879   0.679   3.464  12.962  0.2045 -0.0355 -0.3049
  878MPD2     H12880   0.635   3.791  13.150  2.1421 -0.9160  2.7277
  878MPD2    H112881   0.819   3.410  13.107  0.2749 -0.4648  0.7312
  878MPD2    H212882   0.535   3.525  12.819  0.8997 -0.6389 -0.2210
  878MPD2    H312883   0.699   3.372  12.909 -0.1225 -0.9568  1.1760
  878MPD2     N12884   0.794   3.634  13.266 -0.2940  0.5133 -0.6228
  878MPD2    H512885   0.786   3.732  13.291  1.4663  0.7237 -0.8689
  878MPD2    N112886   0.478   3.766  12.925  0.1386  0.3593  0.6471
  878MPD2    H712887   0.432   3.738  12.838  1.0723  0.6139  0.0712
  879MPD2     C12888   0.435   0.521  17.117 -0.3237  0.2125 -0.5320
  879MPD2    C112889   0.395   0.443  17.228  0.0600  0.1482 -0.3320
  879MPD2    C212890   0.309   0.344  17.211 -0.4494 -0.4530 -0.1221
  879MPD2    C312891   0.259   0.313  17.088 -0.3712 -0.1871 -0.1575
  879MPD2    C412892   0.286   0.395  16.979 -0.0635 -0.1956  0.2413
  879MPD2    C512893   0.378   0.499  16.992 -0.6261 -0.1153 -0.0084
  879MPD2     H12894   0.274   0.290  17.298 -2.8877 -0.7310 -1.2652
  879MPD2    H112895   0.224   0.387  16.891 -0.4937 -0.6373  0.5824
  879MPD2    H212896   0.494   0.612  17.124  1.2063 -0.7121 -1.4350
  879MPD2    H312897   0.393   0.570  16.912 -1.2771  0.1733  0.1209
  879MPD2     N12898   0.188   0.189  17.075 -0.1220  0.4072 -0.0264
  879MPD2    H512899   0.132   0.185  16.990 -1.0530 -1.2186  0.6637
  879MPD2    N112900   0.445   0.460  17.356 -0.4552  0.8464  0.2263
  879MPD2    H712901   0.402   0.405  17.430  1.0675  1.8025  1.8317
  880MPD2     C12902   1.417   2.052   1.403 -0.4704 -0.7568  0.2261
  880MPD2    C112903   1.543   2.104   1.375  0.0488  0.6489  0.2231
  880MPD2    C212904   1.656   2.016   1.403 -0.0107 -0.1492  0.6274
  880MPD2    C312905   1.627   1.885   1.443 -0.6180 -0.4508  0.7742
  880MPD2    C412906   1.504   1.836   1.464 -0.6909 -0.2490  0.0984
  880MPD2    C512907   1.399   1.924   1.455  0.0213  0.5421 -0.9500
  880MPD2     H12908   1.754   2.046   1.370  0.4775  1.5510  3.6104
  880MPD2    H112909   1.488   1.730   1.477 -1.5339 -0.0425  0.7500
  880MPD2    H212910   1.329   2.109   1.376  0.2479  0.7583  1.0650
  880MPD2    H312911   1.296   1.890   1.466  0.8856 -1.6482  0.2212
  880MPD2     N12912   1.737   1.809   1.452 -0.3149 -0.2699  0.0045
  880MPD2    H512913   1.826   1.856   1.435  0.1687 -2.0491 -2.3699
  880MPD2    N112914   1.556   2.233   1.317  0.0473  0.2708 -0.2411
  880MPD2    H712915   1.476   2.287   1.285  0.4788  0.5123 -0.9042
  881MPD2     C12916   1.356   2.128   0.498 -0.5493 -0.7323  0.0611
  881MPD2    C112917   1.429   2.240   0.484 -0.3103 -1.1699 -0.6311
  881MPD2    C212918   1.473   2.303   0.595 -0.3317  0.4201 -0.3796
  881MPD2    C312919   1.431   2.254   0.721  0.2442  0.2044 -0.6795
  881MPD2    C412920   1.375   2.133   0.731  0.1643 -0.8211  0.0768
  881MPD2    C512921   1.341   2.068   0.618  0.2029 -0.1038  0.2988
  881MPD2     H12922   1.539   2.388   0.583  2.2482 -1.5634 -0.0928
  881MPD2    H112923   1.345   2.094   0.828  1.8677 -1.0393  0.5159
  881MPD2    H212924   1.327   2.063   0.416 -0.3906 -1.0370  0.2481
  881MPD2    H312925   1.297   1.969   0.624 -0.0329  0.0868  1.6504
  881MPD2     N12926   1.482   2.313   0.844  0.1013 -0.6455 -0.2526
  881MPD2    H512927   1.461   2.266   0.932 -0.0460  2.4990  1.3895
  881MPD2    N112928   1.487   2.258   0.353  0.5441 -0.2987 -0.1488
  881MPD2    H712929   1.475   2.179   0.291 -0.2926  1.6466 -2.4582
  882MPD2     C12930   0.360   0.087  14.611 -0.1217 -0.6374 -0.1196
  882MPD2    C112931   0.383   4.679  14.638 -0.4085 -0.0395 -0.1276
  882MPD2    C212932   0.278   4.588  14.617  0.6107 -0.2135  0.5074
  882MPD2    C312933   0.155   4.628  14.572  0.0350 -0.4685  0.5655
  882MPD2    C412934   0.138   0.039  14.549 -0.1120  1.3780 -0.4238
  882MPD2    C512935   0.235   0.130  14.574  0.7492  0.2014 -0.6123
  882MPD2     H12936   0.294   4.483  14.635  2.0927 -0.0652  0.0748
  882MPD2    H112937   0.040   0.068  14.513 -0.9158  0.3296  0.9220
  882MPD2    H212938   0.434   0.162  14.637  2.3541 -2.6650 -1.2540
  882MPD2    H312939   0.211   0.235  14.561 -1.2595 -0.3766 -1.5418
  882MPD2     N12940   0.038   4.551  14.580 -0.1431  0.0281 -0.7201
  882MPD2    H512941   4.674   4.592  14.560 -0.1030  1.2208  1.5497
  882MPD2    N112942   0.502   4.629  14.698 -0.5755 -0.1518  0.6823
  882MPD2    H712943   0.567   4.704  14.719 -0.2174  0.4294 -2.4173
  883MPD2     C12944   1.838   4.027  16.409 -0.8049  0.2660  0.2975
  883MPD2    C112945   1.912   4.130  16.355 -0.0996  0.0733 -0.1551
  883MPD2    C212946   2.014   4.189  16.430 -0.0447  0.6301 -0.4007
  883MPD2    C312947   2.051   4.132  16.554 -0.0919  1.1698 -0.1744
  883MPD2    C412948   1.981   4.024  16.599 -0.4218  0.4211  0.0541
  883MPD2    C512949   1.882   3.976  16.526 -0.9625 -0.3639  0.0856
  883MPD2     H12950   2.073   4.271  16.393 -0.4106  1.0915  0.0420
  883MPD2    H112951   2.006   3.984  16.697 -0.8658 -1.0637 -0.4409
  883MPD2    H212952   1.760   3.980  16.351  1.2495 -0.7340 -1.6701
  883MPD2    H312953   1.829   3.890  16.564 -0.6456 -1.1557 -1.2449
  883MPD2     N12954   2.149   4.197  16.629  0.1279 -0.3715  0.0284
  883MPD2    H512955   2.188   4.272  16.574  1.2372 -2.0219 -1.4283
  883MPD2    N112956   1.895   4.185  16.227  0.2668  0.3484  0.1504
  883MPD2    H712957   1.965   4.256  16.208  1.5358 -0.9269  0.0899
  884MPD2     C12958   3.970   0.239  15.539  0.1232  0.0174 -1.0561
  884MPD2    C112959   3.973   0.327  15.433 -0.0647  0.1355 -0.4160
  884MPD2    C212960   3.856   0.389  15.390 -0.2149 -0.2408 -0.6200
  884MPD2    C312961   3.738   0.377  15.452 -0.2211 -0.1171  0.0694
  884MPD2    C412962   3.730   0.289  15.559 -0.3695  0.2156 -0.0509
  884MPD2    C512963   3.845   0.231  15.610 -0.3035  0.2095 -0.2957
  884MPD2     H12964   3.865   0.457  15.306  0.5351 -1.4620 -1.5290
  884MPD2    H112965   3.645   0.277  15.625 -0.6595  1.7996 -0.1383
  884MPD2    H212966   4.048   0.165  15.552 -1.8673 -2.2311 -1.9623
  884MPD2    H312967   3.837   0.168  15.698  2.0887  0.2169 -0.0637
  884MPD2     N12968   3.627   0.453  15.403  0.5083 -0.8026 -0.5914
  884MPD2    H512969   3.646   0.512  15.322  0.0125 -0.1476 -0.2296
  884MPD2    N112970   4.091   0.359  15.353 -0.3153 -0.1796 -0.8123
  884MPD2    H712971   4.083   0.423  15.275 -0.8585 -0.6367 -1.1334
  885MPD2     C12972   2.001   0.632   0.983  0.2631 -0.4260 -0.4858
  885MPD2    C112973   2.111   0.693   0.925  1.0749  0.1905  0.3639
  885MPD2    C212974   2.108   0.693   0.790  0.1236 -0.0350  0.3022
  885MPD2    C312975   2.006   0.641   0.709  0.0614 -0.3431  0.4728
  885MPD2    C412976   1.900   0.576   0.771 -0.2820 -0.1859  0.0193
  885MPD2    C512977   1.896   0.578   0.908 -0.1511 -0.3217  0.0027
  885MPD2     H12978   2.196   0.726   0.737  3.0589 -5.1271  1.9796
  885MPD2    H112979   1.818   0.535   0.713 -1.0585  0.4109  0.6944
  885MPD2    H212980   1.991   0.640   1.090 -0.1931 -0.0963 -0.5475
  885MPD2    H312981   1.816   0.532   0.965  1.5792  1.2980  3.7756
  885MPD2     N12982   2.023   0.639   0.564 -0.5992  0.1291  0.6499
  885MPD2    H512983   2.113   0.674   0.532 -0.9131  0.0077 -0.3588
  885MPD2    N112984   2.220   0.737   1.007  0.1223  0.0903  0.4364
  885MPD2    H712985   2.205   0.711   1.104  1.4917  3.8686  1.6669
  886MPD2     C12986   3.083   4.282  15.772  0.5692  0.4271  0.0760
  886MPD2    C112987   3.171   4.174  15.764 -0.7235  0.3604 -0.2638
  886MPD2    C212988   3.280   4.184  15.680  0.4853 -0.4195  0.8281
  886MPD2    C312989   3.317   4.303  15.618 -0.5091  0.1653 -0.3764
  886MPD2    C412990   3.220   4.401  15.609 -0.3439 -0.1813  0.0912
  886MPD2    C512991   3.104   4.382  15.679  0.1397 -0.0560 -0.2547
  886MPD2     H12992   3.352   4.103  15.669  2.2178  1.1738  0.4025
  886MPD2    H112993   3.232   4.494  15.556  1.9838 -0.4714  0.1116
  886MPD2    H212994   2.989   4.276  15.826 -0.6719 -0.9785 -2.2755
  886MPD2    H312995   3.028   4.458  15.668 -0.1575 -0.4177 -0.7325
  886MPD2     N12996   3.426   4.325  15.534 -0.3019  0.1039 -0.1031
  886MPD2    H512997   3.428   4.399  15.466 -1.1318 -1.9460 -2.3698
  886MPD2    N112998   3.148   4.050  15.831 -0.2430 -0.1543 -0.3785
  886MPD2    H712999   3.214   3.974  15.818  0.0218  0.1219 -0.6350
  887MPD2     C13000   3.540   3.588  15.836  0.0636  0.0088 -0.3122
  887MPD2    C113001   3.492   3.716  15.873  0.6003 -0.5723  0.0119
  887MPD2    C213002   3.554   3.839  15.851  0.6327 -0.2152  0.7022
  887MPD2    C313003   3.683   3.830  15.810 -0.0511 -0.4882 -0.3284
  887MPD2    C413004   3.738   3.703  15.771 -0.0712 -0.6617  0.1230
  887MPD2    C513005   3.662   3.588  15.777 -0.6034 -0.2572  0.0847
  887MPD2     H13006   3.509   3.933  15.881  0.4938 -0.0254 -0.1118
  887MPD2    H113007   3.832   3.694  15.719  0.2388 -0.3756  0.6299
  887MPD2    H213008   3.488   3.493  15.831 -0.0929  0.0902 -0.2454
  887MPD2    H313009   3.704   3.495  15.739  0.1132 -0.2014  0.7362
  887MPD2     N13010   3.754   3.950  15.814 -0.0416  0.5325  0.2471
  887MPD2    H513011   3.694   4.031  15.831 -0.6527  0.4738 -1.5412
  887MPD2    N113012   3.364   3.730  15.928  0.4608 -0.2271 -0.0295
  887MPD2    H713013   3.338   3.824  15.959 -0.1973 -0.5977  0.5412
  888MPD2     C13014   1.361   3.750  15.016  0.3015  0.8436 -0.2412
  888MPD2    C113015   1.372   3.775  15.158  0.6862 -0.0634 -0.3670
  888MPD2    C213016   1.451   3.889  15.207 -0.2499  0.0579  0.1572
  888MPD2    C313017   1.511   3.969  15.114 -0.1975  0.2297 -0.5723
  888MPD2    C413018   1.495   3.945  14.979 -0.3695 -0.6302 -0.2901
  888MPD2    C513019   1.419   3.841  14.938  0.3305  0.7982  0.0493
  888MPD2     H13020   1.471   3.890  15.313 -1.0543 -0.0438  0.3135
  888MPD2    H113021   1.540   4.002  14.898  0.5682 -0.3863  0.4012
  888MPD2    H213022   1.285   3.685  14.975  0.3076  0.3006  0.6028
  888MPD2    H313023   1.401   3.827  14.832  0.7861  0.8267 -0.0328
  888MPD2     N13024   1.579   4.080  15.167  0.0064  0.0788 -0.7194
  888MPD2    H513025   1.594   4.094  15.266  0.9818 -0.9697 -0.7153
  888MPD2    N113026   1.318   3.686  15.255  0.3480 -0.0340  0.2627
  888MPD2    H713027   1.336   3.709  15.352 -0.4009  1.9876 -0.0816
  889MPD2     C13028   1.095   3.487  12.221 -0.1482 -0.2744  0.6857
  889MPD2    C113029   0.997   3.436  12.302  0.4442 -0.0464 -0.2636
  889MPD2    C213030   0.932   3.520  12.381  0.2338  0.5651 -0.6360
  889MPD2    C313031   0.941   3.658  12.361  0.3102 -0.5115 -0.3946
  889MPD2    C413032   1.016   3.711  12.259  0.1505  0.5880  0.3235
  889MPD2    C513033   1.089   3.619  12.189 -0.1486 -0.1897 -0.1847
  889MPD2     H13034   0.868   3.487  12.462 -1.7898 -0.4746 -2.6402
  889MPD2    H113035   1.026   3.814  12.228 -2.4735  0.2237 -1.7381
  889MPD2    H213036   1.142   3.421  12.149 -0.8214  0.4917 -0.4486
  889MPD2    H313037   1.155   3.643  12.107  0.5254 -2.8150 -0.4074
  889MPD2     N13038   0.875   3.737  12.461 -0.1833 -0.1472  0.0623
  889MPD2    H513039   0.837   3.693  12.544  0.0826  2.7776  1.7314
  889MPD2    N113040   0.999   3.300  12.355 -0.1329  0.3878 -0.1488
  889MPD2    H713041   0.941   3.287  12.437  0.3532 -0.6074  0.0381
  890MPD2     C13042   4.645   0.391  14.826  0.5327  0.0362  0.2453
  890MPD2    C113043   0.050   0.390  14.846 -0.0009 -0.4997 -0.8656
  890MPD2    C213044   0.102   0.332  14.959 -0.5968 -0.6999 -0.3714
  890MPD2    C313045   0.013   0.271  15.047  0.4854  0.3663 -0.3637
  890MPD2    C413046   4.603   0.274  15.030  0.2449  0.4886 -0.3938
  890MPD2    C513047   4.557   0.348  14.922  0.2190 -0.9103  0.2426
  890MPD2     H13048   0.208   0.315  14.978 -0.6053 -0.1912  0.1363
  890MPD2    H113049   4.531   0.241  15.104  0.9284 -1.9448 -0.8197
  890MPD2    H213050   4.603   0.448  14.744  0.3197 -1.5987 -0.7812
  890MPD2    H313051   4.451   0.361  14.903  0.3042 -1.5024 -0.6642
  890MPD2     N13052   0.075   0.214  15.156 -0.8525  0.1074  0.0022
  890MPD2    H513053   0.174   0.237  15.148 -0.9344  0.4608  0.0139
  890MPD2    N113054   0.136   0.438  14.743  0.3379  0.4911 -0.1377
  890MPD2    H713055   0.088   0.472  14.660 -1.6909 -1.7227  0.1314
  891MPD2     C13056   2.406   3.132  17.350  0.1181  0.0473  0.3879
  891MPD2    C113057   2.472   3.196  17.247  0.0188 -0.3014 -0.9742
  891MPD2    C213058   2.600   3.156  17.213  0.5867 -0.8622  0.4593
  891MPD2    C313059   2.656   3.048  17.287  0.5836  0.0317 -0.3218
  891MPD2    C413060   2.574   2.972  17.370 -0.4554  0.4642  0.4223
  891MPD2    C513061   2.448   3.017  17.404  0.0407  0.2031  0.3817
  891MPD2     H13062   2.669   3.212  17.152  1.7559 -0.9622  1.6869
  891MPD2    H113063   2.619   2.898  17.436 -1.1852  1.5296  2.1123
  891MPD2    H213064   2.306   3.167  17.373 -0.1785 -0.5525 -0.0144
  891MPD2    H313065   2.384   2.960  17.471 -0.2968 -0.5637 -0.6038
  891MPD2     N13066   2.794   3.032  17.277 -0.3201 -0.1090  0.3928
  891MPD2    H513067   2.843   3.106  17.228  2.8829 -2.0545  0.6370
  891MPD2    N113068   2.408   3.315  17.193  0.4067  0.3568 -0.6020
  891MPD2    H713069   2.316   3.335  17.233 -0.5668 -1.2675 -2.0227
  892MPD2     C13070   4.146   0.144  15.033 -0.1574  0.7251  0.4955
  892MPD2    C113071   4.064   0.049  14.972 -0.2289 -0.0729 -0.8805
  892MPD2    C213072   4.136   4.680  14.901 -0.4534  0.1307  0.0146
  892MPD2    C313073   4.277   4.685  14.886 -0.3528 -0.4363 -0.2509
  892MPD2    C413074   4.349   0.060  14.951 -0.2580  0.2643 -0.1032
  892MPD2    C513075   4.277   0.150  15.022  0.5124 -0.8291  0.0481
  892MPD2     H13076   4.074   4.601  14.859  0.5078 -0.8963  0.5284
  892MPD2    H113077   4.454   0.085  14.937 -0.1505 -0.7062 -1.0553
  892MPD2    H213078   4.102   0.219  15.098 -0.5370  0.9793 -0.0484
  892MPD2    H313079   4.329   0.235  15.066 -2.0748  1.7780 -1.9197
  892MPD2     N13080   4.354   4.581  14.822  0.1580 -0.1668 -0.1014
  892MPD2    H513081   4.455   4.592  14.815  0.1180  0.9377  0.9955
  892MPD2    N113082   3.922   0.045  14.983  0.9533  0.9143  0.2094
  892MPD2    H713083   3.872   4.718  14.913 -1.0532  1.5629  1.1376
  893MPD2     C13084   1.344   2.873   2.735 -0.7362 -0.2046  0.3353
  893MPD2    C113085   1.333   2.934   2.606  0.0798 -0.1452 -0.3276
  893MPD2    C213086   1.221   2.907   2.532 -0.5084 -0.3154  0.6968
  893MPD2    C313087   1.121   2.829   2.580 -0.0174  0.8216 -0.4562
  893MPD2    C413088   1.121   2.788   2.707 -0.1994  1.0582 -0.0137
  893MPD2    C513089   1.230   2.814   2.786  0.4003 -0.0336 -0.1196
  893MPD2     H13090   1.215   2.936   2.428 -1.3216  0.3637  0.9341
  893MPD2    H113091   1.038   2.741   2.758  0.7409 -1.6034 -0.9228
  893MPD2    H213092   1.432   2.880   2.798 -1.7496  1.7538  1.5463
  893MPD2    H313093   1.237   2.763   2.881 -1.6056 -0.5034 -0.2157
  893MPD2     N13094   1.008   2.793   2.504 -0.5371 -0.1474  0.8333
  893MPD2    H513095   0.928   2.759   2.556 -1.6840  1.2092 -0.0524
  893MPD2    N113096   1.452   3.000   2.562 -0.2883 -0.0677  0.1519
  893MPD2    H713097   1.535   3.000   2.622  0.9906 -1.1422 -1.6207
  894MPD2     C13098   3.643   0.752   0.996 -0.2279 -0.2698  0.1824
  894MPD2    C113099   3.676   0.767   1.129 -0.0968 -0.4793 -0.3574
  894MPD2    C213100   3.730   0.883   1.175 -0.5588  0.2513  0.1394
  894MPD2    C313101   3.741   0.991   1.085  0.6439  0.3433  0.0047
  894MPD2    C413102   3.727   0.974   0.953  0.4921 -0.9022  0.5288
  894MPD2    C513103   3.670   0.855   0.903 -0.9312  0.1257  0.2115
  894MPD2     H13104   3.745   0.894   1.282 -0.5770  1.2882  0.0333
  894MPD2    H113105   3.758   1.048   0.881  0.7236 -1.8935 -0.4049
  894MPD2    H213106   3.606   0.662   0.949  0.3800 -0.8264  0.7764
  894MPD2    H313107   3.647   0.844   0.798 -2.4108  0.1685  0.5313
  894MPD2     N13108   3.784   1.113   1.145 -0.0553  0.0578  0.3140
  894MPD2    H513109   3.807   1.105   1.244  1.0873  1.8042  0.1991
  894MPD2    N113110   3.657   0.665   1.220 -0.2556 -0.1300 -0.0788
  894MPD2    H713111   3.692   0.685   1.313 -0.5348 -0.5840  0.1255
  895MPD2     C13112   3.594   3.686  13.865  0.0834 -0.9743  0.1388
  895MPD2    C113113   3.596   3.789  13.775  0.1858 -0.0238 -0.4471
  895MPD2    C213114   3.601   3.763  13.641  0.3545 -0.4128  0.6002
  895MPD2    C313115   3.588   3.638  13.582  0.4366 -0.5959  0.7442
  895MPD2    C413116   3.595   3.535  13.672 -0.2765 -0.2799  0.2872
  895MPD2    C513117   3.593   3.556  13.809  0.3565 -0.6945  0.2430
  895MPD2     H13118   3.587   3.851  13.580 -1.2982  0.2169  1.8929
  895MPD2    H113119   3.604   3.431  13.646 -0.9363 -0.1156 -0.5989
  895MPD2    H213120   3.587   3.692  13.973 -1.0235  4.7439 -0.2583
  895MPD2    H313121   3.576   3.471  13.874  0.2653 -1.8509 -1.2929
  895MPD2     N13122   3.591   3.615  13.442  0.2216  0.4989  0.0029
  895MPD2    H513123   3.572   3.522  13.405  1.4723  0.6236 -0.9414
  895MPD2    N113124   3.595   3.929  13.814  0.0008  0.5870  0.1155
  895MPD2    H713125   3.593   3.990  13.733  1.9292  0.0465 -0.3441
  896MPD2     C13126   0.522   1.686   2.273  0.2890 -0.0664  0.4941
  896MPD2    C113127   0.513   1.670   2.134  0.3710  0.5766 -0.1166
  896MPD2    C213128   0.395   1.607   2.083 -0.6252  0.3220 -0.1211
  896MPD2    C313129   0.296   1.556   2.171 -1.0656  0.1440  0.7996
  896MPD2    C413130   0.309   1.569   2.308  0.6247 -0.2744  0.5694
  896MPD2    C513131   0.424   1.629   2.350  0.1749  0.0458  0.1002
  896MPD2     H13132   0.378   1.590   1.977 -0.5472 -1.2447  0.1238
  896MPD2    H113133   0.225   1.544   2.373  0.3295  1.1846  0.7367
  896MPD2    H213134   0.606   1.735   2.320 -0.1776  1.9545 -0.8085
  896MPD2    H313135   0.436   1.650   2.456  1.7922 -0.6773  0.0487
  896MPD2     N13136   0.180   1.510   2.111 -0.8218  0.1414  0.0079
  896MPD2    H513137   0.186   1.510   2.010 -1.7567  4.6116 -0.0558
  896MPD2    N113138   0.622   1.733   2.062 -0.4219 -0.5177 -0.1770
  896MPD2    H713139   0.695   1.774   2.120 -1.5795  0.6633  0.4439
  897MPD2     C13140   2.197   3.389  10.818  0.3701 -0.5715  0.5168
  897MPD2    C113141   2.089   3.392  10.731  0.3084 -0.2982  0.7113
  897MPD2    C213142   2.011   3.280  10.723 -0.1901 -0.0392 -0.7181
  897MPD2    C313143   2.019   3.177  10.810 -0.1537 -0.3677 -1.1579
  897MPD2    C413144   2.125   3.175  10.897 -0.7709 -0.3487  0.1985
  897MPD2    C513145   2.212   3.287  10.908  0.1554 -0.4532  0.5391
  897MPD2     H13146   1.938   3.275  10.643  0.0381  1.9354 -1.0461
  897MPD2    H113147   2.146   3.091  10.962 -0.4915  0.7868  1.5615
  897MPD2    H213148   2.262   3.476  10.830  0.6804 -0.5733 -1.0779
  897MPD2    H313149   2.292   3.282  10.981  0.2267  0.9732  0.5607
  897MPD2     N13150   1.902   3.103  10.823  0.2514 -0.4206 -0.0898
  897MPD2    H513151   1.834   3.101  10.748 -2.2753 -1.4612  2.2158
  897MPD2    N113152   2.067   3.506  10.657 -0.2297 -0.2316  0.0313
  897MPD2    H713153   2.110   3.594  10.684  2.1964 -1.4001  0.0419
  898MPD2     C13154   3.890   3.789   0.181 -0.3708 -0.3015  0.2674
  898MPD2    C113155   3.997   3.836   0.107  0.5279  0.0927 -0.0782
  898MPD2    C213156   3.977   3.941   0.017  0.4255  0.5642  0.0476
  898MPD2    C313157   3.854   3.997  17.700 -0.0350  0.0093  0.0968
  898MPD2    C413158   3.747   3.944   0.068 -0.7345  0.5461  0.2501
  898MPD2    C513159   3.771   3.850   0.165  0.1909 -0.0391  0.8491
  898MPD2     H13160   4.060   3.972  17.659 -1.4052  0.7218 -2.2935
  898MPD2    H113161   3.657   4.004   0.079 -0.8448  0.1837  1.3639
  898MPD2    H213162   3.906   3.710   0.253 -1.4443  0.2865  1.1375
  898MPD2    H313163   3.699   3.817   0.239  0.6004 -2.7368  0.0707
  898MPD2     N13164   3.842   4.098  17.606  0.1131 -0.2890  0.1305
  898MPD2    H513165   3.920   4.111  17.542 -1.3594 -2.3174 -2.0533
  898MPD2    N113166   4.122   3.769   0.111 -0.2847 -0.0905  0.1862
  898MPD2    H713167   4.202   3.826   0.086 -0.3639  0.3332  0.8906
  899MPD2     C13168   4.534   4.367   0.181  0.1871 -0.7060 -0.5461
  899MPD2    C113169   4.513   4.500   0.200 -0.6341  0.2781  0.4485
  899MPD2    C213170   4.417   4.546   0.288 -1.0360 -0.3295 -0.1173
  899MPD2    C313171   4.336   4.457   0.351  0.0331  0.4672  0.0593
  899MPD2    C413172   4.382   4.322   0.350  0.1105  0.2122 -0.3804
  899MPD2    C513173   4.473   4.276   0.259 -0.1827 -0.2253  0.0638
  899MPD2     H13174   4.391   4.650   0.302  0.0352  0.0092 -0.6540
  899MPD2    H113175   4.335   4.242   0.406 -0.7609  0.1193 -1.2293
  899MPD2    H213176   4.615   4.335   0.117  1.5191  1.7498 -0.1159
  899MPD2    H313177   4.508   4.173   0.265 -1.1917 -0.3701  3.4044
  899MPD2     N13178   4.219   4.489   0.422  0.4921 -0.1133  0.7093
  899MPD2    H513179   4.198   4.423   0.496 -0.3315  1.0813  1.5375
  899MPD2    N113180   4.592   4.589   0.120 -0.1242  0.1491 -0.2092
  899MPD2    H713181   4.644   4.552   0.041  0.8279  1.1833 -0.0833
  900MPD2     C13182   4.474   1.870  12.890  0.5457 -0.0312  0.1018
  900MPD2    C113183   4.448   1.741  12.848 -0.0605 -0.1623 -0.5828
  900MPD2    C213184   4.329   1.704  12.782  0.2554  0.0826 -0.6478
  900MPD2    C313185   4.240   1.808  12.753  0.4067 -0.2928 -0.4314
  900MPD2    C413186   4.266   1.941  12.793  0.0167  1.2793 -0.7293
  900MPD2    C513187   4.380   1.971  12.868 -0.0817  0.5149 -0.4056
  900MPD2     H13188   4.302   1.601  12.759  0.5697 -0.2344  0.4079
  900MPD2    H113189   4.188   2.016  12.789 -1.1557  0.1015  0.5138
  900MPD2    H213190   4.567   1.898  12.938 -0.1380  0.4853  1.1108
  900MPD2    H313191   4.398   2.070  12.907 -1.0711  0.7879 -0.6502
  900MPD2     N13192   4.134   1.782  12.664 -0.2211 -0.3809  0.1554
  900MPD2    H513193   4.121   1.683  12.642 -0.9212 -0.6477  1.7375
  900MPD2    N113194   4.539   1.645  12.894  0.2015 -1.0935  0.1087
  900MPD2    H713195   4.614   1.684  12.949 -0.6266 -1.0908  1.2354
  901MPD2     C13196   4.456   0.676  13.380 -0.6722  0.0302 -0.2620
  901MPD2    C113197   4.499   0.656  13.255 -0.4277  0.3624  0.3927
  901MPD2    C213198   4.546   0.766  13.181 -0.6657 -0.0580 -0.0368
  901MPD2    C313199   4.532   0.895  13.230 -0.6670 -0.6572  0.6489
  901MPD2    C413200   4.468   0.912  13.351 -0.2157 -0.6490  0.0631
  901MPD2    C513201   4.436   0.800  13.426  0.4848 -0.2970 -0.1128
  901MPD2     H13202   4.581   0.755  13.079  0.7102 -1.1613  0.5486
  901MPD2    H113203   4.443   1.009  13.391  1.3297 -1.5885  3.3305
  901MPD2    H213204   4.428   0.592  13.443  3.0120 -1.4698 -0.6358
  901MPD2    H313205   4.392   0.813  13.524  1.0425  0.6582  0.0139
  901MPD2     N13206   4.581   1.005  13.152 -0.5710  0.6715  0.2680
  901MPD2    H513207   4.632   0.981  13.068 -0.2880  0.6353  0.4482
  901MPD2    N113208   4.479   0.530  13.199  0.2476 -0.2894 -0.0814
  901MPD2    H713209   4.437   0.461  13.261  0.9183 -1.6666 -1.1627
  902MPD2     C13210   3.400   0.115  13.177  0.6299 -0.7860 -0.4826
  902MPD2    C113211   3.416   0.172  13.051 -0.4006  0.6656  0.3586
  902MPD2    C213212   3.516   0.124  12.968 -0.0951  0.5714  0.0388
  902MPD2    C313213   3.595   0.019  13.009  0.0249 -0.3788  0.1116
  902MPD2    C413214   3.573   4.681  13.132  0.1646 -0.0458 -0.2611
  902MPD2    C513215   3.473   0.001  13.216  0.6064  0.2195  0.1119
  902MPD2     H13216   3.532   0.167  12.870  1.9463  0.1837  0.2061
  902MPD2    H113217   3.634   4.595  13.155 -0.5128 -1.2570 -2.9913
  902MPD2    H213218   3.328   0.150  13.250  0.5139 -0.2866 -0.8335
  902MPD2    H313219   3.450   4.684  13.313  3.5651 -0.3835  0.5577
  902MPD2     N13220   3.701   4.691  12.934  0.1479  0.3251 -0.0791
  902MPD2    H513221   3.766   4.635  12.989 -2.3617 -1.8511  0.6700
  902MPD2    N113222   3.330   0.269  13.000  0.1673  0.6155 -0.1282
  902MPD2    H713223   3.348   0.283  12.901  0.3549  4.0173  0.3890
  903MPD2     C13224   4.042   4.360  12.195  0.4947  0.0282 -0.7425
  903MPD2    C113225   3.941   4.424  12.260  0.3417  0.7136 -0.2357
  903MPD2    C213226   3.812   4.408  12.219  0.3431 -0.4217  0.4194
  903MPD2    C313227   3.771   4.320  12.123 -0.6839 -0.9693  0.7341
  903MPD2    C413228   3.870   4.251  12.056 -0.1396 -0.6700 -0.0564
  903MPD2    C513229   4.006   4.276  12.089 -0.5535 -0.4259  0.4234
  903MPD2     H13230   3.733   4.463  12.268  0.5087 -0.2179  0.4573
  903MPD2    H113231   3.857   4.172  11.982 -0.7483  0.9611 -1.6808
  903MPD2    H213232   4.146   4.364  12.224  0.7020 -0.1544 -1.4761
  903MPD2    H313233   4.078   4.232  12.021  0.0688  0.3037  0.6084
  903MPD2     N13234   3.638   4.307  12.094  0.1606 -0.2757  0.3047
  903MPD2    H513235   3.576   4.379  12.129 -1.5730 -2.4765  1.7319
  903MPD2    N113236   3.980   4.503  12.367 -0.8275  0.4722  0.1739
  903MPD2    H713237   4.077   4.484  12.389 -0.8050  0.2991 -0.0766
  904MPD2     C13238   3.657   3.187  13.825  0.4533 -0.1377 -0.0956
  904MPD2    C113239   3.561   3.200  13.925 -0.3267 -0.6593  0.6338
  904MPD2    C213240   3.614   3.204  14.057  0.1801 -0.7523 -0.1595
  904MPD2    C313241   3.746   3.214  14.091 -0.1476  0.6542  0.1388
  904MPD2    C413242   3.836   3.228  13.989  0.3493  0.2757  0.0644
  904MPD2    C513243   3.787   3.206  13.862 -0.4469 -0.7134  0.1078
  904MPD2     H13244   3.547   3.213  14.142  0.6461 -0.7307  0.2043
  904MPD2    H113245   3.943   3.235  14.003  0.4731  1.4540 -1.5971
  904MPD2    H213246   3.629   3.180  13.720 -1.4052 -1.1135  0.4671
  904MPD2    H313247   3.870   3.198  13.791 -0.7328  0.4966 -0.3731
  904MPD2     N13248   3.784   3.229  14.223 -0.2921  0.1958  0.1446
  904MPD2    H513249   3.726   3.190  14.297  0.7428 -0.6492  0.5017
  904MPD2    N113250   3.424   3.217  13.903 -0.7064 -0.3182 -0.0734
  904MPD2    H713251   3.371   3.256  13.981  0.1271  0.5312  0.0631
  905MPD2     C13252   3.309   3.946  13.547 -0.1494 -0.0152  0.2771
  905MPD2    C113253   3.268   3.822  13.502  0.1037  0.1211 -0.2969
  905MPD2    C213254   3.265   3.807  13.362  0.8627 -0.1258 -0.3738
  905MPD2    C313255   3.317   3.902  13.274 -1.0136 -0.6956 -0.5120
  905MPD2    C413256   3.366   4.012  13.332 -0.2463  0.5691 -0.1861
  905MPD2    C513257   3.366   4.036  13.461 -0.2085 -0.2366 -0.1995
  905MPD2     H13258   3.229   3.712  13.324 -0.7938  0.6537 -0.7143
  905MPD2    H113259   3.417   4.083  13.267  1.0790 -0.2572 -0.0535
  905MPD2    H213260   3.321   3.974  13.651  0.0343  2.0208 -0.2967
  905MPD2    H313261   3.419   4.119  13.505  2.0959 -1.6251 -0.3729
  905MPD2     N13262   3.324   3.882  13.139 -0.5299  0.1478  0.3809
  905MPD2    H513263   3.377   3.959  13.099 -1.1927  0.0864 -0.6245
  905MPD2    N113264   3.245   3.725  13.600 -0.4252 -0.2822  0.0094
  905MPD2    H713265   3.244   3.754  13.698  0.0648 -0.2820  0.0169
  906MPD2     C13266   0.532   3.352  11.515 -0.3906  0.0752 -0.4550
  906MPD2    C113267   0.521   3.238  11.447 -0.5017 -0.2474  0.0507
  906MPD2    C213268   0.454   3.125  11.505  0.0081 -0.1152  1.5826
  906MPD2    C313269   0.404   3.136  11.637 -0.0626 -0.3013  1.0352
  906MPD2    C413270   0.417   3.255  11.703  0.0485  1.1314 -0.2522
  906MPD2    C513271   0.484   3.358  11.642 -0.5005 -0.2896  0.1054
  906MPD2     H13272   0.435   3.036  11.447 -1.5617  0.5461  1.0835
  906MPD2    H113273   0.370   3.271  11.799 -0.3392  2.4909 -0.6616
  906MPD2    H213274   0.573   3.437  11.463 -0.3814 -0.6515 -1.6280
  906MPD2    H313275   0.498   3.452  11.694  2.5269 -0.9840  0.5514
  906MPD2     N13276   0.314   3.031  11.676 -0.3954  0.2440  0.1412
  906MPD2    H513277   0.288   2.957  11.611 -0.6982  0.9195 -0.5057
  906MPD2    N113278   0.560   3.218  11.313 -0.1180 -0.5318 -0.0512
  906MPD2    H713279   0.541   3.129  11.268  0.0553 -0.6057  0.0224
  907MPD2     C13280   4.694   2.110  15.761  0.2726 -0.0825  0.2006
  907MPD2    C113281   4.567   2.055  15.786 -0.5905  0.0204  0.5086
  907MPD2    C213282   4.557   1.968  15.892  0.5127  0.8567 -0.6515
  907MPD2    C313283   4.668   1.921  15.957  0.1716 -0.0930 -0.5240
  907MPD2    C413284   0.070   1.978  15.939  0.3613  0.0688  0.0078
  907MPD2    C513285   0.082   2.076  15.839 -0.1524 -0.2164  0.1601
  907MPD2     H13286   4.462   1.917  15.904  0.4011  1.4817  1.1518
  907MPD2    H113287   0.159   1.961  15.999  0.6714  1.8351  0.0488
  907MPD2    H213288   4.708   2.182  15.682 -0.2642 -0.4725 -0.2448
  907MPD2    H313289   0.177   2.116  15.804 -1.4253  0.2089 -2.8337
  907MPD2     N13290   4.657   1.818  16.049  0.7229  1.0171 -0.2362
  907MPD2    H513291   4.565   1.776  16.047  0.7137  0.9622  1.0215
  907MPD2    N113292   4.449   2.090  15.699 -0.6604  0.6558  0.1467
  907MPD2    H713293   4.362   2.040  15.717 -0.0347 -1.3237 -2.3598
  908MPD2     C13294   1.941   3.797   9.726 -0.7492  0.5359  0.3529
  908MPD2    C113295   1.913   3.675   9.784 -0.0093  0.4718 -0.3842
  908MPD2    C213296   1.902   3.663   9.920 -0.1358  0.0191  0.5541
  908MPD2    C313297   1.892   3.775   9.997 -0.5456  0.1510  0.2046
  908MPD2    C413298   1.907   3.902   9.940 -0.4381  0.3603  0.0105
  908MPD2    C513299   1.933   3.908   9.808  0.7488 -1.4234  0.4435
  908MPD2     H13300   1.898   3.569   9.973 -1.0160  0.0781  0.5926
  908MPD2    H113301   1.900   3.988  10.005 -0.0246 -0.2359  0.8526
  908MPD2    H213302   1.952   3.815   9.619 -0.2719  1.0676  0.4941
  908MPD2    H313303   1.947   4.001   9.755  0.5037 -0.1925  2.5228
  908MPD2     N13304   1.880   3.749  10.137  0.2375 -0.3624 -0.9735
  908MPD2    H513305   1.874   3.652  10.165 -0.3145  0.6004  2.2733
  908MPD2    N113306   1.911   3.560   9.698 -1.3875 -0.8611  0.2207
  908MPD2    H713307   1.917   3.580   9.599  1.2805 -1.1871  0.3146
  909MPD2     C13308   2.229   0.946  12.330  0.3041  0.6694 -0.4253
  909MPD2    C113309   2.225   1.066  12.260 -0.0303  0.9206 -0.3516
  909MPD2    C213310   2.233   1.186  12.327  0.1147  0.5789 -0.0202
  909MPD2    C313311   2.255   1.191  12.466 -0.7982 -0.4312  0.2882
  909MPD2    C413312   2.279   1.070  12.526 -0.2954  0.6297 -0.3220
  909MPD2    C513313   2.247   0.953  12.464  0.6755  0.5207  0.4680
  909MPD2     H13314   2.221   1.276  12.268 -1.4926  1.0726  1.0829
  909MPD2    H113315   2.299   1.055  12.632  1.5557 -1.1385 -0.9313
  909MPD2    H213316   2.213   0.846  12.291 -0.3267  0.5699  0.0794
  909MPD2    H313317   2.250   0.856  12.513 -1.5371 -0.0517 -0.5230
  909MPD2     N13318   2.245   1.314  12.534 -0.1917  0.6568 -0.1707
  909MPD2    H513319   2.235   1.397  12.477  0.5392  1.5630  1.0507
  909MPD2    N113320   2.235   1.074  12.120 -0.3890  0.3795 -0.3104
  909MPD2    H713321   2.256   1.165  12.081 -0.3254  0.5584  0.1458
  910MPD2     C13322   3.045   3.011  16.113  0.5276  0.7961  0.2031
  910MPD2    C113323   3.165   3.059  16.055  0.2376  0.9328  0.1977
  910MPD2    C213324   3.171   3.098  15.923  0.4126 -0.1571  0.1370
  910MPD2    C313325   3.053   3.102  15.853 -0.2856 -0.0678 -0.3703
  910MPD2    C413326   2.937   3.059  15.913 -0.7974 -0.0508 -0.2839
  910MPD2    C513327   2.929   3.024  16.039  0.3172  0.3478  0.6985
  910MPD2     H13328   3.271   3.129  15.893  0.2575  0.5257  0.3092
  910MPD2    H113329   2.846   3.067  15.855 -1.0862  2.6058  0.5173
  910MPD2    H213330   3.033   2.972  16.214  0.0928  0.5312  0.0503
  910MPD2    H313331   2.839   2.986  16.087  0.0318  1.8633  1.3628
  910MPD2     N13332   3.042   3.149  15.718 -0.6717  0.1892 -0.3400
  910MPD2    H513333   2.949   3.156  15.677 -0.1868  0.6303 -1.3479
  910MPD2    N113334   3.290   3.044  16.131 -0.9612 -0.6066 -0.2416
  910MPD2    H713335   3.377   3.071  16.087  0.4646 -0.5794  2.5619
  911MPD2     C13336   0.903   3.403  16.589 -0.5832  0.4002 -0.1382
  911MPD2    C113337   0.957   3.502  16.669  0.7099 -0.1584  0.2085
  911MPD2    C213338   0.907   3.630  16.662 -0.4668  0.6960  0.0954
  911MPD2    C313339   0.810   3.669  16.576  0.0285 -0.0966  0.4672
  911MPD2    C413340   0.749   3.569  16.509  0.8357  0.4091  0.2508
  911MPD2    C513341   0.791   3.436  16.522  0.0970 -0.5384 -0.4110
  911MPD2     H13342   0.947   3.711  16.722  0.9611 -0.6082  0.9189
  911MPD2    H113343   0.664   3.594  16.446 -0.3713  0.2847  1.8328
  911MPD2    H213344   0.941   3.303  16.602 -2.4905 -0.1185  1.5434
  911MPD2    H313345   0.740   3.359  16.466  1.7194 -1.6046 -0.4210
  911MPD2     N13346   0.778   3.800  16.555  0.1675 -0.3931  0.0924
  911MPD2    H513347   0.699   3.814  16.493  0.4819 -1.5006 -0.5541
  911MPD2    N113348   1.078   3.465  16.734 -0.2059  0.0029 -0.1201
  911MPD2    H713349   1.115   3.373  16.711 -0.7954 -0.1795 -0.3355
  912MPD2     C13350   0.605   3.607  15.944 -0.7784 -0.2299 -0.8259
  912MPD2    C113351   0.583   3.657  16.067  0.0833  0.4948  0.8129
  912MPD2    C213352   0.533   3.570  16.158  0.2693 -0.7358 -0.6684
  912MPD2    C313353   0.525   3.432  16.135 -0.3881  0.0395  0.6830
  912MPD2    C413354   0.546   3.384  16.008 -0.1621 -0.0029  0.3923
  912MPD2    C513355   0.584   3.477  15.911  0.4084  0.7297 -0.0056
  912MPD2     H13356   0.508   3.602  16.259  0.7431  1.3374 -1.2031
  912MPD2    H113357   0.522   3.283  15.978 -1.3374  0.6931 -1.0218
  912MPD2    H213358   0.645   3.669  15.865 -1.7645 -1.5510 -2.3576
  912MPD2    H313359   0.590   3.440  15.810  0.5340 -2.2433  1.0619
  912MPD2     N13360   0.488   3.343  16.239 -0.3100  0.2407 -0.4490
  912MPD2    H513361   0.451   3.379  16.327 -0.9261 -2.2076  0.3020
  912MPD2    N113362   0.642   3.785  16.108 -0.6220  0.1270 -0.1014
  912MPD2    H713363   0.679   3.833  16.026 -0.5203  1.1351  0.5456
  913MPD2     C13364   1.872   0.145  10.207  0.4004 -0.2696 -0.2967
  913MPD2    C113365   1.777   0.073  10.286  0.1932  0.0067 -0.5653
  913MPD2    C213366   1.659   0.039  10.227  0.8268  0.4596 -0.1476
  913MPD2    C313367   1.633   0.075  10.096 -0.2252  0.6204 -0.3085
  913MPD2    C413368   1.726   0.133  10.018  0.7456 -0.4204 -0.3721
  913MPD2    C513369   1.838   0.178  10.079  0.6741  0.3218 -0.3384
  913MPD2     H13370   1.582   4.720  10.288 -0.8284  1.0817 -1.7524
  913MPD2    H113371   1.709   0.158   9.914 -0.9242  0.3068  0.0789
  913MPD2    H213372   1.962   0.183  10.253  0.3244 -0.9555  0.4311
  913MPD2    H313373   1.906   0.244  10.027 -1.0317  1.9466 -0.4794
  913MPD2     N13374   1.505   0.068  10.034 -0.8742 -0.9115 -0.8167
  913MPD2    H513375   1.491   0.103   9.940  3.1538 -2.0096 -1.8100
  913MPD2    N113376   1.804   0.035  10.424  0.7711  0.1609  0.4289
  913MPD2    H713377   1.891   0.076  10.456  0.3158  0.2464  1.5706
  914MPD2     C13378   4.717   0.524  12.321  0.0615  0.3212  0.0562
  914MPD2    C113379   4.702   0.597  12.436  0.6884  0.2748  0.2363
  914MPD2    C213380   4.642   0.544  12.547  0.1313 -0.0864 -0.3701
  914MPD2    C313381   4.612   0.407  12.547 -0.9867 -0.2245 -0.2137
  914MPD2    C413382   4.626   0.337  12.433  0.3485  0.4993 -0.0036
  914MPD2    C513383   4.677   0.392  12.320 -0.3182 -0.4146  0.5671
  914MPD2     H13384   4.621   0.597  12.639  1.2861  0.5836 -0.4926
  914MPD2    H113385   4.595   0.233  12.432  1.9827  0.0496 -3.6983
  914MPD2    H213386   0.034   0.567  12.231  0.5260 -2.1097 -0.9016
  914MPD2    H313387   4.683   0.339  12.226 -5.4953  0.9622 -0.5868
  914MPD2     N13388   4.562   0.357  12.671 -0.4121  0.1928  0.6909
  914MPD2    H513389   4.547   0.421  12.748  0.6268  1.3528 -0.0626
  914MPD2    N113390   0.031   0.727  12.434 -0.0250 -0.7534 -0.0276
  914MPD2    H713391   0.091   0.751  12.356 -0.4689 -1.4216 -0.5781
  915MPD2     C13392   2.127   0.077  15.938  0.3658  0.2417  0.7504
  915MPD2    C113393   2.012   0.156  15.921  0.0483 -0.6024 -0.4637
  915MPD2    C213394   1.979   0.245  16.018  0.5509 -0.1016 -0.0661
  915MPD2    C313395   2.065   0.266  16.128 -0.0504  0.6803  0.1778
  915MPD2    C413396   2.179   0.201  16.139  0.0304  0.2564 -0.0777
  915MPD2    C513397   2.205   0.109  16.046  0.0990  0.1187  0.8321
  915MPD2     H13398   1.902   0.319  15.996  0.2444 -0.5261 -0.4194
  915MPD2    H113399   2.244   0.208  16.225  1.1051  1.5770 -0.9869
  915MPD2    H213400   2.166   0.014  15.859 -0.9015  0.8513 -0.3667
  915MPD2    H313401   2.301   0.061  16.059 -0.3506 -1.1139 -0.3529
  915MPD2     N13402   2.033   0.369  16.218 -0.0375  0.9247 -0.3375
  915MPD2    H513403   1.949   0.420  16.195  0.3973  2.6079  1.7547
  915MPD2    N113404   1.931   0.151  15.811 -0.9438 -0.8012 -0.1632
  915MPD2    H713405   1.840   0.196  15.818 -0.9087 -0.5359 -1.4038
  916MPD2     C13406   0.329   3.231  15.794  0.3834  0.5379 -0.2844
  916MPD2    C113407   0.292   3.133  15.887  0.0164 -0.1413 -1.1570
  916MPD2    C213408   0.342   3.004  15.871 -0.2602 -0.8102  0.4438
  916MPD2    C313409   0.430   2.977  15.772 -0.0130 -0.2920 -1.0629
  916MPD2    C413410   0.469   3.070  15.687 -0.1958 -0.5973 -0.0086
  916MPD2    C513411   0.422   3.198  15.696  0.0953 -0.5722  0.1567
  916MPD2     H13412   0.311   2.922  15.936  1.6023 -1.5624  0.3725
  916MPD2    H113413   0.536   3.049  15.604  1.3736 -0.1198  1.1426
  916MPD2    H213414   0.296   3.334  15.792  2.2474  1.2023  2.4869
  916MPD2    H313415   0.438   3.272  15.619 -0.3597 -0.5417  0.0936
  916MPD2     N13416   0.475   2.845  15.757  0.3010  0.0586  0.1315
  916MPD2    H513417   0.418   2.775  15.804  1.7242 -1.7337 -0.8310
  916MPD2    N113418   0.200   3.168  15.985 -0.4156 -0.0308  0.2638
  916MPD2    H713419   0.164   3.263  15.988  1.4239  0.6474  1.0684
  917MPD2     C13420   1.187   0.897  11.545  0.3004  0.2490 -0.5036
  917MPD2    C113421   1.196   0.935  11.677 -0.1234 -0.1259 -0.3689
  917MPD2    C213422   1.235   1.070  11.700 -0.2219  0.5743 -0.1951
  917MPD2    C313423   1.259   1.154  11.590  0.3673 -0.2725 -0.2408
  917MPD2    C413424   1.258   1.111  11.464  0.1847  0.2187  0.3773
  917MPD2    C513425   1.212   0.982  11.443 -0.4430 -0.2570 -0.3352
  917MPD2     H13426   1.230   1.114  11.799 -0.1047  0.7885 -0.2839
  917MPD2    H113427   1.273   1.178  11.380 -1.1188 -1.4393 -1.1859
  917MPD2    H213428   1.174   0.793  11.518  0.4352 -0.0102  0.4139
  917MPD2    H313429   1.192   0.944  11.344 -1.7262 -2.4121  0.7523
  917MPD2     N13430   1.282   1.289  11.625  0.3654 -0.1942  0.1569
  917MPD2    H513431   1.279   1.306  11.725 -0.6611  1.3892 -0.1489
  917MPD2    N113432   1.187   0.833  11.771 -0.5961  0.4097 -0.3780
  917MPD2    H713433   1.155   0.743  11.737 -0.3639 -0.3116  1.3015
  918MPD2     C13434   1.608   0.525  12.591 -0.7247 -0.4563 -0.4805
  918MPD2    C113435   1.617   0.654  12.553 -0.0887  0.1396  0.1887
  918MPD2    C213436   1.508   0.695  12.475 -0.5174  1.1254  0.3904
  918MPD2    C313437   1.401   0.617  12.433 -0.1655  0.0786  0.3515
  918MPD2    C413438   1.401   0.486  12.471  0.0972 -0.2364  0.4450
  918MPD2    C513439   1.509   0.447  12.540 -0.3692  0.3476 -0.0982
  918MPD2     H13440   1.513   0.797  12.439  2.7371  1.1646  1.0299
  918MPD2    H113441   1.321   0.415  12.456  0.6035 -0.8606  0.7475
  918MPD2    H213442   1.692   0.477  12.641 -0.7409  0.2242  0.2070
  918MPD2    H313443   1.497   0.344  12.573  1.9185  0.4453  1.0570
  918MPD2     N13444   1.308   0.673  12.353  0.4375  0.0973 -0.3089
  918MPD2    H513445   1.327   0.767  12.318 -1.0069  0.5570  0.1154
  918MPD2    N113446   1.728   0.737  12.561 -0.2094 -0.0584 -0.2868
  918MPD2    H713447   1.722   0.826  12.513  0.2211  1.0038  1.6485
  919MPD2     C13448   1.247   4.596  12.065 -0.6880  0.6479 -0.6867
  919MPD2    C113449   1.255   4.455  12.050  0.0972 -0.1642  0.0449
  919MPD2    C213450   1.286   4.402  11.921  0.2467  0.6090 -0.3947
  919MPD2    C313451   1.305   4.492  11.813 -0.0451  0.3055  0.3067
  919MPD2    C413452   1.314   4.630  11.839 -0.9274  0.5563 -0.1005
  919MPD2    C513453   1.288   4.681  11.961  0.2919  0.4326  0.2370
  919MPD2     H13454   1.291   4.296  11.902 -0.4906  0.7126 -1.1474
  919MPD2    H113455   1.323   4.703  11.759  2.7101 -0.6967 -0.8266
  919MPD2    H213456   1.228   4.638  12.163  1.2009  0.8322 -0.4001
  919MPD2    H313457   1.291   0.063  11.970 -3.0170  0.5309  0.1808
  919MPD2     N13458   1.323   4.451  11.676  0.7486 -0.3806  0.0934
  919MPD2    H513459   1.357   4.523  11.612 -2.3529  0.9565 -0.0760
  919MPD2    N113460   1.217   4.360  12.154  0.5644  0.0836 -0.4055
  919MPD2    H713461   1.216   4.263  12.124 -1.2150 -0.5746  1.7983
  920MPD2     C13462   1.585   0.160  10.880 -0.2118 -0.4747  0.5172
  920MPD2    C113463   1.494   0.079  10.827  0.0618  0.3420 -0.3671
  920MPD2    C213464   1.434   4.710  10.903  0.3797  0.5267  0.6873
  920MPD2    C313465   1.481   4.682  11.035  0.4792 -0.5563  0.6726
  920MPD2    C413466   1.585   0.032  11.083  0.1941 -0.1480 -1.0294
  920MPD2    C513467   1.633   0.137  11.007  0.6206 -0.2852 -0.3492
  920MPD2     H13468   1.360   4.645  10.857 -0.0659  1.5953 -0.1061
  920MPD2    H113469   1.618   0.026  11.186 -2.2266  0.5881 -0.2367
  920MPD2    H213470   1.626   0.246  10.830  0.6131 -1.1149  0.0928
  920MPD2    H313471   1.720   0.193  11.039 -1.2493  2.3598  0.1019
  920MPD2     N13472   1.410   4.588  11.108  0.0806 -0.1360 -0.3078
  920MPD2    H513473   1.341   4.528  11.063  1.1184  0.1374 -2.2852
  920MPD2    N113474   1.451   0.099  10.692  0.5197  0.4359  0.3889
  920MPD2    H713475   1.392   0.029  10.649 -0.4364  1.6388 -0.2339
  921MPD2     C13476   1.804   3.893  17.266 -0.0439 -0.3792 -0.2746
  921MPD2    C113477   1.840   3.762  17.235 -0.2411 -0.3222 -0.5584
  921MPD2    C213478   1.744   3.667  17.204 -0.2437 -0.4012  0.7439
  921MPD2    C313479   1.611   3.704  17.224  0.0864  0.6155  0.2272
  921MPD2    C413480   1.582   3.828  17.273  0.1034 -0.5331 -0.2657
  921MPD2    C513481   1.672   3.920  17.290  0.3100  0.8298 -0.3977
  921MPD2     H13482   1.765   3.568  17.167  0.9654  0.7051 -1.5039
  921MPD2    H113483   1.480   3.865  17.283 -1.0039 -3.3734 -1.3003
  921MPD2    H213484   1.874   3.976  17.271 -0.3675 -0.2675  2.1590
  921MPD2    H313485   1.642   4.022  17.314  0.0571  1.0219 -1.5464
  921MPD2     N13486   1.503   3.613  17.208  0.3757 -0.6217  0.6066
  921MPD2    H513487   1.410   3.650  17.223  1.2169  1.4594  0.6427
  921MPD2    N113488   1.983   3.749  17.227  0.4691  0.0075  0.7436
  921MPD2    H713489   2.031   3.838  17.216  0.5889 -0.2523 -0.9033
  922MPD2     C13490   2.591   1.034  17.617  0.3036 -0.3262 -0.5486
  922MPD2    C113491   2.555   1.164  17.636 -0.1511 -0.1601 -0.0681
  922MPD2    C213492   2.440   1.193   0.008  0.2893 -0.0667 -0.6089
  922MPD2    C313493   2.361   1.094   0.059 -0.0323  0.5053  0.5842
  922MPD2    C413494   2.406   0.967   0.036 -0.4445  0.2086  0.0437
  922MPD2    C513495   2.514   0.935  17.668 -0.5626  0.0868 -0.5307
  922MPD2     H13496   2.413   1.297   0.024  0.1710 -0.3196  0.8557
  922MPD2    H113497   2.352   0.882   0.075 -0.2418 -0.8728 -2.0436
  922MPD2    H213498   2.670   1.010  17.547  0.3490 -1.2144 -0.1873
  922MPD2    H313499   2.546   0.832  17.660  2.3387  0.8782  0.8161
  922MPD2     N13500   2.237   1.133   0.120 -0.3148  0.5050  0.3117
  922MPD2    H513501   2.195   1.223   0.104  1.3350  1.3923  0.9562
  922MPD2    N113502   2.621   1.274  17.584  0.4039  0.9204 -0.6195
  922MPD2    H713503   2.600   1.365  17.624 -1.8625 -0.6419  1.7594
  923MPD2     C13504   0.407   2.798   9.245  0.3773  0.2481 -0.0475
  923MPD2    C113505   0.380   2.856   9.368 -0.1625 -0.8951  0.1117
  923MPD2    C213506   0.439   2.805   9.485 -0.5102 -0.1108 -0.8649
  923MPD2    C313507   0.504   2.684   9.478  0.4805  0.2888 -0.1272
  923MPD2    C413508   0.517   2.623   9.356 -0.5153 -0.2332  0.2980
  923MPD2    C513509   0.476   2.684   9.241 -0.3775 -1.1146  0.2386
  923MPD2     H13510   0.421   2.855   9.579  3.0262  0.1895 -0.3786
  923MPD2    H113511   0.569   2.529   9.339  0.1951  0.1664  0.2392
  923MPD2    H213512   0.363   2.836   9.154  1.8240 -1.7603 -1.5770
  923MPD2    H313513   0.485   2.631   9.147 -0.9953  1.9264 -1.5392
  923MPD2     N13514   0.547   2.609   9.597 -0.8915 -0.0518  0.0439
  923MPD2    H513515   0.582   2.516   9.577  2.5216  1.1975  0.1131
  923MPD2    N113516   0.302   2.979   9.371 -0.3918 -0.4340  0.3311
  923MPD2    H713517   0.262   3.012   9.283 -0.7224  1.2490  1.1123
  924MPD2     C13518   4.148   1.489  16.778  0.3527 -0.1690 -0.3439
  924MPD2    C113519   4.140   1.559  16.659 -0.6180 -0.6413  0.0478
  924MPD2    C213520   4.218   1.521  16.548 -0.2926  0.0437  0.6918
  924MPD2    C313521   4.311   1.421  16.557  0.4627  0.4095  0.4599
  924MPD2    C413522   4.323   1.358  16.682 -0.1019  0.2710  0.0210
  924MPD2    C513523   4.240   1.388  16.788 -0.6211 -0.1307  0.0836
  924MPD2     H13524   4.210   1.581  16.458  0.3423  0.6153  1.0188
  924MPD2    H113525   4.401   1.286  16.702 -0.1598 -0.1322 -1.2308
  924MPD2    H213526   4.091   1.523  16.864 -1.7189 -2.6639 -0.7240
  924MPD2    H313527   4.241   1.340  16.885  2.4065 -0.0390  0.0900
  924MPD2     N13528   4.412   1.391  16.456 -0.1967  0.3148  0.4801
  924MPD2    H513529   4.489   1.338  16.495  1.6199  1.6790 -1.2404
  924MPD2    N113530   4.055   1.670  16.651 -0.9320 -0.0830  0.1584
  924MPD2    H713531   4.015   1.689  16.743  4.7961  1.6531  2.2568
  925MPD2     C13532   3.218   4.405  14.993 -0.3683  0.1611 -0.7856
  925MPD2    C113533   3.109   4.354  14.918  0.0433  0.7572  0.7285
  925MPD2    C213534   2.980   4.348  14.972  0.1402  0.3186  0.2641
  925MPD2    C313535   2.949   4.394  15.100  0.0824 -0.1501  0.1781
  925MPD2    C413536   3.058   4.441  15.169 -0.2388  0.5296  0.1605
  925MPD2    C513537   3.192   4.446  15.124  0.1383  0.0811 -0.5076
  925MPD2     H13538   2.911   4.298  14.905 -0.5106  2.3163 -0.5558
  925MPD2    H113539   3.049   4.477  15.271 -0.1006  2.3592 -0.4797
  925MPD2    H213540   3.320   4.401  14.957  0.9043  1.0701  2.7239
  925MPD2    H313541   3.277   4.469  15.186 -0.5742  1.7728 -0.1370
  925MPD2     N13542   2.826   4.377  15.163  0.2695  0.6811 -0.3635
  925MPD2    H513543   2.837   4.394  15.263  0.2138 -0.2849 -0.1957
  925MPD2    N113544   3.123   4.314  14.784  0.2610  0.4706  0.2582
  925MPD2    H713545   3.041   4.275  14.739 -0.7287  2.0499  0.6541
  926MPD2     C13546   2.104   2.641  13.775  0.2368  0.0222  0.0858
  926MPD2    C113547   2.006   2.721  13.720 -0.9531  0.4172 -0.4348
  926MPD2    C213548   2.048   2.810  13.624  0.7399 -0.7261  0.0509
  926MPD2    C313549   2.180   2.822  13.586 -0.1701  0.3809 -0.2824
  926MPD2    C413550   2.272   2.738  13.642  0.0499  0.0667 -0.4342
  926MPD2    C513551   2.234   2.647  13.735  0.5538 -0.3000  0.5459
  926MPD2     H13552   1.974   2.873  13.575 -0.5945 -2.8068 -0.6283
  926MPD2    H113553   2.376   2.753  13.617 -0.0903  2.2470  0.3267
  926MPD2    H213554   2.074   2.559  13.839  0.7030 -0.0721  0.1833
  926MPD2    H313555   2.312   2.587  13.779  1.5294  0.9576  0.5279
  926MPD2     N13556   2.223   2.913  13.489 -0.4934 -0.2035  0.3190
  926MPD2    H513557   2.321   2.911  13.464 -0.2087  0.8081  1.3998
  926MPD2    N113558   1.861   2.720  13.747 -0.3355  0.1976 -0.0762
  926MPD2    H713559   1.803   2.788  13.697  0.8161  0.4899 -1.0148
  927MPD2     C13560   1.459   0.366   0.640 -0.6775 -0.0269 -0.1910
  927MPD2    C113561   1.430   0.245   0.586 -0.7483 -0.7655 -0.1456
  927MPD2    C213562   1.441   0.232   0.445  0.5446 -0.4681  0.6102
  927MPD2    C313563   1.484   0.342   0.364  0.3516 -0.2117  0.0769
  927MPD2    C413564   1.505   0.464   0.423  0.7926  0.6350  0.4421
  927MPD2    C513565   1.485   0.475   0.556 -0.0446  0.1408  0.8945
  927MPD2     H13566   1.422   0.140   0.390  0.1052  0.3317 -0.5714
  927MPD2    H113567   1.551   0.550   0.375 -1.2170  1.0578 -0.7026
  927MPD2    H213568   1.441   0.382   0.745 -1.5932 -0.7435 -0.2385
  927MPD2    H313569   1.471   0.574   0.599  1.2964  0.7860 -0.1840
  927MPD2     N13570   1.486   0.330   0.227 -0.5066 -0.4362  0.8430
  927MPD2    H513571   1.463   0.236   0.198 -1.9413 -0.0438  0.7038
  927MPD2    N113572   1.393   0.147   0.679 -0.5322 -0.2001 -0.1692
  927MPD2    H713573   1.375   0.178   0.774 -0.1122 -2.1216  0.5413
  928MPD2     C13574   4.352   3.086   1.187 -0.5409  0.2139 -0.6249
  928MPD2    C113575   4.430   3.184   1.236  0.0324  0.8225 -1.1531
  928MPD2    C213576   4.521   3.252   1.154 -0.5632  0.0416  0.4643
  928MPD2    C313577   4.538   3.218   1.024 -0.1317 -0.0978 -0.4630
  928MPD2    C413578   4.450   3.121   0.976 -0.3688  0.3786  0.1340
  928MPD2    C513579   4.363   3.054   1.056 -0.3312  0.2810 -0.2597
  928MPD2     H13580   4.581   3.331   1.198  0.0474 -1.3603  2.1448
  928MPD2    H113581   4.455   3.092   0.872  1.6018  1.5509 -0.1099
  928MPD2    H213582   4.294   3.022   1.252  0.7085 -0.6338 -0.3469
  928MPD2    H313583   4.311   2.971   1.008 -1.3292  0.3295  0.7487
  928MPD2     N13584   4.613   3.286   0.926  0.0825  0.1173 -0.3827
  928MPD2    H513585   4.603   3.252   0.830 -1.2634  0.7839 -0.4727
  928MPD2    N113586   4.419   3.224   1.372  0.5898 -0.6620 -0.1612
  928MPD2    H713587   4.483   3.293   1.409 -1.5915  0.3828  1.6997
  929MPD2     C13588   0.044   3.056  11.209 -0.0801  0.5274  0.5152
  929MPD2    C113589   4.678   2.988  11.133  0.4243  0.2303 -0.3146
  929MPD2    C213590   4.685   2.994  10.998 -0.8710  0.6834  0.3839
  929MPD2    C313591   0.073   3.053  10.942 -0.3421 -0.3948 -0.0035
  929MPD2    C413592   0.172   3.105  11.019  0.2854 -0.2660  0.0137
  929MPD2    C513593   0.154   3.120  11.152  0.2844  0.2991  0.1982
  929MPD2     H13594   4.600   2.967  10.938  0.9825  0.6723 -2.2348
  929MPD2    H113595   0.264   3.146  10.980  1.3533  0.0225  2.8139
  929MPD2    H213596   0.039   3.041  11.317  2.6196 -0.9549  0.4490
  929MPD2    H313597   0.233   3.157  11.216 -0.4422 -3.7436  3.5078
  929MPD2     N13598   0.094   3.074  10.804 -0.1960  0.6087  0.6188
  929MPD2    H513599   0.177   3.121  10.769 -0.3401 -0.2704 -0.8941
  929MPD2    N113600   4.575   2.924  11.203 -0.2443  0.4247 -0.5539
  929MPD2    H713601   4.579   2.939  11.303  0.5333  1.1947 -0.6980
  930MPD2     C13602   1.143   1.132  14.433 -0.6023  0.2971 -0.0411
  930MPD2    C113603   1.223   1.067  14.342  0.1287  0.4596  0.1284
  930MPD2    C213604   1.167   0.969  14.266 -0.5237  0.0995  0.8277
  930MPD2    C313605   1.028   0.941  14.266 -0.0243  0.6102  0.1819
  930MPD2    C413606   0.953   1.011  14.358  0.8159  0.8484  0.2211
  930MPD2    C513607   1.009   1.104  14.442  0.0612  0.2158 -0.2313
  930MPD2     H13608   1.231   0.902  14.208  0.0836  1.9609 -0.6454
  930MPD2    H113609   0.848   0.988  14.376  0.7800 -0.3025 -1.4103
  930MPD2    H213610   1.180   1.211  14.498  2.8889 -1.4269  0.0523
  930MPD2    H313611   0.952   1.151  14.521  0.0214 -1.1082  0.5357
  930MPD2     N13612   0.962   0.839  14.191  0.0376  0.6888 -0.1610
  930MPD2    H513613   0.865   0.836  14.222  0.0642  1.2303 -0.0216
  930MPD2    N113614   1.353   1.110  14.336 -0.0060  0.1586 -0.3411
  930MPD2    H713615   1.376   1.177  14.408  0.1257 -0.8353  0.5510
  931MPD2     C13616   1.134   3.966   0.887 -0.0771  0.8956  0.5432
  931MPD2    C113617   1.214   4.077   0.902  0.0811  0.3191 -0.2233
  931MPD2    C213618   1.309   4.071   1.000 -0.2068  0.6978  0.1793
  931MPD2    C313619   1.318   3.961   1.086  0.2221  0.0350 -0.1459
  931MPD2    C413620   1.240   3.850   1.064  0.1458 -0.0894 -0.1222
  931MPD2    C513621   1.162   3.858   0.956  0.0976  0.0903  0.4500
  931MPD2     H13622   1.351   4.167   1.028  1.4373  0.1437 -0.3883
  931MPD2    H113623   1.231   3.760   1.123  1.7169  0.3534  0.7720
  931MPD2    H213624   1.060   3.964   0.809  0.4685  1.8400 -0.0074
  931MPD2    H313625   1.089   3.782   0.932 -1.6078  1.8246  0.1923
  931MPD2     N13626   1.384   3.969   1.208 -0.6518 -0.0998  0.1860
  931MPD2    H513627   1.347   3.913   1.284  0.5984 -0.1053  0.7926
  931MPD2    N113628   1.184   4.199   0.833  0.0753 -0.1101 -0.4638
  931MPD2    H713629   1.098   4.207   0.780  0.5134  2.5520 -0.7410
  932MPD2     C13630   3.619   3.759  11.412  0.3722  0.0794 -0.5101
  932MPD2    C113631   3.671   3.864  11.484 -0.6912  0.1876 -0.6393
  932MPD2    C213632   3.718   3.836  11.614  0.6215  0.1295 -0.5550
  932MPD2    C313633   3.703   3.703  11.670  0.0421  0.1592  0.6487
  932MPD2    C413634   3.634   3.609  11.598 -0.3579 -0.4936  0.0623
  932MPD2    C513635   3.588   3.643  11.471 -0.0906  0.1038  0.3663
  932MPD2     H13636   3.773   3.911  11.670  0.9078 -0.8941  0.5165
  932MPD2    H113637   3.616   3.509  11.634  1.2439 -1.0647 -0.7335
  932MPD2    H213638   3.570   3.778  11.317  0.3786  1.0562 -0.3155
  932MPD2    H313639   3.533   3.569  11.414 -1.1379 -1.1824  3.0304
  932MPD2     N13640   3.745   3.665  11.802 -0.6755  1.0672 -0.1604
  932MPD2    H513641   3.696   3.593  11.853  0.2082 -1.5826 -3.0419
  932MPD2    N113642   3.686   3.994  11.431  0.2053  0.2882 -0.1541
  932MPD2    H713643   3.722   4.069  11.490 -0.2519  1.2366 -1.0841
  933MPD2     C13644   3.997   3.643   2.046  0.1248 -0.5472  0.2175
  933MPD2    C113645   4.039   3.660   1.918 -0.2916  0.1791 -0.0691
  933MPD2    C213646   3.993   3.767   1.840  0.5352  0.2580  0.1074
  933MPD2    C313647   3.893   3.848   1.897 -0.3557 -0.0891  0.5905
  933MPD2    C413648   3.849   3.831   2.033  0.3272  0.2181 -0.3457
  933MPD2    C513649   3.908   3.731   2.108 -0.4022 -0.3488  0.0694
  933MPD2     H13650   4.042   3.779   1.744  0.6953 -2.2047 -0.1141
  933MPD2    H113651   3.781   3.897   2.086  1.8213 -0.5020  2.4485
  933MPD2    H213652   4.027   3.556   2.105 -0.2422 -0.8960 -0.1089
  933MPD2    H313653   3.883   3.711   2.212 -4.2011 -2.1775 -1.2055
  933MPD2     N13654   3.860   3.955   1.813  0.1106  0.3728  0.3912
  933MPD2    H513655   3.900   3.956   1.719  0.9058  1.0071  0.7431
  933MPD2    N113656   4.130   3.560   1.870 -0.0589  0.0999  0.7183
  933MPD2    H713657   4.184   3.508   1.939  1.6719  0.6088 -0.2625
  934MPD2     C13658   0.258   1.189   2.271  0.1699 -0.7173  0.8481
  934MPD2    C113659   0.316   1.176   2.146 -0.1024  0.3407 -0.3082
  934MPD2    C213660   0.248   1.102   2.052  0.6916  0.1864 -0.8105
  934MPD2    C313661   0.127   1.042   2.070  0.5766  0.2578 -0.5191
  934MPD2    C413662   0.070   1.065   2.192  0.1483  0.5626  0.3180
  934MPD2    C513663   0.135   1.131   2.290 -0.7457 -0.2452  0.4910
  934MPD2     H13664   0.299   1.090   1.957 -2.0154  1.8805 -2.4720
  934MPD2    H113665   4.701   1.027   2.227  1.7050 -2.3038  1.4235
  934MPD2    H213666   0.300   1.243   2.355  1.3767 -1.3423  0.6364
  934MPD2    H313667   0.096   1.148   2.389 -1.5822 -0.3788  0.1792
  934MPD2     N13668   0.063   0.964   1.971  0.3687  0.1092 -0.5559
  934MPD2    H513669   4.691   0.938   1.982 -0.3932  2.4466 -1.6731
  934MPD2    N113670   0.444   1.243   2.125 -0.0844  0.8050 -0.3730
  934MPD2    H713671   0.467   1.311   2.197 -0.6446  2.3365 -1.6509
  935MPD2     C13672   0.486   0.383   1.255 -0.1127 -0.6195  0.0418
  935MPD2    C113673   0.347   0.375   1.226 -0.3063 -0.4872  0.5767
  935MPD2    C213674   0.261   0.462   1.285 -0.2846 -0.1496  0.8415
  935MPD2    C313675   0.305   0.560   1.378  0.2697  0.2727 -0.5142
  935MPD2    C413676   0.440   0.569   1.397  0.4729 -0.3380  0.2350
  935MPD2    C513677   0.531   0.485   1.332  0.3628  0.6709  0.8061
  935MPD2     H13678   0.155   0.464   1.263 -0.1237 -3.0073 -0.0911
  935MPD2    H113679   0.488   0.636   1.468 -1.6734 -0.1080  1.4571
  935MPD2    H213680   0.554   0.306   1.221  0.5187  0.0398 -0.1844
  935MPD2    H313681   0.635   0.507   1.355  0.8415 -0.3822 -0.3416
  935MPD2     N13682   0.226   0.648   1.453 -0.2466 -0.0195 -0.3128
  935MPD2    H513683   0.282   0.717   1.502 -0.1782 -0.4826  0.2624
  935MPD2    N113684   0.298   0.260   1.167  0.5142  0.4230  0.2793
  935MPD2    H713685   0.203   0.266   1.132  0.5000 -0.3875  0.1626
  936MPD2     C13686   3.648   2.822  13.176  0.6676 -0.4091 -0.5903
  936MPD2    C113687   3.733   2.730  13.228 -0.1076 -0.1257 -0.2156
  936MPD2    C213688   3.864   2.763  13.258  0.0366  0.1430  0.0894
  936MPD2    C313689   3.903   2.897  13.238 -0.2004  0.5669 -0.3119
  936MPD2    C413690   3.821   2.989  13.181 -0.0545 -0.0939 -0.7200
  936MPD2    C513691   3.692   2.952  13.147 -0.3469 -0.1181 -0.1104
  936MPD2     H13692   3.937   2.704  13.312 -1.1452 -1.7654 -0.3827
  936MPD2    H113693   3.852   3.091  13.158 -3.0663  0.7884 -1.0270
  936MPD2    H213694   3.540   2.811  13.165  0.6201  1.7225 -2.2882
  936MPD2    H313695   3.620   3.023  13.109 -0.5237 -0.8437 -1.1191
  936MPD2     N13696   4.034   2.932  13.286 -0.1481  0.0573  0.3575
  936MPD2    H513697   4.088   2.866  13.340 -3.5147 -0.3676  3.1973
  936MPD2    N113698   3.686   2.606  13.276  1.0109 -0.0603 -0.0114
  936MPD2    H713699   3.751   2.535  13.310  0.0502  0.2334  2.4884
  937MPD2     C13700   1.422   3.704  12.296 -0.1313 -0.7944 -0.6814
  937MPD2    C113701   1.365   3.807  12.226  1.2594 -0.3975 -0.1171
  937MPD2    C213702   1.422   3.840  12.105  0.7728 -0.0858 -0.1071
  937MPD2    C313703   1.530   3.775  12.049  0.3462 -0.1171 -0.0824
  937MPD2    C413704   1.582   3.664  12.116  0.4506 -0.0120 -0.1251
  937MPD2    C513705   1.531   3.631  12.237  0.0976  0.5500  0.2945
  937MPD2     H13706   1.387   3.929  12.053  3.0272  2.0769  2.0851
  937MPD2    H113707   1.658   3.603  12.069  1.3914  1.6007 -0.6721
  937MPD2    H213708   1.382   3.674  12.392 -0.5965  0.8192 -0.3735
  937MPD2    H313709   1.586   3.549  12.283  0.4337  0.0817 -0.9390
  937MPD2     N13710   1.587   3.823  11.928 -0.5060  0.1197 -0.4110
  937MPD2    H513711   1.529   3.892  11.880  0.7536  0.8010 -0.9428
  937MPD2    N113712   1.284   3.910  12.282 -0.1802 -0.4012  0.0985
  937MPD2    H713713   1.253   3.976  12.211 -2.1594 -1.9119 -0.4629
  938MPD2     C13714   3.945   0.610   0.910 -0.6042 -0.2974  0.1624
  938MPD2    C113715   4.008   0.666   1.024 -0.3535 -0.3046  0.1097
  938MPD2    C213716   4.009   0.585   1.136 -1.0009  0.1485 -1.2525
  938MPD2    C313717   3.963   0.457   1.135  0.4051 -0.0981  0.3352
  938MPD2    C413718   3.890   0.408   1.031  0.1650  0.5786 -0.5606
  938MPD2    C513719   3.880   0.487   0.917 -0.6399 -0.1828  0.2633
  938MPD2     H13720   4.055   0.626   1.225 -2.5260  1.0622 -0.8982
  938MPD2    H113721   3.853   0.306   1.023  0.3873  0.4259  0.3595
  938MPD2    H213722   3.940   0.665   0.816  2.6470 -1.2582 -0.5851
  938MPD2    H313723   3.817   0.459   0.833  0.4013  0.9997 -0.9072
  938MPD2     N13724   3.988   0.368   1.243  0.0406 -0.1093 -0.8625
  938MPD2    H513725   3.962   0.271   1.226 -1.7345 -0.3265  3.0226
  938MPD2    N113726   4.060   0.801   1.032  0.4717  0.2851 -0.3059
  938MPD2    H713727   4.091   0.839   1.120 -0.1562  1.9419 -0.7992
  939MPD2     C13728   0.436   1.867   1.441  0.5813 -0.7457 -0.8995
  939MPD2    C113729   0.451   1.993   1.389  0.1818  0.4242  0.0017
  939MPD2    C213730   0.548   2.014   1.292 -0.2884 -0.2248  0.2429
  939MPD2    C313731   0.624   1.903   1.251  0.8025 -0.1518 -0.3066
  939MPD2    C413732   0.609   1.774   1.309  0.4921  0.7339 -0.1762
  939MPD2    C513733   0.518   1.756   1.408 -0.1072 -0.0628 -0.3449
  939MPD2     H13734   0.568   2.105   1.237  0.9235 -0.9298 -0.4833
  939MPD2    H113735   0.657   1.685   1.270  1.2930  0.6249  1.0753
  939MPD2    H213736   0.350   1.850   1.504  0.1984 -0.4324 -1.3341
  939MPD2    H313737   0.505   1.660   1.458 -0.4231  0.6418  0.9116
  939MPD2     N13738   0.718   1.926   1.153 -0.1540  0.7921 -0.3302
  939MPD2    H513739   0.721   2.024   1.128  0.6353  0.8580  0.0019
  939MPD2    N113740   0.363   2.093   1.450  0.1019  0.1106  0.1592
  939MPD2    H713741   0.300   2.050   1.517 -0.1654 -0.5302 -0.5006
  940MPD2     C13742   4.561   2.376  13.129  0.2461 -0.4777  0.4655
  940MPD2    C113743   4.690   2.337  13.156  0.6990  0.1140  0.1790
  940MPD2    C213744   0.029   2.266  13.054 -0.9000  0.6644  0.3313
  940MPD2    C313745   4.696   2.237  12.929 -0.7300 -0.1644  0.1795
  940MPD2    C413746   4.570   2.290  12.903  0.2357  0.0893 -0.2044
  940MPD2    C513747   4.507   2.351  13.007 -0.1503 -0.0756  0.2549
  940MPD2     H13748   0.129   2.225  13.066 -1.4691  0.2411  3.6674
  940MPD2    H113749   4.514   2.266  12.813 -0.4060  0.2761  0.1466
  940MPD2    H213750   4.496   2.418  13.205 -1.7156  0.4020 -1.6980
  940MPD2    H313751   4.402   2.376  12.997 -0.3974 -1.0635  0.3151
  940MPD2     N13752   0.029   2.170  12.818  0.2130 -0.0579  0.4460
  940MPD2    H513753   4.699   2.161  12.734 -1.4880 -0.3457  1.6278
  940MPD2    N113754   0.022   2.363  13.282 -0.4576 -0.0749  0.0191
  940MPD2    H713755   0.104   2.310  13.311  0.2488 -0.1244 -2.0022
  941MPD2     C13756   4.397   0.721   9.413 -0.1671  0.0862  0.0950
  941MPD2    C113757   4.289   0.740   9.493 -0.3630  0.2274  0.3464
  941MPD2    C213758   4.206   0.633   9.511 -0.0386 -0.1115 -0.0457
  941MPD2    C313759   4.238   0.513   9.453  0.6301  0.1183 -0.5693
  941MPD2    C413760   4.356   0.499   9.380  0.3289  0.1351  0.5649
  941MPD2    C513761   4.434   0.603   9.362  0.0081  0.0538  0.2057
  941MPD2     H13762   4.122   0.650   9.577  1.4023  0.7140  1.5489
  941MPD2    H113763   4.382   0.400   9.345 -1.9933 -0.5766  0.8254
  941MPD2    H213764   4.465   0.802   9.390 -0.5337 -0.1872 -1.9740
  941MPD2    H313765   4.524   0.593   9.303 -0.6723 -0.0085 -0.8130
  941MPD2     N13766   4.161   0.395   9.467 -0.0250  0.1807  0.7806
  941MPD2    H513767   4.195   0.305   9.435  0.8851  1.2961 -1.3557
  941MPD2    N113768   4.260   0.870   9.553  0.1391  0.6479  0.2383
  941MPD2    H713769   4.183   0.878   9.619  0.7182 -1.9873  1.2026
  942MPD2     C13770   4.513   3.250   9.262 -0.4407  0.2315  0.3509
  942MPD2    C113771   4.553   3.160   9.160 -0.4551 -0.0110 -0.4513
  942MPD2    C213772   4.613   3.039   9.202  1.0618 -0.0385  0.7360
  942MPD2    C313773   4.617   3.002   9.341  0.2498 -0.0111 -0.2443
  942MPD2    C413774   4.561   3.085   9.434  0.2082  0.1096 -0.0904
  942MPD2    C513775   4.524   3.208   9.398  0.2952  0.2048 -0.6504
  942MPD2     H13776   4.656   2.977   9.123 -2.1380 -2.6776  1.0863
  942MPD2    H113777   4.559   3.056   9.538 -1.1379  1.7226  0.3422
  942MPD2    H213778   4.477   3.349   9.238 -0.3994  0.2785  0.4861
  942MPD2    H313779   4.500   3.283   9.472 -1.2014 -0.8275 -0.0936
  942MPD2     N13780   4.674   2.889   9.389 -0.0586 -0.4152 -0.4326
  942MPD2    H513781   4.671   2.880   9.490 -0.1842 -0.3343 -0.4284
  942MPD2    N113782   4.546   3.190   9.022 -0.3281  0.3843 -0.0569
  942MPD2    H713783   4.579   3.106   8.975  1.2655 -0.6720  2.8939
  943MPD2     C13784   0.431   1.309   9.476 -0.7273 -0.0326 -0.4740
  943MPD2    C113785   0.544   1.247   9.431  0.1940 -0.0828 -0.3552
  943MPD2    C213786   0.654   1.325   9.404 -0.0143 -0.1575 -0.6229
  943MPD2    C313787   0.650   1.463   9.412  0.7243  0.3135  0.8306
  943MPD2    C413788   0.537   1.518   9.461  0.3407  0.0471  0.5769
  943MPD2    C513789   0.434   1.443   9.502  0.0172 -0.0336  0.3928
  943MPD2     H13790   0.745   1.286   9.360  0.3478  0.3246 -0.2956
  943MPD2    H113791   0.527   1.626   9.466 -1.9559 -0.1761  0.8740
  943MPD2    H213792   0.344   1.246   9.490  1.0818 -2.1590  1.1177
  943MPD2    H313793   0.343   1.483   9.545 -0.6070  1.3944 -2.2797
  943MPD2     N13794   0.756   1.547   9.384  0.6146 -0.4102  0.2593
  943MPD2    H513795   0.758   1.640   9.425  0.8830 -0.5388  0.5389
  943MPD2    N113796   0.556   1.105   9.420 -0.2782  0.2691  0.3839
  943MPD2    H713797   0.474   1.045   9.429 -2.3592  2.8745 -1.2902
  944MPD2     C13798   2.182   0.974  11.191  0.3972  0.0097  0.3640
  944MPD2    C113799   2.084   0.925  11.275  0.2086 -0.5402 -0.2231
  944MPD2    C213800   2.048   1.002  11.387 -0.3268 -0.0465 -0.9658
  944MPD2    C313801   2.113   1.121  11.415 -0.1392 -0.3881  0.1097
  944MPD2    C413802   2.229   1.148  11.340  0.8513  0.2364  0.6880
  944MPD2    C513803   2.259   1.075  11.231  0.4094 -0.0123 -0.1007
  944MPD2     H13804   1.973   0.977  11.461 -1.0070  0.2839 -1.5356
  944MPD2    H113805   2.290   1.236  11.361  1.5379  0.0012 -0.2953
  944MPD2    H213806   2.204   0.913  11.104 -2.3762  0.1434 -0.4247
  944MPD2    H313807   2.342   1.102  11.167  1.1306 -0.5212  0.6261
  944MPD2     N13808   2.075   1.209  11.513 -0.2938  0.7976 -0.4744
  944MPD2    H513809   1.997   1.175  11.569  0.8134  1.2610  1.3456
  944MPD2    N113810   2.016   0.803  11.247  0.8582 -0.0915 -0.0866
  944MPD2    H713811   2.038   0.755  11.160  1.3544  0.9238 -0.5206
    1TCq1    O113812   4.704   1.610  14.410  0.5029 -0.2312 -0.3127
    1TCq1    C113813   4.621   1.525  14.479  0.7730  0.1563  0.8570
    1TCq1    O213814   4.509   1.498  14.446  0.6575 -0.2025  0.4573
    1TCq1    C213815   4.718   1.452  14.558  0.3787  0.0463 -0.1943
    1TCq1    C313816   4.691   1.326  14.603 -0.3703  0.0812  0.1349
    1TCq1    C413817   0.045   1.265  14.692  0.3666 -0.0486  0.0652
    1TCq1    C513818   0.151   1.333  14.748 -0.4823 -0.6094  0.2247
    1TCq1    C613819   0.166   1.462  14.725 -0.1016  0.8597 -0.3771
    1TCq1    C713820   0.087   1.524  14.625 -0.8942 -0.1686 -0.1083
    1TCq1    C813821   0.295   1.515  14.777 -0.0626 -0.3614  0.2290
    1TCq1    O413822   0.334   1.465  14.880  0.0925  0.0522  0.3606
    1TCq1    C913823   0.032   1.125  14.724  0.0225  0.2129  0.7702
    1TCq1    O513824   4.669   1.056  14.665 -0.3500  0.2397 -0.6988
    1TCq1    O613825   0.086   1.084  14.827 -0.5101 -0.3022  0.0205
    1TCq1    H113826   0.070   1.602  14.444 -0.9923 -2.1062  3.2705
    1TCq1    H213827   4.625   1.255  14.556 -1.1980  0.5812  0.5496
    1TCq1    H313828   0.220   1.273  14.807  0.3183  0.0191 -0.0665
    1TCq1    H413829   0.087   1.631  14.609  1.9605  0.2727  2.8149
    2MPD2     C13830   0.696   1.831  14.780  0.1022  0.0459 -0.5230
    2MPD2    C113831   0.608   1.885  14.692 -0.0915 -0.0425  0.3721
    2MPD2    C213832   0.485   1.818  14.676  0.0721  0.4216 -0.3793
    2MPD2    C313833   0.457   1.698  14.740  0.6961  0.7850  0.0013
    2MPD2    C413834   0.555   1.655  14.835 -0.1250 -0.6004 -0.5262
    2MPD2    C513835   0.678   1.717  14.846  0.2913  0.2312 -0.3386
    2MPD2     H13836   0.409   1.860  14.611 -0.8984  0.3949  0.7622
    2MPD2    H113837   0.555   1.562  14.891 -0.1866 -0.8640 -0.9600
    2MPD2    H213838   0.785   1.884  14.811  1.4252 -2.2902 -0.3112
    2MPD2    H313839   0.754   1.682  14.915  0.9621 -1.5890 -2.0072
    2MPD2     N13840   0.332   1.632  14.713  0.1256  0.0685  0.2528
    2MPD2    H513841   0.285   1.660  14.627 -1.4331 -0.5128  0.9035
    2MPD2    N113842   0.629   2.013  14.641  0.6896  0.6865 -0.0831
    2MPD2    H713843   0.714   2.061  14.669  0.7427 -0.8260  2.3264
    3TMC2    C113844   0.573   2.215  14.561  0.2661 -0.2382  0.0775
    3TMC2    C213845   0.575   2.281  14.684  0.4307 -0.1708  0.1734
    3TMC2    C313846   0.563   2.417  14.681 -0.2221  0.4570 -0.7592
    3TMC2    C413847   0.555   2.283  14.444 -0.4682  0.1389 -0.1224
    3TMC2    C513848   0.552   2.424  14.449  0.0658  0.4623 -0.3468
    3TMC2    C613849   0.546   2.489  14.567 -0.0846  0.0913 -0.4392
    3TMC2     C13850   0.539   2.076  14.560  0.3948  0.0851 -0.1205
    3TMC2     O13851   0.443   2.039  14.493 -0.5824  0.1236  0.1594
    3TMC2     H13852   0.596   2.229  14.777 -0.5725 -0.7603  0.0760
    3TMC2    H113853   0.559   2.230  14.350  1.6669 -1.0438  0.6439
    3TMC2    H213854   0.533   2.596  14.572 -2.6016 -0.2072 -0.9237
    3TMC2    C713855   0.540   2.506  14.334 -0.1861  0.1290 -0.0962
    3TMC2    C813856   0.573   2.492  14.800  0.4246  0.6332 -0.2874
    3TMC2    O113857   0.539   2.628  14.355  0.3890 -0.0113 -0.0280
    3TMC2    O213858   0.588   2.613  14.798  0.3503 -0.5990  0.1029
    3TMC2    O513859   0.535   2.427  14.911 -0.3186 -0.0341 -0.0426
    3TMC2    H513860   0.511   2.332  14.907 -1.6068  0.3990 -2.3177
    4MPD2     C13861   4.275   3.245  14.041 -0.3318  0.6752 -0.2836
    4MPD2    C113862   4.315   3.260  13.910 -0.4263 -0.6916  0.3584
    4MPD2    C213863   4.456   3.244  13.882  0.2369 -0.2445 -0.0994
    4MPD2    C313864   4.545   3.230  13.985  0.2896 -0.3210 -0.3577
    4MPD2    C413865   4.500   3.235  14.119 -0.0487  0.1245 -0.0618
    4MPD2    C513866   4.366   3.232  14.141 -0.3969  0.4436 -1.0030
    4MPD2     H13867   4.500   3.269  13.786  0.0750 -1.7352 -0.5553
    4MPD2    H113868   4.564   3.240  14.207  0.0230 -1.3026 -0.0279
    4MPD2    H213869   4.171   3.247  14.073 -1.1538  0.7923 -2.9295
    4MPD2    H313870   4.333   3.231  14.244  0.9330 -0.1303 -0.5746
    4MPD2     N13871   4.685   3.220  13.958  0.5641  1.0595  0.2611
    4MPD2    H513872   4.712   3.202  13.861  1.2003 -0.2093  0.6690
    4MPD2    N113873   4.222   3.291  13.810  0.6524  0.4006  0.3231
    4MPD2    H713874   4.130   3.319  13.841  0.9633  1.0734  0.6443
    5TCq2    C113875   0.060   3.231  14.052  0.6562  0.2120  0.1461
    5TCq2    O213876   0.059   3.247  14.171  0.2122 -0.1254  0.4944
    5TCq2    C213877   0.186   3.209  13.988 -0.3433  0.4460  0.4243
    5TCq2    C313878   0.195   3.236  13.847 -0.2058  0.2924 -0.4515
    5TCq2    C413879   0.282   3.166  13.780 -0.6156 -0.3521 -0.0216
    5TCq2    C513880   0.368   3.082  13.841 -0.0090  0.3661  0.1907
    5TCq2    C613881   0.357   3.052  13.974  0.5436  0.5389  0.3028
    5TCq2    C713882   0.263   3.116  14.051  0.0642 -0.6836  0.4211
    5TCq2    C813883   0.393   2.918  14.023 -0.6519 -0.4073 -0.0412
    5TCq2    O413884   0.403   2.902  14.143  0.0943 -0.2901  0.0621
    5TCq2    C913885   0.285   3.189  13.636 -0.0542 -0.7728  0.5444
    5TCq2    O513886   0.370   3.126  13.566  0.0989  0.8676  0.1364
    5TCq2    O613887   0.180   3.240  13.583 -0.7172 -0.3735  0.6475
    5TCq2    H213888   0.131   3.310  13.799  0.4390  3.8114  4.1738
    5TCq2    H313889   0.437   3.030  13.774  0.0141  0.4386  0.1589
    5TCq2    H413890   0.245   3.096  14.156  0.8590 -3.3304  0.0514
    6MPD1     C13891   3.839   0.399  13.326 -0.6384  0.4719 -0.3250
    6MPD1    C113892   3.807   0.314  13.222  0.2994  0.2333  0.1322
    6MPD1    C213893   3.842   0.179  13.228  0.2473  0.7073  0.7137
    6MPD1    C313894   3.922   0.131  13.328  0.0637 -0.5248  0.4715
    6MPD1    C413895   3.956   0.219  13.431 -0.1184  0.2402 -0.0079
    6MPD1    C513896   3.910   0.346  13.423 -0.1236  0.7831  0.7027
    6MPD1     H13897   3.802   0.121  13.146 -0.2373  1.3408  0.4983
    6MPD1    H113898   4.010   0.184  13.518 -0.5228 -0.9526 -0.2455
    6MPD1    H213899   3.807   0.503  13.323 -3.1292 -0.3287 -1.3489
    6MPD1    H313900   3.911   0.420  13.502 -0.4125  1.7831 -0.2356
    6MPD1     N13901   3.968   4.725  13.331  0.6791 -0.2458 -0.8648
    6MPD1    H513902   4.039   4.708  13.401 -1.0336  1.6907  1.3294
    6MPD1    N113903   3.737   0.366  13.111 -0.5450  0.0890 -0.3726
    6MPD1    H613904   3.745   0.468  13.107  1.8604 -0.0358  1.3037
    6MPD1    H713905   3.766   0.327  13.021  1.4763 -0.1162  0.3518
    7MPD2     C13906   3.957   4.087  13.811  0.0714 -0.1913  0.1201
    7MPD2    C113907   3.950   4.061  13.678  0.2275  0.3670  0.1233
    7MPD2    C213908   3.955   3.923  13.646 -0.6127  0.2668  0.1225
    7MPD2    C313909   3.954   3.819  13.738  0.3943  0.6328 -0.4019
    7MPD2    C413910   3.963   3.855  13.868 -0.8253 -0.1653 -0.1683
    7MPD2    C513911   3.966   3.984  13.902 -0.0280 -0.0970  0.2335
    7MPD2     H13912   3.984   3.905  13.543  0.8671  1.5756  0.3096
    7MPD2    H113913   3.976   3.780  13.945  0.3251 -2.2852 -2.4113
    7MPD2    H213914   3.964   4.189  13.846  1.3089 -0.0868 -0.4497
    7MPD2    H313915   3.988   4.005  14.006 -0.0120  2.0848 -0.2022
    7MPD2     N13916   3.959   3.680  13.708  0.0020  0.1040  0.4646
    7MPD2    H513917   3.950   3.625  13.793 -2.9085 -1.6771 -0.9845
    7MPD2    N113918   3.952   4.154  13.572 -0.0003 -0.1280  0.7078
    7MPD2    H713919   3.939   4.110  13.482  1.6422 -1.4972  1.1262
    8TMC3    C113920   3.955   3.488  13.559  0.2309  0.0172 -0.5621
    8TMC3    C213921   4.047   3.426  13.645  0.4266 -0.1960 -0.6237
    8TMC3    C313922   4.142   3.346  13.592 -0.3598 -0.7202 -0.0494
    8TMC3    C413923   3.977   3.475  13.428 -0.1086 -0.4790 -0.6354
    8TMC3    C513924   4.085   3.404  13.373 -0.5682  0.2715 -0.0330
    8TMC3    C613925   4.163   3.333  13.461  0.9461 -0.2731  0.4044
    8TMC3     C13926   3.956   3.631  13.580  0.4523  0.3835  0.0116
    8TMC3     O13927   3.955   3.696  13.477 -0.4447  0.4150  0.2182
    8TMC3     H13928   4.051   3.463  13.747  0.7447  1.3016 -1.1875
    8TMC3    H113929   3.891   3.516  13.375 -1.2588  0.9789  2.3593
    8TMC3    H213930   4.248   3.283  13.416  1.5279  1.4941 -0.4306
    8TMC3    C713931   4.150   3.478  13.264 -0.1982  0.5197 -0.3001
    8TMC3    C813932   4.246   3.292  13.678 -0.2958  0.4035 -0.2683
    8TMC3    O113933   4.253   3.439  13.212  0.0261  0.4629  0.5976
    8TMC3    O213934   4.329   3.225  13.620 -0.2119  0.4322 -0.5156
    9TMC3    C113935   4.013   4.503  13.292 -0.2076  0.4073  0.3556
    9TMC3    C213936   4.058   4.414  13.200 -0.4403  0.3062  0.0375
    9TMC3    C313937   4.090   4.294  13.248 -0.3719  0.4614 -0.3658
    9TMC3    C413938   3.998   4.477  13.425  0.1495 -0.0614  0.2384
    9TMC3    C513939   4.028   4.349  13.468 -0.1846 -0.2532  0.4552
    9TMC3    C613940   4.080   4.253  13.381 -0.1979  0.0456  0.1035
    9TMC3     C13941   3.944   4.622  13.245  0.1247  0.2107  0.8894
    9TMC3     O13942   3.880   4.616  13.140 -0.5988  0.3724  0.0917
    9TMC3     H13943   4.053   4.424  13.092  0.9169 -3.2120 -0.3485
    9TMC3    H113944   3.951   4.540  13.499  0.8416  0.8036 -0.0600
    9TMC3    H213945   4.137   4.169  13.418  0.0451 -0.6607 -1.8646
    9TMC3    C713946   3.957   4.286  13.586 -0.1413  0.9985 -0.1193
    9TMC3    C813947   4.149   4.192  13.158  0.1611 -0.0471  0.3302
    9TMC3    O113948   3.897   4.358  13.666 -0.0918 -0.2535  0.1859
    9TMC3    O213949   4.225   4.228  13.070  0.0447 -0.0706  0.1406
   10MPD2     C13950   4.254   3.696  13.089  0.5395 -0.5942  0.2397
   10MPD2    C113951   4.151   3.711  13.185 -0.0356 -0.2167  0.3629
   10MPD2    C213952   4.097   3.834  13.218  0.3586 -0.6208  0.8452
   10MPD2    C313953   4.150   3.948  13.162 -0.1984  0.1818 -0.1184
   10MPD2    C413954   4.255   3.934  13.072  0.0564  0.0496 -0.1653
   10MPD2    C513955   4.308   3.808  13.039  0.5858  0.1392 -0.4147
   10MPD2     H13956   4.018   3.840  13.292 -0.7150  2.4654 -0.5115
   10MPD2    H113957   4.316   4.017  13.041  1.2928 -0.5217  0.7490
   10MPD2    H213958   4.299   3.599  13.070  2.4144  0.5830 -1.2353
   10MPD2    H313959   4.398   3.799  12.979  1.1564 -1.4416  0.6674
   10MPD2     N13960   4.106   4.074  13.201 -0.2346  0.5620  0.1811
   10MPD2    H513961   4.039   4.074  13.277 -1.7792  2.5109 -1.1767
   10MPD2    N113962   4.101   3.604  13.262 -0.1304  0.6864 -0.4260
   10MPD2    H713963   4.036   3.632  13.334 -2.0343  3.9640 -3.3833
   11MPD2     C13964   0.536   2.425  13.985  0.3730 -0.4575 -0.0766
   11MPD2    C113965   0.521   2.502  14.095 -0.3422 -0.4377  0.3491
   11MPD2    C213966   0.485   2.636  14.073 -0.0152 -0.0929 -0.6987
   11MPD2    C313967   0.463   2.691  13.948 -0.4476 -0.3981 -0.3237
   11MPD2    C413968   0.476   2.605  13.839  0.0669 -0.1303 -0.2798
   11MPD2    C513969   0.504   2.478  13.860  0.6487 -0.7325 -0.7323
   11MPD2     H13970   0.476   2.697  14.162  0.7546 -0.4074 -0.4086
   11MPD2    H113971   0.461   2.634  13.735  2.8102  0.7098 -0.4425
   11MPD2    H213972   0.561   2.321  14.002 -0.2982 -0.9517 -2.0943
   11MPD2    H313973   0.520   2.421  13.769  2.4303 -0.2679 -0.7078
   11MPD2     N13974   0.431   2.824  13.923  0.0503 -0.5024 -0.1648
   11MPD2    H513975   0.421   2.854  13.826 -3.9866 -1.5698 -0.0938
   11MPD2    N113976   0.533   2.436  14.214  0.2023  1.1415 -0.7748
   11MPD2    H713977   0.555   2.338  14.229  0.0006  1.0666 -0.9698
    1MPD1     C13978   1.462   4.435  17.435  0.3133  0.4025 -0.4120
    1MPD1    C113979   1.538   4.529  17.384  0.1530 -0.1289  0.2751
    1MPD1    C213980   1.673   4.509  17.376 -0.0175  1.0514 -0.0955
    1MPD1    C313981   1.724   4.386  17.395  0.5029 -0.4834  0.8345
    1MPD1    C413982   1.643   4.285  17.433  0.1059 -0.2805  0.7110
    1MPD1    C513983   1.511   4.306  17.440 -0.2544  0.2345  0.1158
    1MPD1     H13984   1.733   4.593  17.345  2.4236 -0.9361 -0.7104
    1MPD1    H113985   1.678   4.183  17.442 -0.3972 -0.3599  1.6449
    1MPD1    H213986   1.355   4.441  17.455  0.4293  1.4168 -0.0702
    1MPD1    H313987   1.445   4.223  17.463 -0.2685  1.1809  3.4541
    1MPD1     N13988   1.858   4.356  17.371  0.1901  0.3194  0.1570
    1MPD1    H513989   1.886   4.260  17.387 -1.3903  0.5628  4.3380
    1MPD1    N113990   1.488   4.659  17.367 -0.5052 -0.5146 -0.3973
    1MPD1    H613991   1.389   4.667  17.346 -0.8855 -1.6253  1.0086
    1MPD1    H713992   1.551   4.718  17.311 -1.1958  0.3950 -0.2097
    2MPD1     C13993   2.725   0.074  17.052 -0.3471 -0.8052  0.5560
    2MPD1    C113994   2.601   0.085  16.999 -0.2766 -1.0006 -0.6355
    2MPD1    C213995   2.497   0.001  17.042 -0.1574  0.4714 -0.5666
    2MPD1    C313996   2.525   4.638  17.143  0.9402  0.4738  0.2801
    2MPD1    C413997   2.649   4.632  17.203 -0.0921  0.8544 -0.6948
    2MPD1    C513998   2.744   0.001  17.165 -0.7198  0.4185 -0.3245
    2MPD1     H13999   2.393   0.007  17.013 -0.2893 -0.3050 -0.2590
    2MPD1    H114000   2.687   4.557  17.272  0.9193  1.8528 -0.1763
    2MPD1    H214001   2.808   0.143  17.038 -1.2788  0.2806  0.3375
    2MPD1    H314002   2.841   0.005  17.212 -0.7156 -0.5678 -0.2561
    2MPD1     N14003   2.418   4.555  17.175  0.0976  0.3388 -0.2175
    2MPD1    H514004   2.341   4.552  17.109 -0.5714 -1.9014  0.6710
    2MPD1    N114005   2.563   0.191  16.916 -0.4165 -0.0159  0.5961
    2MPD1    H614006   2.640   0.240  16.869 -0.8709 -0.5318 -0.6754
    2MPD1    H714007   2.490   0.166  16.849 -1.3109  2.0306  0.8085
    3TMC3    C114008   2.300   4.382  17.277  0.2903  0.3356 -0.2145
    3TMC3    C214009   2.317   4.250  17.290 -0.3729  0.0774 -0.2638
    3TMC3    C314010   2.200   4.172  17.288  0.4941  0.8991  0.1835
    3TMC3    C414011   2.180   4.447  17.282 -0.2788  0.5122  0.4904
    3TMC3    C514012   2.070   4.372  17.281 -0.5052 -0.7578  0.3224
    3TMC3    C614013   2.078   4.233  17.287  0.6807 -0.3137  0.0939
    3TMC3     C14014   2.415   4.463  17.268 -0.1206  0.7295 -0.1984
    3TMC3     O14015   2.505   4.434  17.349  0.2875 -0.2346 -0.2140
    3TMC3     H14016   2.416   4.207  17.304 -2.0665 -4.0609 -0.9359
    3TMC3    H114017   2.173   4.554  17.268 -0.4035  0.4673  0.2048
    3TMC3    H214018   1.988   4.173  17.277  0.4162 -0.1263  1.3110
    3TMC3    C714019   1.949   4.446  17.311  0.1516 -0.2228  0.6017
    3TMC3    C814020   2.206   4.035  17.318  0.1401  0.6332 -0.9755
    3TMC3    O114021   1.947   4.566  17.296  0.8306 -0.2242  0.2185
    3TMC3    O214022   2.107   3.975  17.360  0.3882 -0.8526  0.4022
    4MPD1     C14023   2.484   3.629  17.450  0.3983  0.3676  0.4279
    4MPD1    C114024   2.551   3.696  17.348 -0.7071 -1.4276 -0.0131
    4MPD1    C214025   2.495   3.817  17.303  0.0421 -0.0285 -0.0295
    4MPD1    C314026   2.371   3.860  17.338  0.5828 -0.0326 -0.1385
    4MPD1    C414027   2.307   3.797  17.444 -0.1370 -0.1859 -0.4156
    4MPD1    C514028   2.366   3.681  17.497 -0.0239  0.2503 -0.0035
    4MPD1     H14029   2.539   3.878  17.225 -2.3610 -0.5561 -1.7962
    4MPD1    H114030   2.219   3.833  17.497  1.3263  0.0880  1.8610
    4MPD1    H214031   2.538   3.543  17.487  0.2908 -0.0483 -0.3708
    4MPD1    H314032   2.310   3.634  17.578  2.6749 -0.6039  1.3880
    4MPD1     N14033   2.324   3.980  17.286 -0.2372 -0.1324  0.4309
    4MPD1    H514034   2.384   4.019  17.213 -0.3236  0.6995  0.8074
    4MPD1    N114035   2.685   3.672  17.323 -0.1274 -0.6626 -0.5102
    4MPD1    H614036   2.723   3.578  17.329  1.6518 -0.0743 -2.3929
    4MPD1    H714037   2.725   3.697  17.232 -0.7752 -1.1912 -0.9340
    1TCq1    O114038   3.460   3.955  12.214 -0.3091 -0.4204  0.4009
    1TCq1    C114039   3.529   3.857  12.149 -0.4331  0.1980 -0.1838
    1TCq1    O214040   3.543   3.844  12.029  0.1493  0.1019  0.0022
    1TCq1    C214041   3.534   3.753  12.250  0.3125 -0.4917  0.1949
    1TCq1    C314042   3.496   3.630  12.207 -0.3885  0.4210  0.4332
    1TCq1    C414043   3.500   3.525  12.293 -0.0338  0.0833 -0.3457
    1TCq1    C514044   3.520   3.553  12.425  0.1456  0.1736  0.2993
    1TCq1    C614045   3.563   3.677  12.460  0.4362  0.2716 -0.0303
    1TCq1    C714046   3.574   3.779  12.373 -0.7597 -0.3272 -0.8764
    1TCq1    C814047   3.620   3.699  12.589  0.3477  0.1844 -1.0690
    1TCq1    O414048   3.605   3.813  12.633 -0.0487  0.4844 -0.3106
    1TCq1    C914049   3.426   3.407  12.257 -0.3264 -0.4347 -0.5434
    1TCq1    O514050   3.367   3.402  12.145 -0.1062 -0.1228  0.2796
    1TCq1    O614051   3.416   3.316  12.343  0.4975 -0.1578 -0.0796
    1TCq1    H114052   3.464   3.937  12.310 -1.3328  0.4462  0.6102
    1TCq1    H214053   3.447   3.619  12.111 -2.1924 -1.6471  1.5952
    1TCq1    H314054   3.483   3.479  12.495 -2.5479  0.0457 -1.2700
    1TCq1    H414055   3.603   3.880  12.399 -2.0858 -0.1639 -0.0198
    2MPD1     C14056   3.850   3.558  13.033  1.1291 -0.6131  0.1193
    2MPD1    C114057   3.827   3.449  12.954 -0.4133 -0.5719  0.5222
    2MPD1    C214058   3.758   3.470  12.834  0.4929  0.4299 -0.1459
    2MPD1    C314059   3.716   3.589  12.787  0.3425  0.5088 -0.0362
    2MPD1    C414060   3.746   3.694  12.867  0.3693 -0.3097  1.2352
    2MPD1    C514061   3.816   3.681  12.984 -0.1325 -0.7135  0.1092
    2MPD1     H14062   3.718   3.389  12.773  0.8484 -0.1020  0.3291
    2MPD1    H114063   3.696   3.790  12.858  2.8263  1.0162  1.7772
    2MPD1    H214064   3.887   3.555  13.135 -0.8162  2.5557  0.9328
    2MPD1    H314065   3.830   3.768  13.047  0.0232  0.0176 -0.9298
    2MPD1     N14066   3.655   3.585  12.659 -0.1624  0.3418 -0.3764
    2MPD1    H514067   3.651   3.489  12.624  0.3563  0.6932 -1.4257
    2MPD1    N114068   3.852   3.326  13.013 -0.2682 -0.3064 -0.2211
    2MPD1    H614069   3.848   3.239  12.960 -1.6934 -1.2288  1.4331
    2MPD1    H714070   3.916   3.325  13.092  0.4591 -0.9182 -0.8101
    1TCq1    O114071   3.793   3.129  10.163  0.2489  0.5714 -0.0857
    1TCq1    C114072   3.774   3.017  10.093 -0.2338  0.0788  0.4653
    1TCq1    O214073   3.860   2.962  10.023 -0.2279 -0.4535  0.3005
    1TCq1    C214074   3.661   2.953  10.152  0.0815 -0.4787  0.3537
    1TCq1    C314075   3.675   2.823  10.202  0.1334  0.3520  0.3647
    1TCq1    C414076   3.557   2.758  10.221  0.5235  0.0270  0.2275
    1TCq1    C514077   3.430   2.818  10.220  0.2465  0.0717  0.0163
    1TCq1    C614078   3.428   2.954  10.179  0.1221 -0.5146 -0.9364
    1TCq1    C714079   3.544   3.022  10.149  0.1188  0.4361 -0.0716
    1TCq1    C814080   3.297   3.017  10.148 -0.0176  0.6714 -0.0307
    1TCq1    O414081   3.289   3.117  10.079  0.2572  0.4333 -0.3549
    1TCq1    C914082   3.562   2.614  10.260  0.6330  0.4424  0.3373
    1TCq1    O514083   3.458   2.553  10.303 -0.6776  0.3342  0.9197
    1TCq1    O614084   3.669   2.557  10.242 -0.0958  0.2566  0.2868
    1TCq1    H114085   3.760   3.136  10.255  0.5057  3.0294 -0.1729
    1TCq1    H214086   3.775   2.782  10.190 -0.6138 -0.5075 -2.6784
    1TCq1    H314087   3.346   2.751  10.223 -0.4074  0.8932  0.0329
    1TCq1    H414088   3.538   3.123  10.110  1.1488 -0.4966 -2.6328
    2MPD1     C14089   2.790   3.009  10.248  0.5248  0.1152 -0.2352
    2MPD1    C114090   2.848   2.897  10.305  0.0905 -0.8078  0.8399
    2MPD1    C214091   2.983   2.878  10.291 -0.3349 -0.0773  0.2619
    2MPD1    C314092   3.066   2.966  10.222  0.1588  0.3411 -1.3455
    2MPD1    C414093   3.002   3.069  10.152  0.2231 -0.3587  0.4737
    2MPD1    C514094   2.870   3.089  10.168 -0.5401 -0.4091 -0.5988
    2MPD1     H14095   3.032   2.802  10.349 -1.0228  0.9744  2.2384
    2MPD1    H114096   3.059   3.147  10.105  0.2538 -0.5668  0.1657
    2MPD1    H214097   2.691   3.048  10.269  0.6030  0.5951 -0.7825
    2MPD1    H314098   2.832   3.183  10.131 -1.8132  0.1754  2.2147
    2MPD1     N14099   3.206   2.947  10.218 -0.1216  0.4759  0.0917
    2MPD1    H514100   3.235   2.856  10.254  0.9820  1.0174  0.5799
    2MPD1    N114101   2.776   2.803  10.382 -0.6376  0.1988 -0.0784
    2MPD1    H614102   2.816   2.779  10.473  0.0986  1.2516 -0.1247
    2MPD1    H714103   2.677   2.826  10.395 -0.2879  2.0334 -0.6203
    1MPD1     C14104   0.339   3.964  12.477  0.2962  0.2256  0.5388
    1MPD1    C114105   0.237   4.042  12.428  0.4186 -0.0115  0.5304
    1MPD1    C214106   0.265   4.114  12.311  0.3573 -0.1663  0.5493
    1MPD1    C314107   0.392   4.128  12.264  0.0167  0.2287  0.2613
    1MPD1    C414108   0.496   4.051  12.325  0.3282  0.2825  0.0766
    1MPD1    C514109   0.467   3.971  12.428  0.9766 -0.3458  0.0807
    1MPD1     H14110   0.189   4.179  12.268  0.9274 -0.2084 -0.5132
    1MPD1    H114111   0.591   4.039  12.274  0.7735 -1.3869  1.3126
    1MPD1    H214112   0.319   3.911  12.569  0.5264 -0.0772  0.4160
    1MPD1    H314113   0.543   3.903  12.465  0.4038 -0.5617  0.8488
    1MPD1     N14114   0.403   4.202  12.141  0.2530  0.1781  0.6965
    1MPD1    H514115   0.316   4.226  12.095 -0.5006 -2.8797  0.4888
    1MPD1    N114116   0.113   4.043  12.481 -0.4394 -0.3611  0.2792
    1MPD1    H614117   0.106   4.014  12.578  2.0720  0.6538  0.7422
    1MPD1    H714118   0.070   4.135  12.478  0.8453  0.1808 -1.6825
    2MPD1     C14119   4.584   3.810  11.427 -0.3311  0.2363 -0.0832
    2MPD1    C114120   4.552   3.681  11.372  0.3783 -0.0211 -0.0781
    2MPD1    C214121   4.637   3.627  11.269 -0.3403 -0.1725 -0.3516
    2MPD1    C314122   0.025   3.700  11.234 -1.1261  0.1926  0.0746
    2MPD1    C414123   0.044   3.827  11.284 -0.0961  0.9191 -0.9095
    2MPD1    C514124   4.693   3.880  11.383  0.2179 -0.2669 -0.1717
    2MPD1     H14125   4.615   3.531  11.223 -1.6373  0.9681 -2.0880
    2MPD1    H114126   0.132   3.883  11.256  0.4996 -0.4494 -1.7455
    2MPD1    H214127   4.541   3.848  11.519 -0.3390 -1.6108  0.6619
    2MPD1    H314128   0.011   3.962  11.440  1.5116 -2.6531  2.2590
    2MPD1     N14129   0.112   3.662  11.131  0.4406 -0.2436  0.2247
    2MPD1    H514130   0.184   3.729  11.107 -1.1663  1.2366 -0.4997
    2MPD1    N114131   4.444   3.604  11.420 -0.1196  0.0228 -0.4547
    2MPD1    H614132   4.364   3.656  11.454 -0.8207 -0.4007 -1.4568
    2MPD1    H714133   4.409   3.541  11.348  1.8096 -0.9902 -0.5126
    3MPD1     C14134   0.453   3.148  10.216  0.1830  0.6428 -0.2105
    3MPD1    C114135   0.437   3.280  10.214 -0.8886 -0.3090  0.7371
    3MPD1    C214136   0.400   3.339  10.334 -0.3175  0.0698  0.6002
    3MPD1    C314137   0.405   3.276  10.455 -0.2935  0.4529 -1.1454
    3MPD1    C414138   0.424   3.144  10.461  0.1652  0.3228  0.3028
    3MPD1    C514139   0.440   3.080  10.337  0.4217  0.0698  0.0376
    3MPD1     H14140   0.374   3.445  10.332 -1.3704 -0.2129 -1.2822
    3MPD1    H114141   0.410   3.083  10.550 -0.3481 -1.2014 -0.8254
    3MPD1    H214142   0.475   3.091  10.127 -1.5357  3.1982 -2.2582
    3MPD1    H314143   0.466   2.975  10.347 -1.3576 -0.2831  1.0060
    3MPD1     N14144   0.381   3.357  10.563 -0.3095  0.0110 -0.1548
    3MPD1    H514145   0.362   3.455  10.544 -0.1420  0.0054 -0.3503
    3MPD1    N114146   0.421   3.341  10.084  0.1312  0.1230 -0.4855
    3MPD1    H614147   0.489   3.304  10.018 -0.4713 -0.8705 -0.5500
    3MPD1    H714148   0.446   3.439  10.096 -1.8203  0.3287  1.9690
    4MPD2     C14149   0.125   4.298  11.458 -0.3897 -1.4776 -0.0783
    4MPD2    C114150   0.226   4.381  11.483 -0.1822  0.3606 -0.3505
    4MPD2    C214151   0.300   4.437  11.386  0.7053 -0.0500  0.1455
    4MPD2    C314152   0.277   4.403  11.256 -0.3189  0.1718 -0.2569
    4MPD2    C414153   0.187   4.304  11.222  0.3933  0.1447 -0.0652
    4MPD2    C514154   0.110   4.255  11.327 -0.3553 -0.3112 -0.4291
    4MPD2     H14155   0.374   4.508  11.421  0.5376 -1.1709  2.7956
    4MPD2    H114156   0.172   4.265  11.122  3.3267 -1.7004  0.2424
    4MPD2    H214157   0.076   4.237  11.533 -3.2654  0.8831 -0.0316
    4MPD2    H314158   0.035   4.182  11.296 -0.5882  0.2920 -1.2964
    4MPD2     N14159   0.355   4.458  11.153 -0.1342  0.3017 -0.5099
    4MPD2    H514160   0.328   4.416  11.065  0.4667  0.1829 -0.6368
    4MPD2    N114161   0.275   4.409  11.610  0.2086  0.0297  0.4593
    4MPD2    H714162   0.355   4.471  11.611 -0.1258  0.4564  0.3795
    5TMC3    C114163   0.310   4.398  11.838  0.2177  0.1360 -0.2114
    5TMC3    C214164   0.358   4.291  11.910 -0.0646  0.7065 -0.4314
    5TMC3    C314165   0.490   4.294  11.950  0.6890 -0.9343  0.1561
    5TMC3    C414166   0.392   4.505  11.809 -0.4584 -0.7381 -0.3719
    5TMC3    C514167   0.526   4.498  11.842 -0.0856  0.2990  0.3683
    5TMC3    C614168   0.578   4.393  11.914 -0.3055  0.9684  0.0430
    5TMC3     C14169   0.230   4.356  11.728 -0.5320  0.3442  0.3118
    5TMC3     O14170   0.144   4.273  11.745  0.4694  0.5206 -0.2218
    5TMC3     H14171   0.295   4.203  11.921 -1.3228  1.1797 -3.8221
    5TMC3    H114172   0.347   4.593  11.765  0.2663 -1.4716 -2.5913
    5TMC3    H214173   0.680   4.402  11.949 -0.6020 -0.2382  1.1987
    5TMC3    C714174   0.595   4.532  11.719  0.4005  0.3888  0.0650
    5TMC3    C814175   0.515   4.226  12.075 -0.3612  1.0018 -0.9318
    5TMC3    O114176   0.520   4.536  11.626 -0.2587  0.4195 -0.4214
    5TMC3    O214177   0.627   4.210  12.111 -0.0291  0.8907  0.3788
    6TMC3    C114178   0.247   3.522  10.980  0.6163  0.2158  0.0430
    6TMC3    C214179   0.249   3.432  10.880  0.5682 -0.2361 -0.1842
    6TMC3    C314180   0.332   3.441  10.775  0.1199 -0.6837 -0.0231
    6TMC3    C414181   0.339   3.626  10.964  0.3753  0.1795  0.1293
    6TMC3    C514182   0.415   3.643  10.849 -0.3827 -0.4443 -0.0776
    6TMC3    C614183   0.412   3.544  10.746  0.1950  0.1878 -0.0556
    6TMC3     C14184   0.128   3.532  11.069 -1.0513  0.0949 -0.5898
    6TMC3     O14185   0.065   3.431  11.087 -0.0385  0.1095 -0.4970
    6TMC3     H14186   0.185   3.345  10.892  0.3121  0.2212  1.8475
    6TMC3    H114187   0.348   3.689  11.052  1.6094 -0.1232  0.2293
    6TMC3    H214188   0.478   3.557  10.661  1.3661  0.7938  0.9456
    6TMC3    C714189   0.517   3.744  10.852 -0.1985 -0.4874 -0.0424
    6TMC3    C814190   0.342   3.323  10.691 -0.5544 -0.3766  0.2337
    6TMC3    O114191   0.493   3.827  10.939 -1.1404  0.6344 -0.0723
    6TMC3    O214192   0.330   3.218  10.751 -0.4726  0.8715  0.0510
    7MPD2     C14193   0.998   4.621  11.409  0.5173 -0.4379 -0.3969
    7MPD2    C114194   0.866   4.608  11.372 -0.2887  1.0980 -0.5365
    7MPD2    C214195   0.777   4.580  11.477 -0.2486 -0.3626 -0.4776
    7MPD2    C314196   0.824   4.572  11.612 -0.0007 -0.6142  0.2764
    7MPD2    C414197   0.959   4.589  11.641  0.5471  0.1320  0.0536
    7MPD2    C514198   1.045   4.612  11.539 -0.4575  0.4933  0.4458
    7MPD2     H14199   0.674   4.553  11.454 -0.3992 -0.4466  0.2886
    7MPD2    H114200   1.001   4.576  11.740 -0.9322 -0.5516  0.5934
    7MPD2    H214201   1.076   4.648  11.338 -0.0906 -0.0991 -0.9262
    7MPD2    H314202   1.148   4.634  11.567 -0.5548 -0.5314  1.5815
    7MPD2     N14203   0.731   4.536  11.719 -0.7012  0.7428  0.2783
    7MPD2    H514204   0.776   4.519  11.809 -0.6731  0.1070  0.1444
    7MPD2    N114205   0.810   4.594  11.237 -0.0295 -0.0832  0.2521
    7MPD2    H714206   0.715   4.560  11.225 -0.3607  0.7894  0.4005
    8TMC3    C114207   0.767   4.576  11.021 -0.7492 -0.1252 -0.2568
    8TMC3    C214208   0.773   4.446  10.973  0.5695  0.0975 -0.0758
    8TMC3    C314209   0.651   4.388  10.924  0.7981 -0.4345 -0.2768
    8TMC3    C414210   0.645   4.632  11.054  0.0881 -0.1882  0.2510
    8TMC3    C514211   0.528   4.553  11.035  0.5451 -0.7127 -0.5521
    8TMC3    C614212   0.528   4.440  10.957 -0.5163 -0.1470  0.0175
    8TMC3     C14213   0.870   4.591  11.115  0.6419  0.4198 -0.1291
    8TMC3     O14214   0.990   4.588  11.085  0.2298 -0.1604  0.2613
    8TMC3     H14215   0.867   4.398  10.949  1.1903  1.1373  0.2352
    8TMC3    H114216   0.641   0.008  11.093  0.4779  0.0423 -0.3234
    8TMC3    H214217   0.438   4.380  10.945 -0.0638 -1.1994  1.8308
    8TMC3    C714218   0.458   4.549  11.160 -0.0178  0.0464  0.2993
    8TMC3    C814219   0.654   4.250  10.875 -0.2502 -0.3651  0.1667
    8TMC3    O114220   0.504   4.615  11.252  0.6255 -0.1273  0.5178
    8TMC3    O214221   0.549   4.190  10.891 -0.0897  0.2780  0.0542
    9MPD2     C14222   0.916   4.031  10.729 -0.4221 -0.2316  0.1072
    9MPD2    C114223   0.799   4.062  10.784 -0.7203 -0.8627  0.1334
    9MPD2    C214224   0.700   3.967  10.777 -0.9341 -0.2573  0.3271
    9MPD2    C314225   0.724   3.833  10.752 -0.2327 -0.2228 -0.2755
    9MPD2    C414226   0.847   3.804  10.693 -0.0384  0.5029 -0.0711
    9MPD2    C514227   0.932   3.911  10.667 -0.0148  0.2256 -0.1522
    9MPD2     H14228   0.605   3.990  10.824 -0.7308 -0.8095  1.0113
    9MPD2    H114229   0.866   3.698  10.692 -0.4269  0.4365 -0.4755
    9MPD2    H214230   1.000   4.100  10.724 -1.2109  0.5017 -2.7726
    9MPD2    H314231   1.031   3.890  10.627 -0.1646  0.0064 -0.4003
    9MPD2     N14232   0.628   3.729  10.770  0.2822  0.2814  0.0435
    9MPD2    H514233   0.643   3.636  10.731  1.9763  0.3341  0.5683
    9MPD2    N114234   0.771   4.196  10.825  0.4176 -0.2688  0.4458
    9MPD2    H714235   0.849   4.260  10.817 -0.3260  0.6517  0.6345
    1MPD1     C14236   3.717   1.338  15.840  0.5681  0.1854  0.3024
    1MPD1    C114237   3.770   1.460  15.891 -0.1962 -0.6200  1.2638
    1MPD1    C214238   3.855   1.531  15.808  0.1020  0.0681  0.7108
    1MPD1    C314239   3.870   1.485  15.679 -0.0842  0.2272  0.1431
    1MPD1    C414240   3.819   1.371  15.634  0.0444 -0.4741  0.6636
    1MPD1    C514241   3.744   1.290  15.715 -0.0591  0.0670 -0.3529
    1MPD1     H14242   3.896   1.624  15.847  0.7204 -0.3052  0.9527
    1MPD1    H114243   3.849   1.337  15.535 -1.3756 -0.1301  0.1197
    1MPD1    H214244   3.650   1.277  15.900  0.1833  0.0134 -0.2994
    1MPD1    H314245   3.687   1.204  15.681  0.3638 -0.0914 -0.6715
    1MPD1     N14246   3.960   1.548  15.589 -0.0075 -0.5147 -0.3977
    1MPD1    H514247   3.969   1.509  15.496  1.9676 -1.1658  0.0603
    1MPD1    N114248   3.727   1.517  16.012  1.2615 -0.3925 -1.0973
    1MPD1    H614249   3.798   1.580  16.049 -0.2066  0.1762  0.7734
    1MPD1    H714250   3.696   1.446  16.079  1.4053  0.9722  0.4000
    2MPD1     C14251   0.174   1.819  15.257  0.4052  0.0475  0.5884
    2MPD1    C114252   0.105   1.750  15.165 -0.4154 -1.2483  0.7398
    2MPD1    C214253   4.689   1.771  15.169 -0.2911 -0.2098 -0.6365
    2MPD1    C314254   4.623   1.823  15.277  0.7304 -0.7298 -0.0037
    2MPD1    C414255   4.703   1.868  15.380  0.3049 -0.3242 -0.5517
    2MPD1    C514256   0.112   1.867  15.372  0.1455 -0.6143 -0.2425
    2MPD1     H14257   4.635   1.735  15.082 -0.9496  2.5611 -1.3581
    2MPD1    H114258   4.670   1.898  15.478  1.3050  3.4432 -1.3730
    2MPD1    H214259   0.281   1.810  15.250  0.2816 -0.9700  0.1297
    2MPD1    H314260   0.185   1.889  15.450  1.0492  2.2863 -1.9021
    2MPD1     N14261   4.486   1.829  15.280  0.4796 -0.2856 -0.4755
    2MPD1    H514262   4.430   1.805  15.198  0.9319  0.4139 -0.9870
    2MPD1    N114263   0.176   1.703  15.048  0.0400  0.0208 -0.3777
    2MPD1    H614264   0.133   1.624  15.000 -1.1434  0.4630 -0.0647
    2MPD1    H714265   0.269   1.669  15.072 -0.5463 -1.8227 -0.6930
    3TCq2    C114266   4.413   1.842  15.393  0.5865 -0.4644 -0.2267
    3TCq2    O214267   4.440   1.871  15.508  0.0637 -0.2036 -0.4055
    3TCq2    C214268   4.281   1.799  15.386 -0.3894  0.1153  0.3554
    3TCq2    C314269   4.214   1.810  15.267 -0.7201 -0.2249  0.7510
    3TCq2    C414270   4.082   1.772  15.267  0.3048 -0.4311  0.0133
    3TCq2    C514271   4.022   1.710  15.371 -0.8983 -0.1159 -0.6450
    3TCq2    C614272   4.093   1.708  15.490 -0.1317 -0.6228  0.5865
    3TCq2    C714273   4.218   1.757  15.502  0.1392  0.3985 -0.3533
    3TCq2    C814274   4.032   1.660  15.611  0.1254 -0.0819 -0.3517
    3TCq2    O414275   4.050   1.713  15.718 -0.0484  0.5370  0.1034
    3TCq2    C914276   4.013   1.779  15.142 -0.0432  0.6688 -0.8092
    3TCq2    O514277   4.075   1.828  15.043 -0.1371  0.3229  0.1689
    3TCq2    O614278   3.897   1.734  15.139 -0.5841  0.4081 -0.0971
    3TCq2    H214279   4.254   1.859  15.178  0.9451 -2.0341  0.4866
    3TCq2    H314280   3.916   1.689  15.364 -0.6866 -2.3899  3.1004
    3TCq2    H414281   4.278   1.738  15.591  1.0054 -0.2605 -1.0836
    1TCq1    O114282   3.349   1.917  13.598 -0.4556  0.4599  0.1795
    1TCq1    C114283   3.350   1.887  13.471 -0.2547 -0.4903  0.5638
    1TCq1    O214284   3.248   1.847  13.417 -0.0076 -0.0503 -0.2823
    1TCq1    C214285   3.448   1.976  13.412 -0.4675 -0.1448 -0.7243
    1TCq1    C314286   3.401   2.037  13.298  0.3173  0.6617  0.1209
    1TCq1    C414287   3.482   2.126  13.237  0.1029 -0.0624  0.2371
    1TCq1    C514288   3.609   2.152  13.284 -0.8679  0.0956 -0.2030
    1TCq1    C614289   3.651   2.094  13.403  0.7329  0.0542  0.4039
    1TCq1    C714290   3.565   2.008  13.476  0.2237 -0.1972 -0.1358
    1TCq1    C814291   3.783   2.131  13.456  0.2942  0.5973 -0.0777
    1TCq1    O414292   3.859   2.190  13.380  0.3082  0.0293  0.0714
    1TCq1    C914293   3.452   2.176  13.109  0.0733  0.1742  0.2402
    1TCq1    O514294   3.533   2.262  13.056  0.2474 -0.4157 -0.3419
    1TCq1    O614295   3.340   2.151  13.062  0.0532  0.7665 -0.3397
    1TCq1    H114296   3.417   1.982  13.625 -1.6488  0.4917  3.1614
    1TCq1    H214297   3.309   2.013  13.247  0.6409 -0.1508 -0.0998
    1TCq1    H314298   3.674   2.211  13.220  1.0680 -2.4393 -0.5505
    1TCq1    H414299   3.599   1.953  13.563  1.0161  2.0562  0.9730
    2MPD2     C14300   4.023   2.190  13.628  0.5104  0.0029 -1.1093
    2MPD2    C114301   3.900   2.148  13.680 -0.4577  0.1585 -0.6513
    2MPD2    C214302   3.891   2.131  13.822 -0.6506  0.3715  0.1377
    2MPD2    C314303   3.995   2.176  13.902  0.3317 -0.3301  0.4712
    2MPD2    C414304   4.113   2.210  13.849 -0.6281 -0.1093 -0.7559
    2MPD2    C514305   4.126   2.225  13.712  0.3653 -0.0212 -0.3667
    2MPD2     H14306   3.800   2.097  13.870  0.9388 -0.8847  2.2614
    2MPD2    H114307   4.185   2.265  13.909 -0.6493  0.2879 -1.0911
    2MPD2    H214308   4.037   2.200  13.521  3.2801  1.6690 -0.5971
    2MPD2    H314309   4.212   2.269  13.664  1.0259 -1.8673 -0.8762
    2MPD2     N14310   3.976   2.156  14.044  0.0159  0.8296 -0.0907
    2MPD2    H514311   3.884   2.134  14.081  0.9525 -1.2010  0.9649
    2MPD2    N114312   3.789   2.119  13.600  0.3208 -0.4155 -0.3472
    2MPD2    H714313   3.707   2.083  13.648  1.1329  0.7508  1.8857
    3TCq1    O114314   3.696   2.427  14.343 -0.2115  0.0715  0.0736
    3TCq1    C114315   3.697   2.313  14.415 -1.0131 -0.4873 -0.4941
    3TCq1    O214316   3.615   2.275  14.493 -0.2809  0.0096 -0.9989
    3TCq1    C214317   3.834   2.260  14.408 -0.2753  0.0368  0.2744
    3TCq1    C314318   3.897   2.211  14.522  0.1988 -0.5843 -0.0220
    3TCq1    C414319   4.031   2.167  14.504 -0.5665  0.2472  0.4058
    3TCq1    C514320   4.084   2.155  14.379 -0.3099 -0.1102  0.3374
    3TCq1    C614321   4.014   2.188  14.267 -0.0294  0.0325 -0.3572
    3TCq1    C714322   3.894   2.248  14.279  0.1655 -1.3638 -0.0611
    3TCq1    C814323   4.074   2.184  14.132  0.4453 -0.4329  0.6739
    3TCq1    O414324   4.191   2.223  14.120 -0.1701 -0.0742  0.8273
    3TCq1    C914325   4.094   2.092  14.605 -0.3319 -0.5365 -0.3590
    3TCq1    O514326   4.026   2.047  14.703  0.3993 -0.6354 -0.3183
    3TCq1    O614327   4.221   2.092  14.606  0.1043 -0.0126 -0.1666
    3TCq1    H114328   3.775   2.440  14.287  0.0754  3.1127  1.2445
    3TCq1    H214329   3.851   2.214  14.620  0.0103  1.6790 -0.1795
    3TCq1    H314330   4.178   2.103  14.362  0.7494  1.7959  0.4360
    3TCq1    H414331   3.854   2.305  14.196  0.9155  1.0031  1.2033
    1MPD2     C14332   3.393   3.257  15.040  0.2236  0.8439  0.4286
    1MPD2    C114333   3.282   3.175  15.037 -0.7836 -0.6171 -0.1364
    1MPD2    C214334   3.276   3.067  15.119  0.1476  0.3946 -0.1323
    1MPD2    C314335   3.378   3.049  15.215  1.6228  0.3442 -0.2451
    1MPD2    C414336   3.490   3.129  15.228  0.2429 -0.0858 -0.1460
    1MPD2    C514337   3.496   3.236  15.140  0.1949  0.0166 -0.0107
    1MPD2     H14338   3.191   3.000  15.115  1.6108 -1.5058  0.3250
    1MPD2    H114339   3.567   3.126  15.304 -1.0381 -0.2347  1.1560
    1MPD2    H214340   3.393   3.340  14.970 -0.0536 -2.5435 -3.5402
    1MPD2    H314341   3.578   3.305  15.154 -0.9681  1.2916  0.4834
    1MPD2     N14342   3.367   2.927  15.285 -0.0116 -1.1580 -0.5086
    1MPD2    H514343   3.280   2.876  15.269 -1.6358  1.4970 -0.1805
    1MPD2    N114344   3.181   3.213  14.948 -0.5205  0.2568 -0.4051
    1MPD2    H714345   3.190   3.310  14.918  1.0775 -0.0229 -0.7952
    2TMC3    C114346   2.965   3.239  14.872 -0.6872 -0.0152  0.1330
    2TMC3    C214347   2.851   3.169  14.868  0.6961  0.6752  0.1872
    2TMC3    C314348   2.737   3.229  14.917 -0.3533 -0.5051  0.7719
    2TMC3    C414349   2.964   3.370  14.914  0.5480 -0.1061  0.2766
    2TMC3    C514350   2.845   3.431  14.953  0.2428 -0.1669 -0.1207
    2TMC3    C614351   2.731   3.364  14.951 -0.4544 -0.0178 -0.0577
    2TMC3     C14352   3.066   3.152  14.921 -0.3398  0.5971  0.3118
    2TMC3     O14353   3.029   3.037  14.944 -0.0517 -0.0990 -0.1018
    2TMC3     H14354   2.838   3.071  14.824 -0.8935  1.4278 -1.0403
    2TMC3    H114355   3.057   3.411  14.952  1.1668 -2.0894  0.9168
    2TMC3    H214356   2.640   3.394  15.001  0.5219 -0.9965  2.2821
    2TMC3    C714357   2.837   3.580  14.965  0.4258 -0.0172 -0.1051
    2TMC3    C814358   2.677   3.143  15.017 -0.2962 -0.3238  0.5283
    2TMC3    O114359   2.726   3.637  14.981  0.1761 -0.2000 -0.9562
    2TMC3    O214360   2.561   3.156  15.053 -0.6846 -0.2375  0.4506
    3TCq1    O114361   3.803   4.065  14.660 -0.3528  0.2685 -0.6160
    3TCq1    C114362   3.679   4.104  14.682 -0.3614 -0.1041 -0.6144
    3TCq1    O214363   3.590   4.065  14.611  0.5603 -0.2414  0.9040
    3TCq1    C214364   3.663   4.121  14.828  0.1403  0.1627 -0.1525
    3TCq1    C314365   3.766   4.113  14.920  0.5317 -0.5950  0.0354
    3TCq1    C414366   3.731   4.092  15.052  0.0294  0.6224  0.4075
    3TCq1    C514367   3.600   4.086  15.089 -0.0494 -0.0615 -0.0879
    3TCq1    C614368   3.506   4.090  14.993 -0.0643 -0.0410 -0.0026
    3TCq1    C714369   3.531   4.107  14.860  0.0657  0.2764  0.4162
    3TCq1    C814370   3.370   4.084  15.042  0.6044 -0.0236 -0.1889
    3TCq1    O414371   3.342   4.148  15.141 -0.1156  0.1033  0.1172
    3TCq1    C914372   3.841   4.089  15.150  0.5044  0.0747 -0.2554
    3TCq1    O514373   3.812   4.078  15.273 -0.4548 -0.2820 -0.5990
    3TCq1    O614374   3.949   4.097  15.098  0.2438  0.6821  0.2402
    3TCq1    H114375   3.864   4.105  14.725  1.1933 -0.5535 -1.5783
    3TCq1    H214376   3.871   4.104  14.895  0.6767  1.4223 -0.0750
    3TCq1    H314377   3.574   4.045  15.186 -1.3739  2.6761  0.7267
    3TCq1    H414378   3.448   4.107  14.789  1.8886 -1.4804 -1.7047
    4MPD2     C14379   3.074   4.023  15.079  1.0355  0.2647  0.1280
    4MPD2    C114380   3.167   3.935  15.021  0.1373  0.0196 -0.1264
    4MPD2    C214381   3.119   3.807  14.983  0.2793  0.1719 -0.1222
    4MPD2    C314382   2.986   3.770  14.997  0.2344 -0.9103  1.0021
    4MPD2    C414383   2.897   3.863  15.050 -0.7763  0.8006  0.2523
    4MPD2    C514384   2.940   3.982  15.102  0.5257 -0.2687  0.0364
    4MPD2     H14385   3.178   3.730  14.935  0.3489  0.6913 -0.8751
    4MPD2    H114386   2.791   3.845  15.068 -0.4958 -0.6378  0.4654
    4MPD2    H214387   3.108   4.121  15.110 -1.4578  0.5030  2.1619
    4MPD2    H314388   2.876   4.045  15.162  0.5525  0.2749 -0.5042
    4MPD2     N14389   2.956   3.640  14.960 -0.8183 -0.2819  0.2400
    4MPD2    H514390   3.033   3.579  14.934 -0.8787 -0.0169 -0.5583
    4MPD2    N114391   3.304   3.979  14.990  0.6267  0.2527  0.3075
    4MPD2    H714392   3.349   3.918  14.923 -0.5335  1.9594 -1.9976
    5TMC2    C114393   3.174   2.674  15.428 -0.2061  0.1646  0.4936
    5TMC2    C214394   3.152   2.686  15.563 -0.5295 -0.5389 -0.6292
    5TMC2    C314395   3.249   2.743  15.637  0.7878 -0.3460 -0.1923
    5TMC2    C414396   3.290   2.715  15.367  0.1050  0.0451  0.7845
    5TMC2    C514397   3.381   2.775  15.442  0.9349 -0.0585 -0.2591
    5TMC2    C614398   3.350   2.804  15.573 -0.1233  0.8863 -0.7169
    5TMC2     C14399   3.081   2.745  15.342 -0.3672 -0.1675 -0.2989
    5TMC2     O14400   3.128   2.786  15.239 -0.2436 -0.0887 -0.0075
    5TMC2     H14401   3.066   2.639  15.610  0.1734 -0.7143  0.4839
    5TMC2    H114402   3.316   2.685  15.266 -1.7123 -3.1607  1.2411
    5TMC2    H214403   3.424   2.851  15.637 -0.5743  1.2003 -0.4268
    5TMC2    C714404   3.449   2.887  15.383 -0.6266  0.6572  0.0154
    5TMC2    C814405   3.228   2.739  15.779 -0.0722  0.3516 -0.6986
    5TMC2    O114406   3.548   2.934  15.436  0.0650  0.0902  0.4218
    5TMC2    O214407   3.117   2.743  15.829  0.2200  0.2276 -0.3905
    5TMC2    O514408   3.335   2.692  15.846 -0.1052  0.2853 -0.1962
    5TMC2    H514409   3.414   2.673  15.791 -0.2621  0.1209 -0.3684
    6MPD2     C14410   2.630   2.946  15.233  0.7056  0.5543  0.1003
    6MPD2    C114411   2.755   2.967  15.178  0.7882 -0.3246  0.2030
    6MPD2    C214412   2.862   2.896  15.231 -0.6752 -0.4900 -0.3994
    6MPD2    C314413   2.853   2.822  15.349  0.0720  0.6552  0.2887
    6MPD2    C414414   2.730   2.813  15.411  0.3295  0.4559  0.4570
    6MPD2    C514415   2.622   2.878  15.351 -0.6389 -0.8545  0.1672
    6MPD2     H14416   2.956   2.901  15.177 -0.3063 -2.5499  0.0802
    6MPD2    H114417   2.721   2.756  15.502  0.4490  0.1100  0.2557
    6MPD2    H214418   2.536   2.987  15.196  1.0318  1.9932  0.8373
    6MPD2    H314419   2.522   2.872  15.391 -0.0666 -2.6812  1.3431
    6MPD2     N14420   2.967   2.761  15.406  0.1949 -0.3711 -0.3972
    6MPD2    H514421   2.945   2.716  15.494 -0.4225  1.8035  0.5600
    6MPD2    N114422   2.770   3.049  15.059 -1.0018  0.4081  0.5237
    6MPD2    H714423   2.861   3.038  15.014 -0.3553 -1.9979  2.4198
  945NH4     N114424   2.890   3.002   2.667  0.4727  0.1470 -0.0457
  945NH4     H214425   2.877   2.914   2.614 -2.1422  0.2734  0.3865
  945NH4     H314426   2.807   3.031   2.722  0.4955 -2.4020  1.3285
  945NH4     H414427   2.922   3.074   2.599  0.8331 -0.6837 -0.7454
  945NH4     H514428   2.978   2.995   2.722  1.1633  0.2302 -1.1328
  946SOD     NA14429   3.683   2.252  11.783  0.3565 -0.0752  0.1528
  947SOD     NA14430   3.796   1.512  14.900 -0.1314 -0.1541  0.0746
  948SOD     NA14431   0.921   2.354   0.517 -0.2805  0.4446  0.1561
  949SOD     NA14432   2.102   0.259  17.139 -0.4467 -0.8687 -0.7133
  950SOD     NA14433   1.980   3.235   6.620 -0.1638  0.3216 -0.2403
  951SOD     NA14434   2.757   0.256   2.602  0.1652  0.0856 -0.1679
  952SOD     NA14435   2.032   3.817   1.428 -0.2679 -0.3184 -0.2585
  953SOD     NA14436   3.369   1.741  17.044 -0.1449  0.1343  0.1154
  954SOD     NA14437   3.666   3.220  11.948  0.0575 -0.0466 -0.1553
  955SOD     NA14438   2.358   4.418   9.229 -0.1871  0.0280  0.1700
  956SOD     NA14439   3.101   0.700  10.754 -0.4985 -0.0152 -0.1922
  957SOD     NA14440   2.614   0.221  10.941  0.3886 -0.0067  0.1523
  958SOD     NA14441   2.539   3.244  15.274 -0.1665  0.0612  0.2602
  959SOD     NA14442   3.442   2.335  10.311 -0.0974  0.6990 -0.2493
  960SOD     NA14443   4.350   2.284  14.521  0.0889 -0.1838 -0.3075
  961SOD     NA14444   3.268   3.182  12.367  0.2801 -0.1939 -0.1016
  962SOD     NA14445   1.646   1.102  11.004 -0.4226 -0.2830 -0.5676
  963SOD     NA14446   2.246   0.343   1.662 -0.1055 -0.2417  0.3006
  964SOD     NA14447   0.122   3.377  12.105  0.0708  0.1013 -0.5813
  965SOD     NA14448   2.514   0.152  10.045 -0.3690 -0.4468  0.1294
  966SOD     NA14449   1.457   0.269  11.555  0.5415  0.3414 -0.1582
  967SOD     NA14450   3.758   3.124  12.249 -0.2391 -0.3878 -0.0650
  968SOD     NA14451   0.413   2.612   6.486  0.4360  0.4306 -0.4091
  969SOD     NA14452   2.330   2.061  10.994  0.0947 -0.2574 -0.3639
  970SOD     NA14453   2.378   0.679   8.313  0.1284 -0.0602 -0.1115
  971SOD     NA14454   4.011   1.215   0.256  0.0557 -0.2179  0.1963
  972SOD     NA14455   0.181   1.898  14.908  0.1213  0.6390 -0.0893
  973SOD     NA14456   0.521   1.258   1.486  0.1032  0.0455 -0.2435
  974SOD     NA14457   4.214   0.814   0.643  0.0901  0.4800  0.1450
  975SOD     NA14458   1.171   0.337  13.735 -0.1127 -0.2905  0.2390
  976SOD     NA14459   3.993   4.002  15.363  0.1451  0.1495 -0.7312
  977SOD     NA14460   0.959   4.373  14.479 -0.1575 -0.0970  0.4477
  978SOD     NA14461   4.119   1.083  12.707  0.2767 -0.4629  0.2625
  979SOD     NA14462   1.579   2.174   9.480  0.0581 -0.4562  0.2962
  980SOD     NA14463   0.363   2.156  15.119 -0.0733 -0.3684  0.2345
  981SOD     NA14464   1.157   3.646   5.678 -0.1390  0.1607 -0.4555
  982SOD     NA14465   3.503   2.237   7.623  0.1990 -0.2758 -0.2372
  983SOD     NA14466   0.415   1.329   2.686 -0.4645  0.2735  0.0693
  984SOD     NA14467   2.469   1.021   4.406 -0.1835  0.3045  0.2038
  985SOD     NA14468   1.242   0.791   9.892  0.3961  0.2508  0.5041
  986SOD     NA14469   2.316   0.993  15.623  0.0513 -0.0530  0.3081
  987SOD     NA14470   0.103   3.244  13.386  0.4302 -0.3134 -0.1222
  988SOD     NA14471   1.795   2.592   1.721  0.3771 -0.5014 -0.0521
  989SOD     NA14472   4.109   2.444   0.711  0.3072 -0.3252  0.1717
  990SOD     NA14473   4.389   1.989  14.682  0.0209  0.4402  0.0573
  991SOD     NA14474   3.829   1.415  11.652 -0.2259 -0.6018  0.0877
  992SOD     NA14475   2.069   0.941  13.806 -0.0958 -0.6497  0.2540
  993SOD     NA14476   0.754   3.971   1.580 -0.4487  0.1304 -0.0362
  994SOD     NA14477   4.092   1.912  14.852 -0.1516  0.0246  0.0825
  995SOD     NA14478   4.381   2.692  16.226  0.0729  0.3127  0.6998
  996SOD     NA14479   0.238   0.456  13.351 -0.4164 -0.0217 -0.4011
  997SOD     NA14480   0.889   1.523   9.974 -0.1548 -0.0728  0.2927
  998SOD     NA14481   4.217   1.766  12.150  0.0975 -0.3606  0.4078
  999SOD     NA14482   0.826   2.785  13.678  0.1650 -0.2589  0.3381
 1000SOD     NA14483   3.928   1.316   8.558  0.2370  0.1893  0.0677
 1001SOD     NA14484   1.021   3.199  16.093 -0.2711 -0.3255 -0.0178
 1002SOD     NA14485   3.414   2.277  14.592  0.5850  0.3007  0.1377
 1003SOD     NA14486   1.074   1.771  16.584  0.1483 -0.2744  0.1037
 1004SOD     NA14487   3.983   3.265  10.124  0.2556  0.2571 -0.5498
 1005SOD     NA14488   3.916   0.432  10.391  0.1215  0.0240  0.6232
 1006SOD     NA14489   0.344   0.732  13.474 -0.5129  0.6180 -0.3665
 1007SOD     NA14490   2.383   2.649  11.196  0.3257  0.0906  0.0278
 1008SOD     NA14491   3.030   0.635   9.509  0.2008  0.1955 -0.4329
 1009SOD     NA14492   0.413   2.654  11.246 -0.3536  0.0178  0.0537
 1010SOD     NA14493   2.185   0.193   0.778  0.1433  0.0826 -0.1543
 1011SOL     OW14494   3.331   3.099   5.024  0.3255  0.5746  0.6460
 1011SOL    HW114495   3.388   3.095   5.101  0.5215 -0.8095  0.4351
 1011SOL    HW214496   3.278   3.170   5.057  0.3181  2.1340 -2.7117
 1012SOL     OW14497   4.027   3.458   1.006 -0.6831 -0.4535  0.2349
 1012SOL    HW114498   4.045   3.422   0.919  0.5849  2.0095 -0.5248
 1012SOL    HW214499   4.013   3.377   1.054 -4.4908 -1.0643 -1.8859
 1013SOL     OW14500   2.000   4.433   0.974 -0.1212 -0.2064  0.2436
 1013SOL    HW114501   1.936   4.410   1.042  0.0769 -1.7223 -0.0652
 1013SOL    HW214502   1.984   4.364   0.910 -1.3774 -0.6099  0.9982
 1014SOL     OW14503   3.334   2.276  15.120  0.3953  0.1080  0.4773
 1014SOL    HW114504   3.271   2.212  15.089 -1.0960  1.5214  0.5973
 1014SOL    HW214505   3.416   2.228  15.106 -0.6163 -1.6214  0.5220
 1015SOL     OW14506   1.352   0.190   4.956 -0.1330 -0.1648  0.6038
 1015SOL    HW114507   1.307   0.269   4.986  2.7371  1.4366  0.7520
 1015SOL    HW214508   1.434   0.192   5.006 -0.1199 -1.4963  0.6305
 1016SOL     OW14509   0.693   4.056   9.652  0.1872 -0.2687  0.0864
 1016SOL    HW114510   0.620   4.053   9.713  1.1859  0.7929  1.3330
 1016SOL    HW214511   0.748   3.983   9.680 -0.1322 -0.3796  0.4252
 1017SOL     OW14512   0.356   2.047  10.593  0.1653 -0.2225  0.2098
 1017SOL    HW114513   0.426   2.020  10.652 -1.7272 -1.5484  1.8452
 1017SOL    HW214514   0.372   1.992  10.517 -0.1298  0.2867 -0.2209
 1018SOL     OW14515   1.880   2.191   2.248  0.5065 -0.2384  0.2289
 1018SOL    HW114516   1.815   2.253   2.281 -1.0811 -0.8337 -1.7510
 1018SOL    HW214517   1.894   2.237   2.165  1.7549  1.4239  1.3776
 1019SOL     OW14518   0.215   1.744   4.323  0.6405 -0.4641 -0.5664
 1019SOL    HW114519   0.196   1.832   4.289 -3.0639 -2.2757 -3.1427
 1019SOL    HW214520   0.212   1.758   4.417  2.8906  0.2677 -0.5882
 1020SOL     OW14521   4.011   3.953   0.862  0.1267 -0.0704 -0.2199
 1020SOL    HW114522   3.963   4.007   0.800  1.0710 -0.2888 -1.1471
 1020SOL    HW214523   4.093   3.947   0.812  1.6172  1.2325  2.0769
 1021SOL     OW14524   0.074   0.438   7.041 -0.0205  0.3811 -0.4624
 1021SOL    HW114525   0.100   0.454   6.950 -1.6699  1.1959 -0.7859
 1021SOL    HW214526   0.073   0.530   7.066  1.1339  0.3578 -0.3467
 1022SOL     OW14527   2.072   4.391   7.260  0.8393  0.0274 -1.1368
 1022SOL    HW114528   2.053   4.467   7.206 -1.2556  1.3540  1.4625
 1022SOL    HW214529   2.167   4.388   7.253  1.0657  3.0179  0.9468
 1023SOL     OW14530   2.659   3.361  12.617 -0.4821 -0.7740 -0.3896
 1023SOL    HW114531   2.710   3.419  12.673 -0.3104 -0.1504 -1.1975
 1023SOL    HW214532   2.604   3.428  12.576  1.3221  0.0881 -1.3458
 1024SOL     OW14533   2.890   0.488   8.300  0.4946  0.6889 -0.3122
 1024SOL    HW114534   2.933   0.511   8.217  2.1182 -2.8246 -0.4235
 1024SOL    HW214535   2.932   0.552   8.358  2.0316  0.6749 -1.4190
 1025SOL     OW14536   4.609   2.741   8.562 -0.3043  0.2021 -0.0361
 1025SOL    HW114537   4.668   2.714   8.492 -1.8434 -2.5790 -0.2670
 1025SOL    HW214538   4.597   2.833   8.538 -0.1282  0.1544 -0.3142
 1026SOL     OW14539   1.669   2.526  11.227 -0.0188 -0.2791  0.6756
 1026SOL    HW114540   1.655   2.535  11.321 -0.9832  1.2246  0.3784
 1026SOL    HW214541   1.673   2.430  11.225 -0.5062 -0.2970  0.3617
 1027SOL     OW14542   2.281   2.927  17.021 -0.4802 -0.0423  0.2622
 1027SOL    HW114543   2.373   2.898  17.022 -1.2190 -2.4101  2.0518
 1027SOL    HW214544   2.286   2.964  16.933 -0.7071 -0.5104  0.0500
 1028SOL     OW14545   4.626   3.456   8.224  0.9558 -0.1577 -0.1763
 1028SOL    HW114546   4.537   3.492   8.229  1.2470  0.2873  2.0402
 1028SOL    HW214547   4.664   3.508   8.153  2.0662  2.2374  2.1459
 1029SOL     OW14548   2.086   4.616   2.903  0.0417  0.3211 -0.0126
 1029SOL    HW114549   2.061   4.553   2.835  0.0984 -0.0146  0.2749
 1029SOL    HW214550   2.084   4.696   2.850 -0.7949 -1.0371 -2.0686
 1030SOL     OW14551   4.000   1.848   2.212 -0.2851  0.2416 -0.5285
 1030SOL    HW114552   4.079   1.897   2.191 -1.2141  1.8748 -0.2391
 1030SOL    HW214553   3.934   1.917   2.216  0.5820  1.1374 -1.9787
 1031SOL     OW14554   1.712   1.715   5.911 -0.3474  0.0230 -0.1462
 1031SOL    HW114555   1.701   1.780   5.841 -3.8314  0.8528  1.1662
 1031SOL    HW214556   1.781   1.761   5.959  0.9625 -1.7372 -0.3668
 1032SOL     OW14557   2.509   4.439   2.344 -1.0177  0.0817 -0.1206
 1032SOL    HW114558   2.520   4.470   2.434  0.6627 -0.1428 -0.2498
 1032SOL    HW214559   2.567   4.363   2.343 -0.7444  0.2928 -0.5039
 1033SOL     OW14560   4.666   3.060   2.244  0.4983  0.4619 -0.5575
 1033SOL    HW114561   4.615   3.121   2.190  0.0400  1.2980  0.8267
 1033SOL    HW214562   0.028   3.082   2.214  1.1004  0.2135  1.0268
 1034SOL     OW14563   3.466   4.101   6.322  0.1512 -0.1889 -0.1978
 1034SOL    HW114564   3.515   4.074   6.244 -0.0279  2.6982 -1.3197
 1034SOL    HW214565   3.525   4.146   6.382 -1.8003  1.9229  0.1551
 1035SOL     OW14566   3.708   1.988   6.159 -0.3413 -0.5661 -0.2178
 1035SOL    HW114567   3.707   1.944   6.074 -1.2444  0.8724 -0.9586
 1035SOL    HW214568   3.800   1.974   6.180 -0.5772 -1.0263  0.5170
 1036SOL     OW14569   1.816   0.457  13.339  0.1617 -0.5362 -0.6656
 1036SOL    HW114570   1.884   0.441  13.404  0.7655  1.3128 -0.8428
 1036SOL    HW214571   1.841   0.540  13.299  0.5989 -1.2365 -1.8425
 1037SOL     OW14572   0.868   0.093   7.604 -0.0838 -0.3768  0.3760
 1037SOL    HW114573   0.782   0.089   7.562 -0.4126  0.7262  0.9343
 1037SOL    HW214574   0.878   0.002   7.632  0.0807  0.3670  2.7033
 1038SOL     OW14575   4.393   1.619   8.067  0.4805  0.2752 -0.4022
 1038SOL    HW114576   4.415   1.601   7.975  1.3101 -1.8573  0.2193
 1038SOL    HW214577   4.477   1.635   8.108  0.8937 -0.5796 -0.9261
 1039SOL     OW14578   0.894   0.686   5.837  0.1189  0.3681 -0.2479
 1039SOL    HW114579   0.895   0.780   5.821  1.4006 -0.4083 -4.8263
 1039SOL    HW214580   0.950   0.657   5.765 -0.9193  0.1375 -0.9569
 1040SOL     OW14581   4.672   0.601  16.202  0.4894  0.1492  0.2268
 1040SOL    HW114582   4.585   0.639  16.214  0.2886 -0.4203  0.5626
 1040SOL    HW214583   0.001   0.679  16.202  2.2802 -1.1090  0.5965
 1041SOL     OW14584   0.789   0.416  14.793  0.5729  0.0782 -0.0812
 1041SOL    HW114585   0.872   0.441  14.834  0.9477  2.3835 -2.2008
 1041SOL    HW214586   0.806   0.434  14.700 -3.1144  0.4820 -0.6849
 1042SOL     OW14587   2.969   1.893   5.634  0.5840  0.2173 -0.1562
 1042SOL    HW114588   2.987   1.964   5.573  2.4457  0.0689  0.2111
 1042SOL    HW214589   3.009   1.818   5.590 -1.7676 -1.4543  0.5997
 1043SOL     OW14590   3.868   0.114   7.283 -0.0492 -0.1157 -0.2161
 1043SOL    HW114591   3.959   0.100   7.307 -0.2051 -0.3763  0.2245
 1043SOL    HW214592   3.866   0.209   7.274 -2.4357  0.0773  2.2080
 1044SOL     OW14593   0.715   2.319   4.010  0.6336 -0.0923  0.1470
 1044SOL    HW114594   0.738   2.230   3.986  2.1027  0.0789  0.9012
 1044SOL    HW214595   0.708   2.359   3.923 -2.5804 -4.1303 -1.4487
 1045SOL     OW14596   3.287   2.863   4.041 -0.7896  1.0743  1.1093
 1045SOL    HW114597   3.332   2.900   3.965  0.3572  0.3460  1.4206
 1045SOL    HW214598   3.298   2.934   4.104 -0.0830 -0.0043  2.2256
 1046SOL     OW14599   3.270   4.142   8.938  0.4421 -0.2457  0.3266
 1046SOL    HW114600   3.332   4.188   8.994 -1.7890  1.1440  1.6270
 1046SOL    HW214601   3.248   4.071   8.998  4.2818 -0.6757  1.2432
 1047SOL     OW14602   4.607   3.838   8.895 -0.2659 -0.2620  0.1609
 1047SOL    HW114603   4.533   3.801   8.846 -1.5274  2.3498  0.1382
 1047SOL    HW214604   4.627   3.915   8.843  1.5685 -1.9479 -1.6306
 1048SOL     OW14605   2.762   3.377   6.761 -0.2345 -0.3856 -0.3429
 1048SOL    HW114606   2.760   3.469   6.736  2.3153  0.1411  1.3967
 1048SOL    HW214607   2.744   3.348   6.672 -0.3391  1.5419 -0.9395
 1049SOL     OW14608   4.512   0.097   6.013 -0.0637 -0.6027 -0.1166
 1049SOL    HW114609   4.566   0.057   6.081  1.5975 -1.2316 -1.8255
 1049SOL    HW214610   4.555   0.068   5.933 -0.6101  0.4688 -0.8137
 1050SOL     OW14611   4.446   4.152   7.419  0.1844  0.0381 -0.3263
 1050SOL    HW114612   4.526   4.136   7.468 -0.3289  2.1694  1.2132
 1050SOL    HW214613   4.448   4.248   7.417 -3.2902  0.1015 -0.8746
 1051SOL     OW14614   2.813   4.520   3.626  0.1732  0.0328  0.4940
 1051SOL    HW114615   2.795   4.427   3.611  1.4064  0.0820 -1.2590
 1051SOL    HW214616   2.729   4.551   3.661  0.5216  1.9115 -0.3710
 1052SOL     OW14617   4.346   2.340  14.300 -1.0407  0.7289  0.2082
 1052SOL    HW114618   4.298   2.314  14.221 -1.9572  0.8109  0.7436
 1052SOL    HW214619   4.428   2.380  14.269  0.2692 -2.0376  0.0866
 1053SOL     OW14620   0.814   0.937  10.689  0.2455  0.1516 -0.0214
 1053SOL    HW114621   0.768   0.918  10.770 -0.2332  0.9180 -0.1159
 1053SOL    HW214622   0.784   0.862  10.637  2.4832 -0.3649 -0.5976
 1054SOL     OW14623   1.132   3.269   4.182  0.1648  0.0183  0.2993
 1054SOL    HW114624   1.043   3.235   4.177  0.6091 -1.0301 -0.4029
 1054SOL    HW214625   1.127   3.291   4.275 -1.4666 -1.9018  0.6518
 1055SOL     OW14626   3.499   3.662   6.952  0.4154 -0.1081  0.6131
 1055SOL    HW114627   3.536   3.635   6.868 -2.1104  0.8688 -0.8291
 1055SOL    HW214628   3.422   3.605   6.944  1.8328 -2.1509  1.4497
 1056SOL     OW14629   2.639   0.777   0.530 -0.2149  0.8616 -0.4634
 1056SOL    HW114630   2.578   0.827   0.476 -2.3816 -0.1175  1.0866
 1056SOL    HW214631   2.654   0.848   0.592 -0.0432 -0.0862  0.5856
 1057SOL     OW14632   4.534   2.913  15.196 -0.5816 -0.2189 -0.3188
 1057SOL    HW114633   4.461   2.887  15.141 -1.1866  0.1609  0.3041
 1057SOL    HW214634   4.505   2.996  15.234  0.8717 -0.0362  0.4029
 1058SOL     OW14635   2.153   1.886   5.590  0.0116  0.8016 -0.4808
 1058SOL    HW114636   2.093   1.813   5.573  0.5477  0.2227  0.1072
 1058SOL    HW214637   2.185   1.914   5.504 -0.3967 -0.1055 -0.9325
 1059SOL     OW14638   2.565   4.372   4.673  0.2121  0.4211 -0.2171
 1059SOL    HW114639   2.504   4.377   4.746  0.4994 -1.3008  0.1414
 1059SOL    HW214640   2.622   4.301   4.702 -0.9563 -0.1161  0.7146
 1060SOL     OW14641   1.468   1.027   7.305  0.3141 -0.6701  0.4687
 1060SOL    HW114642   1.491   1.118   7.285 -1.5891 -0.2165  0.3818
 1060SOL    HW214643   1.375   1.028   7.281  1.1318  0.6523 -2.6056
 1061SOL     OW14644   0.049   1.032   4.579 -0.1460 -0.1361 -0.5949
 1061SOL    HW114645   4.689   1.018   4.539  0.0915  1.5126 -1.7059
 1061SOL    HW214646   0.074   0.940   4.592 -0.0552 -0.0594 -0.2215
 1062SOL     OW14647   4.187   1.469   0.554 -0.2066 -0.3646 -0.0897
 1062SOL    HW114648   4.130   1.423   0.616 -0.4634 -3.1181 -2.3878
 1062SOL    HW214649   4.268   1.484   0.602  0.4243  1.8762 -1.8813
 1063SOL     OW14650   3.794   2.130   2.907 -1.2769  0.1986 -0.3896
 1063SOL    HW114651   3.717   2.109   2.960  0.3462  1.1332  2.3534
 1063SOL    HW214652   3.825   2.211   2.947  1.8244 -1.1738  0.0204
 1064SOL     OW14653   3.252   4.155   2.689 -0.3276 -0.1010  0.1756
 1064SOL    HW114654   3.300   4.077   2.662  0.9767  0.1569  1.7499
 1064SOL    HW214655   3.246   4.192   2.601 -0.8706 -1.7008 -0.4699
 1065SOL     OW14656   4.579   2.500   3.423 -0.3371  0.2174  0.3985
 1065SOL    HW114657   4.529   2.554   3.362  1.5726  1.4026 -0.1085
 1065SOL    HW214658   4.582   2.562   3.495 -0.2870 -0.5828  1.0889
 1066SOL     OW14659   2.761   0.878   3.665  0.1608  0.0634  0.1636
 1066SOL    HW114660   2.794   0.859   3.577  0.6561 -2.0217  0.7934
 1066SOL    HW214661   2.666   0.867   3.663  0.1543  0.5505 -3.3650
 1067SOL     OW14662   4.684   3.497  12.002  0.2632 -0.1123 -0.1064
 1067SOL    HW114663   4.609   3.556  12.010 -1.3493 -2.3616  1.4200
 1067SOL    HW214664   4.653   3.436  11.934  3.3115 -0.7287 -0.9341
 1068SOL     OW14665   4.057   2.239  15.874  0.1430 -0.2066  0.1306
 1068SOL    HW114666   4.103   2.322  15.882 -0.1870 -0.1310  1.1788
 1068SOL    HW214667   4.085   2.192  15.953  0.3564 -3.0725 -1.6522
 1069SOL     OW14668   1.539   2.695   3.980 -0.3689  0.1508  0.1550
 1069SOL    HW114669   1.501   2.685   4.067  0.4644 -0.8665  0.3978
 1069SOL    HW214670   1.593   2.771   4.002 -1.2396 -0.3157  3.8197
 1070SOL     OW14671   0.663   4.408   6.540 -0.4517 -0.0391 -0.9272
 1070SOL    HW114672   0.654   4.400   6.445 -1.7299  0.9887 -0.8967
 1070SOL    HW214673   0.687   4.500   6.551 -3.1822  0.9303 -3.0541
 1071SOL     OW14674   0.228   0.082  13.597  0.2095  0.3715 -0.1039
 1071SOL    HW114675   0.291   0.029  13.646  1.0627  0.4115 -1.1574
 1071SOL    HW214676   0.170   0.010  13.574  1.6368 -0.2632 -1.6626
 1072SOL     OW14677   3.901   1.622   6.236 -0.5819 -0.1863 -0.9174
 1072SOL    HW114678   3.831   1.561   6.212 -1.4587 -0.1353  1.4445
 1072SOL    HW214679   3.954   1.606   6.158  0.7275 -2.8519  0.4810
 1073SOL     OW14680   2.555   1.890  10.095  0.0937  0.5596 -0.1536
 1073SOL    HW114681   2.641   1.859  10.123  0.6273  0.7453 -1.6010
 1073SOL    HW214682   2.535   1.961  10.155 -1.4940  0.1318 -0.1825
 1074SOL     OW14683   0.729   1.732   9.622 -0.3007 -0.3229 -0.3186
 1074SOL    HW114684   0.717   1.793   9.549  2.4384  1.8913  1.0817
 1074SOL    HW214685   0.659   1.749   9.685 -1.4350  1.7264 -2.1244
 1075SOL     OW14686   3.219   2.628   6.671  0.1358 -0.1444 -0.5315
 1075SOL    HW114687   3.306   2.663   6.654 -0.5141  1.1780 -1.1139
 1075SOL    HW214688   3.171   2.710   6.666  0.3940  0.0811  0.6308
 1076SOL     OW14689   2.997   2.949   2.294  0.0596  0.7118 -0.4858
 1076SOL    HW114690   3.002   3.019   2.359 -1.6432 -0.6484  1.1207
 1076SOL    HW214691   2.964   2.878   2.350  1.3605  2.2106  2.1839
 1077SOL     OW14692   1.069   1.734  10.279  0.0866 -0.7161 -0.2636
 1077SOL    HW114693   1.089   1.795  10.208  1.3638  0.0116  0.7185
 1077SOL    HW214694   0.973   1.730  10.285  0.0574 -0.1732 -0.3845
 1078SOL     OW14695   3.818   2.676   1.122 -0.4980 -0.2959 -0.0099
 1078SOL    HW114696   3.837   2.742   1.188  1.2330 -2.1904  1.3748
 1078SOL    HW214697   3.731   2.704   1.093  1.0126  2.7321 -1.6580
 1079SOL     OW14698   3.562   1.717   5.742 -0.5360  0.2788  0.1588
 1079SOL    HW114699   3.493   1.783   5.738 -0.1180  0.6541 -0.8911
 1079SOL    HW214700   3.623   1.763   5.685  0.0203 -2.6507 -1.6404
 1080SOL     OW14701   2.622   1.284   6.287  0.1707  0.3505 -0.0539
 1080SOL    HW114702   2.610   1.190   6.291 -0.1772  0.4565  1.1877
 1080SOL    HW214703   2.566   1.319   6.356  2.2117 -1.2905  2.4243
 1081SOL     OW14704   3.022   3.823   5.991  0.0822  0.0854  0.2454
 1081SOL    HW114705   2.967   3.745   5.989  0.1633 -0.0091  1.8590
 1081SOL    HW214706   2.959   3.895   5.989  0.3884  0.4046  1.5940
 1082SOL     OW14707   3.862   3.123  15.152 -0.2114 -0.2920  0.1154
 1082SOL    HW114708   3.811   3.048  15.183  0.3435 -1.6693 -2.3425
 1082SOL    HW214709   3.839   3.198  15.206 -0.2780  0.3456 -0.8031
 1083SOL     OW14710   1.023   1.852   3.840 -0.1525 -0.3396 -0.1615
 1083SOL    HW114711   1.006   1.920   3.775  1.9468  0.7538  0.4419
 1083SOL    HW214712   1.093   1.805   3.796  0.9500 -0.8208  2.1094
 1084SOL     OW14713   0.331   4.444   6.887  0.5001  0.1432  0.1903
 1084SOL    HW114714   0.365   4.482   6.968 -0.2607 -0.3895  0.7606
 1084SOL    HW214715   0.256   4.500   6.866  0.3647 -0.4246 -0.8153
 1085SOL     OW14716   2.656   2.230   7.849  0.2290  0.0762  0.8863
 1085SOL    HW114717   2.720   2.205   7.915 -1.3794 -0.9645  2.0410
 1085SOL    HW214718   2.582   2.240   7.909 -0.4681 -0.1592  0.0632
 1086SOL     OW14719   3.515   0.129   7.704 -0.0259  0.3119 -0.1856
 1086SOL    HW114720   3.542   0.049   7.750  0.1003  1.0686  1.0515
 1086SOL    HW214721   3.437   0.139   7.758  0.6219 -0.1812  0.8424
 1087SOL     OW14722   4.184   3.969  15.455 -0.0442  0.3739 -0.3185
 1087SOL    HW114723   4.238   3.906  15.408 -0.4454 -0.0950 -0.1512
 1087SOL    HW214724   4.236   3.970  15.535  0.3799  0.3044 -0.5945
 1088SOL     OW14725   2.118   2.739   9.862  0.5617  0.0723 -0.0956
 1088SOL    HW114726   2.181   2.810   9.872 -1.4119  1.7253  0.5465
 1088SOL    HW214727   2.122   2.727   9.767  1.0768  0.7728 -0.1597
 1089SOL     OW14728   1.671   4.685   2.688 -0.5111 -0.5206  0.0663
 1089SOL    HW114729   1.744   0.008   2.651 -1.4096  2.0341  1.6339
 1089SOL    HW214730   1.622   4.655   2.612 -2.0386  0.3899  0.6897
 1090SOL     OW14731   2.804   3.876   7.908  0.3737  0.5704 -0.0800
 1090SOL    HW114732   2.734   3.903   7.967 -0.9208  0.0228 -1.3569
 1090SOL    HW214733   2.842   3.962   7.890  1.3547  0.0908 -0.2757
 1091SOL     OW14734   2.606   2.386   7.614 -0.0317 -0.7000  0.3464
 1091SOL    HW114735   2.559   2.315   7.570 -0.4311 -0.2752  0.0919
 1091SOL    HW214736   2.616   2.360   7.705  1.5133  1.8583  0.8850
 1092SOL     OW14737   4.471   1.742   3.825 -0.7122 -0.3842  0.7416
 1092SOL    HW114738   4.440   1.652   3.823 -2.3484  0.2284 -1.4284
 1092SOL    HW214739   4.508   1.735   3.913  0.3662  0.0498  0.3341
 1093SOL     OW14740   4.092   1.749   3.927  0.1206 -0.2171 -0.0146
 1093SOL    HW114741   4.038   1.709   3.859  0.9724 -0.5984 -0.4684
 1093SOL    HW214742   4.104   1.836   3.891  4.2969 -1.0800 -0.7141
 1094SOL     OW14743   2.702   1.401   8.624 -0.0880 -0.4028 -0.4536
 1094SOL    HW114744   2.634   1.337   8.604 -1.3507  1.0147 -0.6480
 1094SOL    HW214745   2.655   1.447   8.694 -1.3325 -0.6368 -1.1333
 1095SOL     OW14746   4.114   0.674   0.488  0.2133 -0.5262  0.1337
 1095SOL    HW114747   4.020   0.655   0.488 -0.2687  1.8285  1.9128
 1095SOL    HW214748   4.118   0.718   0.403 -0.7197 -1.6568 -0.4969
 1096SOL     OW14749   2.676   3.529  13.930  0.0843  0.1714  0.0671
 1096SOL    HW114750   2.731   3.459  13.894  0.8821  0.0751  1.4851
 1096SOL    HW214751   2.592   3.490  13.906  0.6832 -0.6058 -0.7766
 1097SOL     OW14752   4.473   4.026  17.053  0.2042 -1.0298 -0.2257
 1097SOL    HW114753   4.394   3.985  17.088  0.9471 -1.9927  0.3162
 1097SOL    HW214754   4.532   3.960  17.090 -0.2090 -2.2644 -1.7709
 1098SOL     OW14755   0.651   3.672  10.398  0.1073  0.3558 -0.3923
 1098SOL    HW114756   0.633   3.651  10.306  0.3692  1.4761 -0.7072
 1098SOL    HW214757   0.711   3.747  10.401 -0.7933  1.1081 -0.9106
 1099SOL     OW14758   4.591   2.646  14.363 -0.0375 -0.3473 -0.0916
 1099SOL    HW114759   4.588   2.740  14.347 -0.2180 -0.4709 -0.7703
 1099SOL    HW214760   4.512   2.620  14.316 -0.4856 -0.1807  0.5657
 1100SOL     OW14761   4.405   1.915   9.876 -0.0887 -0.0168  0.5120
 1100SOL    HW114762   4.342   1.986   9.888 -0.6635 -0.9865  3.0838
 1100SOL    HW214763   4.410   1.885   9.967 -1.5117 -0.9712  0.2672
 1101SOL     OW14764   3.493   4.196   9.142  0.6796 -0.2964 -0.9917
 1101SOL    HW114765   3.458   4.194   9.231 -1.1299 -3.5845 -1.7880
 1101SOL    HW214766   3.583   4.170   9.162  1.6808  2.1688 -2.2846
 1102SOL     OW14767   2.864   3.460   7.604 -0.1403  0.2311 -0.4024
 1102SOL    HW114768   2.923   3.477   7.531 -0.9975 -0.0798 -1.1566
 1102SOL    HW214769   2.883   3.521   7.675 -0.7957  1.3943 -1.2224
 1103SOL     OW14770   3.204   0.483  16.619  0.0288  0.2737  0.3822
 1103SOL    HW114771   3.255   0.421  16.567 -1.6416 -1.1770  0.4503
 1103SOL    HW214772   3.113   0.458  16.602  0.2613 -1.0464  1.0841
 1104SOL     OW14773   2.773   1.024   4.773 -0.0129  0.1365  0.4882
 1104SOL    HW114774   2.772   1.119   4.791  0.1126  0.2700 -0.2272
 1104SOL    HW214775   2.864   1.000   4.790 -0.8157 -0.3569  4.1668
 1105SOL     OW14776   3.117   1.336   8.378  0.1562  0.1763 -0.3633
 1105SOL    HW114777   3.118   1.429   8.357 -0.7056 -0.1470 -1.8609
 1105SOL    HW214778   3.023   1.319   8.377 -0.1048  1.5039  1.7629
 1106SOL     OW14779   3.634   4.688   4.447  0.1062 -0.3226  0.1230
 1106SOL    HW114780   3.608   0.054   4.455 -0.7026 -0.7304  2.1432
 1106SOL    HW214781   3.587   4.651   4.522 -2.4424  1.7421 -0.4375
 1107SOL     OW14782   0.466   2.121   4.505 -0.0867 -0.0598  0.2799
 1107SOL    HW114783   0.495   2.110   4.595 -0.5399  2.9224  0.7778
 1107SOL    HW214784   0.534   2.068   4.461 -0.6761  0.4923 -1.3016
 1108SOL     OW14785   0.352   0.619   5.371  0.6366 -0.3467  0.6795
 1108SOL    HW114786   0.309   0.618   5.457  0.1625 -3.0107  0.4209
 1108SOL    HW214787   0.418   0.551   5.385 -0.6748 -1.3490  2.0553
 1109SOL     OW14788   0.844   1.294   3.618  0.2790  0.3580 -0.8874
 1109SOL    HW114789   0.804   1.340   3.545 -1.4737  1.6562  0.9087
 1109SOL    HW214790   0.801   1.342   3.689 -0.0581 -2.1769  0.6279
 1110SOL     OW14791   4.565   3.678   5.034 -0.0049 -0.6487 -0.7051
 1110SOL    HW114792   4.536   3.687   5.124 -0.4509 -1.6580 -0.7434
 1110SOL    HW214793   4.559   3.583   5.020  0.2997 -0.7373 -0.2176
 1111SOL     OW14794   1.902   1.880   5.992 -0.0192  0.2589  0.1257
 1111SOL    HW114795   1.991   1.883   5.958 -0.2308 -1.3360 -0.5967
 1111SOL    HW214796   1.877   1.972   6.001  1.0908  0.6532 -0.8384
 1112SOL     OW14797   0.246   1.386   3.316 -0.2580  0.3520 -0.2222
 1112SOL    HW114798   0.175   1.326   3.338 -0.5973  0.4336 -1.1219
 1112SOL    HW214799   0.235   1.469   3.363 -0.1575  0.2248  0.0259
 1113SOL     OW14800   2.956   1.467  15.096 -0.0062  0.2227 -0.3192
 1113SOL    HW114801   2.990   1.555  15.106 -2.6163  1.0824  1.1045
 1113SOL    HW214802   2.993   1.442  15.012 -0.9747  0.5647 -0.8461
 1114SOL     OW14803   2.971   2.540   9.400  0.2724 -0.2002  0.1481
 1114SOL    HW114804   3.004   2.617   9.353 -0.9925  0.3536  0.1627
 1114SOL    HW214805   2.962   2.482   9.325  0.0062  0.7465 -0.5582
 1115SOL     OW14806   0.267   1.343   3.987  0.5327  0.1979 -0.2059
 1115SOL    HW114807   0.259   1.310   4.077  0.4058 -0.3206 -0.4050
 1115SOL    HW214808   0.197   1.408   3.988  1.1391  0.8370  0.8428
 1116SOL     OW14809   2.695   0.136  15.695 -0.4251  0.2520  0.2585
 1116SOL    HW114810   2.762   0.068  15.709 -0.1378  0.5714  0.4261
 1116SOL    HW214811   2.660   0.104  15.612 -0.1063 -0.1125  0.2655
 1117SOL     OW14812   3.894   3.433  14.788 -0.4151 -1.2755 -0.1926
 1117SOL    HW114813   3.944   3.383  14.853 -0.8592 -0.3200  0.9032
 1117SOL    HW214814   3.823   3.370  14.773 -0.7592 -0.4921 -1.8625
 1118SOL     OW14815   3.928   2.544  10.281 -0.0327  0.0024 -0.1721
 1118SOL    HW114816   3.950   2.613  10.218  3.0729 -1.9101 -1.1275
 1118SOL    HW214817   3.832   2.547  10.276  0.0072 -0.9512 -1.6497
 1119SOL     OW14818   0.996   0.296   4.753 -0.0170  0.3616 -0.2663
 1119SOL    HW114819   0.950   0.328   4.675  1.0272  2.3795 -0.0472
 1119SOL    HW214820   1.069   0.248   4.715  1.4472 -0.2523  3.3780
 1120SOL     OW14821   0.918   1.482   3.862 -0.0286  0.6041 -0.8142
 1120SOL    HW114822   1.013   1.491   3.872  0.1939 -2.4217 -0.0522
 1120SOL    HW214823   0.894   1.539   3.936 -1.8795  0.2493 -1.1527
 1121SOL     OW14824   0.063   4.614   4.341 -0.2853  0.4579 -0.7022
 1121SOL    HW114825   0.113   4.654   4.269  0.1159  1.9544  0.4171
 1121SOL    HW214826   0.014   4.688   4.377  1.6351  0.8093  1.1941
 1122SOL     OW14827   3.660   3.570   8.284 -0.0990  0.5488 -0.3511
 1122SOL    HW114828   3.658   3.664   8.299 -1.4044  0.2785  1.1240
 1122SOL    HW214829   3.755   3.558   8.288 -0.4269 -1.9881 -0.2144
 1123SOL     OW14830   3.841   2.837  17.688  1.0321 -0.2121  0.7187
 1123SOL    HW114831   3.926   2.800  17.664  1.0842 -0.1092  0.7425
 1123SOL    HW214832   3.866   2.929  17.696  0.3635  0.1468 -1.3773
 1124SOL     OW14833   0.319   1.068  12.001  0.0459  0.0676 -0.3088
 1124SOL    HW114834   0.290   1.149  12.044 -0.6319  0.6469 -1.8362
 1124SOL    HW214835   0.235   1.033  11.972  0.3974 -1.5477  0.6237
 1125SOL     OW14836   3.613   2.919   4.174  0.0826 -0.6377 -0.3606
 1125SOL    HW114837   3.659   2.984   4.121  1.8161 -0.7304  1.0350
 1125SOL    HW214838   3.542   2.978   4.201  0.2603 -0.6738  0.2021
 1126SOL     OW14839   2.459   1.606   2.163 -0.4652 -0.2931 -0.2659
 1126SOL    HW114840   2.519   1.582   2.234  0.3509 -1.5212 -1.3691
 1126SOL    HW214841   2.514   1.668   2.113 -2.1763  2.0848  0.7981
 1127SOL     OW14842   0.958   0.608   6.110  0.2437 -0.5732  0.1364
 1127SOL    HW114843   0.942   0.622   6.017  2.2802  0.3154 -0.0821
 1127SOL    HW214844   1.051   0.588   6.120  0.2932 -0.7455 -0.7191
 1128SOL     OW14845   3.868   3.360  15.311  0.0636 -0.0470 -0.0317
 1128SOL    HW114846   3.843   3.315  15.391 -0.0006 -1.4322 -0.8258
 1128SOL    HW214847   3.938   3.414  15.347  0.6006 -1.1640  0.5859
 1129SOL     OW14848   3.683   4.274   1.256  0.3010 -0.3602  0.1065
 1129SOL    HW114849   3.749   4.255   1.189 -1.9201  0.3358 -2.2636
 1129SOL    HW214850   3.672   4.184   1.287  1.6220  0.1756  2.1520
 1130SOL     OW14851   3.291   1.818   5.437 -0.2413 -0.1142 -0.6252
 1130SOL    HW114852   3.228   1.748   5.450  2.1020 -2.0406  0.4425
 1130SOL    HW214853   3.272   1.842   5.347 -0.9556 -1.1879 -0.7543
 1131SOL     OW14854   3.969   0.663   7.804  0.1838  0.2714  0.2099
 1131SOL    HW114855   3.924   0.600   7.860  0.7287  1.1267  1.5976
 1131SOL    HW214856   3.901   0.731   7.801 -1.7925 -1.6936  0.2649
 1132SOL     OW14857   3.618   2.984  10.905  0.0937  0.0915 -0.2893
 1132SOL    HW114858   3.523   2.983  10.920  0.4497  1.3726  1.9969
 1132SOL    HW214859   3.638   2.913  10.967 -0.9688  0.7424  0.7988
 1133SOL     OW14860   1.857   3.275  13.679  0.2324 -0.2206 -0.1178
 1133SOL    HW114861   1.808   3.202  13.641 -0.1126  0.0330 -0.1570
 1133SOL    HW214862   1.938   3.224  13.683 -0.7023 -1.6648  0.5026
 1134SOL     OW14863   1.876   2.974   7.671 -0.1944 -0.4915 -0.6353
 1134SOL    HW114864   1.807   3.039   7.688  2.0239  1.4951  0.8609
 1134SOL    HW214865   1.950   3.030   7.646  0.5414 -2.3195 -2.5245
 1135SOL     OW14866   0.389   2.790   7.864  0.3476 -0.2692 -0.0166
 1135SOL    HW114867   0.329   2.721   7.837  1.0246 -1.2685  1.0182
 1135SOL    HW214868   0.337   2.853   7.914 -1.6926 -3.0746  1.3797
 1136SOL     OW14869   3.804   1.845   3.246 -0.5102  0.0644  0.3527
 1136SOL    HW114870   3.877   1.903   3.268  0.8989 -1.0451 -1.4574
 1136SOL    HW214871   3.810   1.859   3.152  0.3599  1.8750  0.6685
 1137SOL     OW14872   3.328   3.442   7.194  0.3821 -0.6694 -0.1170
 1137SOL    HW114873   3.376   3.386   7.255  1.3303  0.6479  0.3557
 1137SOL    HW214874   3.237   3.413   7.200 -0.3050  0.9473 -2.5037
 1138SOL     OW14875   3.693   0.967  15.886  0.2944 -0.7100  0.1130
 1138SOL    HW114876   3.629   1.038  15.873  1.8769  0.9532  1.4225
 1138SOL    HW214877   3.662   0.908  15.817  0.1513 -0.1991 -0.2658
 1139SOL     OW14878   3.042   2.679   5.026 -0.5704  0.1743 -0.0072
 1139SOL    HW114879   3.124   2.710   4.988 -0.7931 -0.1699 -0.7756
 1139SOL    HW214880   3.013   2.761   5.065  1.2790  0.3809  0.9170
 1140SOL     OW14881   1.592   4.126   3.153 -0.1704 -0.1310  0.1490
 1140SOL    HW114882   1.682   4.140   3.122 -0.1728  0.1712  0.2713
 1140SOL    HW214883   1.547   4.151   3.072 -1.1970  1.4933  1.2215
 1141SOL     OW14884   1.305   2.442   5.107 -0.1139 -0.0344 -0.0505
 1141SOL    HW114885   1.376   2.504   5.125 -0.1433 -0.1176  0.3660
 1141SOL    HW214886   1.273   2.463   5.020  0.6054  3.1963  0.4523
 1142SOL     OW14887   2.925   0.291   4.098  0.4375  0.1519  0.1924
 1142SOL    HW114888   2.954   0.380   4.120  0.9184 -0.1063  0.5792
 1142SOL    HW214889   2.971   0.283   4.015 -2.0304  0.8208 -1.2515
 1143SOL     OW14890   1.351   2.122  12.389 -0.2884 -0.4474 -0.4335
 1143SOL    HW114891   1.359   2.176  12.310  0.9450  0.9553  0.6620
 1143SOL    HW214892   1.272   2.069  12.380  0.0954 -0.6782 -2.5128
 1144SOL     OW14893   4.538   3.597   6.767 -0.4872  0.2473 -0.5558
 1144SOL    HW114894   4.509   3.526   6.824 -0.6497 -0.8141 -1.9630
 1144SOL    HW214895   4.454   3.619   6.728 -0.8177 -1.5676 -0.8699
 1145SOL     OW14896   0.800   0.092   2.800  0.3403  0.3419 -0.1217
 1145SOL    HW114897   0.874   0.062   2.748 -1.6681 -1.0204 -2.1485
 1145SOL    HW214898   0.775   0.171   2.751 -1.9333  0.3620  1.0807
 1146SOL     OW14899   1.045   2.227   0.361 -0.2404 -0.0799 -0.1397
 1146SOL    HW114900   1.121   2.221   0.303  0.3669 -0.3866  0.6815
 1146SOL    HW214901   1.025   2.134   0.353  0.9504 -0.2544 -1.0971
 1147SOL     OW14902   4.429   2.951   7.497  0.2617  0.3125  0.3203
 1147SOL    HW114903   4.414   3.011   7.424 -1.5710 -2.0462 -1.2194
 1147SOL    HW214904   4.515   2.916   7.476 -0.9649 -1.8610 -1.1190
 1148SOL     OW14905   2.820   0.610   2.732  0.0761  0.2392 -0.0306
 1148SOL    HW114906   2.746   0.627   2.674 -0.2416 -2.1735 -0.3383
 1148SOL    HW214907   2.810   0.516   2.747 -2.0545  0.7885  1.8735
 1149SOL     OW14908   2.139   2.332  13.232  0.6537 -0.0764 -0.0644
 1149SOL    HW114909   2.077   2.404  13.246  1.6948  1.0321 -1.1021
 1149SOL    HW214910   2.159   2.364  13.144 -0.5962 -1.1189 -0.7233
 1150SOL     OW14911   3.677   4.382   7.103 -0.2989 -0.2590 -0.3848
 1150SOL    HW114912   3.682   4.294   7.065 -0.5527 -0.6109  0.4046
 1150SOL    HW214913   3.698   4.450   7.038  0.3606  1.3394  1.5155
 1151SOL     OW14914   2.696   3.008   4.631  0.0963  0.6607 -0.0416
 1151SOL    HW114915   2.785   3.005   4.665 -0.8131 -0.7330  2.2112
 1151SOL    HW214916   2.671   2.917   4.617 -0.0235  0.9007 -1.4186
 1152SOL     OW14917   1.998   3.651   7.550  0.1282  0.0058  0.1283
 1152SOL    HW114918   2.055   3.603   7.610 -1.4743 -0.7178  1.0982
 1152SOL    HW214919   2.018   3.743   7.565 -0.3394  0.4302 -1.8411
 1153SOL     OW14920   0.673   3.906  13.343 -0.7835  0.0719 -0.0895
 1153SOL    HW114921   0.693   3.969  13.273 -0.1509  0.9520  0.8842
 1153SOL    HW214922   0.671   3.959  13.423  1.3132  0.0233 -0.0063
 1154SOL     OW14923   2.623   0.667   2.545  0.3273 -0.4432  0.3456
 1154SOL    HW114924   2.551   0.721   2.577  0.5628  0.1787 -0.1750
 1154SOL    HW214925   2.679   0.733   2.506 -2.8234 -0.6900 -4.5646
 1155SOL     OW14926   1.692   3.357  12.803  0.1776  0.6550  0.1012
 1155SOL    HW114927   1.739   3.409  12.738  1.1567 -0.3914 -0.0235
 1155SOL    HW214928   1.726   3.371  12.891 -1.7541 -0.5107  1.0518
 1156SOL     OW14929   1.224   0.156   7.740  0.4085 -0.0526  0.2347
 1156SOL    HW114930   1.225   0.223   7.671 -1.1215  0.2751  0.5422
 1156SOL    HW214931   1.285   0.098   7.694  1.6159  1.7485 -0.4794
 1157SOL     OW14932   3.230   2.432   4.272 -0.3007 -0.2905 -0.1832
 1157SOL    HW114933   3.277   2.349   4.261 -1.8690 -1.3422  1.0399
 1157SOL    HW214934   3.282   2.497   4.224  0.4463 -1.2032 -0.6053
 1158SOL     OW14935   0.914   1.259   9.599 -0.1587  0.0576 -0.2832
 1158SOL    HW114936   0.996   1.217   9.571  0.0140 -0.5746  1.1568
 1158SOL    HW214937   0.845   1.208   9.556 -2.1199  1.3726  1.2862
 1159SOL     OW14938   1.413   3.699   3.728  0.2887 -0.0609 -0.1503
 1159SOL    HW114939   1.331   3.693   3.777  0.2436 -1.2654 -0.3984
 1159SOL    HW214940   1.396   3.775   3.671  0.9456  0.5827  0.5173
 1160SOL     OW14941   1.155   2.599   7.456 -0.4164 -0.0260 -0.0528
 1160SOL    HW114942   1.240   2.613   7.498  0.3321 -0.8992 -1.2674
 1160SOL    HW214943   1.127   2.688   7.437  0.9313  0.0974 -1.4666
 1161SOL     OW14944   4.397   1.987   5.594  1.0609 -0.5174 -0.4632
 1161SOL    HW114945   4.402   2.080   5.616 -2.6173 -0.7556  1.5068
 1161SOL    HW214946   4.315   1.963   5.638  0.0427  0.6749 -1.7453
 1162SOL     OW14947   3.392   1.101  16.720 -0.1016 -0.7848 -0.2236
 1162SOL    HW114948   3.434   1.095  16.634  0.0564 -0.1227 -0.1984
 1162SOL    HW214949   3.387   1.197  16.717  0.0668 -0.7812 -0.3600
 1163SOL     OW14950   1.117   3.722   4.179  0.1075 -0.1611  0.6903
 1163SOL    HW114951   1.130   3.647   4.120 -2.0393  0.3928 -0.4925
 1163SOL    HW214952   1.137   3.795   4.121  0.3553 -3.1204 -3.0046
 1164SOL     OW14953   0.027   0.207   8.915  0.3275  0.1349  0.3215
 1164SOL    HW114954   0.092   0.168   8.857 -2.2476 -2.2934 -0.9380
 1164SOL    HW214955   0.048   0.173   9.002 -0.4289  0.0316  0.4700
 1165SOL     OW14956   4.350   4.308   9.650  0.5511 -0.0814 -0.2844
 1165SOL    HW114957   4.354   4.310   9.555 -1.2353  3.2352 -0.3070
 1165SOL    HW214958   4.394   4.390   9.673  0.3450  0.1374 -0.6823
 1166SOL     OW14959   2.815   2.458   8.683  0.1676  0.0427  0.3345
 1166SOL    HW114960   2.852   2.543   8.708  0.2183 -0.1009  0.7475
 1166SOL    HW214961   2.738   2.451   8.740  0.3065 -0.1588  0.4964
 1167SOL     OW14962   2.640   0.867  10.067  0.2472 -0.1527 -0.1646
 1167SOL    HW114963   2.644   0.778  10.102  0.2596  0.0476  0.3467
 1167SOL    HW214964   2.683   0.915  10.139  2.0181 -0.8788 -0.7495
 1168SOL     OW14965   2.629   0.931   7.871  0.3213 -0.3001  0.1932
 1168SOL    HW114966   2.594   0.985   7.942  1.0584  1.9877 -1.1715
 1168SOL    HW214967   2.714   0.904   7.903 -0.0253  0.6690  1.9500
 1169SOL     OW14968   0.385   0.165   4.291  0.1046  0.0549  0.1084
 1169SOL    HW114969   0.377   0.079   4.249 -2.2754  0.1575  0.3137
 1169SOL    HW214970   0.445   0.208   4.230 -1.7668  1.3831 -0.8105
 1170SOL     OW14971   3.105   0.885  12.683 -0.0525 -0.1686  0.3218
 1170SOL    HW114972   3.028   0.862  12.736  0.8818 -1.3967  1.1319
 1170SOL    HW214973   3.116   0.979  12.702 -0.9970  0.0759 -0.3500
 1171SOL     OW14974   3.192   0.114   0.508  0.5567 -0.3758  0.1801
 1171SOL    HW114975   3.272   0.124   0.561  1.3269  0.6167 -1.1739
 1171SOL    HW214976   3.138   0.193   0.510  1.0021  0.0036 -2.8503
 1172SOL     OW14977   4.708   3.331   4.002  0.3563  0.4930 -0.0483
 1172SOL    HW114978   4.613   3.346   4.002  0.0154 -1.5878 -1.3154
 1172SOL    HW214979   4.704   3.250   3.950  2.0218  1.4286 -1.6473
 1173SOL     OW14980   0.632   2.701   1.506 -1.0369  0.0390  0.4389
 1173SOL    HW114981   0.707   2.719   1.563 -0.6055  1.2206 -0.4916
 1173SOL    HW214982   0.550   2.697   1.555 -2.0901  1.7579 -1.2168
 1174SOL     OW14983   4.175   0.273   6.681 -0.0877 -0.4763 -0.1109
 1174SOL    HW114984   4.244   0.289   6.617 -0.7494 -2.0679 -1.2379
 1174SOL    HW214985   4.178   0.356   6.729 -0.2046 -0.0578 -0.8253
 1175SOL     OW14986   2.537   4.650   4.300  0.4061  0.3476 -0.5133
 1175SOL    HW114987   2.614   4.639   4.356 -0.7937  2.0537  1.4237
 1175SOL    HW214988   2.508   4.559   4.294 -0.7334  0.6643  0.3124
 1176SOL     OW14989   2.603   3.256  16.170 -0.2306 -0.1357 -0.3829
 1176SOL    HW114990   2.612   3.225  16.080 -2.0279 -0.4494 -0.4623
 1176SOL    HW214991   2.643   3.342  16.160  0.9738 -0.8446 -1.6501
 1177SOL     OW14992   2.306   2.356   9.590 -0.7572 -0.4862  0.0946
 1177SOL    HW114993   2.257   2.361   9.672  1.4587  0.3073  1.3915
 1177SOL    HW214994   2.388   2.380   9.633  0.3805 -1.0068 -1.7885
 1178SOL     OW14995   1.127   3.492   6.135  0.1283 -0.0074  0.0051
 1178SOL    HW114996   1.046   3.524   6.174 -0.3469  1.9598 -2.6092
 1178SOL    HW214997   1.191   3.549   6.177  1.2942 -2.3678  1.4578
 1179SOL     OW14998   1.591   2.874   5.591  0.6461  0.2240 -0.0333
 1179SOL    HW114999   1.516   2.850   5.645  1.2309 -0.5294  0.4486
 1179SOL    HW215000   1.577   2.810   5.521  2.0423 -0.5734  0.4245
 1180SOL     OW15001   4.180   0.100  14.613 -0.5483  0.7980  0.0122
 1180SOL    HW115002   4.203   0.012  14.585 -2.0909  0.0716  1.0301
 1180SOL    HW215003   4.230   0.151  14.549  0.9240 -0.8137 -0.1176
 1181SOL     OW15004   3.737   3.767   5.925  0.3617 -0.0546  0.0260
 1181SOL    HW115005   3.646   3.773   5.895 -0.0197  0.8582  1.3399
 1181SOL    HW215006   3.778   3.814   5.853 -2.8263  0.6340 -1.3701
 1182SOL     OW15007   2.420   2.144  10.628 -0.3555 -0.3356  0.2158
 1182SOL    HW115008   2.390   2.056  10.603  0.6697 -0.3645 -0.8893
 1182SOL    HW215009   2.419   2.197  10.549 -1.6024  0.1137  0.5261
 1183SOL     OW15010   1.327   2.823   6.223  0.3234  0.2644 -0.3694
 1183SOL    HW115011   1.365   2.890   6.165  2.9045 -0.4728  0.4868
 1183SOL    HW215012   1.239   2.857   6.239 -0.3931 -2.2305  0.8821
 1184SOL     OW15013   4.094   4.323  14.459  0.2939 -0.1993  0.3639
 1184SOL    HW115014   4.058   4.256  14.517  0.3604 -1.3154 -0.9043
 1184SOL    HW215015   4.161   4.276  14.411 -0.7371 -1.2036 -0.0983
 1185SOL     OW15016   1.027   3.167  15.835  0.1866  0.6297 -0.1817
 1185SOL    HW115017   1.026   3.072  15.840  0.9865  0.6407  0.1010
 1185SOL    HW215018   1.122   3.169  15.838  0.2260  1.1052 -2.2734
 1186SOL     OW15019   2.116   2.885  14.262  0.2592 -0.3226  0.2396
 1186SOL    HW115020   2.096   2.970  14.300  0.7798  0.8878 -2.1478
 1186SOL    HW215021   2.113   2.899  14.167  0.4019  1.5848  0.5199
 1187SOL     OW15022   2.851   4.151   6.596 -0.6711  0.6487 -0.3979
 1187SOL    HW115023   2.927   4.188   6.641 -1.3743  0.1519  1.2185
 1187SOL    HW215024   2.797   4.116   6.668 -2.9448  2.3147 -1.2940
 1188SOL     OW15025   2.676   1.266   5.605 -0.4806 -0.6904 -0.2526
 1188SOL    HW115026   2.724   1.266   5.688 -0.7877  0.2418 -0.0668
 1188SOL    HW215027   2.680   1.176   5.572 -0.4977 -0.1606 -1.7187
 1189SOL     OW15028   3.590   1.129  14.046 -0.2458  0.6129 -0.6133
 1189SOL    HW115029   3.613   1.055  13.989  2.3076  1.0583 -0.1513
 1189SOL    HW215030   3.626   1.202  13.995  1.4589 -1.4649 -2.3983
 1190SOL     OW15031   0.167   1.253   7.467  0.0201 -0.3201  0.6716
 1190SOL    HW115032   0.239   1.233   7.408  1.3814 -1.2157  2.6233
 1190SOL    HW215033   0.152   1.339   7.429  0.8255 -0.0385  1.0035
 1191SOL     OW15034   3.743   1.815   3.965  0.4190 -0.2276 -0.0886
 1191SOL    HW115035   3.736   1.849   3.876  0.1127 -0.9421 -0.3394
 1191SOL    HW215036   3.833   1.782   3.972  0.5938 -0.3677 -2.9614
 1192SOL     OW15037   3.921   3.149  14.887 -0.1247  0.4618  0.1079
 1192SOL    HW115038   3.911   3.070  14.834 -0.9630 -1.9205  3.8607
 1192SOL    HW215039   3.880   3.136  14.972  0.2820 -0.2453  0.1861
 1193SOL     OW15040   2.279   0.958   4.274  0.0362  0.0427 -0.0595
 1193SOL    HW115041   2.243   0.870   4.285  0.1194  0.0701  0.4335
 1193SOL    HW215042   2.276   0.972   4.180  1.3514  1.2322  0.0756
 1194SOL     OW15043   2.414   1.961   7.852 -0.0575 -0.1767  0.2288
 1194SOL    HW115044   2.384   2.039   7.899 -1.2697  0.1895 -1.1341
 1194SOL    HW215045   2.343   1.965   7.788 -1.3749 -1.8213  1.5776
 1195SOL     OW15046   3.985   4.316   7.926 -0.0204  0.1473  0.2383
 1195SOL    HW115047   3.941   4.384   7.977  0.1642 -0.4898  1.2425
 1195SOL    HW215048   4.030   4.383   7.874  1.6449 -2.3553 -1.5654
 1196SOL     OW15049   1.003   4.203  14.627  0.4760 -0.8783  0.2620
 1196SOL    HW115050   0.994   4.120  14.579  3.5209 -1.0783  0.0784
 1196SOL    HW215051   1.023   4.162  14.712 -0.8767 -2.0321  0.0412
 1197SOL     OW15052   1.041   0.056   1.519 -0.0330 -0.5909 -0.1534
 1197SOL    HW115053   0.982   4.708   1.537 -1.4932  0.2180 -1.6232
 1197SOL    HW215054   1.080   0.083   1.602  1.9682 -1.4733 -0.8124
 1198SOL     OW15055   3.966   2.281   9.783  0.1756  0.0405  0.4819
 1198SOL    HW115056   3.897   2.346   9.799 -1.4269 -1.7200  0.6320
 1198SOL    HW215057   3.918   2.214   9.734  0.1856  0.8586 -0.6608
 1199SOL     OW15058   2.965   1.446   3.180  0.7377  0.6350 -0.2657
 1199SOL    HW115059   2.943   1.523   3.233 -0.5372  0.3570 -0.3999
 1199SOL    HW215060   3.046   1.418   3.223 -0.4490  0.5543  1.9251
 1200SOL     OW15061   0.895   0.778   3.413  0.3385 -0.0028 -0.1759
 1200SOL    HW115062   0.828   0.843   3.389  2.1312  1.7297 -0.4764
 1200SOL    HW215063   0.853   0.726   3.481 -0.2574 -0.7974 -1.1358
 1201SOL     OW15064   1.089   0.887   2.336 -0.4985  0.4259  0.1886
 1201SOL    HW115065   1.101   0.908   2.243 -1.2528 -1.7996 -0.4124
 1201SOL    HW215066   0.994   0.900   2.335 -0.6761 -0.5889  3.2038
 1202SOL     OW15067   0.788   3.436   6.047  0.9224  0.5500 -0.6524
 1202SOL    HW115068   0.785   3.362   6.108  0.1287 -1.1734 -2.8085
 1202SOL    HW215069   0.810   3.397   5.963  0.1953  0.6903 -0.9006
 1203SOL     OW15070   2.369   0.650  12.131 -0.5231 -0.1104 -0.0141
 1203SOL    HW115071   2.291   0.707  12.135 -0.8785 -0.5308 -1.0052
 1203SOL    HW215072   2.358   0.604  12.215 -2.0789 -0.4438 -0.3876
 1204SOL     OW15073   1.961   0.998   4.442  0.3458  0.2893 -0.1592
 1204SOL    HW115074   2.023   1.035   4.379 -1.5421  0.0812 -2.1234
 1204SOL    HW215075   1.984   0.905   4.444  0.7089  0.3433 -1.4479
 1205SOL     OW15076   0.781   3.239   5.199 -0.1250 -0.0076 -0.7445
 1205SOL    HW115077   0.736   3.318   5.228  3.6068  0.8055  3.0017
 1205SOL    HW215078   0.717   3.172   5.221 -2.3279  1.6852 -2.0304
 1206SOL     OW15079   1.053   2.910   4.998 -0.9657  0.0187 -0.5865
 1206SOL    HW115080   1.141   2.918   4.961 -0.1862 -1.2067  1.0065
 1206SOL    HW215081   1.070   2.915   5.092 -1.6850 -1.6382 -0.3617
 1207SOL     OW15082   0.771   4.084   9.383 -0.4682  0.6666 -0.2182
 1207SOL    HW115083   0.745   4.071   9.474 -1.0638  0.1438 -0.4672
 1207SOL    HW215084   0.766   3.994   9.351  1.1063  0.4301  0.1640
 1208SOL     OW15085   3.963   0.940   2.497 -0.6033 -0.0261 -0.4765
 1208SOL    HW115086   4.022   0.882   2.545 -2.4318  0.2571  2.1431
 1208SOL    HW215087   3.882   0.899   2.525 -1.8190  0.4343 -3.3188
 1209SOL     OW15088   2.174   1.588   5.839  0.4444  0.0818  0.0523
 1209SOL    HW115089   2.205   1.641   5.912 -1.6610 -0.9398  1.6869
 1209SOL    HW215090   2.080   1.607   5.839  0.3917 -0.1738  0.1415
 1210SOL     OW15091   1.927   4.636   6.119  0.0017  0.2116  0.5089
 1210SOL    HW115092   1.950   4.725   6.146  1.2319 -1.0267  3.5894
 1210SOL    HW215093   1.832   4.651   6.116 -0.0492  0.1741  1.8275
 1211SOL     OW15094   3.547   2.046   3.038 -0.2440 -0.1880  0.1556
 1211SOL    HW115095   3.505   2.022   3.121 -0.8915  2.7709  0.6892
 1211SOL    HW215096   3.497   1.995   2.974 -0.7491  0.6671 -0.1355
 1212SOL     OW15097   3.563   2.940   4.517 -0.2045  0.5316 -0.1109
 1212SOL    HW115098   3.472   2.911   4.527 -0.4463  1.9200  1.6926
 1212SOL    HW215099   3.547   3.034   4.525 -1.4237  0.4178 -1.2613
 1213SOL     OW15100   0.477   3.026   4.554  0.1940 -0.0458  0.0251
 1213SOL    HW115101   0.569   3.050   4.538  0.3262 -0.7369 -0.2619
 1213SOL    HW215102   0.447   3.044   4.465 -1.6868 -0.0394  0.6708
 1214SOL     OW15103   1.893   1.559   6.966  0.2847  0.0397 -0.4810
 1214SOL    HW115104   1.958   1.561   6.896 -1.5168 -1.7722 -2.1995
 1214SOL    HW215105   1.933   1.616   7.032  0.3169  0.5920 -0.9804
 1215SOL     OW15106   2.588   4.029  12.885  0.1675  0.2116 -0.4543
 1215SOL    HW115107   2.510   4.075  12.915 -0.6552 -0.2457 -1.8910
 1215SOL    HW215108   2.641   4.099  12.847 -1.4767  2.2516  1.0380
 1216SOL     OW15109   1.050   3.901   1.307  0.0890  0.7578  0.6244
 1216SOL    HW115110   1.120   3.843   1.334 -2.0563 -1.9801  0.3851
 1216SOL    HW215111   0.980   3.888   1.371  0.3321 -3.3922  0.0329
 1217SOL     OW15112   4.492   1.015  12.469  0.0187 -0.1553  0.1124
 1217SOL    HW115113   4.544   0.970  12.403  2.4353 -0.4250  2.1922
 1217SOL    HW215114   4.432   0.944  12.492  2.7791 -1.9766  1.7334
 1218SOL     OW15115   3.110   1.438   9.167 -0.0342 -0.1111 -0.0529
 1218SOL    HW115116   3.149   1.408   9.249 -1.2742  1.7954  1.2260
 1218SOL    HW215117   3.052   1.363   9.155  1.1347 -0.7285 -1.8094
 1219SOL     OW15118   4.586   2.461   2.505  0.8335  0.5947  0.0651
 1219SOL    HW115119   4.590   2.369   2.531 -0.3712  0.3655 -0.5620
 1219SOL    HW215120   4.587   2.449   2.410 -2.6462  0.3644  0.0543
 1220SOL     OW15121   0.549   1.587   7.848  0.2418 -0.2025 -0.0328
 1220SOL    HW115122   0.637   1.549   7.855  0.1530  0.2483  3.6000
 1220SOL    HW215123   0.563   1.677   7.820 -2.5315  0.3165  0.2612
 1221SOL     OW15124   1.689   0.888   1.454 -0.0180  0.0855  0.5763
 1221SOL    HW115125   1.770   0.935   1.473 -1.0066  1.6607  0.8875
 1221SOL    HW215126   1.694   0.811   1.510  0.6145 -0.9734 -0.9307
 1222SOL     OW15127   4.552   2.332   0.313 -0.4412 -0.3316  0.0633
 1222SOL    HW115128   4.601   2.384   0.249  0.3403  0.0287  0.9475
 1222SOL    HW215129   4.547   2.398   0.383 -1.3979  2.9573 -3.0940
 1223SOL     OW15130   3.000   2.509   2.608 -0.1903  0.2692  0.5774
 1223SOL    HW115131   2.956   2.534   2.689 -0.9397  2.6132 -0.5407
 1223SOL    HW215132   2.926   2.505   2.546 -1.2180 -0.0989  1.8367
 1224SOL     OW15133   2.584   1.113   4.039  0.2598 -0.1173  0.1193
 1224SOL    HW115134   2.606   1.034   3.988 -0.6710 -0.4962  0.2969
 1224SOL    HW215135   2.582   1.178   3.968  3.0053  0.8624  0.9489
 1225SOL     OW15136   0.638   3.956   2.535  0.3831 -0.0119  0.2956
 1225SOL    HW115137   0.660   3.990   2.622  1.9934  0.7852 -0.4329
 1225SOL    HW215138   0.629   3.863   2.559  2.0360 -0.1987  0.1617
 1226SOL     OW15139   2.435   2.917   4.219 -0.4727 -0.0308 -0.1709
 1226SOL    HW115140   2.455   3.011   4.225 -1.3408  0.0024  2.3097
 1226SOL    HW215141   2.523   2.886   4.239 -1.0347 -1.3136  0.3354
 1227SOL     OW15142   2.814   1.570   1.748  0.3569  0.4805 -0.2184
 1227SOL    HW115143   2.813   1.660   1.779 -2.5678  0.9113 -1.5895
 1227SOL    HW215144   2.834   1.594   1.658  0.8742  1.3332  0.1327
 1228SOL     OW15145   3.096   3.829   4.646 -0.1282 -0.1512  0.1349
 1228SOL    HW115146   3.011   3.812   4.686 -0.5675 -1.3098 -1.2860
 1228SOL    HW215147   3.090   3.922   4.628 -1.5747 -0.6419 -1.8311
 1229SOL     OW15148   0.671   0.451   5.572 -0.3260 -0.3832  0.9529
 1229SOL    HW115149   0.597   0.396   5.546 -1.2292  0.8346  0.9499
 1229SOL    HW215150   0.702   0.481   5.487 -0.3267  2.3862  1.9405
 1230SOL     OW15151   3.169   3.138  14.224 -0.8898 -0.1275  0.2626
 1230SOL    HW115152   3.080   3.108  14.208 -0.6546 -2.0388  2.5247
 1230SOL    HW215153   3.147   3.207  14.286  1.7497  1.5481 -0.6457
 1231SOL     OW15154   3.803   0.999  16.124  0.2075  0.1195  0.1925
 1231SOL    HW115155   3.765   0.970  16.041  1.0911  0.3813 -0.3029
 1231SOL    HW215156   3.762   0.938  16.186  4.6015 -0.9786  2.0244
 1232SOL     OW15157   1.836   1.551  17.109  0.2745  0.3347 -0.6953
 1232SOL    HW115158   1.848   1.462  17.075 -0.5139  0.1343 -0.4486
 1232SOL    HW215159   1.900   1.559  17.180 -0.1903  1.4538 -0.4081
 1233SOL     OW15160   2.799   0.672   7.423  0.0019  0.0041  0.3775
 1233SOL    HW115161   2.733   0.620   7.378 -0.4976  1.9098 -1.1088
 1233SOL    HW215162   2.876   0.656   7.368  0.4389  0.5524  0.8279
 1234SOL     OW15163   0.361   2.003   6.923 -0.5735 -0.0649 -0.5538
 1234SOL    HW115164   0.360   1.972   6.833  1.1594 -2.8745  0.4081
 1234SOL    HW215165   0.456   2.008   6.931 -0.5667  1.8917 -1.7114
 1235SOL     OW15166   0.205   0.871  12.902 -0.0855  0.0017 -0.6115
 1235SOL    HW115167   0.186   0.955  12.862 -0.7417 -0.7788 -1.9322
 1235SOL    HW215168   0.229   0.903  12.989  0.1248  0.2406 -0.7571
 1236SOL     OW15169   3.387   0.491   0.240 -0.1357 -0.4977 -0.2686
 1236SOL    HW115170   3.409   0.433   0.314  0.5327 -2.5313 -2.0605
 1236SOL    HW215171   3.381   0.428   0.169 -1.6637 -0.6239 -0.0205
 1237SOL     OW15172   1.684   1.974   7.145  0.2588 -0.5804 -0.3633
 1237SOL    HW115173   1.594   2.004   7.138 -0.5306 -2.8003  0.3370
 1237SOL    HW215174   1.693   1.959   7.239 -2.0735  0.9366  0.0952
 1238SOL     OW15175   2.739   2.314   6.104  0.1641  0.2567  0.2294
 1238SOL    HW115176   2.777   2.264   6.032 -0.4513  0.6212 -0.3550
 1238SOL    HW215177   2.745   2.249   6.174  2.3635  2.3854  1.9896
 1239SOL     OW15178   0.848   1.589   4.409 -0.1048  0.1576 -0.2318
 1239SOL    HW115179   0.924   1.634   4.446 -0.2906 -0.5475  1.0265
 1239SOL    HW215180   0.781   1.636   4.457 -0.4505  0.9992 -1.5503
 1240SOL     OW15181   4.142   2.253   1.691  0.3554 -0.2801 -0.0124
 1240SOL    HW115182   4.070   2.260   1.754  1.9724  2.6101  1.4982
 1240SOL    HW215183   4.138   2.343   1.659 -0.8600  0.7354  2.9889
 1241SOL     OW15184   1.488   4.126  12.188  0.0951 -0.2739 -0.0909
 1241SOL    HW115185   1.527   4.213  12.189  0.3761 -0.3792 -2.0890
 1241SOL    HW215186   1.521   4.077  12.264  0.5735  0.4429  0.1639
 1242SOL     OW15187   1.408   3.286   3.562 -0.3713 -0.4610 -0.1273
 1242SOL    HW115188   1.435   3.198   3.587  0.6913 -0.4613 -1.3004
 1242SOL    HW215189   1.457   3.308   3.483 -1.3466 -1.6833 -1.0769
 1243SOL     OW15190   0.197   2.640   6.412 -0.1041 -0.0255 -0.2087
 1243SOL    HW115191   0.148   2.558   6.400 -0.0330 -0.0310 -0.4577
 1243SOL    HW215192   0.145   2.703   6.361  1.7147  2.2138  0.7329
 1244SOL     OW15193   4.611   2.054   8.798  1.1745 -0.4682  0.3074
 1244SOL    HW115194   4.527   2.014   8.776 -0.1532  1.5616  1.6812
 1244SOL    HW215195   4.668   1.977   8.804  2.8424  0.5752 -2.0248
 1245SOL     OW15196   3.804   0.695   2.396 -0.5681  0.3691  0.1052
 1245SOL    HW115197   3.723   0.738   2.368 -1.1816 -1.4333 -0.8214
 1245SOL    HW215198   3.871   0.712   2.329  1.4625 -1.2564  1.7066
 1246SOL     OW15199   1.295   0.634   2.824  0.0665  0.5644  0.3939
 1246SOL    HW115200   1.277   0.609   2.734  1.8248  0.5355  0.0503
 1246SOL    HW215201   1.207   0.622   2.860  0.6768  0.2879  1.8093
 1247SOL     OW15202   1.115   3.315   0.726 -0.4294  0.0011 -0.3604
 1247SOL    HW115203   1.194   3.368   0.730  0.2387 -0.9463 -1.2144
 1247SOL    HW215204   1.060   3.368   0.784 -0.3902  0.8538 -1.1082
 1248SOL     OW15205   0.666   3.656  15.288 -0.3646 -0.1852 -0.5182
 1248SOL    HW115206   0.710   3.590  15.235  0.8994  0.5031 -0.3140
 1248SOL    HW215207   0.574   3.644  15.262 -0.5160 -2.1385  0.8621
 1249SOL     OW15208   4.400   1.367   9.077 -0.6662  0.6290  0.0724
 1249SOL    HW115209   4.326   1.387   9.135 -2.0496  0.7692 -1.7173
 1249SOL    HW215210   4.446   1.302   9.130 -0.5512 -0.4117 -1.3115
 1250SOL     OW15211   2.928   2.812   3.505  0.2258 -0.3344  0.3442
 1250SOL    HW115212   2.948   2.729   3.548 -0.1448  0.8925  2.8769
 1250SOL    HW215213   2.869   2.785   3.434 -0.3870  1.1162  0.2881
 1251SOL     OW15214   2.315   0.130  16.695 -0.4395 -0.1353 -0.7348
 1251SOL    HW115215   2.303   0.142  16.601  1.6569 -1.6299 -1.1892
 1251SOL    HW215216   2.353   0.042  16.697  1.4988  0.7604  2.1265
 1252SOL     OW15217   0.079   3.459   4.636  0.4224  0.1602  0.1346
 1252SOL    HW115218   0.103   3.445   4.544 -0.3041  1.2591 -0.2335
 1252SOL    HW215219   0.094   3.372   4.671  1.2718 -0.3600 -1.5133
 1253SOL     OW15220   4.338   2.221  16.396 -0.2931 -0.1011  0.0282
 1253SOL    HW115221   4.296   2.169  16.465  0.2350  0.7490  0.9877
 1253SOL    HW215222   4.417   2.169  16.382  1.3116  2.6399 -0.9410
 1254SOL     OW15223   2.206   0.404   6.166  0.1880 -0.6364 -0.1621
 1254SOL    HW115224   2.204   0.311   6.143  1.5317 -1.1509  1.7998
 1254SOL    HW215225   2.113   0.428   6.171 -0.0748 -1.6893  0.0433
 1255SOL     OW15226   2.504   3.863  12.403  0.0558 -0.1570  0.1207
 1255SOL    HW115227   2.503   3.782  12.455  0.6819 -1.0916 -1.3171
 1255SOL    HW215228   2.467   3.926  12.464 -0.7283  1.0893 -1.6719
 1256SOL     OW15229   1.542   2.921   7.631 -0.4573 -0.3554  0.1819
 1256SOL    HW115230   1.631   2.912   7.665  0.1712  0.6947 -1.1805
 1256SOL    HW215231   1.538   3.011   7.601  0.0546 -0.3643  0.0892
 1257SOL     OW15232   3.921   0.927   4.657  0.8723 -0.7751  0.1753
 1257SOL    HW115233   3.879   0.902   4.574 -0.0996  1.1376  0.0833
 1257SOL    HW215234   3.970   1.004   4.628 -2.0781  0.4037 -1.6861
 1258SOL     OW15235   3.352   2.065  16.665 -0.7611  0.2716 -0.4943
 1258SOL    HW115236   3.340   2.003  16.593  0.1208 -0.9966  0.4397
 1258SOL    HW215237   3.275   2.122  16.662  0.0669  1.4625  0.8209
 1259SOL     OW15238   0.806   3.114  12.955  0.2673 -0.6288  0.0801
 1259SOL    HW115239   0.815   3.163  13.037  1.3878 -0.5335 -0.1042
 1259SOL    HW215240   0.712   3.098  12.942  0.0433  0.1488  0.6949
 1260SOL     OW15241   3.591   0.150   6.409 -0.1139 -0.0380 -0.7452
 1260SOL    HW115242   3.530   0.079   6.387  2.0502 -1.6831 -1.4315
 1260SOL    HW215243   3.608   0.136   6.502  3.1092 -1.4667 -1.5298
 1261SOL     OW15244   0.351   2.306  10.927  0.6934  0.0476 -0.3394
 1261SOL    HW115245   0.377   2.336  10.841  0.0791  1.0825 -0.1631
 1261SOL    HW215246   0.360   2.210  10.933 -0.1170 -0.0769 -1.2710
 1262SOL     OW15247   0.355   1.226   1.651  0.1068  0.0845 -0.2330
 1262SOL    HW115248   0.262   1.219   1.671  0.5473 -2.5674  0.9493
 1262SOL    HW215249   0.402   1.220   1.734 -0.3887 -0.2042  0.0210
 1263SOL     OW15250   3.685   2.072   9.448 -0.3882 -0.2074 -0.7028
 1263SOL    HW115251   3.668   2.164   9.431 -0.1586  0.5183  2.9287
 1263SOL    HW215252   3.626   2.029   9.387 -1.0013  0.8360 -0.8288
 1264SOL     OW15253   4.057   0.603   1.698  0.1396  0.0882  0.0789
 1264SOL    HW115254   3.975   0.558   1.675  0.0372  0.9525 -1.2544
 1264SOL    HW215255   4.101   0.547   1.762  0.6746 -0.1579 -0.5027
 1265SOL     OW15256   0.869   2.049   3.678  0.5141  0.3938 -0.0051
 1265SOL    HW115257   0.893   1.998   3.600  1.7850  0.5686  0.2641
 1265SOL    HW215258   0.907   2.136   3.663 -2.2222  1.6161  0.2509
 1266SOL     OW15259   0.188   2.787   5.885 -1.1795  0.2303 -0.6553
 1266SOL    HW115260   0.192   2.713   5.824 -1.5116 -0.8925  0.6564
 1266SOL    HW215261   0.213   2.859   5.828  0.7467  0.7734  0.8923
 1267SOL     OW15262   4.348   1.893  10.618 -0.0635  0.0692 -0.0127
 1267SOL    HW115263   4.431   1.846  10.613  0.5320  1.3844 -2.2447
 1267SOL    HW215264   4.296   1.822  10.656  0.2043 -1.1784 -2.0083
 1268SOL     OW15265   2.535   4.063   3.178  0.0346 -0.3492  0.2181
 1268SOL    HW115266   2.510   4.088   3.267  1.0455  0.0059  0.3988
 1268SOL    HW215267   2.621   4.021   3.180  0.3920  0.3169 -1.1914
 1269SOL     OW15268   1.018   0.103   6.198 -0.0537  0.0587 -1.0904
 1269SOL    HW115269   1.021   0.088   6.293 -2.5286  2.5998 -0.6216
 1269SOL    HW215270   0.982   0.018   6.172 -1.3941  0.4301 -0.4880
 1270SOL     OW15271   3.889   1.525  11.445  0.4719  0.0952  0.1006
 1270SOL    HW115272   3.840   1.542  11.364  1.1555 -1.5835 -0.6729
 1270SOL    HW215273   3.947   1.600  11.459 -0.9200  0.6705  2.6652
 1271SOL     OW15274   4.261   0.043  12.668  0.3426 -0.6488  0.2934
 1271SOL    HW115275   4.355   0.027  12.666  0.4023 -0.1699 -0.9959
 1271SOL    HW215276   4.254   0.086  12.582 -0.9811  0.7156  1.0868
 1272SOL     OW15277   2.692   1.979   9.470  0.3932 -0.1199  0.1572
 1272SOL    HW115278   2.701   2.072   9.494  2.3702 -0.1069 -0.5634
 1272SOL    HW215279   2.679   1.985   9.375 -1.0196 -2.3488  0.2277
 1273SOL     OW15280   2.733   0.577   5.119  0.1159 -0.0235  0.2294
 1273SOL    HW115281   2.827   0.561   5.115  0.2337  1.0994 -1.3443
 1273SOL    HW215282   2.699   0.495   5.083 -0.3911 -0.3705  1.4740
 1274SOL     OW15283   4.136   2.943   3.435  0.0238  0.7391  0.0509
 1274SOL    HW115284   4.082   2.885   3.490  0.4497  1.6811  1.4521
 1274SOL    HW215285   4.069   2.997   3.392  0.6594  3.1246  2.0574
 1275SOL     OW15286   2.108   3.057   1.913 -0.2858  0.5654  0.2506
 1275SOL    HW115287   2.014   3.073   1.927 -0.7281 -2.3784  0.7193
 1275SOL    HW215288   2.115   2.964   1.933 -2.0817  0.2415 -0.6279
 1276SOL     OW15289   0.825   0.877   5.540 -0.9022 -0.1341  0.3282
 1276SOL    HW115290   0.821   0.934   5.617 -1.0181  0.9652 -0.4877
 1276SOL    HW215291   0.753   0.818   5.559 -1.3655 -0.0651 -1.2151
 1277SOL     OW15292   4.442   0.073   6.627  0.1836 -0.0995 -0.7191
 1277SOL    HW115293   4.462   0.008   6.559  1.3778 -2.5603  1.9783
 1277SOL    HW215294   4.488   0.152   6.600  2.8047 -2.3369 -2.7595
 1278SOL     OW15295   2.296   1.620   4.661  0.3938  0.2681 -0.0828
 1278SOL    HW115296   2.299   1.701   4.610 -0.2813  0.6089  0.4191
 1278SOL    HW215297   2.204   1.625   4.688  0.7097 -1.5686  1.3264
 1279SOL     OW15298   3.338   3.905  10.851  0.0629 -0.0955 -0.0407
 1279SOL    HW115299   3.307   3.819  10.879  0.3250  0.3717  1.7148
 1279SOL    HW215300   3.358   3.935  10.940 -3.3401  0.6956  0.4629
 1280SOL     OW15301   0.449   0.178  14.912  0.6799  0.0685 -0.3784
 1280SOL    HW115302   0.403   0.259  14.888  0.2103 -1.1431 -3.4980
 1280SOL    HW215303   0.525   0.179  14.854  2.1821  1.6449  1.6266
 1281SOL     OW15304   2.017   0.637  10.383  0.0821 -0.0522 -0.4423
 1281SOL    HW115305   1.949   0.650  10.449  0.3949 -1.8498  0.2344
 1281SOL    HW215306   2.007   0.718  10.332 -1.3513  0.0364 -0.0145
 1282SOL     OW15307   2.085   3.151  13.722  0.1520 -0.1623 -0.2304
 1282SOL    HW115308   2.160   3.123  13.670  0.7278 -2.3775  1.7931
 1282SOL    HW215309   2.126   3.169  13.806  2.9217 -1.1621 -1.3965
 1283SOL     OW15310   1.889   1.509   5.848 -0.3907 -0.1375 -0.1117
 1283SOL    HW115311   1.887   1.477   5.758 -1.6607  0.0916 -0.1579
 1283SOL    HW215312   1.827   1.580   5.837  0.6054  0.3306 -2.6149
 1284SOL     OW15313   2.460   1.913   4.379  0.5197  0.0049  0.3470
 1284SOL    HW115314   2.483   1.960   4.299 -0.2756  0.7874  0.5770
 1284SOL    HW215315   2.540   1.862   4.386  0.2944  0.1021  3.7217
 1285SOL     OW15316   0.529   0.579  10.826 -0.3924 -0.3373  0.1199
 1285SOL    HW115317   0.521   0.625  10.910 -2.0208 -3.5902  1.7279
 1285SOL    HW215318   0.527   0.654  10.766  0.7106  0.5129  1.1414
 1286SOL     OW15319   0.460   1.082   4.952  0.7412 -0.6084 -0.2572
 1286SOL    HW115320   0.480   1.154   4.893  2.5205 -0.9018 -0.0078
 1286SOL    HW215321   0.451   1.128   5.036  0.9653  0.4423 -0.8142
 1287SOL     OW15322   2.368   2.514   6.348 -0.0998 -0.1185  0.2836
 1287SOL    HW115323   2.443   2.515   6.289 -1.2697 -2.5871 -1.2792
 1287SOL    HW215324   2.342   2.422   6.358 -2.8368  0.5009 -1.1498
 1288SOL     OW15325   0.374   3.356   3.311  0.1986 -0.3126  0.2840
 1288SOL    HW115326   0.324   3.351   3.392  0.4114 -0.5692  0.4007
 1288SOL    HW215327   0.374   3.269   3.271  0.1194  1.1565 -2.8722
 1289SOL     OW15328   4.131   0.679  15.891 -0.2636 -0.0783  0.4113
 1289SOL    HW115329   4.079   0.715  15.963 -1.2029  0.2748 -0.4437
 1289SOL    HW215330   4.057   0.653  15.835  0.1470 -1.8901  0.7166
 1290SOL     OW15331   3.593   1.601   4.048 -0.0388 -0.1029  0.2621
 1290SOL    HW115332   3.639   1.666   3.995 -0.8509 -0.7944 -1.3088
 1290SOL    HW215333   3.663   1.536   4.058  1.4704  1.2950 -1.3903
 1291SOL     OW15334   4.397   1.382   8.206  0.3584  0.3045 -0.2766
 1291SOL    HW115335   4.311   1.340   8.203  0.0372  0.8163  1.3870
 1291SOL    HW215336   4.375   1.461   8.156  0.3936  0.0490 -0.6985
 1292SOL     OW15337   3.207   1.356   3.294 -0.2737  0.0878 -0.0823
 1292SOL    HW115338   3.266   1.387   3.362 -0.6160 -1.8283  1.1012
 1292SOL    HW215339   3.207   1.260   3.299  0.2354  0.0426 -0.8620
 1293SOL     OW15340   3.436   2.276   9.287  0.2422 -0.2725  0.4528
 1293SOL    HW115341   3.461   2.321   9.368  0.0155  0.2458  0.2340
 1293SOL    HW215342   3.442   2.345   9.221  1.6391  0.7752  1.6541
 1294SOL     OW15343   3.981   4.567   2.943 -0.3939 -0.0075 -0.0896
 1294SOL    HW115344   3.897   4.613   2.943 -0.2150  0.3272  1.1439
 1294SOL    HW215345   3.984   4.547   3.037 -0.4650 -1.9596 -0.4968
 1295SOL     OW15346   0.390   2.421   7.107 -0.2339  0.0034  0.7883
 1295SOL    HW115347   0.408   2.364   7.182 -0.9460 -0.2947  0.7267
 1295SOL    HW215348   0.303   2.452   7.132 -0.9341 -0.9953 -0.4336
 1296SOL     OW15349   2.439   1.249   5.920 -0.5043 -0.2568  0.7955
 1296SOL    HW115350   2.388   1.322   5.956  0.5271  2.1409 -2.6563
 1296SOL    HW215351   2.515   1.259   5.977  0.7618  2.9925 -1.4378
 1297SOL     OW15352   2.904   0.682  13.640 -0.0502 -0.5638  0.4369
 1297SOL    HW115353   2.945   0.677  13.726 -0.8242 -3.3125  0.6226
 1297SOL    HW215354   2.810   0.677  13.655  0.1552 -1.1837  1.4587
 1298SOL     OW15355   2.506   1.659   1.476  0.2450  0.2458 -0.1005
 1298SOL    HW115356   2.463   1.702   1.549 -2.2200 -2.7612  0.2408
 1298SOL    HW215357   2.581   1.718   1.468 -0.6370  1.3866  0.1486
 1299SOL     OW15358   3.764   1.446   4.234 -0.1461 -0.6501 -0.3838
 1299SOL    HW115359   3.790   1.380   4.169  2.8597  2.1966 -2.0664
 1299SOL    HW215360   3.770   1.383   4.307 -1.9355 -1.1409 -0.6694
 1300SOL     OW15361   2.822   3.196   0.884 -0.0772  0.0316  0.3318
 1300SOL    HW115362   2.823   3.101   0.896 -2.0025  0.3692  3.1424
 1300SOL    HW215363   2.873   3.227   0.959  2.3192 -3.4989  0.1542
 1301SOL     OW15364   3.527   0.944   0.259  0.0951 -0.3964 -0.4189
 1301SOL    HW115365   3.495   0.985   0.339  0.3516 -0.4844 -0.2735
 1301SOL    HW215366   3.505   1.010   0.193  0.0177 -0.3577 -0.3534
 1302SOL     OW15367   1.690   4.719   8.987 -0.5508  0.5217 -0.4824
 1302SOL    HW115368   1.653   0.034   9.065 -0.2467  1.0598 -0.6199
 1302SOL    HW215369   1.613   4.723   8.930 -1.1655  0.9852  0.3931
 1303SOL     OW15370   0.980   4.689   8.369 -0.3983 -0.5609  0.0867
 1303SOL    HW115371   0.959   4.624   8.302 -1.2861  0.1327 -0.3058
 1303SOL    HW215372   0.941   4.649   8.447  1.0687 -1.1529  0.5165
 1304SOL     OW15373   1.946   4.439   7.964 -0.0119  0.4581 -0.3218
 1304SOL    HW115374   1.891   4.397   8.031  2.8119 -2.7106  0.0243
 1304SOL    HW215375   2.031   4.406   7.993 -0.4250 -2.1845 -2.0165
 1305SOL     OW15376   0.030   3.992   9.856 -0.0666  0.5907 -0.4913
 1305SOL    HW115377   0.006   3.966   9.767 -0.7501 -1.2544  0.2149
 1305SOL    HW215378   4.676   4.010   9.906 -0.8033 -1.3847 -0.9633
 1306SOL     OW15379   4.458   0.358   5.909 -0.1430 -0.3803 -0.3724
 1306SOL    HW115380   4.486   0.276   5.952 -0.6300 -0.5236 -0.3322
 1306SOL    HW215381   4.470   0.335   5.817 -1.4461  2.0189 -1.1198
 1307SOL     OW15382   2.156   0.329   9.062  0.1044 -0.2919 -0.4782
 1307SOL    HW115383   2.121   0.394   9.002  1.6948  0.9790 -0.0446
 1307SOL    HW215384   2.138   0.376   9.144  2.3032  0.0232 -0.1572
 1308SOL     OW15385   4.655   4.518   8.976 -0.8773  0.0186  0.3093
 1308SOL    HW115386   4.652   4.458   9.051 -1.1930  0.3867  0.5916
 1308SOL    HW215387   4.605   4.595   9.003  0.1687  0.2165  1.6714
 1309SOL     OW15388   1.705   4.099   6.946  0.4213  0.3238  0.4241
 1309SOL    HW115389   1.797   4.084   6.926 -0.3745 -0.2691 -2.7693
 1309SOL    HW215390   1.676   4.158   6.877  2.0730  0.1638 -0.4172
 1310SOL     OW15391   2.382   0.694   9.074  0.4312 -0.3368  0.0408
 1310SOL    HW115392   2.301   0.739   9.049  0.8806  0.2661 -0.3165
 1310SOL    HW215393   2.386   0.626   9.008 -0.5883 -0.1137 -0.2497
 1311SOL     OW15394   1.762   0.802  15.397  0.1963 -0.0751  0.5073
 1311SOL    HW115395   1.835   0.771  15.344 -1.5422  0.7806 -2.3663
 1311SOL    HW215396   1.686   0.818  15.341 -0.0090  2.9154  1.6018
 1312SOL     OW15397   0.185   2.422  15.769 -0.4174 -0.2926 -0.0231
 1312SOL    HW115398   0.200   2.460  15.682 -3.2146 -1.7807 -1.1708
 1312SOL    HW215399   0.105   2.374  15.749 -0.5877  0.0748 -0.2415
 1313SOL     OW15400   4.100   0.146   8.179  0.0960  0.2469 -0.2830
 1313SOL    HW115401   4.139   0.233   8.177 -0.4549  0.5079  0.5350
 1313SOL    HW215402   4.027   0.158   8.119 -0.0961  1.0206  0.1171
 1314SOL     OW15403   2.707   4.352   4.007  0.2517 -0.0085 -0.7234
 1314SOL    HW115404   2.771   4.282   4.015  2.4986  2.0458 -0.4294
 1314SOL    HW215405   2.761   4.426   4.036  1.5070 -1.7442  1.3787
 1315SOL     OW15406   3.209   0.280   9.283 -0.3557 -0.2734  0.0148
 1315SOL    HW115407   3.220   0.201   9.231  1.4816 -0.2766  0.4082
 1315SOL    HW215408   3.295   0.285   9.323  0.5617  0.3925 -2.0533
 1316SOL     OW15409   4.207   3.762   4.957 -0.6532  0.3758  0.1200
 1316SOL    HW115410   4.185   3.696   5.023  1.3553  1.1365  1.5494
 1316SOL    HW215411   4.142   3.740   4.890  0.7150  0.3326 -1.1920
 1317SOL     OW15412   1.224   3.841   5.088 -0.0639 -0.3914  0.5901
 1317SOL    HW115413   1.175   3.870   5.011  0.3814 -1.0680  0.0528
 1317SOL    HW215414   1.208   3.746   5.083 -2.3239 -0.1054  2.1281
 1318SOL     OW15415   0.281   3.285   6.469  0.1006  0.3659  1.2828
 1318SOL    HW115416   0.214   3.281   6.401  1.9774  0.6495 -0.5772
 1318SOL    HW215417   0.263   3.372   6.504  1.0639  1.2559 -0.4285
 1319SOL     OW15418   3.663   1.600   6.907 -0.3919  0.5935  0.3788
 1319SOL    HW115419   3.630   1.541   6.976 -1.3687 -0.2614 -0.8169
 1319SOL    HW215420   3.653   1.546   6.829  0.2318 -1.7744  1.9249
 1320SOL     OW15421   0.667   3.579  12.633 -0.3959  0.1328  0.4069
 1320SOL    HW115422   0.679   3.496  12.587 -0.6551  0.7446 -0.7673
 1320SOL    HW215423   0.733   3.557  12.698  0.7688  4.0787  0.5585
 1321SOL     OW15424   2.594   2.733  11.188  0.1879 -0.2059  0.5179
 1321SOL    HW115425   2.602   2.827  11.198 -0.3757 -0.0540 -0.4599
 1321SOL    HW215426   2.683   2.698  11.190  1.1264  2.2449  1.5086
 1322SOL     OW15427   3.544   1.465   3.299  0.6318  0.0282  0.1144
 1322SOL    HW115428   3.560   1.559   3.305  1.4475 -0.0799 -0.4838
 1322SOL    HW215429   3.593   1.421   3.368  0.5229  0.0390  0.1988
 1323SOL     OW15430   3.251   2.815   3.395 -0.2166 -0.1027 -0.3242
 1323SOL    HW115431   3.195   2.740   3.374 -1.3688  0.4477  0.7257
 1323SOL    HW215432   3.184   2.882   3.413  1.0718  0.9753  0.4727
 1324SOL     OW15433   3.852   4.610   6.723  0.4543 -0.4130 -0.4442
 1324SOL    HW115434   3.888   4.693   6.693  1.4426 -0.5652  0.3034
 1324SOL    HW215435   3.766   4.610   6.680  1.1092 -0.4821 -1.7536
 1325SOL     OW15436   0.846   1.524  11.756 -0.0706 -0.0014 -0.2201
 1325SOL    HW115437   0.850   1.556  11.846 -1.2556  0.5456 -0.3630
 1325SOL    HW215438   0.843   1.431  11.778 -0.9704 -0.3032 -1.5906
 1326SOL     OW15439   4.011   2.214   6.685 -0.0299  0.1194 -0.3964
 1326SOL    HW115440   3.956   2.274   6.737 -0.8250 -0.0747 -1.0183
 1326SOL    HW215441   4.096   2.230   6.725 -0.9191 -0.9661  1.9020
 1327SOL     OW15442   3.391   0.616   2.414  0.2032  0.2903 -0.0850
 1327SOL    HW115443   3.421   0.700   2.380 -0.1922  0.9657  1.2203
 1327SOL    HW215444   3.439   0.614   2.497  2.1639  1.7130 -1.2015
 1328SOL     OW15445   3.476   3.341  16.138 -0.1466  0.3987 -0.2800
 1328SOL    HW115446   3.421   3.418  16.150 -0.0452  0.2823  0.9349
 1328SOL    HW215447   3.547   3.358  16.200  1.1824 -2.4829 -0.9885
 1329SOL     OW15448   4.365   2.645   7.728  0.0485 -0.1444  0.1769
 1329SOL    HW115449   4.395   2.734   7.713  1.0912 -0.8019 -1.5216
 1329SOL    HW215450   4.417   2.622   7.805  2.9377 -0.0474 -1.7660
 1330SOL     OW15451   1.240   4.718   8.951 -0.3620  0.0161 -0.2178
 1330SOL    HW115452   1.239   4.712   9.046  1.4759  0.1309 -0.1918
 1330SOL    HW215453   1.219   4.628   8.924  1.0381  0.4900 -2.8937
 1331SOL     OW15454   0.541   2.055   8.899  0.0987 -0.2842  0.1836
 1331SOL    HW115455   0.480   2.014   8.838  1.9074  1.1088 -2.5415
 1331SOL    HW215456   0.497   2.060   8.984 -0.9938  3.4402 -0.6255
 1332SOL     OW15457   3.301   4.623   8.515 -0.4056 -0.4886 -0.2028
 1332SOL    HW115458   3.270   4.695   8.570 -3.3707 -1.5244 -0.5545
 1332SOL    HW215459   3.392   4.654   8.508 -0.1091 -1.4405 -0.6732
 1333SOL     OW15460   4.519   2.275   1.966 -0.1919  0.3411  0.1304
 1333SOL    HW115461   4.488   2.350   1.916 -0.2840  2.3939  3.2394
 1333SOL    HW215462   4.613   2.286   1.952 -0.3561  0.8746 -0.5392
 1334SOL     OW15463   1.829   0.761   3.452  0.0161  0.2847  0.1819
 1334SOL    HW115464   1.813   0.803   3.367 -1.9354 -0.2133  0.2951
 1334SOL    HW215465   1.772   0.684   3.446  1.8779 -1.0785  0.2222
 1335SOL     OW15466   0.318   2.424   2.299  0.0111  0.8015  0.6867
 1335SOL    HW115467   0.377   2.475   2.356  1.0850  1.2255 -0.7988
 1335SOL    HW215468   0.232   2.452   2.330 -0.5301  0.8002 -0.8454
 1336SOL     OW15469   2.810   2.956   7.278 -0.1238 -0.1096  0.3081
 1336SOL    HW115470   2.738   2.962   7.341  0.3201  0.7029  0.7356
 1336SOL    HW215471   2.874   2.997   7.336 -0.6464 -1.4656  1.8683
 1337SOL     OW15472   0.233   1.180   1.061  0.0505 -0.0902  0.0362
 1337SOL    HW115473   0.326   1.161   1.051  0.8523  2.7548  2.1689
 1337SOL    HW215474   0.220   1.263   1.014 -1.4565  0.2279  0.9937
 1338SOL     OW15475   1.627   1.862   2.069 -0.6794 -0.2066  0.3340
 1338SOL    HW115476   1.591   1.928   2.129  2.0907 -1.6444  3.5863
 1338SOL    HW215477   1.553   1.803   2.066 -0.3528 -0.6451  0.8770
 1339SOL     OW15478   0.552   0.966  14.739 -0.6437 -0.4037 -0.0004
 1339SOL    HW115479   0.530   0.926  14.823 -1.7820  0.0354 -0.0948
 1339SOL    HW215480   0.558   1.057  14.769 -0.0949 -0.8822  1.3532
 1340SOL     OW15481   2.116   3.565  15.133  0.0175 -0.6534 -0.1854
 1340SOL    HW115482   2.189   3.626  15.121  2.1691 -3.1466  0.1641
 1340SOL    HW215483   2.121   3.552  15.228 -0.9288 -0.0492 -0.0548
 1341SOL     OW15484   4.642   2.553   4.303 -0.2252  0.3374  0.5596
 1341SOL    HW115485   4.665   2.585   4.216  1.8354 -1.0343  0.5857
 1341SOL    HW215486   4.672   2.463   4.288 -0.1494  0.3149  0.8441
 1342SOL     OW15487   2.961   1.357   7.215  0.2640 -0.4903 -0.2485
 1342SOL    HW115488   2.889   1.309   7.257 -0.2851  0.8970  0.4046
 1342SOL    HW215489   3.032   1.294   7.205  2.0233  1.6564 -1.0070
 1343SOL     OW15490   2.450   3.799   2.511  0.0698  0.4091 -0.2417
 1343SOL    HW115491   2.422   3.709   2.493  0.4200  0.0429  1.0970
 1343SOL    HW215492   2.534   3.809   2.464  0.4288 -0.0232  0.3087
 1344SOL     OW15493   2.317   1.498   3.773  0.5450 -0.0296 -0.5015
 1344SOL    HW115494   2.346   1.515   3.863 -2.7629  0.3290  0.5120
 1344SOL    HW215495   2.272   1.581   3.754  0.1377  0.4932  2.6392
 1345SOL     OW15496   1.260   3.073   5.430 -0.1218  0.2927 -0.1176
 1345SOL    HW115497   1.236   3.151   5.381  0.6210  0.4589 -0.2175
 1345SOL    HW215498   1.347   3.090   5.466  0.3458  0.6625 -1.4145
 1346SOL     OW15499   1.259   0.074   3.490 -0.3398  0.2928 -0.4482
 1346SOL    HW115500   1.240   0.148   3.433 -2.4971 -0.3984 -0.6197
 1346SOL    HW215501   1.199   0.015   3.444 -2.5860  0.6364  2.0396
 1347SOL     OW15502   4.525   0.009  14.524  0.5177 -0.5776  0.2809
 1347SOL    HW115503   4.454   4.672  14.507  0.3848 -0.6418  1.0577
 1347SOL    HW215504   4.488   0.095  14.504 -0.3366 -0.7545  1.1017
 1348SOL     OW15505   0.016   2.798   6.977  0.0143 -0.3939  0.1476
 1348SOL    HW115506   0.104   2.789   7.014  1.5532  0.6476 -3.2480
 1348SOL    HW215507   0.032   2.879   6.927 -1.8286  0.7394  1.3876
 1349SOL     OW15508   1.501   3.485  11.791 -0.3263 -0.7664  0.5960
 1349SOL    HW115509   1.587   3.446  11.782 -0.8356 -2.0094  1.0559
 1349SOL    HW215510   1.493   3.494  11.887  1.2285  1.1415  0.5405
 1350SOL     OW15511   3.624   3.781   1.164  0.1309 -0.1908  0.4152
 1350SOL    HW115512   3.551   3.773   1.103  0.6277 -1.4153 -0.0280
 1350SOL    HW215513   3.686   3.721   1.123 -1.9571 -1.6065 -0.6406
 1351SOL     OW15514   0.580   2.716   0.605  0.3432 -0.3409  0.0427
 1351SOL    HW115515   0.585   2.740   0.698  2.4192 -0.7946  0.0560
 1351SOL    HW215516   0.519   2.783   0.577 -0.4295 -1.0204  0.1027
 1352SOL     OW15517   0.997   2.441   0.887  0.4302  0.1833 -0.1370
 1352SOL    HW115518   0.929   2.479   0.943  2.6947  0.8275  2.1929
 1352SOL    HW215519   0.960   2.356   0.862 -0.0900  0.2060  0.5529
 1353SOL     OW15520   0.356   2.082   9.151  0.9589  0.1073 -0.3847
 1353SOL    HW115521   0.389   2.159   9.197  0.0108 -0.9256  2.0310
 1353SOL    HW215522   0.263   2.097   9.165  0.5291 -1.4995 -1.5955
 1354SOL     OW15523   4.703   3.083   5.015 -0.4135 -0.0956 -0.1648
 1354SOL    HW115524   4.673   3.104   4.926 -0.6961  0.0165 -0.0433
 1354SOL    HW215525   4.654   3.001   5.025  0.7614 -0.8193 -0.3064
 1355SOL     OW15526   4.135   0.213   4.837  0.3915  0.6610  0.8681
 1355SOL    HW115527   4.107   0.137   4.887 -4.0716 -0.1554 -2.9478
 1355SOL    HW215528   4.124   0.283   4.901  1.2836 -0.0830  1.8351
 1356SOL     OW15529   2.056   0.389   3.623  0.8395  0.2088  0.4755
 1356SOL    HW115530   1.962   0.389   3.605  0.9335 -1.1437 -0.0395
 1356SOL    HW215531   2.047   0.385   3.718  2.1453 -0.1690  0.5693
 1357SOL     OW15532   1.832   2.834   9.093 -0.5247 -0.4512 -0.2210
 1357SOL    HW115533   1.758   2.892   9.111  1.6138  2.3242 -0.5048
 1357SOL    HW215534   1.797   2.786   9.018  0.3419  0.1472 -1.0037
 1358SOL     OW15535   1.611   3.786   0.699  0.3068 -0.4031  0.4963
 1358SOL    HW115536   1.515   3.788   0.696  0.3400 -0.7622 -0.7394
 1358SOL    HW215537   1.628   3.721   0.630  1.3656  0.3482  0.0499
 1359SOL     OW15538   2.779   0.987   7.094 -0.0751  0.5608  0.1766
 1359SOL    HW115539   2.780   1.033   7.010 -2.1393  1.1038  0.4458
 1359SOL    HW215540   2.788   0.895   7.073  3.9820  0.6025  1.6516
 1360SOL     OW15541   0.082   3.405   3.223 -0.3617 -0.1303  0.1775
 1360SOL    HW115542   0.175   3.391   3.208 -1.1202 -4.4249 -0.4422
 1360SOL    HW215543   0.056   3.323   3.265  1.7082 -1.7393 -1.6738
 1361SOL     OW15544   1.291   1.235   4.004  0.0672 -0.1532  0.3364
 1361SOL    HW115545   1.363   1.201   4.058 -0.7814 -1.5439  0.5942
 1361SOL    HW215546   1.220   1.173   4.021  0.0464 -0.1161  0.3844
 1362SOL     OW15547   4.215   2.454   2.611  0.0801 -0.5447 -0.0541
 1362SOL    HW115548   4.302   2.455   2.650 -0.5944 -1.0848  1.4717
 1362SOL    HW215549   4.235   2.509   2.536 -4.1637 -0.0812 -0.8636
 1363SOL     OW15550   2.686   1.425   1.310  0.2752  0.2863  0.3185
 1363SOL    HW115551   2.626   1.399   1.380 -0.1516 -1.5225 -0.7087
 1363SOL    HW215552   2.752   1.473   1.360  0.1784 -0.1877  0.9023
 1364SOL     OW15553   2.924   0.592   9.763 -0.0688  0.3808  0.1093
 1364SOL    HW115554   2.864   0.665   9.773  0.1900  0.5334  0.5454
 1364SOL    HW215555   2.864   0.518   9.766 -0.7108  0.8261 -1.5088
 1365SOL     OW15556   3.574   1.444   5.591  0.4574 -0.1710 -0.2456
 1365SOL    HW115557   3.615   1.460   5.676 -1.7479 -0.8053  0.9427
 1365SOL    HW215558   3.481   1.436   5.614  0.9227 -3.9219  0.3232
 1366SOL     OW15559   2.513   0.693   7.882 -0.2860 -0.7156 -0.3284
 1366SOL    HW115560   2.521   0.661   7.793 -0.2414  1.2593 -1.0331
 1366SOL    HW215561   2.542   0.784   7.874  1.2301 -1.1221  0.6747
 1367SOL     OW15562   2.080   3.450   5.433 -0.3365  0.0807  0.2209
 1367SOL    HW115563   2.151   3.494   5.385  0.9844  0.2008  2.2663
 1367SOL    HW215564   2.020   3.524   5.444 -1.9327 -1.4906  2.0322
 1368SOL     OW15565   3.307   3.988   6.533  0.0261  0.0623  0.4674
 1368SOL    HW115566   3.285   4.079   6.553 -0.5642 -0.4297  2.0400
 1368SOL    HW215567   3.361   4.000   6.455  0.2011  0.6980  0.6905
 1369SOL     OW15568   4.030   1.474   2.157 -0.0442  0.2013 -0.5061
 1369SOL    HW115569   4.107   1.434   2.117 -0.7983 -0.3858 -1.3763
 1369SOL    HW215570   4.073   1.531   2.220 -0.3704 -2.5927  2.2424
 1370SOL     OW15571   0.011   3.133  15.282 -0.1877  0.3896 -0.2562
 1370SOL    HW115572   0.016   3.129  15.377 -0.9983 -0.3875 -0.2419
 1370SOL    HW215573   4.644   3.150  15.271 -0.4671 -1.0493 -0.1113
 1371SOL     OW15574   3.201   0.373   3.549  0.1898  0.2409 -0.2935
 1371SOL    HW115575   3.111   0.406   3.554  0.1267 -0.3688  2.4038
 1371SOL    HW215576   3.193   0.279   3.561  3.9439 -0.2199 -1.3334
 1372SOL     OW15577   1.875   1.733   8.234  0.0056 -0.1886 -0.4219
 1372SOL    HW115578   1.820   1.751   8.310  0.3418  0.2780 -0.2942
 1372SOL    HW215579   1.848   1.642   8.222  1.0689 -0.5365 -0.1896
 1373SOL     OW15580   0.674   1.615   2.589  0.0283  0.3374 -0.1406
 1373SOL    HW115581   0.760   1.653   2.569  0.7953 -0.8174  0.9584
 1373SOL    HW215582   0.670   1.549   2.519 -0.8136  1.4771 -1.1609
 1374SOL     OW15583   0.512   0.068   2.182  0.3160 -0.4236 -0.0143
 1374SOL    HW115584   0.546   0.132   2.245 -1.2706 -0.4409  0.8480
 1374SOL    HW215585   0.590   0.052   2.129  1.6022 -0.0030  1.7318
 1375SOL     OW15586   1.690   0.798   8.586 -0.1796  0.1680  0.0580
 1375SOL    HW115587   1.712   0.807   8.678 -0.3321 -1.2576  0.2438
 1375SOL    HW215588   1.760   0.845   8.541 -0.2664  0.2206 -0.0219
 1376SOL     OW15589   2.852   2.245   7.627 -0.3633  0.2263 -0.2440
 1376SOL    HW115590   2.786   2.222   7.693 -1.4512  0.2761 -1.3067
 1376SOL    HW215591   2.933   2.238   7.676  0.0326  1.6652 -0.7019
 1377SOL     OW15592   3.101   4.304   7.921  0.6540 -0.7549  0.7855
 1377SOL    HW115593   3.130   4.367   7.987  0.1829  0.7180 -0.4319
 1377SOL    HW215594   3.176   4.304   7.863 -0.4650  0.1889 -0.6764
 1378SOL     OW15595   1.046   1.426   5.830 -0.3461  0.4543 -0.0525
 1378SOL    HW115596   0.973   1.487   5.820 -0.2741  0.4905 -0.3535
 1378SOL    HW215597   1.115   1.488   5.853  0.3999 -0.3725 -0.0800
 1379SOL     OW15598   0.500   0.736  11.040  0.2385 -0.2617 -0.3701
 1379SOL    HW115599   0.426   0.686  11.077  0.0539  1.5005  1.5989
 1379SOL    HW215600   0.564   0.722  11.110 -0.3356  1.5251  0.5210
 1380SOL     OW15601   2.707   4.523   4.458 -0.1822 -0.4329  0.5033
 1380SOL    HW115602   2.790   4.550   4.498  0.6421 -0.4361 -1.1996
 1380SOL    HW215603   2.668   4.471   4.528 -0.2276  0.8172  1.4072
 1381SOL     OW15604   0.130   2.055   5.414  0.5029  0.2207 -0.4210
 1381SOL    HW115605   0.203   2.117   5.412  1.3457 -0.7425  0.4954
 1381SOL    HW215606   0.185   1.980   5.437 -0.7120 -0.5698 -0.0879
 1382SOL     OW15607   2.956   2.958   6.880 -0.2860 -0.0728 -0.4961
 1382SOL    HW115608   2.972   3.001   6.796  0.1056 -0.9482 -0.8661
 1382SOL    HW215609   2.879   2.902   6.868  0.0775 -0.2303 -2.0695
 1383SOL     OW15610   0.059   0.443  14.466  0.2921 -0.3716  0.4097
 1383SOL    HW115611   0.078   0.482  14.380 -0.5054  0.9686  0.8525
 1383SOL    HW215612   0.024   0.363  14.427  2.0589 -0.8488 -0.2239
 1384SOL     OW15613   4.685   4.516  10.653 -0.2287  0.3644  0.5535
 1384SOL    HW115614   4.652   4.427  10.639 -1.9434  1.0524  0.2593
 1384SOL    HW215615   4.601   4.561  10.650 -1.3280 -1.5587  2.4927
 1385SOL     OW15616   2.064   4.439   5.420 -0.1778 -0.0794 -0.1605
 1385SOL    HW115617   2.135   4.502   5.430 -0.5536  0.6421 -2.0956
 1385SOL    HW215618   1.999   4.491   5.373  0.8208  0.8505 -0.4898
 1386SOL     OW15619   3.370   1.961  16.925 -0.4946 -0.2300  0.1631
 1386SOL    HW115620   3.350   1.977  16.832 -2.3353  0.9456  0.7582
 1386SOL    HW215621   3.363   2.046  16.969  0.2423 -0.9048  1.5603
 1387SOL     OW15622   4.033   4.018   7.177  0.5961  0.1060 -0.3178
 1387SOL    HW115623   4.095   3.951   7.149  1.2905  1.0441 -1.0301
 1387SOL    HW215624   4.079   4.055   7.253  0.1849  0.4784 -0.2447
 1388SOL     OW15625   0.275   0.748   3.478 -0.1308  0.0890  0.3531
 1388SOL    HW115626   0.255   0.662   3.514  0.0666  0.0206  0.2988
 1388SOL    HW215627   0.250   0.733   3.387 -0.8743  0.0040  0.5671
 1389SOL     OW15628   1.274   1.214   6.178  0.0317 -0.1726  0.1658
 1389SOL    HW115629   1.364   1.221   6.211 -0.1413  0.4126  0.5146
 1389SOL    HW215630   1.252   1.307   6.189 -0.6089 -0.5700  2.3980
 1390SOL     OW15631   2.554   1.799  10.487  0.3097  0.0080  0.7566
 1390SOL    HW115632   2.474   1.832  10.529 -1.1365 -2.7101  0.1329
 1390SOL    HW215633   2.523   1.748  10.412 -0.7685  0.9963  0.5373
 1391SOL     OW15634   2.821   0.329  10.456 -0.7680 -0.1048 -0.0379
 1391SOL    HW115635   2.738   0.283  10.456 -0.6520 -0.3195 -0.5929
 1391SOL    HW215636   2.792   0.420  10.461 -0.0476  0.1629 -0.6630
 1392SOL     OW15637   3.461   0.800   7.362  0.3215  0.9626  0.7169
 1392SOL    HW115638   3.503   0.884   7.345 -0.3886  0.9569 -1.0261
 1392SOL    HW215639   3.422   0.819   7.447 -1.2824 -0.8627  0.3876
 1393SOL     OW15640   4.296   4.434   4.050 -0.0733 -0.4976 -0.2783
 1393SOL    HW115641   4.289   4.341   4.026 -3.2031  0.0459 -1.4429
 1393SOL    HW215642   4.386   4.443   4.018  0.2410 -0.6734  0.5502
 1394SOL     OW15643   0.296   4.184  10.936  0.0945 -0.2406 -0.3653
 1394SOL    HW115644   0.285   4.262  10.883  1.2634  0.1214 -0.0766
 1394SOL    HW215645   0.384   4.166  10.901 -0.4926 -1.7352 -1.0916
 1395SOL     OW15646   3.618   3.676   1.962  0.0983  0.1928  0.5841
 1395SOL    HW115647   3.524   3.690   1.965  0.1700  0.6494  0.6900
 1395SOL    HW215648   3.657   3.725   1.889 -1.4393 -1.5749 -1.4266
 1396SOL     OW15649   1.208   2.103   2.554 -0.0283 -0.1066  0.2226
 1396SOL    HW115650   1.229   2.175   2.494  0.8076 -0.9972 -0.5325
 1396SOL    HW215651   1.240   2.137   2.637 -2.1452  0.0844  0.9670
 1397SOL     OW15652   1.631   2.475  14.214  0.2934  0.1911 -0.1843
 1397SOL    HW115653   1.706   2.533  14.205  1.5245 -1.4347 -0.4582
 1397SOL    HW215654   1.655   2.398  14.266 -1.1139  0.1387  0.4097
 1398SOL     OW15655   0.378   1.073   8.297  0.0581  0.0476  0.5485
 1398SOL    HW115656   0.289   1.105   8.309  0.3459  0.5334  1.3881
 1398SOL    HW215657   0.423   1.087   8.380  1.7265 -0.7114 -0.2255
 1399SOL     OW15658   3.102   1.997  15.950  0.1569  0.2701 -0.1293
 1399SOL    HW115659   3.045   1.929  15.915 -1.5935  0.4154  2.4212
 1399SOL    HW215660   3.164   1.945  16.001  0.5013  0.4837 -0.3276
 1400SOL     OW15661   3.030   0.010   7.998  0.0615 -0.4035 -0.4850
 1400SOL    HW115662   2.978   0.055   7.931 -1.1665 -0.4356  0.4495
 1400SOL    HW215663   2.960   4.692   8.046 -0.7213  1.5887  0.1649
 1401SOL     OW15664   0.456   3.936   6.302 -0.2359 -0.1941  0.6659
 1401SOL    HW115665   0.408   3.853   6.308 -1.5301  0.4919 -0.2075
 1401SOL    HW215666   0.493   3.930   6.390 -0.3980  0.8455  0.8033
 1402SOL     OW15667   3.180   1.803  17.361 -0.4098  0.2052  1.2427
 1402SOL    HW115668   3.257   1.845  17.322 -0.2780  0.4973  1.8138
 1402SOL    HW215669   3.213   1.796  17.450  2.6420 -1.2235 -0.0151
 1403SOL     OW15670   4.302   3.700   7.485 -0.6901 -0.1155 -0.0122
 1403SOL    HW115671   4.259   3.636   7.542 -1.9812 -0.0759 -0.9493
 1403SOL    HW215672   4.335   3.758   7.553  1.6142 -0.4986 -0.7806
 1404SOL     OW15673   2.223   4.595   1.618  0.1675 -0.2886 -0.0187
 1404SOL    HW115674   2.201   4.597   1.525  0.6922  3.0574 -0.0583
 1404SOL    HW215675   2.147   4.550   1.656 -0.2242  1.3900  1.2033
 1405SOL     OW15676   3.085   0.359   3.076 -0.2131 -0.0530  0.0299
 1405SOL    HW115677   3.032   0.407   3.138 -0.1076  0.9510 -0.6535
 1405SOL    HW215678   3.165   0.357   3.129 -0.3516 -0.8008  0.2216
 1406SOL     OW15679   0.422   2.302   2.592  0.7694 -0.3244 -0.5344
 1406SOL    HW115680   0.417   2.242   2.518 -3.5578 -0.3386 -0.2227
 1406SOL    HW215681   0.438   2.386   2.549  1.1755 -0.3983 -0.5303
 1407SOL     OW15682   0.561   1.682   3.003 -0.5339 -0.1238  0.1198
 1407SOL    HW115683   0.564   1.752   3.068  0.3907  0.4355 -0.5252
 1407SOL    HW215684   0.496   1.626   3.043 -1.9702  2.1256  0.9420
 1408SOL     OW15685   1.791   4.162   5.075  0.1463  0.1716  0.2954
 1408SOL    HW115686   1.821   4.253   5.079 -1.6565  0.7734  0.1345
 1408SOL    HW215687   1.720   4.174   5.011 -1.1708 -1.9023  1.3643
 1409SOL     OW15688   3.917   1.450   5.503  0.0254 -0.3456  0.2445
 1409SOL    HW115689   3.907   1.395   5.425 -1.1350  0.0156  0.1361
 1409SOL    HW215690   3.869   1.528   5.477 -0.2427  0.1931  2.3686
 1410SOL     OW15691   3.084   0.929   7.280  0.2661 -0.0307 -0.0035
 1410SOL    HW115692   3.063   0.941   7.373  1.1788  0.8971  0.0780
 1410SOL    HW215693   3.089   0.834   7.274 -2.5038 -0.1739 -0.1815
 1411SOL     OW15694   4.172   2.939  10.507  0.1579  0.4009  0.2570
 1411SOL    HW115695   4.148   2.853  10.543  3.1995 -1.8966 -3.2469
 1411SOL    HW215696   4.170   2.999  10.581  1.4269  0.5130  0.1887
 1412SOL     OW15697   4.356   4.271   2.204 -0.6137  0.0791 -0.0296
 1412SOL    HW115698   4.323   4.201   2.261 -2.6698  0.8806 -0.2423
 1412SOL    HW215699   4.389   4.218   2.131 -1.2098 -0.1593 -0.1255
 1413SOL     OW15700   2.937   4.637  10.393 -0.2329  0.0214  0.1843
 1413SOL    HW115701   2.984   4.704  10.442 -0.2459  0.0727  0.1265
 1413SOL    HW215702   2.896   4.690  10.325  0.7105  1.5042  0.7964
 1414SOL     OW15703   1.974   3.483   3.990  0.3319 -0.5991 -0.1070
 1414SOL    HW115704   1.882   3.474   4.014  0.4695  0.4615  0.7765
 1414SOL    HW215705   1.966   3.462   3.897  0.0867 -2.1982  0.2632
 1415SOL     OW15706   2.230   2.688   1.139  0.4829  0.6333 -0.1630
 1415SOL    HW115707   2.153   2.653   1.096  0.7673 -1.8562  1.3630
 1415SOL    HW215708   2.302   2.644   1.094 -1.3859 -2.1955 -0.3369
 1416SOL     OW15709   0.456   4.227   8.473 -0.6778 -0.0213 -0.2050
 1416SOL    HW115710   0.375   4.198   8.431 -1.2233  1.6756 -0.3211
 1416SOL    HW215711   0.431   4.266   8.557 -1.0894 -0.7974  0.0362
 1417SOL     OW15712   2.972   1.652  16.947  0.6371  0.2600 -0.2267
 1417SOL    HW115713   2.878   1.662  16.929  0.3647  0.3465  1.2596
 1417SOL    HW215714   2.999   1.567  16.913 -0.0838 -1.0098  2.4061
 1418SOL     OW15715   1.845   0.657   2.512  0.2565  0.3492  0.0545
 1418SOL    HW115716   1.866   0.683   2.422 -2.2024 -1.1181 -0.9450
 1418SOL    HW215717   1.927   0.628   2.552 -0.1205  1.1828  1.3899
 1419SOL     OW15718   3.405   2.220   7.824 -0.1349 -0.5582  0.7297
 1419SOL    HW115719   3.356   2.287   7.871  2.6162  0.8454  1.5422
 1419SOL    HW215720   3.459   2.177   7.891 -0.3758 -3.2093 -0.7841
 1420SOL     OW15721   1.882   0.088   2.500 -0.2053  0.2506  0.5119
 1420SOL    HW115722   1.843   0.025   2.439  0.8937 -2.2911  2.4084
 1420SOL    HW215723   1.972   0.055   2.498  0.0262  1.0249 -1.2379
 1421SOL     OW15724   1.665   3.561   2.217 -0.1459  0.0900 -0.1930
 1421SOL    HW115725   1.613   3.627   2.171  0.1814 -0.4107 -1.2939
 1421SOL    HW215726   1.604   3.522   2.279 -0.1953 -1.3805 -1.1463
 1422SOL     OW15727   4.272   1.723   0.569  0.5347 -0.4599 -0.4610
 1422SOL    HW115728   4.198   1.703   0.626  2.0573 -0.4732  1.5355
 1422SOL    HW215729   4.332   1.652   0.591  1.8857  1.5968  2.5765
 1423SOL     OW15730   4.597   0.246   6.363 -0.1766 -0.8057  0.3227
 1423SOL    HW115731   4.586   0.340   6.380  1.0833 -0.2144 -2.1603
 1423SOL    HW215732   4.508   0.228   6.334 -0.2770 -0.5233  0.4477
 1424SOL     OW15733   0.025   3.407  14.696  0.0321 -0.0213 -0.1965
 1424SOL    HW115734   0.054   3.406  14.604 -0.8227  3.9022 -0.5340
 1424SOL    HW215735   0.109   3.377  14.731 -0.9503 -0.8120  1.4705
 1425SOL     OW15736   2.308   0.777  15.707 -0.4918  0.0240  0.3315
 1425SOL    HW115737   2.354   0.695  15.688 -1.5965 -1.1524  2.6903
 1425SOL    HW215738   2.256   0.752  15.784  0.0351 -0.2567  0.5992
 1426SOL     OW15739   1.755   2.608   8.312 -0.2220 -0.3441  0.0098
 1426SOL    HW115740   1.781   2.518   8.333  0.8123  0.5601  2.5271
 1426SOL    HW215741   1.794   2.628   8.227  1.6774 -0.1348  0.9504
 1427SOL     OW15742   0.073   4.191   6.527 -0.5531  0.4194  0.5333
 1427SOL    HW115743   0.121   4.270   6.552 -0.3691  1.2847 -2.5461
 1427SOL    HW215744   0.013   4.225   6.460 -4.1619  2.4610  4.7961
 1428SOL     OW15745   3.557   1.913   8.515 -0.4364  0.1089  0.1225
 1428SOL    HW115746   3.611   1.840   8.546  1.7521  1.4052 -0.6710
 1428SOL    HW215747   3.549   1.883   8.424 -0.9506 -3.2008  1.2412
 1429SOL     OW15748   1.050   4.352   6.581 -0.5698  0.1170  0.1596
 1429SOL    HW115749   1.108   4.276   6.575  1.5909  1.7091  0.5560
 1429SOL    HW215750   0.969   4.314   6.613 -1.6107  0.6113 -1.8879
 1430SOL     OW15751   1.851   3.020   1.693  0.2236 -0.1067 -0.4390
 1430SOL    HW115752   1.845   2.924   1.696  0.8438 -0.1308  0.1013
 1430SOL    HW215753   1.802   3.037   1.612  2.1100 -2.9222 -2.1637
 1431SOL     OW15754   0.914   2.883  17.440  0.3611  0.1359  0.0781
 1431SOL    HW115755   0.915   2.964  17.491 -0.2683  0.4114 -0.3440
 1431SOL    HW215756   0.825   2.873  17.404  0.5749  0.2947 -0.4934
 1432SOL     OW15757   3.802   1.322  13.143 -0.2969 -0.0217 -0.2951
 1432SOL    HW115758   3.707   1.332  13.149 -0.4383 -1.5534  0.0083
 1432SOL    HW215759   3.836   1.379  13.212  1.6100  0.6148 -1.7604
 1433SOL     OW15760   2.882   2.145   7.366 -0.0107  0.2369  0.2396
 1433SOL    HW115761   2.867   2.167   7.458  1.1864 -3.0799  1.2346
 1433SOL    HW215762   2.820   2.201   7.319  1.8053  0.6045 -1.7226
 1434SOL     OW15763   1.835   3.688   2.613 -0.0123  0.3556 -0.4399
 1434SOL    HW115764   1.881   3.625   2.669 -0.5964 -2.1044 -2.7655
 1434SOL    HW215765   1.854   3.659   2.524  1.2448  0.8184 -0.3333
 1435SOL     OW15766   3.044   3.292   9.305 -0.1726 -0.0580  0.2666
 1435SOL    HW115767   3.114   3.229   9.324  0.1904  0.8287  1.8558
 1435SOL    HW215768   2.970   3.235   9.284  0.1504 -1.3014  2.4740
 1436SOL     OW15769   0.329   1.013   6.936 -0.3854  0.1676 -0.2876
 1436SOL    HW115770   0.299   0.928   6.967 -1.3335  0.6295  0.0496
 1436SOL    HW215771   0.248   1.062   6.950  0.7858  2.1515 -0.5216
 1437SOL     OW15772   0.341   2.726   6.104  0.0172  0.4216 -0.3484
 1437SOL    HW115773   0.286   2.763   6.035 -1.5622 -0.5867  0.3501
 1437SOL    HW215774   0.341   2.632   6.092  0.4530  0.4618 -0.6563
 1438SOL     OW15775   4.508   1.914   5.927  0.7358  0.2067 -0.3019
 1438SOL    HW115776   4.517   1.834   5.978  0.8472  1.4046  1.5393
 1438SOL    HW215777   4.417   1.903   5.900  0.2642 -0.5310  1.5813
 1439SOL     OW15778   4.408   3.145  12.792 -0.3824  0.4705  0.3846
 1439SOL    HW115779   4.377   3.219  12.844 -2.4342  0.4019 -0.7510
 1439SOL    HW215780   4.432   3.075  12.853  0.8878 -1.1405 -1.9752
 1440SOL     OW15781   4.323   3.899  15.026  0.1492 -0.3035 -0.2072
 1440SOL    HW115782   4.335   3.884  15.120 -1.2167  0.9608  0.1897
 1440SOL    HW215783   4.316   3.817  14.978 -0.5106 -1.3873  1.7671
 1441SOL     OW15784   0.314   1.931   2.091  0.3710 -0.3664 -0.2367
 1441SOL    HW115785   0.277   1.869   2.154 -1.7201  1.3319  0.1893
 1441SOL    HW215786   0.244   1.996   2.096  1.1575  0.6410 -2.4566
 1442SOL     OW15787   2.740   1.701   2.739  0.2641  0.4256 -0.0613
 1442SOL    HW115788   2.816   1.684   2.793  0.3437 -1.4047 -0.7271
 1442SOL    HW215789   2.764   1.658   2.656 -2.7696  0.2039 -0.8273
 1443SOL     OW15790   2.401   3.232   5.766  0.0797 -0.4217 -0.4751
 1443SOL    HW115791   2.321   3.255   5.814  0.7660  0.6926  0.1405
 1443SOL    HW215792   2.426   3.319   5.733 -0.8687 -0.9084 -2.4937
 1444SOL     OW15793   0.286   1.508   7.830 -0.9346 -0.1116 -0.0270
 1444SOL    HW115794   0.372   1.542   7.853  0.0205 -3.6974  1.8647
 1444SOL    HW215795   0.296   1.413   7.842 -0.7286  0.1817  2.2172
 1445SOL     OW15796   4.487   3.279  14.783 -1.1199  0.3292  0.0428
 1445SOL    HW115797   4.441   3.320  14.709 -0.0398 -1.9761 -1.9005
 1445SOL    HW215798   4.571   3.320  14.762 -0.2476 -0.8369  1.2785
 1446SOL     OW15799   0.426   0.590   8.632  0.4500 -0.7654 -0.0002
 1446SOL    HW115800   0.509   0.629   8.659  1.2519 -3.5331  1.5552
 1446SOL    HW215801   0.394   0.573   8.721  1.5960  1.3338  0.8081
 1447SOL     OW15802   0.676   0.926   4.438  0.1492 -0.1373  0.4630
 1447SOL    HW115803   0.639   0.847   4.476 -1.7652  1.2664  1.5273
 1447SOL    HW215804   0.594   0.976   4.438  1.5937  2.2547  0.4728
 1448SOL     OW15805   0.971   0.403  11.242 -0.0187  0.1259 -1.0447
 1448SOL    HW115806   0.991   0.389  11.150  3.6945  0.1446 -0.2448
 1448SOL    HW215807   0.899   0.344  11.263  0.4854 -0.3724 -0.7170
 1449SOL     OW15808   3.622   2.588   6.662  0.2436  0.9672  0.6024
 1449SOL    HW115809   3.557   2.594   6.593 -0.6921  0.9506  1.4898
 1449SOL    HW215810   3.558   2.572   6.731 -0.2851 -3.3094 -0.9299
 1450SOL     OW15811   2.212   4.419   6.272  0.1253  0.4782 -0.4302
 1450SOL    HW115812   2.136   4.361   6.280  1.6358 -1.0577  2.3626
 1450SOL    HW215813   2.256   4.412   6.356 -3.3802  0.6340  1.4182
 1451SOL     OW15814   4.716   1.322   0.953  0.2527  0.0869 -0.6534
 1451SOL    HW115815   4.678   1.404   0.986  0.2578 -0.4463  0.6639
 1451SOL    HW215816   0.067   1.360   0.910  0.3124  0.4372 -0.2407
 1452SOL     OW15817   4.385   0.019   4.384 -0.1747  0.5007  0.1818
 1452SOL    HW115818   4.476   0.036   4.409 -1.0081  2.1522  2.0585
 1452SOL    HW215819   4.378   0.091   4.321 -0.4434  0.6778  0.4125
 1453SOL     OW15820   0.673   0.958   3.765 -0.4392 -0.3689  0.3221
 1453SOL    HW115821   0.752   0.979   3.715 -0.5456 -0.4188  0.1294
 1453SOL    HW215822   0.627   1.038   3.742 -0.9513 -0.9079 -0.5639
 1454SOL     OW15823   0.534   3.296   5.744  0.2995 -0.5650 -0.0125
 1454SOL    HW115824   0.458   3.314   5.800 -0.1920 -3.0892  0.1273
 1454SOL    HW215825   0.542   3.204   5.767 -2.7286 -1.0784 -0.9155
 1455SOL     OW15826   2.622   1.008   5.567  0.7119  0.0046  0.3713
 1455SOL    HW115827   2.553   0.986   5.504  1.3437  1.3344 -0.7744
 1455SOL    HW215828   2.655   0.920   5.586  1.2488 -0.0928 -1.0580
 1456SOL     OW15829   1.691   1.211   3.095 -0.3057  0.1300 -0.3838
 1456SOL    HW115830   1.602   1.242   3.112 -0.2221 -0.2240  0.7329
 1456SOL    HW215831   1.688   1.123   3.058  2.9404  0.2470 -0.8989
 1457SOL     OW15832   0.755   2.690   4.789  0.8968  0.4506 -0.7168
 1457SOL    HW115833   0.790   2.778   4.800  0.9484  0.3666 -0.2172
 1457SOL    HW215834   0.697   2.701   4.714  0.4557 -3.1070 -0.9185
 1458SOL     OW15835   3.078   4.003   2.862 -0.0836 -0.1562  0.5487
 1458SOL    HW115836   2.987   4.031   2.867  0.1684  0.6233  0.6645
 1458SOL    HW215837   3.109   4.072   2.804 -1.1550  1.0357  1.4053
 1459SOL     OW15838   0.240   0.473   3.518  0.1860  0.0358 -0.2937
 1459SOL    HW115839   0.323   0.428   3.532  0.0227 -0.7762 -2.0376
 1459SOL    HW215840   0.209   0.443   3.604  0.1023 -1.5819 -0.8919
 1460SOL     OW15841   0.797   3.265   8.190  0.6929  0.1654 -0.0107
 1460SOL    HW115842   0.763   3.179   8.163  0.0312  0.2673  0.5099
 1460SOL    HW215843   0.721   3.322   8.182 -0.1006 -0.6475  1.7788
 1461SOL     OW15844   4.255   3.866   0.746 -0.4636  0.0385  0.0939
 1461SOL    HW115845   4.334   3.888   0.797 -1.0556 -0.2095  1.1317
 1461SOL    HW215846   4.214   3.803   0.805  0.8422  0.4030  1.3995
 1462SOL     OW15847   3.305   2.396   3.543  0.2681 -0.4698 -0.8761
 1462SOL    HW115848   3.345   2.374   3.458  0.0695  0.8539 -1.3148
 1462SOL    HW215849   3.285   2.307   3.574 -1.0822  0.7003  1.5887
 1463SOL     OW15850   4.022   4.115   8.560  0.3547  0.1401  0.5243
 1463SOL    HW115851   4.016   4.094   8.653 -1.0584  1.3372  0.7106
 1463SOL    HW215852   4.031   4.210   8.559 -0.7457  0.2374 -0.9838
 1464SOL     OW15853   2.849   0.240  13.183 -0.0935 -0.4403 -0.6557
 1464SOL    HW115854   2.906   0.181  13.233 -1.3797 -0.4968  0.7294
 1464SOL    HW215855   2.829   0.198  13.099 -0.7062 -0.8645 -0.2969
 1465SOL     OW15856   1.930   4.610   8.289  0.0128 -0.6292 -0.3559
 1465SOL    HW115857   1.861   4.667   8.257 -0.7408 -0.9563  0.6979
 1465SOL    HW215858   1.994   4.620   8.218  2.2796  1.9220  2.0041
 1466SOL     OW15859   2.441   1.497  17.575 -0.8699 -0.2316 -0.0058
 1466SOL    HW115860   2.388   1.418  17.580 -2.0692  0.6326  0.8106
 1466SOL    HW215861   2.385   1.557  17.526 -2.0738 -1.5853 -0.3004
 1467SOL     OW15862   1.413   3.912  13.816  0.2487 -0.0136 -0.2997
 1467SOL    HW115863   1.334   3.948  13.775 -0.3653 -1.5605 -0.4766
 1467SOL    HW215864   1.438   3.838  13.762  1.0763  0.5820 -0.7359
 1468SOL     OW15865   3.466   1.651  11.273 -0.4906 -0.1936  0.2249
 1468SOL    HW115866   3.557   1.662  11.300 -0.7220  1.3838  0.3924
 1468SOL    HW215867   3.416   1.692  11.343  2.2709  0.1666  1.9793
 1469SOL     OW15868   0.777   4.642   7.823  0.5276 -0.5252  0.1172
 1469SOL    HW115869   0.697   4.595   7.849 -0.4659  1.3197  0.4206
 1469SOL    HW215870   0.814   4.588   7.753 -1.7708 -0.0770 -1.4618
 1470SOL     OW15871   2.755   0.875   3.389 -0.1396 -0.3289  0.2074
 1470SOL    HW115872   2.668   0.915   3.392  0.0642  0.1990 -0.9170
 1470SOL    HW215873   2.792   0.936   3.326 -0.1367 -2.0061 -1.4252
 1471SOL     OW15874   2.411   4.412   0.355  0.4887  0.0175 -0.2908
 1471SOL    HW115875   2.425   4.494   0.308  0.8455 -0.6543 -1.3747
 1471SOL    HW215876   2.476   4.410   0.425  0.7541  1.9721 -0.4884
 1472SOL     OW15877   1.472   2.677   1.449  0.6587 -0.2292 -0.5278
 1472SOL    HW115878   1.520   2.733   1.388  0.8436  2.6848  2.2879
 1472SOL    HW215879   1.382   2.684   1.417  0.2037  1.0293  1.0132
 1473SOL     OW15880   1.886   2.008   5.365  0.0909  0.0090 -0.0813
 1473SOL    HW115881   1.949   1.949   5.408 -0.1907 -0.1761  0.0782
 1473SOL    HW215882   1.942   2.081   5.339  1.2990 -1.1293 -0.7278
 1474SOL     OW15883   3.714   0.469   8.283 -0.0836  0.1558  0.3807
 1474SOL    HW115884   3.806   0.447   8.298 -0.1008 -0.8433 -1.0074
 1474SOL    HW215885   3.668   0.394   8.319 -0.3397 -0.1156 -0.5127
 1475SOL     OW15886   1.777   4.466   5.433 -0.1364 -0.5771 -0.7967
 1475SOL    HW115887   1.753   4.396   5.373  0.2852  1.1479 -2.9632
 1475SOL    HW215888   1.754   4.438   5.522  2.7788  0.8214  0.4094
 1476SOL     OW15889   4.051   1.907  16.095  0.0408 -0.2262  0.4735
 1476SOL    HW115890   3.984   1.974  16.109  0.9652  0.3781  2.0962
 1476SOL    HW215891   3.994   1.832  16.109 -0.7473  0.2151 -0.3860
 1477SOL     OW15892   3.412   2.725   1.766 -0.2478  0.0322 -0.2377
 1477SOL    HW115893   3.473   2.655   1.743 -2.8162 -1.4332 -2.5702
 1477SOL    HW215894   3.465   2.799   1.738 -0.0769 -0.0972 -0.2555
 1478SOL     OW15895   0.562   4.428   7.917  0.2691 -0.5247  0.1124
 1478SOL    HW115896   0.581   4.344   7.960 -1.5475  0.4673  2.8377
 1478SOL    HW215897   0.537   4.406   7.827 -2.2646 -0.5038  0.8080
 1479SOL     OW15898   4.502   4.020   1.971 -0.4471 -0.1886 -0.6906
 1479SOL    HW115899   4.434   4.042   1.907  0.5872  0.7262 -1.4832
 1479SOL    HW215900   4.579   4.070   1.942 -0.5736  0.7157  0.5124
 1480SOL     OW15901   0.831   0.990   1.951 -0.1051 -0.5043 -0.3514
 1480SOL    HW115902   0.762   0.938   1.910 -0.1550 -0.7149  0.0009
 1480SOL    HW215903   0.907   0.948   1.910 -1.2349 -1.9883 -0.8926
 1481SOL     OW15904   3.722   3.146   5.758  0.2126 -0.3188 -0.0854
 1481SOL    HW115905   3.755   3.064   5.721  1.9889 -0.1832  1.2113
 1481SOL    HW215906   3.782   3.155   5.832  0.7396  1.1092 -0.6941
 1482SOL     OW15907   0.178   2.365   2.726 -0.0752  0.0677  0.1837
 1482SOL    HW115908   0.253   2.311   2.700  1.3793  2.3617 -0.4091
 1482SOL    HW215909   0.198   2.454   2.696  2.0637 -0.5988 -0.3939
 1483SOL     OW15910   1.128   3.938  11.325  0.1149  0.9819  0.7230
 1483SOL    HW115911   1.036   3.933  11.301  0.1746  2.4483  0.1554
 1483SOL    HW215912   1.166   3.909  11.242 -2.2532 -1.6092  0.5598
 1484SOL     OW15913   0.414   2.082   3.866 -0.6651  0.4356  0.4748
 1484SOL    HW115914   0.385   2.033   3.789 -0.3281  2.2178 -0.7753
 1484SOL    HW215915   0.360   2.042   3.934  0.4948  1.0642  1.7741
 1485SOL     OW15916   1.411   3.726   4.043  0.4254 -0.5709  0.1913
 1485SOL    HW115917   1.475   3.714   3.973  0.3547  0.6205 -0.0843
 1485SOL    HW215918   1.330   3.720   3.993  2.0328 -1.0321 -2.3485
 1486SOL     OW15919   4.115   2.328   4.789 -0.2782 -0.3000  0.1964
 1486SOL    HW115920   4.115   2.308   4.695  0.1404 -0.7612  0.2916
 1486SOL    HW215921   4.137   2.420   4.776 -0.0272 -0.2926  0.6977
 1487SOL     OW15922   2.970   1.334   3.915 -0.1028 -0.3752 -0.4488
 1487SOL    HW115923   3.055   1.300   3.885  0.6072 -0.8098  2.0315
 1487SOL    HW215924   2.916   1.298   3.845 -1.4255 -0.0727  0.4273
 1488SOL     OW15925   3.846   1.175   3.384 -0.7372 -0.2386  0.4269
 1488SOL    HW115926   3.876   1.266   3.377 -2.4843  0.2089 -1.3247
 1488SOL    HW215927   3.764   1.178   3.335 -0.3601 -0.0348 -0.1911
 1489SOL     OW15928   4.023   1.182   0.473 -0.3663  0.5633 -0.0342
 1489SOL    HW115929   4.029   1.233   0.553 -0.5463  1.7453 -0.7784
 1489SOL    HW215930   3.966   1.115   0.509 -0.7911  0.3196 -1.1675
 1490SOL     OW15931   0.048   0.229  13.738  0.2309 -0.1579 -0.9991
 1490SOL    HW115932   0.107   0.194  13.671  1.1703  0.0045 -0.2528
 1490SOL    HW215933   0.059   0.323  13.731  1.9604 -0.2011  1.5388
 1491SOL     OW15934   1.259   0.669   8.485 -0.3354  0.3555 -0.1727
 1491SOL    HW115935   1.219   0.598   8.434  1.0835 -0.6522  0.1059
 1491SOL    HW215936   1.351   0.647   8.467 -0.0542  0.5654  0.9677
 1492SOL     OW15937   1.131   0.779   7.660 -0.0895 -0.2248  0.2815
 1492SOL    HW115938   1.095   0.865   7.682 -1.0484 -0.0965 -1.8513
 1492SOL    HW215939   1.135   0.796   7.566  2.3825  0.3230  0.4876
 1493SOL     OW15940   1.174   2.613   5.909 -0.0969  0.8014  0.5878
 1493SOL    HW115941   1.194   2.703   5.881 -0.0979  1.9463  4.3125
 1493SOL    HW215942   1.084   2.614   5.875  0.4167 -0.6133 -0.7782
 1494SOL     OW15943   4.385   3.645   1.355 -0.2483  0.4196 -0.2332
 1494SOL    HW115944   4.296   3.615   1.375 -0.5330  1.9716  0.8779
 1494SOL    HW215945   4.376   3.736   1.385  1.5188  0.6422 -0.4078
 1495SOL     OW15946   3.969   1.509   8.438  0.3114  0.4535 -0.1354
 1495SOL    HW115947   4.056   1.547   8.424  1.0282  0.0363  3.2412
 1495SOL    HW215948   3.917   1.562   8.376  1.3913 -0.1254 -1.5368
 1496SOL     OW15949   4.139   0.177   6.322  0.2377 -0.1795  0.2253
 1496SOL    HW115950   4.171   0.152   6.409 -0.9194 -1.7808  0.1872
 1496SOL    HW215951   4.082   0.254   6.331 -0.6969 -0.7075 -1.1241
 1497SOL     OW15952   3.339   2.375  12.891  0.1985 -0.4233  0.0039
 1497SOL    HW115953   3.374   2.315  12.957 -0.0421 -0.4414  0.1147
 1497SOL    HW215954   3.274   2.318  12.850 -1.7412  1.1100  0.9624
 1498SOL     OW15955   2.779   4.589   4.946 -0.4971 -0.4196  0.4176
 1498SOL    HW115956   2.830   4.613   5.023  0.9335  0.4115 -0.7813
 1498SOL    HW215957   2.693   4.582   4.988 -1.0053 -0.0165 -0.5535
 1499SOL     OW15958   4.420   0.975  14.649  0.4998  0.1325  0.2763
 1499SOL    HW115959   4.511   1.005  14.658  0.2904  0.9544 -0.4119
 1499SOL    HW215960   4.380   1.055  14.614 -1.1774 -1.0327 -0.4851
 1500SOL     OW15961   2.496   3.909   8.390  0.0696 -0.6451  0.6375
 1500SOL    HW115962   2.550   3.887   8.315  0.3539  0.2295  0.5894
 1500SOL    HW215963   2.468   3.825   8.425  2.1694 -1.8299 -0.5404
 1501SOL     OW15964   3.883   2.393   3.314  0.0324  0.0939  0.1748
 1501SOL    HW115965   3.893   2.336   3.390  0.4331  0.4631  0.3951
 1501SOL    HW215966   3.816   2.454   3.344 -2.1083 -2.0315 -0.1700
 1502SOL     OW15967   4.252   1.279   3.182  0.5144  0.1349 -0.3819
 1502SOL    HW115968   4.226   1.348   3.121 -0.8277  0.4370  0.5363
 1502SOL    HW215969   4.185   1.214   3.159 -0.5410  0.2927  2.3327
 1503SOL     OW15970   4.674   4.299   9.162 -0.2836 -0.3589  0.1154
 1503SOL    HW115971   4.599   4.248   9.131 -1.0246  0.4042  0.6565
 1503SOL    HW215972   4.700   4.243   9.236  0.6778 -0.1842 -0.0940
 1504SOL     OW15973   1.250   0.798  15.028 -0.4597 -0.2298  0.6450
 1504SOL    HW115974   1.156   0.804  15.009 -0.1798  3.0117  0.3494
 1504SOL    HW215975   1.255   0.724  15.089  1.7109 -0.2982  0.3680
 1505SOL     OW15976   0.081   0.926   4.075  0.5412  0.7149 -0.0741
 1505SOL    HW115977   0.047   0.985   4.143  1.7680  0.3243  0.8771
 1505SOL    HW215978   0.000   0.877   4.059  0.9575 -0.5594  1.7093
 1506SOL     OW15979   0.632   0.125   5.953  0.1577  0.4179  0.0523
 1506SOL    HW115980   0.703   0.186   5.974 -0.0746  0.2669  1.3018
 1506SOL    HW215981   0.662   0.093   5.868  1.4167  1.7943 -0.0210
 1507SOL     OW15982   4.217   2.464   3.847 -0.1715 -0.3511 -0.3779
 1507SOL    HW115983   4.218   2.369   3.856  1.6900 -0.3577 -0.7134
 1507SOL    HW215984   4.295   2.490   3.895 -0.7377  0.8349 -0.0969
 1508SOL     OW15985   2.359   2.353   5.622 -0.0437  0.1397 -0.1595
 1508SOL    HW115986   2.436   2.307   5.656  0.7263  1.9111  0.4768
 1508SOL    HW215987   2.384   2.438   5.658  2.1885 -0.6939  0.2717
 1509SOL     OW15988   4.392   1.329   7.612 -0.0320 -0.1221  0.2314
 1509SOL    HW115989   4.323   1.274   7.576 -0.4745  0.2037  0.5741
 1509SOL    HW215990   4.470   1.274   7.611  0.6143  0.7827  0.2155
 1510SOL     OW15991   2.113   0.986   4.742  0.2985  0.5938 -0.5880
 1510SOL    HW115992   2.131   1.079   4.755 -1.0541  1.0124 -1.7507
 1510SOL    HW215993   2.196   0.939   4.745  1.5908  2.7579 -2.1119
 1511SOL     OW15994   1.125   2.177   3.611 -0.0536  0.1872  0.3974
 1511SOL    HW115995   1.169   2.246   3.561 -0.9221 -0.2670 -0.9871
 1511SOL    HW215996   1.079   2.153   3.531 -0.6500  0.1461  0.7491
 1512SOL     OW15997   0.568   1.069   7.180  0.9052  0.2528  0.5638
 1512SOL    HW115998   0.612   1.004   7.235 -0.9707 -1.6457 -0.1678
 1512SOL    HW215999   0.602   1.038   7.096 -3.8677 -1.4422 -0.7324
 1513SOL     OW16000   2.811   2.558   9.072 -0.1111 -0.1273 -0.4938
 1513SOL    HW116001   2.898   2.595   9.062 -0.1409  0.1242  0.1224
 1513SOL    HW216002   2.828   2.481   9.019  0.8453 -1.0929  1.2286
 1514SOL     OW16003   3.735   0.746   3.537  0.5362  0.2314  0.0501
 1514SOL    HW116004   3.674   0.673   3.552 -0.0852  0.9649  1.0700
 1514SOL    HW216005   3.673   0.811   3.506  0.3447 -0.5216 -1.1679
 1515SOL     OW16006   2.750   0.257   2.166 -0.5114 -0.1785 -0.0981
 1515SOL    HW116007   2.773   0.238   2.075  1.0104 -3.6287  1.0146
 1515SOL    HW216008   2.763   0.352   2.165 -0.0279 -0.2392  1.4941
 1516SOL     OW16009   0.849   1.661   6.267 -0.5650  0.2355 -0.1891
 1516SOL    HW116010   0.774   1.717   6.251 -0.6245  0.6154  1.3593
 1516SOL    HW216011   0.904   1.730   6.306 -1.7499  1.1123 -0.0833
 1517SOL     OW16012   1.711   1.903   1.763  0.1918  1.1445 -0.2276
 1517SOL    HW116013   1.702   1.915   1.857  0.8020 -0.4018  0.0377
 1517SOL    HW216014   1.757   1.818   1.761  1.8857  2.0480  0.1673
 1518SOL     OW16015   4.101   0.518   8.397 -0.2495 -0.3362  0.3001
 1518SOL    HW116016   4.022   0.571   8.386 -1.0051 -2.2915 -3.5492
 1518SOL    HW216017   4.174   0.581   8.389  0.7674 -1.2922  2.0860
 1519SOL     OW16018   3.609   0.944   9.211  0.2921  0.2560 -0.3365
 1519SOL    HW116019   3.607   1.035   9.238 -0.3891  0.3292 -0.6371
 1519SOL    HW216020   3.517   0.929   9.229  0.6132 -0.9495  0.3139
 1520SOL     OW16021   2.097   4.142   3.825  0.5872  0.3572  0.7688
 1520SOL    HW116022   2.005   4.116   3.818  0.5760  0.3508  0.9542
 1520SOL    HW216023   2.134   4.103   3.745 -1.7153 -0.5233  0.1412
 1521SOL     OW16024   1.884   2.290   0.938 -0.3448  0.7126  0.4406
 1521SOL    HW116025   1.860   2.273   0.847  0.0646 -0.7776  0.6162
 1521SOL    HW216026   1.853   2.210   0.979  0.1645  0.6752  0.7570
 1522SOL     OW16027   2.325   3.472   6.725 -0.3618  0.4094 -0.3117
 1522SOL    HW116028   2.243   3.423   6.735 -0.3931  0.3604 -0.8368
 1522SOL    HW216029   2.337   3.476   6.630  0.8583 -2.4430 -0.2828
 1523SOL     OW16030   4.435   0.288   4.208  0.2716  0.1131  0.3308
 1523SOL    HW116031   4.352   0.325   4.179 -0.9428 -3.2649 -0.5141
 1523SOL    HW216032   4.431   0.331   4.293 -0.7669 -0.5740  0.6231
 1524SOL     OW16033   1.844   2.953   7.146 -0.1153  0.0762  0.0578
 1524SOL    HW116034   1.802   2.936   7.062  1.6842  1.2631 -1.0911
 1524SOL    HW216035   1.863   3.047   7.137  0.4369 -0.1059 -0.6184
 1525SOL     OW16036   4.322   3.561  11.853  0.1335 -0.0131  0.3975
 1525SOL    HW116037   4.240   3.607  11.838 -0.6990 -1.2893  0.9907
 1525SOL    HW216038   4.308   3.485  11.797 -0.6212 -0.0928  0.6922
 1526SOL     OW16039   3.458   0.852   1.705 -0.3570 -0.7929  0.1411
 1526SOL    HW116040   3.471   0.905   1.783 -2.2022  0.8991 -0.6773
 1526SOL    HW216041   3.372   0.884   1.678  1.5056  4.7328  0.7979
 1527SOL     OW16042   0.606   1.710  16.649  0.1637 -0.1563 -0.5179
 1527SOL    HW116043   0.612   1.644  16.717  0.3322  1.9071  1.4786
 1527SOL    HW216044   0.523   1.755  16.668  0.8194  1.5449 -1.6378
 1528SOL     OW16045   2.195   3.537   1.119  0.2034  0.2692 -0.0838
 1528SOL    HW116046   2.141   3.533   1.040 -1.0692 -2.4573  0.9193
 1528SOL    HW216047   2.246   3.455   1.124 -1.4567 -0.7490  0.1087
 1529SOL     OW16048   3.100   2.296   2.385 -0.3307 -0.5674 -0.6566
 1529SOL    HW116049   3.094   2.391   2.392 -2.2488 -0.5976 -1.9574
 1529SOL    HW216050   3.056   2.268   2.465 -1.7164 -0.1058 -1.2700
 1530SOL     OW16051   1.582   3.668   1.027 -0.3705  1.0797 -0.3857
 1530SOL    HW116052   1.498   3.693   1.067  0.2579 -0.9553  2.2167
 1530SOL    HW216053   1.570   3.576   1.005  1.9242  1.0309 -1.4353
 1531SOL     OW16054   3.262   3.362   5.399 -0.3303 -0.4680  0.0579
 1531SOL    HW116055   3.306   3.430   5.450 -0.8381 -0.1790  0.1091
 1531SOL    HW216056   3.172   3.363   5.431 -0.3880 -1.6323 -0.0873
 1532SOL     OW16057   0.406   3.498   9.478  0.4596  0.5068  0.3548
 1532SOL    HW116058   0.422   3.428   9.414  0.3790  0.7121  0.1109
 1532SOL    HW216059   0.495   3.521   9.503  0.4172 -0.1278  1.1020
 1533SOL     OW16060   4.118   4.295   0.617 -0.5916 -0.0342 -0.9108
 1533SOL    HW116061   4.030   4.273   0.648  0.5322 -0.4261  1.9669
 1533SOL    HW216062   4.170   4.315   0.695  0.3413  0.2919 -1.6234
 1534SOL     OW16063   4.354   2.632   5.946 -0.0391 -0.5898 -0.1212
 1534SOL    HW116064   4.359   2.541   5.975  0.4934 -0.5775 -0.1867
 1534SOL    HW216065   4.397   2.672   6.022 -0.0947 -0.9643  0.1101
 1535SOL     OW16066   4.711   2.710  17.190 -0.5916 -0.6368 -0.6752
 1535SOL    HW116067   4.650   2.684  17.259 -0.0185  1.0411  0.4591
 1535SOL    HW216068   0.025   2.624  17.173 -0.8766 -0.9188  0.1065
 1536SOL     OW16069   1.188   4.578   4.719  0.4399  0.1133 -0.6338
 1536SOL    HW116070   1.246   4.654   4.726  0.7506 -0.0949 -0.9601
 1536SOL    HW216071   1.109   4.620   4.754  1.1095  1.4435 -0.6936
 1537SOL     OW16072   1.123   1.166   8.821  0.4459 -0.1912 -0.3109
 1537SOL    HW116073   1.177   1.230   8.866  2.7459 -2.6937  0.5102
 1537SOL    HW216074   1.037   1.180   8.861 -0.0983 -1.1068 -1.1476
 1538SOL     OW16075   2.845   1.287   5.841  0.2319  0.3958  0.4414
 1538SOL    HW116076   2.871   1.379   5.835  0.1149  0.3252 -1.0262
 1538SOL    HW216077   2.797   1.286   5.924 -0.0782  2.2945  0.2882
 1539SOL     OW16078   2.026   4.345   8.981 -0.1430 -0.2936  0.0285
 1539SOL    HW116079   1.979   4.396   9.047  2.3401  0.2753  1.3590
 1539SOL    HW216080   2.117   4.369   9.000  0.3270 -1.3896 -0.8395
 1540SOL     OW16081   0.453   4.721   8.785 -0.1072  0.6116 -0.2852
 1540SOL    HW116082   0.542   4.685   8.781 -0.5744 -0.6716  0.6539
 1540SOL    HW216083   0.440   0.012   8.878 -1.2815 -1.7212 -0.0085
 1541SOL     OW16084   3.324   0.857   1.099  0.1471 -0.0523 -0.6023
 1541SOL    HW116085   3.415   0.839   1.121 -0.3902 -1.5786  0.4277
 1541SOL    HW216086   3.300   0.928   1.158 -0.5331 -1.9712  1.4692
 1542SOL     OW16087   3.955   0.982  11.756 -1.1207 -0.1017  0.2420
 1542SOL    HW116088   3.989   1.068  11.732 -1.4551 -0.4374 -1.4624
 1542SOL    HW216089   3.883   0.987  11.693 -0.9559  0.5787  0.1076
 1543SOL     OW16090   2.651   0.095   8.367 -0.3384 -0.6928 -0.1384
 1543SOL    HW116091   2.703   0.171   8.341 -0.4171 -0.0364  1.6242
 1543SOL    HW216092   2.584   0.133   8.422  0.1708  1.6389 -1.1286
 1544SOL     OW16093   0.667   0.317   9.120  0.4005 -0.2616 -0.1704
 1544SOL    HW116094   0.573   0.324   9.103  0.3226  2.1389  1.2390
 1544SOL    HW216095   0.693   0.409   9.113  1.1214 -0.3943  0.8822
 1545SOL     OW16096   3.525   2.542   5.870  0.0004 -0.3813 -0.2232
 1545SOL    HW116097   3.555   2.547   5.960  0.0943  0.6074 -0.3149
 1545SOL    HW216098   3.498   2.450   5.867  1.6306 -0.9211  1.8149
 1546SOL     OW16099   4.150   3.332  10.577  0.0884 -0.3352  0.2149
 1546SOL    HW116100   4.151   3.400  10.644 -0.9123 -0.0145 -0.0894
 1546SOL    HW216101   4.056   3.316  10.573  0.1337 -0.2367 -1.3748
 1547SOL     OW16102   2.166   0.968   8.528 -0.4536  0.5949 -0.3170
 1547SOL    HW116103   2.179   0.942   8.619 -2.4690  0.3187 -0.1180
 1547SOL    HW216104   2.219   1.048   8.527 -1.6176  1.3705 -0.4804
 1548SOL     OW16105   2.061   1.086   6.320 -0.4610 -0.5183 -0.2122
 1548SOL    HW116106   2.143   1.073   6.367 -0.2246 -0.6487 -0.6633
 1548SOL    HW216107   2.090   1.162   6.269 -2.2891 -0.2758 -0.8874
 1549SOL     OW16108   3.371   0.310  16.240  0.1669 -0.3242 -0.9457
 1549SOL    HW116109   3.343   0.285  16.328  0.1535 -2.7028 -1.6343
 1549SOL    HW216110   3.367   0.406  16.234  1.0284 -0.1734  0.9606
 1550SOL     OW16111   0.306   2.485   0.948  0.4947 -0.4758  0.4515
 1550SOL    HW116112   0.389   2.519   0.981  0.8332 -0.8736  0.0080
 1550SOL    HW216113   0.332   2.400   0.910 -3.4791 -0.2731 -2.7586
 1551SOL     OW16114   1.918   4.134  11.073  0.0920 -0.3906  0.0849
 1551SOL    HW116115   1.905   4.224  11.043 -1.7179 -0.3455  0.9790
 1551SOL    HW216116   1.969   4.145  11.153 -1.8632 -2.3967  1.6234
 1552SOL     OW16117   4.138   2.412  12.385  0.0834  0.2811  0.1478
 1552SOL    HW116118   4.068   2.354  12.353  1.1020 -0.2927 -1.0160
 1552SOL    HW216119   4.163   2.359  12.460  0.6137  0.5588  0.1659
 1553SOL     OW16120   2.933   3.549  13.348 -0.6966 -0.1280  0.1706
 1553SOL    HW116121   2.928   3.454  13.358  0.5161 -0.1299  0.7660
 1553SOL    HW216122   3.027   3.557  13.328 -0.2118 -0.8691  2.1449
 1554SOL     OW16123   3.477   4.395  16.183  0.1145  0.2033 -0.1052
 1554SOL    HW116124   3.566   4.424  16.163 -0.5892  1.6595 -1.1092
 1554SOL    HW216125   3.429   4.473  16.208  0.1057  0.4489 -0.8651
 1555SOL     OW16126   0.928   1.304   4.241 -0.7080  0.3608 -0.2207
 1555SOL    HW116127   0.850   1.248   4.241 -0.6206  0.2348  0.6163
 1555SOL    HW216128   0.945   1.317   4.148 -0.1186  1.3672  0.0311
 1556SOL     OW16129   2.051   2.041   7.484 -0.1601  0.2448 -0.6688
 1556SOL    HW116130   2.013   2.104   7.545  3.8837  1.2492  0.7988
 1556SOL    HW216131   1.998   1.962   7.489  1.6936 -1.0363 -1.4037
 1557SOL     OW16132   1.639   3.090   7.435 -0.3914  0.3752  0.1043
 1557SOL    HW116133   1.614   3.137   7.356  0.9678 -0.9027 -1.0770
 1557SOL    HW216134   1.674   3.159   7.492 -1.8236  0.8251  0.4462
 1558SOL     OW16135   2.728   0.207  16.423  0.0751 -0.3117  0.3347
 1558SOL    HW116136   2.686   0.157  16.492  0.5986 -0.8962  0.2264
 1558SOL    HW216137   2.670   0.283  16.411  0.6947  0.2073  0.6022
 1559SOL     OW16138   0.526   0.232   6.593  0.0023 -0.4795  0.6161
 1559SOL    HW116139   0.546   0.280   6.512 -2.9131 -0.7427 -0.2469
 1559SOL    HW216140   0.584   0.156   6.594  0.2349 -0.3108 -2.3189
 1560SOL     OW16141   2.880   3.663   4.716  0.3138 -0.1337  0.0780
 1560SOL    HW116142   2.938   3.589   4.737  0.4433  0.5005  1.9789
 1560SOL    HW216143   2.806   3.618   4.675  1.4422 -2.0495  0.1496
 1561SOL     OW16144   2.167   3.557   5.125  0.4464  0.1383  0.2769
 1561SOL    HW116145   2.169   3.556   5.029 -2.7262 -0.7953  0.2235
 1561SOL    HW216146   2.145   3.466   5.142  1.3843  0.0407  1.0000
 1562SOL     OW16147   3.399   1.676  10.024  0.1801  0.3477  0.3357
 1562SOL    HW116148   3.400   1.701   9.931 -0.0529 -0.2768  0.1648
 1562SOL    HW216149   3.434   1.587  10.028 -2.0661 -0.6357 -1.9576
 1563SOL     OW16150   0.212   1.077   0.447  0.0160 -0.0040 -0.2144
 1563SOL    HW116151   0.247   1.163   0.469  0.0900  0.0843 -0.6831
 1563SOL    HW216152   0.129   1.076   0.494  0.5286  0.0764  0.6844
 1564SOL     OW16153   1.276   3.307   2.515  0.2954 -0.4173 -0.4699
 1564SOL    HW116154   1.186   3.333   2.497  0.1211  0.2721  1.3549
 1564SOL    HW216155   1.308   3.253   2.443 -4.3348 -1.9715 -1.3437
 1565SOL     OW16156   4.571   0.307   5.669 -0.0806 -0.1095  0.0399
 1565SOL    HW116157   4.645   0.363   5.643 -2.3204  2.0164 -1.7863
 1565SOL    HW216158   4.514   0.296   5.592 -1.3911 -0.4056  1.0547
 1566SOL     OW16159   1.523   1.771   9.510  0.0190 -0.0273  0.3205
 1566SOL    HW116160   1.526   1.793   9.417  1.7465 -0.6212  0.2286
 1566SOL    HW216161   1.595   1.824   9.546  1.3552 -2.7156  1.5615
 1567SOL     OW16162   1.542   2.940  17.087  0.0333 -0.0163 -0.0619
 1567SOL    HW116163   1.629   2.978  17.096  0.0425 -0.4101  1.3483
 1567SOL    HW216164   1.548   2.888  17.007 -0.0056  1.1493 -0.8392
 1568SOL     OW16165   2.140   1.657  15.056 -0.1045 -0.5476  0.3322
 1568SOL    HW116166   2.059   1.648  15.006  1.2371  0.3162 -2.0203
 1568SOL    HW216167   2.125   1.730  15.116  0.4113 -0.1386 -0.0342
 1569SOL     OW16168   0.071   3.882   4.917 -0.3298 -0.1435  0.1576
 1569SOL    HW116169   0.064   3.793   4.883 -0.7968  0.1523 -0.5190
 1569SOL    HW216170   0.052   3.854   5.006 -0.8612 -0.0929  0.0558
 1570SOL     OW16171   3.861   3.806   7.258  0.1174 -0.1796 -0.5551
 1570SOL    HW116172   3.901   3.893   7.269 -0.1156 -0.1324 -0.0986
 1570SOL    HW216173   3.770   3.827   7.237 -0.7996 -2.9736  0.7508
 1571SOL     OW16174   3.954   1.737  17.167 -0.6283 -0.3559 -0.0180
 1571SOL    HW116175   3.942   1.679  17.092  2.5726 -0.0374 -0.7705
 1571SOL    HW216176   4.037   1.695  17.190  1.0105  3.5555  1.2585
 1572SOL     OW16177   1.889   0.979   8.462 -0.5137  0.4234 -0.0910
 1572SOL    HW116178   1.981   0.974   8.489 -0.1179  1.9481 -1.1653
 1572SOL    HW216179   1.903   0.954   8.370  3.1626 -1.5966  1.0355
 1573SOL     OW16180   4.438   1.489   7.270 -0.2168  0.2485 -0.5886
 1573SOL    HW116181   4.391   1.414   7.233 -2.2209  1.4289 -0.4691
 1573SOL    HW216182   4.492   1.467   7.345  0.5252  2.1589 -0.5518
 1574SOL     OW16183   3.781   2.270   5.622 -0.0556  0.6052  0.1026
 1574SOL    HW116184   3.816   2.338   5.565 -1.7387 -0.3903 -2.1437
 1574SOL    HW216185   3.704   2.238   5.574  0.4172  1.1543 -1.0148
 1575SOL     OW16186   4.035   0.547   7.563  0.4593  0.6966  0.2789
 1575SOL    HW116187   4.016   0.587   7.648  2.0920  2.2366 -0.0808
 1575SOL    HW216188   4.031   0.620   7.501  2.5456 -0.6776 -1.4319
 1576SOL     OW16189   3.504   3.887   4.422  0.4777 -0.2256  0.2049
 1576SOL    HW116190   3.512   3.964   4.365  1.9673 -0.4700  0.0714
 1576SOL    HW216191   3.596   3.861   4.416  0.3569 -0.9401  1.4229
 1577SOL     OW16192   4.082   3.744   9.476 -0.0209 -0.1014 -0.0431
 1577SOL    HW116193   4.166   3.784   9.498 -0.1143  0.2932 -0.3913
 1577SOL    HW216194   4.026   3.822   9.471  3.0216  2.1149  0.2479
 1578SOL     OW16195   1.872   1.185  11.097 -0.0668  0.6243  0.5285
 1578SOL    HW116196   1.872   1.154  11.187 -0.7110  0.8042  0.5936
 1578SOL    HW216197   1.862   1.280  11.091 -0.6429  0.4866 -0.8004
 1579SOL     OW16198   0.495   2.303  12.285 -0.3699  0.1998 -0.6842
 1579SOL    HW116199   0.536   2.327  12.202  1.3289 -0.8604 -0.1595
 1579SOL    HW216200   0.527   2.213  12.292 -0.5892  0.0179 -1.9523
 1580SOL     OW16201   0.413   4.473   9.163 -0.1451 -0.3859  0.3429
 1580SOL    HW116202   0.407   4.455   9.256  0.0668 -1.1144  0.2190
 1580SOL    HW216203   0.448   4.389   9.132 -3.1695 -0.6652 -2.3374
 1581SOL     OW16204   3.414   3.133   5.264  0.3422 -0.0532 -0.2883
 1581SOL    HW116205   3.355   3.186   5.319  0.1202  1.4034 -1.9341
 1581SOL    HW216206   3.434   3.061   5.324  1.2906 -0.6154 -1.2992
 1582SOL     OW16207   3.680   0.878   7.164  0.2156  0.0152  0.2176
 1582SOL    HW116208   3.702   0.800   7.114  1.8719  1.3457 -1.1411
 1582SOL    HW216209   3.703   0.952   7.108  0.9619 -0.1640  0.2939
 1583SOL     OW16210   2.430   1.891   4.666 -0.0171  0.9459  0.5609
 1583SOL    HW116211   2.524   1.910   4.673  0.9687 -3.2692 -1.1752
 1583SOL    HW216212   2.419   1.894   4.571 -1.3426  0.0512  0.6874
 1584SOL     OW16213   1.027   3.548   3.186  0.5455  0.4618 -0.5892
 1584SOL    HW116214   0.948   3.530   3.236  2.3592 -0.7082  1.8642
 1584SOL    HW216215   1.093   3.508   3.242 -0.7689  2.0768  2.0930
 1585SOL     OW16216   0.191   0.671   8.985 -0.1015 -0.2015 -0.0092
 1585SOL    HW116217   0.118   0.634   9.034 -0.5186 -1.2499 -1.4497
 1585SOL    HW216218   0.244   0.703   9.058  1.2863 -1.5188 -0.4284
 1586SOL     OW16219   2.450   1.561  10.392 -0.3474  0.0849 -0.6590
 1586SOL    HW116220   2.503   1.483  10.376 -0.3366 -0.0610  0.1187
 1586SOL    HW216221   2.363   1.532  10.363 -0.9326 -0.3060  1.5299
 1587SOL     OW16222   3.751   3.416   9.186  0.4345  0.1566  0.1317
 1587SOL    HW116223   3.739   3.330   9.226 -1.4135  0.5389  0.3828
 1587SOL    HW216224   3.720   3.475   9.253  1.1372  0.2231  0.4011
 1588SOL     OW16225   4.723   3.679  13.829 -0.3803  0.7836 -0.1420
 1588SOL    HW116226   0.007   3.618  13.757 -0.6959 -0.7117  1.0687
 1588SOL    HW216227   4.709   3.765  13.789  2.2208 -0.1126 -2.9560
 1589SOL     OW16228   3.631   1.549   2.210 -0.3152 -0.0138 -0.0003
 1589SOL    HW116229   3.711   1.594   2.235 -0.5235  0.4294 -0.1314
 1589SOL    HW216230   3.580   1.625   2.183  0.3587  0.8098  1.0271
 1590SOL     OW16231   3.477   0.354  10.502 -0.3451 -0.0235 -0.1850
 1590SOL    HW116232   3.414   0.288  10.530  3.0226 -2.1277  2.4960
 1590SOL    HW216233   3.469   0.420  10.571 -1.1236  0.0868 -0.3854
 1591SOL     OW16234   3.559   3.913   6.892  0.3885 -0.1910 -0.2370
 1591SOL    HW116235   3.474   3.913   6.849  0.4980  1.2022 -0.4370
 1591SOL    HW216236   3.547   3.831   6.940  0.2586 -0.2484 -0.3683
 1592SOL     OW16237   1.532   2.812  16.819  0.0480  0.2291 -0.5122
 1592SOL    HW116238   1.495   2.820  16.731 -1.7945  1.6669  0.4056
 1592SOL    HW216239   1.477   2.736  16.839  0.1653  0.2452 -0.1338
 1593SOL     OW16240   2.930   3.536   9.410  0.4199 -0.2339  0.2517
 1593SOL    HW116241   2.992   3.464   9.398 -0.1061 -0.5995 -0.2597
 1593SOL    HW216242   2.915   3.538   9.504 -1.7626 -1.2367 -0.0745
 1594SOL     OW16243   4.451   1.064  16.055 -0.2188 -0.9312  0.4508
 1594SOL    HW116244   4.524   1.126  16.056 -0.9870 -0.0323 -0.4680
 1594SOL    HW216245   4.393   1.114  15.998 -0.1039 -0.0000  1.1496
 1595SOL     OW16246   2.982   2.123   5.447 -0.1336 -0.6546 -0.2275
 1595SOL    HW116247   2.917   2.145   5.381  2.5371  2.4643 -1.8327
 1595SOL    HW216248   3.019   2.208   5.473  1.5948 -1.4253 -0.1497
 1596SOL     OW16249   0.440   4.401   0.510  0.3298 -0.3763 -0.6274
 1596SOL    HW116250   0.379   4.419   0.582  1.1589 -2.5478  0.6204
 1596SOL    HW216251   0.524   4.405   0.556  0.1207  2.3116 -0.4592
 1597SOL     OW16252   0.547   1.265   6.538 -0.4675  0.3390 -0.0663
 1597SOL    HW116253   0.547   1.316   6.457 -2.3594  0.4867  0.0411
 1597SOL    HW216254   0.640   1.262   6.562  0.0338 -0.2397 -2.0478
 1598SOL     OW16255   3.609   4.374   6.424  0.3170 -0.4677 -0.6684
 1598SOL    HW116256   3.653   4.293   6.453  2.0822  1.0184  0.7955
 1598SOL    HW216257   3.684   4.404   6.373  0.7276 -2.1474 -1.0518
 1599SOL     OW16258   4.149   1.649   5.738 -0.2351 -0.6389  0.1421
 1599SOL    HW116259   4.109   1.657   5.652 -0.9653 -0.0079  0.5435
 1599SOL    HW216260   4.070   1.630   5.789 -0.9508  1.4274 -0.2024
 1600SOL     OW16261   1.396   3.808  14.420 -0.3855  0.5135  0.5928
 1600SOL    HW116262   1.348   3.725  14.425 -0.6020  0.7506  2.6892
 1600SOL    HW216263   1.328   3.858  14.466 -0.1500  2.0853 -0.7738
 1601SOL     OW16264   3.415   3.500   4.076 -0.3025 -0.8503 -0.0521
 1601SOL    HW116265   3.351   3.555   4.122  0.8921  0.9710 -0.5623
 1601SOL    HW216266   3.360   3.427   4.047  1.5018 -3.2241  2.5261
 1602SOL     OW16267   2.528   1.077   9.265  0.1073 -0.4850 -0.0025
 1602SOL    HW116268   2.507   1.055   9.356  0.7195  1.8940  0.7384
 1602SOL    HW216269   2.438   1.093   9.237  1.4828  4.1892 -1.7288
 1603SOL     OW16270   1.290   4.466   7.670 -0.6476  0.2536 -0.3222
 1603SOL    HW116271   1.282   4.548   7.620  0.7370 -1.1543 -2.8674
 1603SOL    HW216272   1.206   4.452   7.712  0.2894 -0.6022  1.2678
 1604SOL     OW16273   2.342   0.280   5.598 -0.0354 -0.4006 -0.2123
 1604SOL    HW116274   2.316   0.326   5.518 -1.4103  0.3419  0.6526
 1604SOL    HW216275   2.260   0.278   5.649  0.4373  0.8440  0.6106
 1605SOL     OW16276   4.081   1.505   6.823 -0.2678 -0.1263 -0.4217
 1605SOL    HW116277   4.043   1.571   6.766  1.5760  2.5180  1.3979
 1605SOL    HW216278   4.171   1.505   6.793  0.0208  0.1708  0.4412
 1606SOL     OW16279   3.130   1.006   3.610  0.2010  0.3837 -0.3422
 1606SOL    HW116280   3.220   0.983   3.632  0.2627 -0.4290 -1.4595
 1606SOL    HW216281   3.144   1.026   3.517 -0.1343 -0.7420 -0.6317
 1607SOL     OW16282   0.890   4.288   8.462 -0.4242  0.3751 -0.0287
 1607SOL    HW116283   0.889   4.366   8.518  1.4659 -0.5933  1.3576
 1607SOL    HW216284   0.803   4.291   8.422  1.5371  1.4340 -4.1925
 1608SOL     OW16285   3.558   0.361   3.992 -0.5357 -0.4896  0.2259
 1608SOL    HW116286   3.496   0.324   3.929 -2.0519  1.0235  0.8166
 1608SOL    HW216287   3.595   0.279   4.025  1.0416 -0.2225 -0.8695
 1609SOL     OW16288   1.273   0.879   3.390 -0.0692  0.7227  0.5915
 1609SOL    HW116289   1.365   0.884   3.415 -0.5385  1.4487  2.1993
 1609SOL    HW216290   1.264   0.790   3.357 -0.5166  0.4491  1.4545
 1610SOL     OW16291   3.427   3.730   3.800  0.0819 -0.0012  0.2114
 1610SOL    HW116292   3.407   3.646   3.759  1.6431  1.0313 -2.6723
 1610SOL    HW216293   3.501   3.714   3.859 -0.1271  2.1277  1.0480
 1611SOL     OW16294   1.293   2.862   1.324 -0.6611  0.3739  0.5962
 1611SOL    HW116295   1.210   2.820   1.303 -0.3187 -1.2708  2.4514
 1611SOL    HW216296   1.280   2.940   1.271  0.1988 -0.1867 -0.4311
 1612SOL     OW16297   2.348   1.986   3.533  0.5704 -0.1094  0.4140
 1612SOL    HW116298   2.275   1.969   3.474  0.8776 -2.0548  0.5828
 1612SOL    HW216299   2.420   1.961   3.474  2.7017 -0.0468  2.9836
 1613SOL     OW16300   4.658   2.312   7.210  0.0782 -0.4846  0.1497
 1613SOL    HW116301   0.016   2.287   7.172  0.8767 -1.2032  2.3736
 1613SOL    HW216302   4.681   2.393   7.256 -2.1923  1.1559 -1.5812
 1614SOL     OW16303   4.373   1.703   2.222  0.0445 -0.2540  0.4059
 1614SOL    HW116304   4.318   1.782   2.224  1.2300  0.5286  2.1186
 1614SOL    HW216305   4.318   1.641   2.174  0.4695  0.0661 -0.4828
 1615SOL     OW16306   3.458   4.311   7.270  0.1450 -0.1385 -0.2720
 1615SOL    HW116307   3.470   4.391   7.322 -0.4985  1.0026 -1.8929
 1615SOL    HW216308   3.532   4.326   7.211  1.1698 -2.3967  0.4400
 1616SOL     OW16309   2.843   1.091   0.063  0.3033  0.3633  0.1744
 1616SOL    HW116310   2.865   1.038   0.140  0.0759  0.6624  0.4484
 1616SOL    HW216311   2.781   1.153   0.102  1.6780  0.5521  2.1007
 1617SOL     OW16312   4.202   4.355   2.455  0.4731  0.5115 -0.2256
 1617SOL    HW116313   4.194   4.339   2.549 -0.9066 -2.0685 -0.7897
 1617SOL    HW216314   4.205   4.264   2.427 -0.6417 -0.4362  2.8343
 1618SOL     OW16315   4.490   2.697  17.360 -0.0265 -0.2017 -0.3851
 1618SOL    HW116316   4.411   2.703  17.305 -0.8467  1.4001  0.9489
 1618SOL    HW216317   4.501   2.789  17.383  1.3745 -0.5963  0.4810
 1619SOL     OW16318   2.716   2.455   7.151 -0.2273 -0.2379 -0.1002
 1619SOL    HW116319   2.807   2.427   7.141  0.5040  1.8118  0.9004
 1619SOL    HW216320   2.720   2.546   7.180 -0.6688 -0.3688  0.3712
 1620SOL     OW16321   2.939   1.828   8.522 -0.2643  0.8689  0.2890
 1620SOL    HW116322   2.931   1.913   8.479 -0.1353  1.2869  1.0855
 1620SOL    HW216323   2.903   1.842   8.610  0.9302 -0.3043  0.9712
 1621SOL     OW16324   1.290   4.715   1.846  0.1784 -0.0563  0.3314
 1621SOL    HW116325   1.249   4.705   1.932 -0.0783 -2.0328 -0.0196
 1621SOL    HW216326   1.230   0.055   1.813  1.3175  1.2276  0.8045
 1622SOL     OW16327   1.354   1.567   5.392 -0.1902  0.8972  0.1780
 1622SOL    HW116328   1.349   1.523   5.307  0.9465 -3.0739  2.2135
 1622SOL    HW216329   1.294   1.512   5.442  1.9883 -2.2890 -0.7260
 1623SOL     OW16330   1.499   2.813   7.342 -0.6945 -0.3570 -0.2916
 1623SOL    HW116331   1.451   2.813   7.424 -2.1174 -1.3703 -1.1114
 1623SOL    HW216332   1.562   2.884   7.353  0.8980 -1.3887 -2.5396
 1624SOL     OW16333   3.520   0.240   7.055 -0.4160  0.5100 -0.3259
 1624SOL    HW116334   3.564   0.248   7.140 -1.1610  1.2859 -0.0182
 1624SOL    HW216335   3.592   0.231   6.992 -0.3705  2.8626 -0.6179
 1625SOL     OW16336   1.442   1.539   6.394 -0.4133 -0.4553  0.3431
 1625SOL    HW116337   1.508   1.520   6.328 -1.4264  0.4080 -0.9256
 1625SOL    HW216338   1.362   1.514   6.347 -0.8901  0.0445  0.8844
 1626SOL     OW16339   4.710   0.247  16.857  0.5076 -0.3108 -0.1503
 1626SOL    HW116340   4.664   0.320  16.899  0.0865 -0.9504  0.5005
 1626SOL    HW216341   0.024   0.289  16.781  1.2418  1.3150  1.0956
 1627SOL     OW16342   0.408   0.672  13.072  0.5881 -0.3170 -0.3002
 1627SOL    HW116343   0.472   0.613  13.032 -0.9391 -1.4195 -1.1021
 1627SOL    HW216344   0.458   0.753  13.072  0.0062  0.0500  0.7469
 1628SOL     OW16345   0.340   3.784   7.490  0.0790  0.9391 -0.1688
 1628SOL    HW116346   0.346   3.788   7.395  1.6044 -1.3839 -0.1611
 1628SOL    HW216347   0.336   3.690   7.508  1.4812  0.9569  0.2283
 1629SOL     OW16348   4.219   0.202   0.514  0.1974 -0.2126 -0.1465
 1629SOL    HW116349   4.304   0.218   0.472  0.1076 -0.2574 -0.3488
 1629SOL    HW216350   4.237   0.123   0.564 -2.1096  0.0010  1.0301
 1630SOL     OW16351   1.684   3.734   8.702 -0.3774  0.0188  0.7343
 1630SOL    HW116352   1.682   3.799   8.633 -0.3237 -0.8274 -0.0655
 1630SOL    HW216353   1.679   3.651   8.655 -1.8630  0.4284  0.1943
 1631SOL     OW16354   4.045   1.386  11.709  0.4593  0.0800  0.1003
 1631SOL    HW116355   4.067   1.444  11.782 -1.3209  2.3140 -1.1434
 1631SOL    HW216356   4.118   1.324  11.707 -0.8336 -1.4603  1.1780
 1632SOL     OW16357   3.857   4.170   5.894 -0.0835 -0.3829  0.1053
 1632SOL    HW116358   3.901   4.088   5.916 -0.8330 -1.1187 -1.1000
 1632SOL    HW216359   3.931   4.230   5.899  0.2065 -0.6480 -0.9501
 1633SOL     OW16360   0.287   4.328  14.891 -0.8785  0.1463  0.4733
 1633SOL    HW116361   0.332   4.327  14.806 -2.3476  0.2278 -0.3138
 1633SOL    HW216362   0.193   4.336  14.873 -0.8161  0.3256  0.2209
 1634SOL     OW16363   1.841   2.828   8.496  0.0328  0.2275  0.7852
 1634SOL    HW116364   1.822   2.760   8.431 -0.5319 -0.0664  1.2442
 1634SOL    HW216365   1.901   2.888   8.453 -0.2111 -1.3743 -1.7803
 1635SOL     OW16366   1.985   1.662   5.607  0.5809 -0.0318  0.5655
 1635SOL    HW116367   2.043   1.589   5.585 -2.9281 -2.8066  0.5395
 1635SOL    HW216368   1.899   1.621   5.608 -0.7571  2.7659  1.6520
 1636SOL     OW16369   1.343   0.984  12.365 -0.1258  0.1722  0.6210
 1636SOL    HW116370   1.410   0.998  12.298 -0.7176  0.4440  0.0898
 1636SOL    HW216371   1.291   1.061  12.343  0.8381  0.2037 -1.5148
 1637SOL     OW16372   1.040   3.155   8.963 -0.0174 -0.2446  0.2375
 1637SOL    HW116373   1.007   3.161   8.874 -0.3047 -0.9312  0.2979
 1637SOL    HW216374   0.959   3.119   9.000 -1.8286  2.7842 -0.8054
 1638SOL     OW16375   4.721   0.976   7.797  0.9220  0.0412  0.4495
 1638SOL    HW116376   0.087   0.958   7.777  0.4357 -1.6352 -0.2792
 1638SOL    HW216377   4.692   0.894   7.837  1.0665 -0.1075  0.2506
 1639SOL     OW16378   0.892   3.733   4.588  0.2328 -0.2293  0.1522
 1639SOL    HW116379   0.979   3.770   4.572 -0.4508  0.8876 -0.9861
 1639SOL    HW216380   0.854   3.802   4.643 -0.1498  0.2450 -0.7042
 1640SOL     OW16381   2.774   3.960   3.337  0.0329 -0.0865  0.5791
 1640SOL    HW116382   2.860   3.975   3.374  2.4002 -2.0393 -4.0964
 1640SOL    HW216383   2.792   3.899   3.265 -2.5971  0.1685 -0.3127
 1641SOL     OW16384   2.108   2.554   5.552  0.0067 -0.8849  0.1005
 1641SOL    HW116385   2.109   2.480   5.612 -3.5822 -1.6891 -0.8202
 1641SOL    HW216386   2.102   2.625   5.615 -0.7315  0.3085 -1.2975
 1642SOL     OW16387   0.093   4.193   5.305  0.3964 -0.8321  0.2259
 1642SOL    HW116388   0.043   4.115   5.328 -1.4623  0.1888 -0.3904
 1642SOL    HW216389   0.100   4.180   5.211 -0.2036  3.9425 -0.4715
 1643SOL     OW16390   1.879   3.423   6.530  0.0466 -0.7456 -0.0226
 1643SOL    HW116391   1.878   3.508   6.574  1.3209 -1.9389  2.3044
 1643SOL    HW216392   1.833   3.452   6.452  0.0487  1.9493  0.9706
 1644SOL     OW16393   1.403   4.198  14.501 -0.3122 -0.0338  0.5290
 1644SOL    HW116394   1.388   4.172  14.410  0.8054  3.6491 -0.6706
 1644SOL    HW216395   1.425   4.113  14.539 -0.7209  0.3872  1.6928
 1645SOL     OW16396   0.373   0.347   3.260  0.2334  0.1634  0.2106
 1645SOL    HW116397   0.291   0.395   3.249 -0.2912 -0.6817  0.4096
 1645SOL    HW216398   0.405   0.385   3.341 -0.1869  0.7112  0.1188
 1646SOL     OW16399   4.363   2.381   5.332 -0.0898  0.1977  0.8287
 1646SOL    HW116400   4.344   2.401   5.424  0.6910  0.5066  0.9228
 1646SOL    HW216401   4.289   2.321   5.317  0.4060  0.2702 -1.7393
 1647SOL     OW16402   2.571   1.799  16.470 -0.4982  0.2137 -0.3896
 1647SOL    HW116403   2.512   1.737  16.511 -0.8720  1.0069  0.2647
 1647SOL    HW216404   2.632   1.745  16.420  0.4653 -0.1591  1.1981
 1648SOL     OW16405   2.493   3.393   7.257  0.1485 -0.1890 -0.0045
 1648SOL    HW116406   2.435   3.412   7.331  2.2503 -1.0959  1.8922
 1648SOL    HW216407   2.538   3.477   7.252  3.1053 -1.5630  3.3790
 1649SOL     OW16408   3.745   1.851   5.936  0.2951  0.3008  0.1507
 1649SOL    HW116409   3.676   1.833   5.872 -0.8710  1.4146  1.0776
 1649SOL    HW216410   3.808   1.906   5.890 -1.7538  0.8841 -1.9423
 1650SOL     OW16411   1.714   2.713   8.857  0.3845  0.4141  0.0888
 1650SOL    HW116412   1.647   2.655   8.821  1.2987 -0.6561  0.1378
 1650SOL    HW216413   1.782   2.676   8.801  0.3240  3.5322 -2.0228
 1651SOL     OW16414   0.356   2.135   4.267 -0.4012 -0.0004  0.1251
 1651SOL    HW116415   0.399   2.212   4.229  0.7188 -0.6169  0.1180
 1651SOL    HW216416   0.376   2.141   4.361 -0.9826  0.7370  0.1986
 1652SOL     OW16417   4.403   4.716   8.650  0.6123 -0.5952 -0.1309
 1652SOL    HW116418   4.374   0.043   8.576 -1.0599  2.1990  2.4669
 1652SOL    HW216419   4.492   4.692   8.624  0.8096 -0.1344  0.1035
 1653SOL     OW16420   1.079   0.876  10.028 -0.0059 -0.0695 -0.4017
 1653SOL    HW116421   1.107   0.947  10.085  2.5357 -1.7836  0.4856
 1653SOL    HW216422   0.987   0.868  10.052 -0.5098 -1.0453 -2.7449
 1654SOL     OW16423   2.741   0.618   3.489  0.1969 -0.2149  0.6063
 1654SOL    HW116424   2.646   0.614   3.489  0.2729 -2.1314 -1.4137
 1654SOL    HW216425   2.762   0.698   3.441  2.9699 -1.1239  0.2813
 1655SOL     OW16426   2.823   3.025  10.980 -0.0222 -0.0959 -0.0424
 1655SOL    HW116427   2.781   2.975  11.050 -0.7250  2.1772  1.1518
 1655SOL    HW216428   2.777   3.109  10.970  1.6482  0.7263 -0.8133
 1656SOL     OW16429   0.501   2.583   2.794 -0.1698 -0.3289 -0.2352
 1656SOL    HW116430   0.520   2.642   2.721 -0.5323  0.0788 -0.0015
 1656SOL    HW216431   0.413   2.618   2.805 -0.2530 -0.3443 -0.8803
 1657SOL     OW16432   3.303   3.453   8.956  0.2993  0.9262  0.0859
 1657SOL    HW116433   3.373   3.516   8.970  1.2013 -0.1607  0.4771
 1657SOL    HW216434   3.354   3.373   8.941 -0.3739  0.3715  0.7317
 1658SOL     OW16435   2.156   2.146   7.844 -0.2138 -0.0619  0.0707
 1658SOL    HW116436   2.246   2.151   7.877 -1.1663  2.9750  2.1266
 1658SOL    HW216437   2.130   2.238   7.846  0.2220  0.0660 -0.1850
 1659SOL     OW16438   4.023   4.696   2.248 -0.6759  0.2341 -0.2831
 1659SOL    HW116439   4.084   4.671   2.317  0.9198  0.8647 -1.4492
 1659SOL    HW216440   4.068   4.669   2.167 -2.9988  3.5047 -2.6747
 1660SOL     OW16441   0.088   4.336  12.554 -0.1598  0.5206 -0.4183
 1660SOL    HW116442   0.155   4.392  12.516  0.0246  0.1392 -0.6554
 1660SOL    HW216443   0.091   4.354  12.648  1.8988  1.1450 -0.6111
 1661SOL     OW16444   0.222   3.322   9.884  0.0003 -0.0463  0.1428
 1661SOL    HW116445   0.220   3.414   9.857  0.6341  0.4394  1.7032
 1661SOL    HW216446   0.292   3.328   9.950  0.2227 -0.4999 -0.0545
 1662SOL     OW16447   3.078   3.277   5.948 -0.8376 -0.0650 -0.2169
 1662SOL    HW116448   3.114   3.258   6.035  1.3702  0.4725 -1.0198
 1662SOL    HW216449   3.106   3.194   5.908  1.1682 -0.1533  1.3384
 1663SOL     OW16450   3.121   3.006   3.527 -0.4389 -1.0143  0.3758
 1663SOL    HW116451   3.062   3.067   3.483  1.3424  0.8186  0.5303
 1663SOL    HW216452   3.063   2.953   3.581  0.1758  0.7187  2.7562
 1664SOL     OW16453   3.233   2.378   2.748 -0.6061 -0.5148 -0.1498
 1664SOL    HW116454   3.305   2.439   2.737 -0.5423 -0.4414  0.7087
 1664SOL    HW216455   3.173   2.414   2.683 -0.8072 -0.8388 -0.1484
 1665SOL     OW16456   1.204   2.464   1.485  0.3031  0.4008 -0.2588
 1665SOL    HW116457   1.280   2.423   1.527 -0.2097 -0.1157  0.1514
 1665SOL    HW216458   1.223   2.427   1.398 -1.1973 -1.5506  0.2418
 1666SOL     OW16459   1.508   0.277   5.737  0.1983 -0.2002  0.1912
 1666SOL    HW116460   1.503   0.202   5.797  2.0729  0.2159  0.8660
 1666SOL    HW216461   1.589   0.317   5.768  1.1086 -2.2560  0.4471
 1667SOL     OW16462   2.174   3.423  15.352 -0.0389  0.7803  0.0501
 1667SOL    HW116463   2.080   3.408  15.361  0.0902 -0.8721 -1.3625
 1667SOL    HW216464   2.201   3.416  15.444 -0.2088  1.3069  0.1399
 1668SOL     OW16465   2.759   2.073   0.659 -0.3172  0.0093  0.3173
 1668SOL    HW116466   2.704   2.017   0.713  0.2348 -0.3400  0.5200
 1668SOL    HW216467   2.699   2.094   0.588 -0.7270 -1.0123  0.3632
 1669SOL     OW16468   0.393   0.899   7.420  0.6037 -0.3588  0.3058
 1669SOL    HW116469   0.446   0.819   7.421  4.1150  1.9325 -0.4786
 1669SOL    HW216470   0.311   0.865   7.384  0.3626  2.0405 -1.3991
 1670SOL     OW16471   2.377   0.549   3.193  0.1262  0.5256 -0.2527
 1670SOL    HW116472   2.340   0.634   3.170  0.0724  0.8743  1.1167
 1670SOL    HW216473   2.306   0.485   3.192 -0.2603  0.9286  1.3174
 1671SOL     OW16474   0.304   1.121   6.585  0.0547 -0.0653 -0.5932
 1671SOL    HW116475   0.394   1.149   6.568  0.2698 -0.4163 -0.0023
 1671SOL    HW216476   0.293   1.074   6.502  3.7255 -0.1576 -1.0423
 1672SOL     OW16477   3.880   1.177   7.500 -0.0296 -0.1512  0.3640
 1672SOL    HW116478   3.885   1.108   7.434  0.4134  0.9087 -0.7042
 1672SOL    HW216479   3.785   1.186   7.506  0.0313  1.2318 -0.9173
 1673SOL     OW16480   1.152   0.567  11.698  0.1663 -0.2346 -0.1047
 1673SOL    HW116481   1.110   0.584  11.614  0.1817  0.2807 -0.0056
 1673SOL    HW216482   1.235   0.533  11.665  0.1673  1.8165 -2.1628
 1674SOL     OW16483   1.577   3.503   3.601 -0.0356  0.0626 -0.1342
 1674SOL    HW116484   1.530   3.574   3.646  1.7156  1.0899  0.0639
 1674SOL    HW216485   1.504   3.448   3.572  0.6404 -0.4746 -0.8170
 1675SOL     OW16486   0.274   0.298   6.557  0.2042 -0.1269  0.0303
 1675SOL    HW116487   0.366   0.284   6.579  0.8315  2.4749 -0.9276
 1675SOL    HW216488   0.269   0.227   6.493  1.0513 -0.3003  0.1576
 1676SOL     OW16489   1.417   1.417   2.655  0.2435 -0.5168 -0.0225
 1676SOL    HW116490   1.388   1.326   2.663  0.2659 -0.4753  0.5659
 1676SOL    HW216491   1.344   1.466   2.692  0.8232 -2.0197  3.1417
 1677SOL     OW16492   2.917   1.130   5.442 -0.6734 -0.3731  0.3449
 1677SOL    HW116493   2.849   1.158   5.382  1.2764  1.9135 -0.8231
 1677SOL    HW216494   2.994   1.102   5.393 -2.4640 -1.8348 -1.6378
 1678SOL     OW16495   3.024   3.941   8.787  0.1840 -0.6944  0.0113
 1678SOL    HW116496   3.033   4.030   8.753  1.6572 -0.7216  0.3257
 1678SOL    HW216497   3.115   3.915   8.797  0.6844  0.5870 -1.1479
 1679SOL     OW16498   1.362   2.039  16.475 -0.3119  0.0906  0.5267
 1679SOL    HW116499   1.446   2.029  16.521 -0.0442 -1.3674 -0.2840
 1679SOL    HW216500   1.318   2.111  16.519 -1.8117  0.4811 -1.5912
 1680SOL     OW16501   0.283   4.330   8.207  0.1759  0.4480 -0.6754
 1680SOL    HW116502   0.229   4.303   8.281 -1.0528  1.7280 -1.1081
 1680SOL    HW216503   0.338   4.398   8.245  1.7929  0.7369 -3.4916
 1681SOL     OW16504   3.348   2.621   8.816  0.7710  0.0661 -0.3921
 1681SOL    HW116505   3.405   2.570   8.759  0.8849 -0.0420 -0.1802
 1681SOL    HW216506   3.312   2.549   8.869  1.5639 -0.3949 -0.4934
 1682SOL     OW16507   1.502   1.787   2.638 -0.3765 -0.1326 -1.0636
 1682SOL    HW116508   1.427   1.785   2.697  0.2101 -2.5731 -0.4090
 1682SOL    HW216509   1.562   1.726   2.681 -1.8512 -0.6621  0.2419
 1683SOL     OW16510   4.175   0.956  12.514  0.6349 -0.3148 -0.3508
 1683SOL    HW116511   4.202   0.982  12.426  0.2391 -3.6763 -1.4875
 1683SOL    HW216512   4.227   0.875  12.519  0.9867  0.0207  1.3370
 1684SOL     OW16513   3.918   0.406  12.368  0.5707  0.6446 -0.5246
 1684SOL    HW116514   3.930   0.313  12.349 -1.0664  0.6679 -1.6352
 1684SOL    HW216515   3.933   0.443  12.282  0.6060  1.6077 -0.0975
 1685SOL     OW16516   2.857   4.277   8.897  0.0298  0.0231 -0.4308
 1685SOL    HW116517   2.936   4.310   8.938 -0.2628  1.0360 -0.6880
 1685SOL    HW216518   2.792   4.314   8.957  0.9091  1.9643 -0.6720
 1686SOL     OW16519   1.229   0.490   4.676  0.6710  0.0202  0.1869
 1686SOL    HW116520   1.143   0.510   4.713  0.0162 -1.2738 -0.6238
 1686SOL    HW216521   1.263   0.578   4.661  0.9899  0.2684  2.3218
 1687SOL     OW16522   0.769   1.587   5.674  0.5058  0.3457 -0.1059
 1687SOL    HW116523   0.739   1.561   5.762  1.5720 -2.8979 -0.7022
 1687SOL    HW216524   0.810   1.505   5.647 -4.0515 -2.0630  0.2310
 1688SOL     OW16525   2.650   3.034   3.346 -0.1908  0.2692  0.0660
 1688SOL    HW116526   2.622   2.943   3.359  1.1884  0.0065  1.2334
 1688SOL    HW216527   2.568   3.082   3.336 -0.4500  0.5247  3.3986
 1689SOL     OW16528   1.056   0.018  10.709  0.5190 -0.1140  0.1631
 1689SOL    HW116529   1.063   0.046  10.618 -1.4365  2.1504  0.7266
 1689SOL    HW216530   0.972   4.699  10.697  0.4412 -0.3982  1.8197
 1690SOL     OW16531   0.158   4.228  13.656  0.6555 -0.1222  0.5514
 1690SOL    HW116532   0.108   4.236  13.575 -0.4372  1.1320  1.3437
 1690SOL    HW216533   0.250   4.247  13.636 -0.0051  1.3804 -1.0534
 1691SOL     OW16534   4.439   1.727   5.149 -0.3107  0.4585 -0.2372
 1691SOL    HW116535   4.524   1.686   5.160 -1.1781 -1.2265  0.2689
 1691SOL    HW216536   4.414   1.754   5.238 -0.7471  0.1724 -0.2692
 1692SOL     OW16537   0.976   4.383  10.741  0.1716 -1.2134  0.4748
 1692SOL    HW116538   1.026   4.452  10.785 -0.8482 -0.9215  1.1645
 1692SOL    HW216539   0.926   4.418  10.668  1.6911  0.4200  0.2201
 1693SOL     OW16540   3.433   2.505   2.308  0.0628 -0.0949  0.1552
 1693SOL    HW116541   3.518   2.521   2.350  0.1274 -1.9858  0.7328
 1693SOL    HW216542   3.387   2.544   2.382  0.2724  0.9157 -0.2490
 1694SOL     OW16543   2.192   3.583   9.478  0.3634  0.7146  0.1859
 1694SOL    HW116544   2.232   3.631   9.550  0.5574  0.2307  0.4028
 1694SOL    HW216545   2.180   3.650   9.411 -1.4969 -0.6229 -0.8180
 1695SOL     OW16546   4.263   1.849   4.408 -0.2542 -0.1388  0.3683
 1695SOL    HW116547   4.309   1.767   4.426 -0.7402 -0.5752 -0.3773
 1695SOL    HW216548   4.174   1.828   4.435 -0.2295  1.1015  1.4037
 1696SOL     OW16549   1.652   1.564   2.694  0.6244 -0.1286  0.3447
 1696SOL    HW116550   1.571   1.515   2.685  1.0711 -0.7808 -0.1602
 1696SOL    HW216551   1.710   1.522   2.630 -0.2299 -0.5521 -0.1399
 1697SOL     OW16552   4.391   3.426   2.601 -0.2008  0.5210 -0.3558
 1697SOL    HW116553   4.428   3.510   2.629  0.6351  0.0788 -0.1328
 1697SOL    HW216554   4.310   3.414   2.651  0.4063 -2.4817 -0.0571
 1698SOL     OW16555   0.198   3.969   2.935 -0.2438 -0.0256  0.2908
 1698SOL    HW116556   0.247   3.911   2.993  0.0100  2.0719  2.2101
 1698SOL    HW216557   0.158   4.027   3.000 -2.0042  1.4675 -2.1055
 1699SOL     OW16558   2.556   3.154  15.908 -0.3021 -0.2418  0.3458
 1699SOL    HW116559   2.555   3.129  15.815  3.1090  1.0376 -0.0557
 1699SOL    HW216560   2.577   3.065  15.938  1.5747  0.3009  0.6579
 1700SOL     OW16561   3.254   2.150   0.802 -0.3798 -0.5070 -0.6633
 1700SOL    HW116562   3.160   2.135   0.812 -0.8558  3.0048  0.3974
 1700SOL    HW216563   3.286   2.100   0.877  0.2890 -1.0670 -1.3250
 1701SOL     OW16564   2.467   2.233  10.889 -0.0409  0.0749  0.0235
 1701SOL    HW116565   2.472   2.196  10.801 -0.9256 -1.2006  0.5107
 1701SOL    HW216566   2.549   2.284  10.889  0.8366 -1.3294  1.4255
 1702SOL     OW16567   4.661   0.362   4.058 -0.0405 -0.2006 -0.5459
 1702SOL    HW116568   4.614   0.346   4.140  1.0769  1.5093  0.4383
 1702SOL    HW216569   4.609   0.429   4.012 -0.9818 -1.1958 -0.9146
 1703SOL     OW16570   0.930   0.268   8.013 -0.6173 -0.3026 -0.1555
 1703SOL    HW116571   0.883   0.185   8.021 -0.7524 -0.2042  0.0532
 1703SOL    HW216572   0.891   0.295   7.929 -2.1676 -1.4007  0.2193
 1704SOL     OW16573   0.986   2.183   6.693  0.2836 -0.3086  0.2226
 1704SOL    HW116574   1.048   2.135   6.639  1.2542  2.9849 -1.5741
 1704SOL    HW216575   1.040   2.225   6.760 -2.1855  1.1671  1.2744
 1705SOL     OW16576   1.611   1.558   2.227  0.2749  0.4241 -0.1330
 1705SOL    HW116577   1.543   1.500   2.260  0.1259 -0.2774 -1.6567
 1705SOL    HW216578   1.567   1.643   2.229 -1.1906 -0.3694  1.6106
 1706SOL     OW16579   1.325   1.364   8.392  0.8188  0.2464  0.2824
 1706SOL    HW116580   1.409   1.386   8.432  0.9309 -1.1680  0.8461
 1706SOL    HW216581   1.265   1.364   8.466  2.3685  0.3057  1.5443
 1707SOL     OW16582   4.397   0.763   5.360 -0.3171 -0.3253  0.1166
 1707SOL    HW116583   4.383   0.851   5.324  1.0833 -0.2713 -0.3107
 1707SOL    HW216584   4.361   0.766   5.448  1.0575 -0.6150  0.6840
 1708SOL     OW16585   2.547   2.986  16.508  0.7327  0.1489  0.5766
 1708SOL    HW116586   2.581   3.058  16.561  1.3217  1.3719 -1.4590
 1708SOL    HW216587   2.628   2.937  16.490 -1.2209 -3.2287  0.9100
 1709SOL     OW16588   3.895   1.623  17.544  0.1389 -0.3526 -0.0402
 1709SOL    HW116589   3.806   1.611  17.510  0.5823 -1.4618 -0.8161
 1709SOL    HW216590   3.920   1.695  17.487  0.9684  0.4977  1.4039
 1710SOL     OW16591   4.249   0.032   5.164 -0.1880 -0.2495  0.6018
 1710SOL    HW116592   4.301   4.689   5.123  1.3216  1.2124  0.0247
 1710SOL    HW216593   4.162   4.722   5.179 -0.6977  0.6216 -0.2437
 1711SOL     OW16594   1.369   4.572  10.554 -0.3846  0.1817  0.0579
 1711SOL    HW116595   1.315   4.564  10.476 -1.1202  1.6804  0.4039
 1711SOL    HW216596   1.462   4.572  10.529 -0.0730  2.4059  1.2348
 1712SOL     OW16597   1.801   0.762   3.954  0.0720 -0.2257 -0.6122
 1712SOL    HW116598   1.720   0.750   4.003  1.6265 -1.4254  1.6718
 1712SOL    HW216599   1.846   0.678   3.963 -2.5608 -1.6511 -0.9834
 1713SOL     OW16600   0.665   0.299  16.391  0.4836  0.1168  0.0816
 1713SOL    HW116601   0.585   0.251  16.372 -0.5717  0.7033  3.2126
 1713SOL    HW216602   0.717   0.241  16.446  1.4772  2.1772  1.3116
 1714SOL     OW16603   0.928   3.970   7.264 -0.2050 -0.2621 -0.3808
 1714SOL    HW116604   0.971   3.992   7.181  0.2973  0.0882 -0.0277
 1714SOL    HW216605   0.997   3.957   7.328  2.3056  2.3182 -2.5670
 1715SOL     OW16606   3.388   2.992  12.336 -0.0666 -0.0453 -0.2436
 1715SOL    HW116607   3.467   2.939  12.347 -0.5252 -0.3860  1.3358
 1715SOL    HW216608   3.331   2.924  12.298  0.0893  1.4937 -3.2358
 1716SOL     OW16609   2.300   0.024  15.597 -0.1896 -0.1215 -0.2140
 1716SOL    HW116610   2.211   0.033  15.630  0.0431  1.1489  0.0775
 1716SOL    HW216611   2.337   4.687  15.660  0.3934  0.1989 -0.2406
 1717SOL     OW16612   3.762   4.315   8.533 -0.0346  0.1668  0.0583
 1717SOL    HW116613   3.731   4.297   8.444 -0.5567  1.0505  0.0591
 1717SOL    HW216614   3.786   4.408   8.528  1.4439 -0.4756 -4.3102
 1718SOL     OW16615   1.849   0.628   7.686 -0.2711  0.4952  0.3617
 1718SOL    HW116616   1.895   0.551   7.717  1.8479  1.9835  0.9634
 1718SOL    HW216617   1.759   0.596   7.691  0.2080 -0.2561  3.7913
 1719SOL     OW16618   1.844   0.969  17.163 -0.0067  0.1824  0.1972
 1719SOL    HW116619   1.851   0.892  17.219  2.7568 -0.2748 -0.8132
 1719SOL    HW216620   1.934   0.974  17.132 -0.1459 -1.3051 -0.4391
 1720SOL     OW16621   2.371   2.735   8.077  0.0085 -0.1743  0.0920
 1720SOL    HW116622   2.409   2.789   8.008 -2.0658  0.4068 -0.6080
 1720SOL    HW216623   2.386   2.790   8.154 -1.8832 -0.0545  0.3909
 1721SOL     OW16624   1.276   3.856   7.096 -0.1166 -0.1312 -0.1166
 1721SOL    HW116625   1.335   3.926   7.066  0.7324 -0.9706 -0.3905
 1721SOL    HW216626   1.303   3.784   7.040  1.0573 -0.1329  0.4406
 1722SOL     OW16627   4.096   1.421   4.285 -0.5161 -0.7286  0.1107
 1722SOL    HW116628   4.120   1.494   4.343 -2.0067  0.4147 -0.7047
 1722SOL    HW216629   4.152   1.348   4.311  2.4199  1.2436 -0.7035
 1723SOL     OW16630   3.308   2.664   2.103  0.1815  0.6516  0.4261
 1723SOL    HW116631   3.389   2.621   2.131 -0.2976 -0.3912  0.1988
 1723SOL    HW216632   3.286   2.731   2.168 -0.5082  0.0820  0.7874
 1724SOL     OW16633   3.869   0.742  10.982 -0.1861 -0.2978 -0.2994
 1724SOL    HW116634   3.830   0.681  11.045  0.5578  1.9690  2.3783
 1724SOL    HW216635   3.796   0.755  10.922 -2.3057  0.5316  2.4237
 1725SOL     OW16636   0.866   3.130   6.025 -0.5309 -0.5085  0.8426
 1725SOL    HW116637   0.878   3.129   6.120 -1.0886  1.7258  0.9240
 1725SOL    HW216638   0.924   3.060   5.994 -0.2087  0.1769 -0.0879
 1726SOL     OW16639   0.418   1.439   7.108 -0.7073  0.1387 -0.0335
 1726SOL    HW116640   0.405   1.499   7.181  0.7822  0.1388  0.2362
 1726SOL    HW216641   0.395   1.354   7.147 -1.1345  0.0607 -0.4620
 1727SOL     OW16642   4.217   0.430   7.792  0.6805 -0.6937  0.4977
 1727SOL    HW116643   4.176   0.439   7.706 -0.2408  0.1860  1.0278
 1727SOL    HW216644   4.307   0.451   7.769  0.5441 -0.0280  0.5867
 1728SOL     OW16645   2.748   3.969   3.670  0.0554 -0.2209  0.5366
 1728SOL    HW116646   2.760   4.057   3.634 -2.7482  0.2793  0.8186
 1728SOL    HW216647   2.829   3.969   3.721  0.2784  0.8277  0.1872
 1729SOL     OW16648   0.782   1.939  11.966  0.2939 -0.2321  1.0442
 1729SOL    HW116649   0.756   1.954  11.876 -2.1069 -2.2323  1.3889
 1729SOL    HW216650   0.784   2.028  12.002 -1.4346  0.4010 -0.4913
 1730SOL     OW16651   1.639   2.024   8.329  0.0193  0.0594 -0.8585
 1730SOL    HW116652   1.628   2.044   8.422 -0.5079 -1.3861 -0.6097
 1730SOL    HW216653   1.734   2.030   8.332  0.0455 -0.8484  0.0563
 1731SOL     OW16654   2.242   1.111  10.912 -0.1640 -0.8398 -0.7502
 1731SOL    HW116655   2.304   1.171  10.871  0.2539 -0.7350  0.0369
 1731SOL    HW216656   2.302   1.070  10.973 -0.7317  1.1148  1.1257
 1732SOL     OW16657   2.774   2.833   5.206 -0.1405 -0.0252 -0.1132
 1732SOL    HW116658   2.856   2.881   5.219  0.7714 -1.4492 -0.5692
 1732SOL    HW216659   2.745   2.819   5.296  2.4381  1.3783  0.9322
 1733SOL     OW16660   3.220   4.520   0.452 -0.2366  0.3927 -0.0731
 1733SOL    HW116661   3.217   4.614   0.436  0.1218  0.0987 -1.8393
 1733SOL    HW216662   3.135   4.504   0.494  1.0505 -2.5693  1.3804
 1734SOL     OW16663   3.139   1.285   5.900 -0.0756 -0.1885  0.0880
 1734SOL    HW116664   3.063   1.319   5.852  0.3496  1.4494  0.5585
 1734SOL    HW216665   3.156   1.202   5.855  2.0678 -0.8229  2.0819
 1735SOL     OW16666   0.287   2.817   1.461 -0.2348  0.0105 -0.2941
 1735SOL    HW116667   0.344   2.768   1.522  1.2376  1.8667 -0.1709
 1735SOL    HW216668   0.241   2.744   1.419 -1.5247 -0.6062  2.1858
 1736SOL     OW16669   4.312   2.570   2.963  0.1500 -0.0045 -0.7172
 1736SOL    HW116670   4.288   2.649   2.915  0.6974  0.1811 -0.6952
 1736SOL    HW216671   4.340   2.516   2.889 -0.5228  0.0627 -1.0174
 1737SOL     OW16672   0.720   1.935   7.180  0.5440 -0.3494  0.2578
 1737SOL    HW116673   0.643   1.893   7.143 -0.0956 -1.5701  2.9599
 1737SOL    HW216674   0.792   1.883   7.145  1.7252  0.4484  1.4716
 1738SOL     OW16675   3.583   2.868  12.811  0.2301 -1.2348  0.2385
 1738SOL    HW116676   3.529   2.812  12.866 -2.2172  1.3702  0.4778
 1738SOL    HW216677   3.523   2.902  12.744  0.7532 -0.6305  0.0696
 1739SOL     OW16678   3.104   0.731   8.955  0.5485 -0.0483  0.2219
 1739SOL    HW116679   3.022   0.697   8.918  0.2040  0.1374  0.8149
 1739SOL    HW216680   3.116   0.665   9.023  0.2288 -1.4630 -1.0928
 1740SOL     OW16681   4.554   2.200   2.559  0.7442  0.4494 -0.2644
 1740SOL    HW116682   4.610   2.126   2.581  0.3134  0.4037  0.6868
 1740SOL    HW216683   4.526   2.194   2.468 -0.1404  0.5239 -0.0045
 1741SOL     OW16684   1.024   3.368   8.324  0.2847 -0.0207  0.5005
 1741SOL    HW116685   0.956   3.340   8.263  1.3256  2.5593 -1.8403
 1741SOL    HW216686   1.046   3.282   8.359 -1.1379  0.3674  2.3426
 1742SOL     OW16687   1.979   0.093   8.017 -0.5585 -0.4426 -0.5254
 1742SOL    HW116688   1.994   0.109   8.110 -1.9255 -0.4143 -0.3225
 1742SOL    HW216689   1.885   0.099   8.006 -0.5915  0.6192  0.3430
 1743SOL     OW16690   1.452   4.515   6.915 -0.2183  0.0971 -0.7806
 1743SOL    HW116691   1.437   4.546   7.004  1.1411  0.1142 -0.5718
 1743SOL    HW216692   1.460   4.598   6.868  0.1645  0.0916 -0.7232
 1744SOL     OW16693   0.597   1.958   4.310 -0.3449  0.2365  0.3547
 1744SOL    HW116694   0.554   2.025   4.257 -0.0200  0.9858  1.0516
 1744SOL    HW216695   0.591   1.888   4.245 -2.2945 -0.3267  1.1609
 1745SOL     OW16696   1.208   4.224   5.197 -0.1584 -0.0884  0.3401
 1745SOL    HW116697   1.123   4.218   5.240 -1.5859 -0.9726 -2.5996
 1745SOL    HW216698   1.274   4.207   5.265 -0.9538 -2.9941  0.3843
 1746SOL     OW16699   2.846   4.276   5.744 -0.4599 -0.1863 -0.7309
 1746SOL    HW116700   2.883   4.189   5.761 -0.2565 -0.0247 -0.3401
 1746SOL    HW216701   2.926   4.329   5.737 -0.0418 -0.9909 -2.1001
 1747SOL     OW16702   2.117   0.208   5.732 -0.0973  0.8030 -0.1716
 1747SOL    HW116703   2.035   0.246   5.760 -0.1453 -0.9141  2.0126
 1747SOL    HW216704   2.078   0.149   5.667  1.6197 -0.9900  0.4240
 1748SOL     OW16705   3.332   1.361   8.811  0.4355  0.1980 -0.2605
 1748SOL    HW116706   3.396   1.421   8.850 -1.0285  0.8163  1.2217
 1748SOL    HW216707   3.366   1.352   8.722 -0.0792 -0.9415 -0.3442
 1749SOL     OW16708   4.573   3.354   7.718  0.6389 -0.1426 -0.0723
 1749SOL    HW116709   4.596   3.262   7.729 -0.7055 -0.5665 -0.7606
 1749SOL    HW216710   4.545   3.369   7.808 -1.1376 -1.3689 -0.4140
 1750SOL     OW16711   2.936   2.164  11.443 -0.2178 -0.6362 -0.2433
 1750SOL    HW116712   2.901   2.234  11.389  2.5971  0.3699 -0.7313
 1750SOL    HW216713   3.019   2.203  11.469 -0.5101  1.2215 -2.1508
 1751SOL     OW16714   1.051   0.319   5.488 -0.1456 -0.1057  0.0787
 1751SOL    HW116715   0.993   0.358   5.423  0.1244  1.1936  0.6141
 1751SOL    HW216716   1.065   0.385   5.556 -1.5978  0.2355  0.0431
 1752SOL     OW16717   1.730   1.468   4.095 -0.1747  0.1346 -0.7446
 1752SOL    HW116718   1.648   1.457   4.047 -1.7482  0.0655  1.9594
 1752SOL    HW216719   1.784   1.390   4.082  0.0533 -0.0392  1.1480
 1753SOL     OW16720   4.087   0.403  12.054 -0.1478 -0.1112 -0.1324
 1753SOL    HW116721   4.038   0.344  11.997  1.4595 -1.1453 -0.4575
 1753SOL    HW216722   4.169   0.353  12.050  0.5806  1.0208  0.7454
 1754SOL     OW16723   4.110   2.606   6.521 -0.3802 -0.5656  0.1267
 1754SOL    HW116724   4.050   2.680   6.515  0.3711  0.0069 -0.2974
 1754SOL    HW216725   4.038   2.546   6.500 -1.8850  0.9593  0.9386
 1755SOL     OW16726   0.408   4.129   2.732 -0.5354  0.0372 -0.0618
 1755SOL    HW116727   0.389   4.193   2.664 -2.0859  0.2310  0.5618
 1755SOL    HW216728   0.325   4.132   2.780 -1.3602  1.9556 -1.6407
 1756SOL     OW16729   3.314   1.814   4.615  0.0417  0.3267 -0.0948
 1756SOL    HW116730   3.347   1.868   4.544  0.1825 -0.7912 -0.8823
 1756SOL    HW216731   3.342   1.847   4.700 -2.6307  2.0222  0.1255
 1757SOL     OW16732   4.023   0.452   5.013 -0.4158  0.1847  0.1178
 1757SOL    HW116733   4.081   0.514   4.969 -1.9181  1.5300  0.0507
 1757SOL    HW216734   4.072   0.429   5.092  1.2440 -0.5167 -1.1182
 1758SOL     OW16735   3.266   0.185  10.438 -0.2079 -0.1847  0.0645
 1758SOL    HW116736   3.319   0.193  10.358  0.7911 -1.5007  0.5865
 1758SOL    HW216737   3.200   0.119  10.416 -0.4456  0.4410 -1.0927
 1759SOL     OW16738   2.909   0.205   4.743 -0.0143  0.6486 -0.0060
 1759SOL    HW116739   2.989   0.199   4.795 -1.1969 -0.6968  1.6471
 1759SOL    HW216740   2.947   0.250   4.667  2.8005  0.1367  1.0864
 1760SOL     OW16741   4.260   0.418   8.061  0.3940 -0.0719  0.3876
 1760SOL    HW116742   4.333   0.359   8.076  1.2820  0.4726 -1.7928
 1760SOL    HW216743   4.247   0.406   7.967  0.0603 -2.2577  0.7187
 1761SOL     OW16744   1.817   1.050   5.183 -0.3048 -0.3672 -0.1886
 1761SOL    HW116745   1.910   1.066   5.169 -0.4684 -0.8337 -1.7938
 1761SOL    HW216746   1.801   1.022   5.093 -0.1959 -1.8397  0.2550
 1762SOL     OW16747   1.581   3.067  14.469  0.1923  0.0255 -0.3657
 1762SOL    HW116748   1.667   3.059  14.510  0.3820  0.3585 -0.7016
 1762SOL    HW216749   1.578   2.983  14.423 -2.5473 -1.2423  2.1166
 1763SOL     OW16750   0.043   0.389   8.107  0.6047 -0.3118 -0.0294
 1763SOL    HW116751   0.125   0.427   8.075  1.3825  1.5898  4.1809
 1763SOL    HW216752   4.711   0.408   8.033  0.4961 -1.8787 -0.3343
 1764SOL     OW16753   2.065   1.509   6.751  0.3062  0.2958  0.9362
 1764SOL    HW116754   2.095   1.567   6.682 -0.1014 -0.2409  0.3075
 1764SOL    HW216755   2.080   1.421   6.716 -3.2387  0.6228 -1.3497
 1765SOL     OW16756   1.775   3.258  14.251  0.1452 -0.1458 -0.4718
 1765SOL    HW116757   1.723   3.333  14.281 -0.4103 -0.2585 -1.1671
 1765SOL    HW216758   1.732   3.193  14.308  1.4155 -1.1321 -0.6486
 1766SOL     OW16759   0.941   3.191   7.744  0.3767 -0.7575  0.2313
 1766SOL    HW116760   0.890   3.211   7.666  0.1581 -1.3753  0.2183
 1766SOL    HW216761   0.928   3.260   7.810  2.8914  1.2194 -1.3384
 1767SOL     OW16762   1.235   0.266  11.524  0.3710 -0.1289 -0.5074
 1767SOL    HW116763   1.163   0.252  11.585  0.6585 -2.2006 -0.6380
 1767SOL    HW216764   1.193   0.311  11.451  0.2215 -1.4518 -1.2441
 1768SOL     OW16765   0.349   4.235  14.449 -0.2348  0.1219 -0.1844
 1768SOL    HW116766   0.322   4.145  14.469  0.7244  0.1072  1.0521
 1768SOL    HW216767   0.300   4.281  14.517  0.4711 -0.1545  0.5057
 1769SOL     OW16768   0.305   3.115   4.297 -0.2616  0.2421  0.1255
 1769SOL    HW116769   0.234   3.165   4.259 -0.6325 -0.2678  0.1423
 1769SOL    HW216770   0.381   3.167   4.269  0.4975 -1.7130 -1.4984
 1770SOL     OW16771   4.161   2.794  17.040 -0.4179  0.2520 -0.6278
 1770SOL    HW116772   4.120   2.734  16.978 -2.6317  2.7382 -1.5553
 1770SOL    HW216773   4.250   2.757  17.042 -0.7263 -0.4541  0.0390
 1771SOL     OW16774   2.577   0.641   7.274 -0.0246  0.3271 -0.1103
 1771SOL    HW116775   2.606   0.569   7.218  1.3269  2.3543 -2.0191
 1771SOL    HW216776   2.485   0.619   7.292 -0.4335  1.1915 -1.1145
 1772SOL     OW16777   3.148   1.757   6.529 -0.3898  0.2686  0.0558
 1772SOL    HW116778   3.229   1.730   6.488 -2.2860 -1.8498 -2.2736
 1772SOL    HW216779   3.090   1.681   6.524 -0.4710  0.3785 -0.6273
 1773SOL     OW16780   1.474   3.587   8.154  0.0202  0.2144 -0.4709
 1773SOL    HW116781   1.420   3.538   8.215  1.0506  1.0308  1.1111
 1773SOL    HW216782   1.425   3.578   8.072  0.1419 -3.1521 -0.1813
 1774SOL     OW16783   4.227   2.092   7.331 -0.1838  0.2163  0.0715
 1774SOL    HW116784   4.305   2.145   7.351  1.3772 -1.6161 -1.2172
 1774SOL    HW216785   4.261   2.018   7.281 -0.6092 -0.9775  1.5581
 1775SOL     OW16786   1.147   0.407  16.925  0.8767 -0.0441 -0.3868
 1775SOL    HW116787   1.118   0.328  16.971 -0.9389  1.0786  0.3794
 1775SOL    HW216788   1.067   0.458  16.916  0.1992 -0.7320  1.8431
 1776SOL     OW16789   0.542   2.872  11.290 -0.4937 -0.1916 -0.5451
 1776SOL    HW116790   0.610   2.818  11.250 -0.1131  0.4867 -0.8083
 1776SOL    HW216791   0.546   2.846  11.381 -2.1314  1.2246 -0.0637
 1777SOL     OW16792   4.355   1.640   7.544  0.7098  0.0367  0.4198
 1777SOL    HW116793   4.409   1.601   7.611 -2.6406 -0.6056  2.7455
 1777SOL    HW216794   4.368   1.570   7.480 -1.2384 -0.4987  0.6132
 1778SOL     OW16795   3.825   3.221   6.472  0.0945  0.6690 -0.5328
 1778SOL    HW116796   3.829   3.241   6.565  2.9056 -0.6786 -0.3544
 1778SOL    HW216797   3.904   3.265   6.440  0.2450 -0.0031 -1.0815
 1779SOL     OW16798   0.244   3.184  12.143 -0.0379  0.4237  0.0306
 1779SOL    HW116799   0.260   3.164  12.051  0.7486  1.1091  0.0114
 1779SOL    HW216800   0.325   3.139  12.168  0.2102  0.4671 -0.7068
 1780SOL     OW16801   3.545   3.348   3.106  0.3664 -0.5905  0.4507
 1780SOL    HW116802   3.511   3.394   3.030  2.3720  1.8446  0.9979
 1780SOL    HW216803   3.484   3.375   3.174 -0.6065 -2.2310  0.2153
 1781SOL     OW16804   4.705   1.375   6.961  0.4968 -0.2588  0.4017
 1781SOL    HW116805   0.024   1.444   7.009  0.9550 -0.6535  0.5484
 1781SOL    HW216806   0.021   1.379   6.875  0.3715  2.6736  0.4869
 1782SOL     OW16807   0.894   4.469   9.505 -0.7263 -0.4753 -0.0069
 1782SOL    HW116808   0.949   4.547   9.500 -2.2383  0.3333 -3.5175
 1782SOL    HW216809   0.894   4.444   9.413 -1.4182  0.1725 -0.1793
 1783SOL     OW16810   4.356   4.027   3.676 -0.1006  0.2927  0.4383
 1783SOL    HW116811   4.407   3.988   3.747  0.2906 -1.1428 -0.6273
 1783SOL    HW216812   4.419   4.063   3.613  1.1331 -0.8514  1.0072
 1784SOL     OW16813   1.238   1.835   5.477  0.0545 -1.2876 -0.1388
 1784SOL    HW116814   1.292   1.769   5.435 -0.5831 -3.0851  1.8280
 1784SOL    HW216815   1.234   1.907   5.415 -0.9115  0.2264  1.6560
 1785SOL     OW16816   2.298   1.194   9.500 -0.0200 -0.2194  0.1178
 1785SOL    HW116817   2.228   1.211   9.563 -1.5854 -2.1306 -1.1088
 1785SOL    HW216818   2.346   1.275   9.516 -1.2463  1.2054 -3.5370
 1786SOL     OW16819   4.064   3.172   9.942 -0.2205  0.0640  0.0179
 1786SOL    HW116820   4.101   3.204   9.860  1.6082 -2.3274 -0.1056
 1786SOL    HW216821   4.068   3.076   9.933  1.3376  0.4143 -2.8609
 1787SOL     OW16822   0.610   2.521  16.275 -0.2757 -0.2261 -0.2120
 1787SOL    HW116823   0.548   2.570  16.328 -0.8561  0.5436 -1.5993
 1787SOL    HW216824   0.577   2.508  16.186 -1.8780 -0.2934  0.3880
 1788SOL     OW16825   4.197   0.601   3.024  0.1402 -0.7437  0.0572
 1788SOL    HW116826   4.273   0.637   3.069  0.5756 -0.0198 -1.2555
 1788SOL    HW216827   4.127   0.588   3.088  1.6569 -0.6788  1.7221
 1789SOL     OW16828   4.016   3.771   4.520  0.0572 -0.0874 -0.0244
 1789SOL    HW116829   4.062   3.715   4.457  0.4391 -0.6347  0.7452
 1789SOL    HW216830   4.086   3.806   4.574  0.0556 -0.0478 -0.0480
 1790SOL     OW16831   3.341   4.682  11.632  0.2518 -0.0450 -0.0417
 1790SOL    HW116832   3.393   4.631  11.569 -0.3939 -0.2011 -0.4585
 1790SOL    HW216833   3.360   0.044  11.599 -2.3462  0.6793  0.3843
 1791SOL     OW16834   3.638   0.504   5.005 -0.7021 -0.4418  0.2516
 1791SOL    HW116835   3.664   0.439   5.070 -0.3679 -1.4959 -0.9195
 1791SOL    HW216836   3.655   0.457   4.923 -0.2061  0.8758 -0.3966
 1792SOL     OW16837   1.238   4.416   2.083  0.1394  0.2653  0.4608
 1792SOL    HW116838   1.158   4.448   2.126 -0.8948 -0.7864 -0.6742
 1792SOL    HW216839   1.262   4.335   2.127 -1.7740 -1.1555 -1.0687
 1793SOL     OW16840   1.844   3.164   9.008 -0.8196 -0.3830 -0.1422
 1793SOL    HW116841   1.906   3.195   9.074  0.5062  1.8253 -2.3871
 1793SOL    HW216842   1.908   3.163   8.936  1.0460 -0.4837  1.4995
 1794SOL     OW16843   3.217   3.425   2.807 -0.0269  0.0106 -0.0464
 1794SOL    HW116844   3.131   3.431   2.849 -0.7850 -1.0280 -1.4691
 1794SOL    HW216845   3.183   3.396   2.723  0.3362 -1.1304  0.1896
 1795SOL     OW16846   3.875   1.890  12.045  0.4821  0.3852 -0.0251
 1795SOL    HW116847   3.963   1.918  12.071  1.4962 -1.7074 -1.1900
 1795SOL    HW216848   3.829   1.941  12.112  0.1835  0.5206 -0.3344
 1796SOL     OW16849   2.705   3.877   4.619 -0.2024 -0.2758 -0.1150
 1796SOL    HW116850   2.648   3.804   4.595 -0.2954 -0.3150  0.2361
 1796SOL    HW216851   2.790   3.845   4.587 -1.1488 -1.3098 -1.5909
 1797SOL     OW16852   4.468   2.769  10.611 -0.1911 -0.0680  0.3080
 1797SOL    HW116853   4.417   2.765  10.693  0.9188  3.8966  1.2103
 1797SOL    HW216854   4.541   2.822  10.643 -1.8834  1.6258  1.3948
 1798SOL     OW16855   0.511   3.029  16.894 -0.2579 -0.9326 -0.5190
 1798SOL    HW116856   0.420   3.017  16.868 -0.7922 -0.0113  0.9078
 1798SOL    HW216857   0.499   3.066  16.981  1.2836  0.6422 -0.9807
 1799SOL     OW16858   3.342   0.566   6.192  0.6847  0.0238  0.3410
 1799SOL    HW116859   3.275   0.629   6.164  0.6379  0.3288  1.1331
 1799SOL    HW216860   3.392   0.577   6.111  1.0971 -0.6041  0.5133
 1800SOL     OW16861   4.162   2.238   4.174  0.0528  1.0637 -0.2395
 1800SOL    HW116862   4.224   2.272   4.239 -0.9673  0.2946  1.1340
 1800SOL    HW216863   4.095   2.306   4.172 -1.4237 -0.4217 -1.7464
 1801SOL     OW16864   0.901   2.923  14.116 -0.0112 -0.3295  0.6257
 1801SOL    HW116865   0.969   2.951  14.055  0.0242  1.1167  1.3251
 1801SOL    HW216866   0.829   2.888  14.064 -1.6435  1.5421  1.6506
 1802SOL     OW16867   4.611   0.934  12.868 -0.4061  0.4008 -0.4996
 1802SOL    HW116868   4.528   0.887  12.871  0.2609 -0.7129  0.2612
 1802SOL    HW216869   4.648   0.884  12.795  0.2990 -1.0910  0.8987
 1803SOL     OW16870   4.411   1.619   4.385 -0.0523 -0.1543 -0.1430
 1803SOL    HW116871   4.397   1.576   4.301  1.7173  1.2461 -1.1485
 1803SOL    HW216872   4.476   1.561   4.424  0.5463  0.3045 -0.4482
 1804SOL     OW16873   2.397   0.012   5.630 -0.3279 -0.1096  0.1240
 1804SOL    HW116874   2.340   4.687   5.573  1.4187  0.1223 -1.8142
 1804SOL    HW216875   2.361   0.101   5.629 -0.5431 -0.1777  1.5344
 1805SOL     OW16876   3.156   4.352   9.274 -0.1634 -0.4077  0.4051
 1805SOL    HW116877   3.226   4.360   9.339 -0.3761 -0.9222  0.6950
 1805SOL    HW216878   3.072   4.349   9.320 -0.4584  0.7460 -0.0693
 1806SOL     OW16879   2.147   4.308   0.341 -0.2377  0.0014 -0.0884
 1806SOL    HW116880   2.232   4.348   0.358 -1.0314  1.0470  1.4909
 1806SOL    HW216881   2.160   4.246   0.270  1.2375 -0.4466  0.5775
 1807SOL     OW16882   2.093   2.180   5.286  0.2156 -0.1097 -0.7424
 1807SOL    HW116883   2.167   2.165   5.346  1.1537  1.2273 -1.5743
 1807SOL    HW216884   2.128   2.179   5.197 -0.2806  0.1158 -0.9347
 1808SOL     OW16885   3.791   1.788  13.302  0.5872  0.2634  0.3200
 1808SOL    HW116886   3.811   1.843  13.226  0.4268 -0.5527 -0.3223
 1808SOL    HW216887   3.866   1.801  13.360  0.2301  3.3216  0.0599
 1809SOL     OW16888   3.847   2.321   8.137  0.4488 -0.2804  0.1317
 1809SOL    HW116889   3.831   2.387   8.205  0.1859 -0.3573  0.1428
 1809SOL    HW216890   3.798   2.248   8.174 -0.2578  0.1513  0.0538
 1810SOL     OW16891   0.663   0.188   7.849  0.3324 -0.0464 -0.1219
 1810SOL    HW116892   0.693   0.098   7.856  0.5991 -0.1475 -2.5164
 1810SOL    HW216893   0.722   0.227   7.784 -1.9104  0.8257 -1.6485
 1811SOL     OW16894   0.015   4.002   2.210 -0.2059  0.2107  0.4179
 1811SOL    HW116895   0.018   3.907   2.196  0.5235 -0.0477  2.2365
 1811SOL    HW216896   4.650   4.013   2.183  0.1716 -0.2401 -1.0444
 1812SOL     OW16897   2.485   4.014   1.307  0.1681  0.6269  0.0574
 1812SOL    HW116898   2.578   4.030   1.289  0.8387 -1.4268  1.7139
 1812SOL    HW216899   2.491   3.921   1.286 -0.6696  0.5534  0.1469
 1813SOL     OW16900   4.356   2.931   7.812 -0.2723 -0.1905 -0.4607
 1813SOL    HW116901   4.324   2.911   7.900  2.3900 -0.0472  0.5163
 1813SOL    HW216902   4.274   2.956   7.769 -0.3088  1.5683  0.6127
 1814SOL     OW16903   0.472   1.604  15.341  0.1135  0.1991  0.4093
 1814SOL    HW116904   0.423   1.654  15.407  1.8667 -0.0092  1.8766
 1814SOL    HW216905   0.404   1.560  15.292  1.0973 -0.9178  0.0544
 1815SOL     OW16906   0.812   0.599   1.999 -0.7338 -0.0372  0.2914
 1815SOL    HW116907   0.755   0.676   2.003 -0.1083  0.4016  0.7202
 1815SOL    HW216908   0.900   0.629   1.976  0.1636 -1.6630  1.6067
 1816SOL     OW16909   0.191   2.622   9.041  0.0164 -0.4869 -0.5521
 1816SOL    HW116910   0.112   2.663   9.076  0.6014 -0.7866  1.1310
 1816SOL    HW216911   0.199   2.659   8.953  2.2976  1.7083  0.5858
 1817SOL     OW16912   4.083   4.495   4.781  0.0360  0.2833 -0.0661
 1817SOL    HW116913   4.154   4.506   4.719  1.7991 -1.0339  1.7078
 1817SOL    HW216914   4.028   4.428   4.740 -0.7124  1.2022 -0.5568
 1818SOL     OW16915   4.482   2.631  16.436 -0.3739 -0.5644  0.3485
 1818SOL    HW116916   4.510   2.601  16.522 -1.5970 -0.5753  0.7455
 1818SOL    HW216917   4.564   2.667  16.401 -0.6753  0.3698  0.5910
 1819SOL     OW16918   0.848   2.565   1.097  0.4809  0.5948 -0.3869
 1819SOL    HW116919   0.796   2.553   1.177  0.2875 -0.8146 -0.7320
 1819SOL    HW216920   0.861   2.660   1.100 -0.0709  0.6710 -0.2990
 1820SOL     OW16921   0.073   3.455   3.618 -0.0178 -0.4417 -0.2204
 1820SOL    HW116922   0.129   3.395   3.569  1.2445  0.8171 -0.3227
 1820SOL    HW216923   0.107   3.435   3.706  2.0418 -0.2256 -0.9625
 1821SOL     OW16924   3.775   3.236  15.556  0.1926  0.5796 -0.3713
 1821SOL    HW116925   3.814   3.249  15.643  1.8763  2.1215 -1.3543
 1821SOL    HW216926   3.684   3.259  15.574 -0.6127 -1.2625 -2.1146
 1822SOL     OW16927   1.593   0.967   3.743 -0.4340  0.9118  0.2458
 1822SOL    HW116928   1.641   1.047   3.724 -1.3194  1.1439 -1.0399
 1822SOL    HW216929   1.611   0.974   3.837  0.3145 -1.3996  0.2709
 1823SOL     OW16930   3.536   2.444   5.342  0.5651 -0.0884  0.2343
 1823SOL    HW116931   3.499   2.401   5.264  1.4505 -0.6826  0.1402
 1823SOL    HW216932   3.627   2.416   5.329 -0.4177 -4.0203  1.9724
 1824SOL     OW16933   1.894   2.165  13.130  0.1266 -0.0588  0.1761
 1824SOL    HW116934   1.878   2.176  13.036  0.9341 -1.6155 -0.1372
 1824SOL    HW216935   1.986   2.191  13.136 -0.2454  0.8690  2.1555
 1825SOL     OW16936   0.360   0.167   3.961  0.9173  0.3535  0.0713
 1825SOL    HW116937   0.315   0.084   3.976  1.2135  0.1348 -0.2572
 1825SOL    HW216938   0.308   0.231   4.010 -1.6741 -2.1934  0.6547
 1826SOL     OW16939   0.984   3.906   5.932  0.7466  0.0443  0.6197
 1826SOL    HW116940   1.052   3.879   5.871 -1.3402  1.2132 -2.1942
 1826SOL    HW216941   1.037   3.884   6.009 -0.0027 -0.6668  0.9247
 1827SOL     OW16942   2.920   1.726  15.190 -0.1095 -0.6280 -0.0449
 1827SOL    HW116943   2.890   1.668  15.260  0.5742 -1.5201 -0.4885
 1827SOL    HW216944   2.858   1.799  15.190 -2.2290 -2.4222 -1.8423
 1828SOL     OW16945   1.144   3.677   7.277  0.1642 -0.5079 -0.1601
 1828SOL    HW116946   1.161   3.745   7.212  1.4721 -1.5403 -0.9101
 1828SOL    HW216947   1.103   3.608   7.225 -0.2593 -0.2921 -0.1059
 1829SOL     OW16948   4.600   3.625  16.869  0.1428  0.3647 -0.1147
 1829SOL    HW116949   4.540   3.691  16.835  0.7560 -0.6579 -3.2590
 1829SOL    HW216950   4.627   3.612  16.778 -0.6732  1.0001 -0.4504
 1830SOL     OW16951   4.243   1.729   6.447 -0.6983 -0.0129 -0.1331
 1830SOL    HW116952   4.301   1.803   6.467 -2.6637  1.5294 -0.1116
 1830SOL    HW216953   4.244   1.731   6.352  0.4172 -1.2549 -0.1518
 1831SOL     OW16954   1.228   2.686   1.621 -0.1970  0.0162 -0.0860
 1831SOL    HW116955   1.184   2.761   1.581 -0.6333  0.6903  1.6432
 1831SOL    HW216956   1.197   2.620   1.559  0.1358  1.0370 -1.3380
 1832SOL     OW16957   4.277   4.299   9.172 -0.5121  0.3250 -0.5134
 1832SOL    HW116958   4.313   4.222   9.216 -2.5719  0.0128  0.6326
 1832SOL    HW216959   4.294   4.367   9.238  2.2608  0.1296 -1.0274
 1833SOL     OW16960   3.437   0.291   0.447 -0.0202 -0.2959 -0.1840
 1833SOL    HW116961   3.383   0.262   0.521  0.0025  0.6301  0.1968
 1833SOL    HW216962   3.517   0.239   0.450  1.1616  1.4831 -0.7297
 1834SOL     OW16963   4.250   4.415   5.305  0.2170  0.2580 -0.3532
 1834SOL    HW116964   4.286   4.500   5.279  0.9862 -0.4497 -1.6001
 1834SOL    HW216965   4.204   4.435   5.386  0.3268  0.3854 -0.3216
 1835SOL     OW16966   2.202   4.261   3.408  0.3479 -0.2187  0.1923
 1835SOL    HW116967   2.138   4.227   3.471 -0.2164 -2.1511 -1.4618
 1835SOL    HW216968   2.266   4.280   3.477  0.2548 -0.9524  0.4823
 1836SOL     OW16969   3.907   1.784   2.656  0.2031  0.4699  0.0072
 1836SOL    HW116970   3.907   1.879   2.666 -1.9394  0.5752 -0.8690
 1836SOL    HW216971   4.001   1.769   2.653  0.4441  2.6577 -2.7144
 1837SOL     OW16972   1.326   0.873   9.104  0.1180 -0.4391  0.0182
 1837SOL    HW116973   1.393   0.846   9.042  1.2054 -0.6824  1.2978
 1837SOL    HW216974   1.301   0.962   9.080  0.4336 -0.5047 -0.5475
 1838SOL     OW16975   2.413   4.712   3.269 -0.3408 -0.3233 -0.2273
 1838SOL    HW116976   2.335   4.715   3.326 -0.6183  0.1324 -0.6307
 1838SOL    HW216977   2.411   4.618   3.253  1.4198 -0.8191  2.4744
 1839SOL     OW16978   1.701   0.060   6.178 -0.5294 -0.4003 -0.1817
 1839SOL    HW116979   1.624   0.006   6.195 -0.6561  0.2117  1.1965
 1839SOL    HW216980   1.669   0.131   6.123 -0.1398 -0.2707 -0.2412
 1840SOL     OW16981   3.335   3.159   2.610  0.2484  0.2688 -0.0707
 1840SOL    HW116982   3.389   3.238   2.614  0.9177 -0.2869  2.1600
 1840SOL    HW216983   3.253   3.207   2.625 -0.3902 -1.1367  0.9709
 1841SOL     OW16984   4.387   2.979   0.505 -0.3182  0.1862 -0.0806
 1841SOL    HW116985   4.457   3.003   0.567  0.0588 -0.2730 -0.3312
 1841SOL    HW216986   4.315   3.012   0.560  2.0533  1.9095  2.0045
 1842SOL     OW16987   0.694   0.689   6.365 -0.1922 -0.3184  0.0329
 1842SOL    HW116988   0.749   0.611   6.360  0.9664  0.4131  1.2933
 1842SOL    HW216989   0.633   0.655   6.431  1.2999  1.4570  2.3495
 1843SOL     OW16990   3.729   4.010   4.587 -0.3867 -0.2054  0.1607
 1843SOL    HW116991   3.742   3.921   4.554 -0.3165 -0.1084 -0.0675
 1843SOL    HW216992   3.746   3.990   4.679  1.3417 -2.3644 -0.6416
 1844SOL     OW16993   0.792   4.275   0.285  0.1549  0.4707 -0.6003
 1844SOL    HW116994   0.800   4.227   0.203 -1.6788 -0.9604  0.0435
 1844SOL    HW216995   0.724   4.342   0.280  1.1826  1.4726 -1.0456
 1845SOL     OW16996   1.627   0.905  10.881 -0.1371 -0.4153 -0.6396
 1845SOL    HW116997   1.664   0.817  10.887  0.8554 -0.1425 -2.5570
 1845SOL    HW216998   1.637   0.915  10.786 -1.6986  2.6367 -0.4781
 1846SOL     OW16999   1.395   2.544   1.813 -0.6364 -0.4151 -0.4062
 1846SOL    HW117000   1.476   2.585   1.843 -0.0094 -1.5405 -0.5869
 1846SOL    HW217001   1.371   2.597   1.737 -2.3781  0.1392  0.5212
 1847SOL     OW17002   3.511   0.078   2.933 -0.3027 -0.2924 -0.1388
 1847SOL    HW117003   3.561   0.105   3.010 -3.7477 -0.6483  2.1847
 1847SOL    HW217004   3.510   4.709   2.937 -0.9540 -0.3206 -1.0171
 1848SOL     OW17005   4.266   1.895   6.862 -0.1492  0.4558 -0.1579
 1848SOL    HW117006   4.338   1.840   6.829 -0.4258 -1.6960  2.8474
 1848SOL    HW217007   4.288   1.984   6.834 -0.5083  0.5730 -0.0672
 1849SOL     OW17008   2.534   4.584   9.348 -0.1940  0.2491  0.5448
 1849SOL    HW117009   2.621   4.606   9.380 -1.3683  3.2508  1.6136
 1849SOL    HW217010   2.522   4.659   9.291  3.2351  0.2948 -0.0971
 1850SOL     OW17011   2.706   1.076   7.663  0.1941 -0.1080  0.2166
 1850SOL    HW117012   2.730   1.027   7.584  1.7228 -1.7112  1.6465
 1850SOL    HW217013   2.662   1.010   7.718  0.8197 -0.8200 -0.1308
 1851SOL     OW17014   0.044   3.034   5.289  0.6717 -0.3613  0.2618
 1851SOL    HW117015   0.010   3.088   5.217  0.6306  1.2509  1.4943
 1851SOL    HW217016   4.703   2.966   5.293  0.7909 -0.5233 -0.4050
 1852SOL     OW17017   4.038   3.691   6.964  0.3327 -0.2619  0.3105
 1852SOL    HW117018   4.110   3.753   6.976 -0.3391  0.9404 -1.8250
 1852SOL    HW217019   3.979   3.730   7.028 -1.3434 -1.5554 -0.4738
 1853SOL     OW17020   0.924   4.533  14.638 -0.7640  0.6710 -0.2127
 1853SOL    HW117021   0.871   4.602  14.598 -1.7680  0.3440  0.5490
 1853SOL    HW217022   0.984   4.590  14.686 -1.6520  1.1862  0.2963
 1854SOL     OW17023   2.357   3.325  15.922  0.1177 -0.7774  0.0736
 1854SOL    HW117024   2.432   3.267  15.931  2.1338  1.8039 -0.1103
 1854SOL    HW217025   2.389   3.397  15.868 -0.6689 -1.1008 -0.8224
 1855SOL     OW17026   1.196   1.523   2.738 -0.8648 -0.2486 -0.6332
 1855SOL    HW117027   1.133   1.591   2.713 -0.3324 -0.5654 -2.8284
 1855SOL    HW217028   1.185   1.507   2.832  0.2057  1.1154 -0.2683
 1856SOL     OW17029   2.037   1.929   8.141 -0.0986 -0.0773  0.5851
 1856SOL    HW117030   1.986   1.856   8.178 -0.8570 -0.7483 -1.7956
 1856SOL    HW217031   2.125   1.897   8.160  0.8349  0.8646 -2.1479
 1857SOL     OW17032   1.033   0.796   0.497  0.0936 -0.5534 -0.1948
 1857SOL    HW117033   1.129   0.796   0.499  0.0933 -0.9509 -0.2692
 1857SOL    HW217034   1.024   0.781   0.403  0.2530  0.6553 -0.4086
 1858SOL     OW17035   2.272   3.738  13.077 -0.2217  0.1825  0.3735
 1858SOL    HW117036   2.188   3.704  13.107  0.3154 -2.2300 -0.8992
 1858SOL    HW217037   2.273   3.829  13.106  1.1867 -0.1960  1.4733
 1859SOL     OW17038   1.189   3.874   8.204  0.1313 -0.6681  0.2397
 1859SOL    HW117039   1.167   3.962   8.235  2.3850 -0.3146  0.8037
 1859SOL    HW217040   1.123   3.827   8.255  0.6755 -0.3061  1.2790
 1860SOL     OW17041   1.279   4.706   5.711 -0.0123 -0.6293  0.0083
 1860SOL    HW117042   1.372   4.710   5.687  0.2819 -0.8102  1.1090
 1860SOL    HW217043   1.280   4.678   5.802  3.1139  0.1794  0.2456
 1861SOL     OW17044   1.886   2.187  16.744  0.6126 -0.5650  0.5629
 1861SOL    HW117045   1.830   2.116  16.713  1.6247 -0.2613 -2.0082
 1861SOL    HW217046   1.851   2.273  16.722  0.8049 -0.6908 -0.2480
 1862SOL     OW17047   1.321   4.674  15.444 -0.1318  0.5122 -0.3323
 1862SOL    HW117048   1.305   0.015  15.377  2.6613  2.5055  0.9497
 1862SOL    HW217049   1.416   4.663  15.449 -0.1012  0.2876 -1.4257
 1863SOL     OW17050   0.314   0.020   2.866 -0.2626  0.1828  0.1651
 1863SOL    HW117051   0.231   0.056   2.835 -0.3088  1.2652  1.5391
 1863SOL    HW217052   0.319   0.061   2.952 -0.6743 -0.6991  0.6076
 1864SOL     OW17053   3.652   3.518   5.432 -0.5946  0.1337  0.1135
 1864SOL    HW117054   3.710   3.442   5.433 -0.6736  0.0838  0.7949
 1864SOL    HW217055   3.576   3.479   5.475 -1.0629  0.4944 -0.3897
 1865SOL     OW17056   4.550   0.232   5.059  0.6199 -0.1538  0.3305
 1865SOL    HW117057   4.464   0.272   5.074 -0.2003 -1.7913  0.0258
 1865SOL    HW217058   4.524   0.175   4.987 -1.5072 -0.1176  1.0695
 1866SOL     OW17059   2.048   3.412   6.799 -0.1163  0.1216 -0.2791
 1866SOL    HW117060   2.016   3.501   6.807 -1.7688 -0.5877  1.0436
 1866SOL    HW217061   2.094   3.397   6.882  0.8068  0.4296 -0.7379
 1867SOL     OW17062   2.306   2.151  14.795  0.4800  0.2597  0.6570
 1867SOL    HW117063   2.278   2.064  14.824  1.3340 -0.0708  0.4795
 1867SOL    HW217064   2.341   2.139  14.707 -1.3874  1.2229 -0.2024
 1868SOL     OW17065   2.166   1.242   2.094  0.5377 -0.3141  0.0864
 1868SOL    HW117066   2.212   1.236   2.011 -0.2284 -1.4524 -0.2709
 1868SOL    HW217067   2.188   1.328   2.129  0.3728 -0.5412  0.7575
 1869SOL     OW17068   4.193   1.478   9.235  0.0239 -0.8522 -0.1712
 1869SOL    HW117069   4.136   1.554   9.235 -0.4893 -1.2406  1.0969
 1869SOL    HW217070   4.236   1.485   9.320  2.5944  1.0516 -1.6052
 1870SOL     OW17071   4.323   2.085   5.341  0.2241 -0.4541  0.4436
 1870SOL    HW117072   4.387   2.113   5.276  0.7110 -1.6620  0.3975
 1870SOL    HW217073   4.377   2.076   5.420  2.5177  1.4317 -0.9054
 1871SOL     OW17074   1.105   4.367   8.935  0.1191  0.1833 -0.3277
 1871SOL    HW117075   1.102   4.335   8.845 -0.1951 -3.3333  0.9404
 1871SOL    HW217076   1.157   4.296   8.974  0.5595  0.5295 -0.2860
 1872SOL     OW17077   2.752   1.223   7.919  0.2097 -0.2691  0.3101
 1872SOL    HW117078   2.670   1.267   7.894  0.8220  1.6932  1.7446
 1872SOL    HW217079   2.766   1.171   7.840 -2.3580 -1.1759  0.4503
 1873SOL     OW17080   3.617   2.846   0.615  0.7632 -0.2041 -0.3442
 1873SOL    HW117081   3.558   2.849   0.690  0.0233 -2.8646 -0.8253
 1873SOL    HW217082   3.576   2.772   0.570  0.0501 -0.6595  1.0658
 1874SOL     OW17083   4.540   3.010   3.170 -0.3273 -0.5642  0.3624
 1874SOL    HW117084   4.611   2.979   3.114  0.0401  1.3967 -0.2468
 1874SOL    HW217085   4.542   2.931   3.224  0.1584 -0.8614 -0.0901
 1875SOL     OW17086   4.017   3.259   1.195  0.3073  0.7537 -0.2648
 1875SOL    HW117087   3.979   3.322   1.256 -0.9694  0.7921 -1.1043
 1875SOL    HW217088   4.076   3.209   1.250  1.6753  1.4146 -1.1360
 1876SOL     OW17089   3.989   1.128   4.486  0.0150  0.0163 -0.4603
 1876SOL    HW117090   3.995   1.219   4.517 -0.4616 -0.3274  0.6765
 1876SOL    HW217091   3.924   1.137   4.416 -1.4224 -1.1021  0.7227
 1877SOL     OW17092   3.311   4.405  12.625 -0.0211  0.6389 -0.1902
 1877SOL    HW117093   3.283   4.336  12.685 -2.6714  2.4558  0.6991
 1877SOL    HW217094   3.355   4.458  12.693 -1.2994 -0.8668  1.8089
 1878SOL     OW17095   2.692   1.868   1.816  0.7011  0.0632 -0.5020
 1878SOL    HW117096   2.727   1.925   1.748 -1.4096  1.0882 -0.7277
 1878SOL    HW217097   2.614   1.823   1.784 -0.5875  2.0222 -0.1404
 1879SOL     OW17098   3.190   0.789  17.007  0.3606 -0.2284 -0.1739
 1879SOL    HW117099   3.252   0.803  16.935 -0.6696  0.4042 -0.9434
 1879SOL    HW217100   3.142   0.872  17.010  2.5090  1.0659 -0.8219
 1880SOL     OW17101   4.591   1.092  14.374  0.3568  0.2421 -0.2827
 1880SOL    HW117102   4.524   1.034  14.340 -0.2996  2.3427 -2.5896
 1880SOL    HW217103   4.611   1.055  14.460  0.4884 -1.4710 -1.0524
 1881SOL     OW17104   1.006   4.147   8.240 -0.1675 -0.2314 -0.4994
 1881SOL    HW117105   0.919   4.124   8.206 -0.3842 -0.0428 -0.0858
 1881SOL    HW217106   0.988   4.189   8.324 -1.4269 -0.4532 -0.6566
 1882SOL     OW17107   0.013   1.425   4.687 -0.2432  0.2258  0.1147
 1882SOL    HW117108   4.721   1.422   4.781 -1.6148  1.2399 -0.1104
 1882SOL    HW217109   0.105   1.449   4.691  0.3291 -2.2829  1.9215
 1883SOL     OW17110   1.741   4.260   4.497  0.1031 -0.1904 -0.1023
 1883SOL    HW117111   1.777   4.235   4.412  2.1221  1.1025  0.3682
 1883SOL    HW217112   1.729   4.355   4.485  1.6791  0.2258  1.4905
 1884SOL     OW17113   2.505   2.913  10.061 -0.2114  0.0212  0.5068
 1884SOL    HW117114   2.544   2.998  10.040 -1.7200  0.5748 -0.0863
 1884SOL    HW217115   2.513   2.863   9.980 -1.7699 -0.5524  0.7162
 1885SOL     OW17116   2.380   3.619  10.537 -0.0260 -0.4909  0.1157
 1885SOL    HW117117   2.385   3.524  10.547  2.2297 -0.1623  2.0400
 1885SOL    HW217118   2.451   3.646  10.479  1.7318 -2.9741  1.1086
 1886SOL     OW17119   2.414   4.439   3.234 -0.1289  0.2688  0.0406
 1886SOL    HW117120   2.385   4.443   3.143 -2.6309  2.2852  0.9536
 1886SOL    HW217121   2.354   4.376   3.273  1.2050  0.0959  1.7988
 1887SOL     OW17122   1.665   1.505  15.557  0.4873 -0.4312 -0.1699
 1887SOL    HW117123   1.629   1.457  15.482  1.2646  2.0854 -2.1457
 1887SOL    HW217124   1.757   1.520  15.533  0.2238  0.2218 -0.7690
 1888SOL     OW17125   3.686   3.277  11.491  0.0533 -0.3434 -0.1377
 1888SOL    HW117126   3.598   3.250  11.516  0.2847  0.5411  1.6370
 1888SOL    HW217127   3.686   3.303  11.399 -1.7074  0.3075  0.0507
 1889SOL     OW17128   2.226   2.207   9.094  0.3410 -0.0927  0.7177
 1889SOL    HW117129   2.188   2.242   9.175  0.0109 -0.4138  0.7021
 1889SOL    HW217130   2.268   2.132   9.135 -1.4152 -0.4621  1.8595
 1890SOL     OW17131   1.301   0.725   4.624 -0.4523 -0.2060 -0.3936
 1890SOL    HW117132   1.265   0.760   4.705  1.3174 -0.4973  0.5216
 1890SOL    HW217133   1.385   0.770   4.613 -0.2954  0.1389  2.1569
 1891SOL     OW17134   4.151   1.911   1.143  0.3707 -0.1502  0.1050
 1891SOL    HW117135   4.103   1.948   1.217  1.9220 -0.5097  1.2932
 1891SOL    HW217136   4.109   1.825   1.134 -2.3035  1.2249 -0.5618
 1892SOL     OW17137   3.628   2.127  16.219 -0.4107  0.4143 -0.4252
 1892SOL    HW117138   3.632   2.207  16.166 -1.7475  0.3469 -0.6389
 1892SOL    HW217139   3.721   2.117  16.234 -0.4235  2.5005  1.1191
 1893SOL     OW17140   2.143   1.899   0.533  0.3231 -0.2595  0.5885
 1893SOL    HW117141   2.127   1.925   0.623 -1.2800  0.1522  0.1855
 1893SOL    HW217142   2.182   1.973   0.487 -0.2403  0.6335  1.5667
 1894SOL     OW17143   1.630   2.318   6.217 -0.0046  0.0804  0.1378
 1894SOL    HW117144   1.652   2.381   6.287  1.5128 -1.1122  0.7418
 1894SOL    HW217145   1.563   2.259   6.251  1.7280 -1.1539  1.4079
 1895SOL     OW17146   2.139   4.442   5.991  0.3192  0.2187 -0.4708
 1895SOL    HW117147   2.181   4.424   6.076 -1.0320 -2.2425 -0.3205
 1895SOL    HW217148   2.212   4.498   5.966  0.7401  1.6760  4.0082
 1896SOL     OW17149   0.124   1.592   6.055  0.3108 -0.0375  0.3539
 1896SOL    HW117150   0.104   1.531   5.984 -0.0595  0.4819  0.0088
 1896SOL    HW217151   0.039   1.634   6.068  0.3021  0.1664 -0.3288
 1897SOL     OW17152   1.720   4.236   6.055 -0.0348 -0.0605 -0.4143
 1897SOL    HW117153   1.688   4.295   6.123 -0.7307 -0.0690 -0.7248
 1897SOL    HW217154   1.814   4.244   6.069 -0.4409 -0.4606  2.3920
 1898SOL     OW17155   4.649   0.397   3.513  0.6650  0.3443 -0.3763
 1898SOL    HW117156   4.678   0.484   3.485  0.9124  0.2194 -0.5048
 1898SOL    HW217157   4.599   0.374   3.435  1.0853 -4.6204  0.8291
 1899SOL     OW17158   0.080   4.544   9.384 -0.4559 -0.2812  0.9047
 1899SOL    HW117159   0.051   4.501   9.464 -0.5148  1.1187  1.6410
 1899SOL    HW217160   0.083   4.473   9.320 -0.3064  0.2216  0.3579
 1900SOL     OW17161   1.999   4.516  16.668  0.0141  0.2500 -0.2387
 1900SOL    HW117162   2.008   4.565  16.750  1.1032  0.1453 -0.2975
 1900SOL    HW217163   1.934   4.447  16.682  1.4296 -0.8436  0.7807
 1901SOL     OW17164   2.556   3.689   8.116  0.0407 -0.0183  0.7975
 1901SOL    HW117165   2.634   3.689   8.172  1.1264  0.4465 -0.7438
 1901SOL    HW217166   2.548   3.785   8.119  0.3773 -0.0167  1.7375
 1902SOL     OW17167   2.400   3.298  12.309  0.9360 -0.0736  0.2287
 1902SOL    HW117168   2.427   3.372  12.254 -1.0968 -0.2992 -1.0468
 1902SOL    HW217169   2.310   3.287  12.281  1.0467 -1.5574  0.4628
 1903SOL     OW17170   0.123   2.596  11.563  0.3165 -0.3339  0.3901
 1903SOL    HW117171   0.210   2.615  11.527  0.4447  0.8763  1.3439
 1903SOL    HW217172   0.076   2.678  11.546  0.4337  0.1489  2.3959
 1904SOL     OW17173   4.272   0.872   4.720 -0.2892 -0.2200  0.5323
 1904SOL    HW117174   4.244   0.959   4.691 -1.7828 -0.9360 -0.1338
 1904SOL    HW217175   4.343   0.893   4.782 -2.1074 -3.1758  3.6003
 1905SOL     OW17176   0.369   1.496   3.072  0.7346 -0.4003  0.1881
 1905SOL    HW117177   0.381   1.414   3.024  1.6256  0.8066 -1.6269
 1905SOL    HW217178   0.334   1.451   3.149  0.6773  0.2916  0.5682
 1906SOL     OW17179   0.634   1.990   7.440  0.3388 -0.4852  0.0018
 1906SOL    HW117180   0.663   1.974   7.350 -0.7127 -0.7033 -0.2930
 1906SOL    HW217181   0.636   1.906   7.485  1.9487  0.8337  2.3652
 1907SOL     OW17182   4.472   1.268  15.602 -0.0292 -0.1592  0.4234
 1907SOL    HW117183   4.515   1.325  15.538 -0.4440 -0.5639 -0.2239
 1907SOL    HW217184   4.542   1.252  15.664  0.2641 -1.2158 -0.1807
 1908SOL     OW17185   3.879   3.308   6.723  0.0129 -0.3103 -0.7279
 1908SOL    HW117186   3.934   3.262   6.787 -1.2635 -1.8781 -0.7663
 1908SOL    HW217187   3.888   3.401   6.741  2.2191 -0.6331 -0.1109
 1909SOL     OW17188   3.345   3.350   2.157  0.4548 -0.0064 -0.1586
 1909SOL    HW117189   3.289   3.274   2.167  1.2421 -0.2644  2.2663
 1909SOL    HW217190   3.430   3.324   2.121  1.6249  3.2380  0.2777
 1910SOL     OW17191   2.786   3.384   4.650  0.0300  0.1284 -0.9102
 1910SOL    HW117192   2.861   3.329   4.671 -1.1360 -0.7663  0.8925
 1910SOL    HW217193   2.770   3.356   4.560  2.3742  1.7261 -1.8149
 1911SOL     OW17194   1.419   1.650   4.101 -0.1105 -0.1478  0.1155
 1911SOL    HW117195   1.372   1.635   4.019  2.1559 -0.9242 -1.0219
 1911SOL    HW217196   1.440   1.743   4.113 -0.4614 -0.2661  1.7341
 1912SOL     OW17197   4.349   2.278   3.334  0.1303 -0.0106 -0.1479
 1912SOL    HW117198   4.389   2.365   3.339  0.4498 -0.1118 -0.9852
 1912SOL    HW217199   4.310   2.268   3.421  0.0884  0.1354 -0.1499
 1913SOL     OW17200   0.810   4.463   3.507  0.1938 -0.7648  0.5913
 1913SOL    HW117201   0.870   4.483   3.579 -0.1309  2.6800 -0.1236
 1913SOL    HW217202   0.764   4.546   3.497 -0.2779 -1.3145 -1.8094
 1914SOL     OW17203   4.135   2.894   9.874 -0.0299 -0.2126  0.5042
 1914SOL    HW117204   4.190   2.909   9.951  0.2612  2.0828 -0.1573
 1914SOL    HW217205   4.122   2.800   9.887  0.7510 -0.4836 -0.6817
 1915SOL     OW17206   2.509   0.745   8.514  0.2607  0.7221  0.9784
 1915SOL    HW117207   2.480   0.794   8.591 -2.7764  0.9323 -0.3235
 1915SOL    HW217208   2.598   0.781   8.517 -0.3910  2.4472 -0.4954
 1916SOL     OW17209   1.024   2.253   8.612  0.1704 -0.3491  0.0744
 1916SOL    HW117210   0.942   2.300   8.599  1.1436  1.1263 -0.7876
 1916SOL    HW217211   1.040   2.275   8.704 -0.2504  1.7170 -0.3387
 1917SOL     OW17212   0.601   0.563   4.813 -0.3725 -0.2105  0.0828
 1917SOL    HW117213   0.573   0.571   4.904 -1.5700  0.1074 -0.3111
 1917SOL    HW217214   0.531   0.501   4.794 -0.2916 -0.9692  2.2166
 1918SOL     OW17215   2.317   4.295   1.805 -0.7686 -0.0618 -0.4106
 1918SOL    HW117216   2.345   4.238   1.733  2.2656  0.1276  0.5975
 1918SOL    HW217217   2.312   4.378   1.757 -0.5243  0.1553 -0.0663
 1919SOL     OW17218   0.158   2.736   4.243  0.2617 -0.4629  0.2947
 1919SOL    HW117219   0.129   2.688   4.166 -0.8113 -0.0338  0.4389
 1919SOL    HW217220   0.069   2.760   4.267 -0.3942 -1.0771 -1.4563
 1920SOL     OW17221   3.620   2.709   0.069  0.7287  0.3508 -0.3044
 1920SOL    HW117222   3.694   2.750   0.025  1.2963 -0.7825 -0.4267
 1920SOL    HW217223   3.556   2.779   0.060 -1.1652 -1.2836  0.3716
 1921SOL     OW17224   1.955   1.126   8.796  0.3537 -0.1452  0.3248
 1921SOL    HW117225   1.923   1.213   8.770  1.9203  0.1139 -0.7387
 1921SOL    HW217226   1.895   1.111   8.869  1.0811  0.3389  1.0075
 1922SOL     OW17227   4.700   4.572  14.926 -0.2783  0.1766 -0.2966
 1922SOL    HW117228   4.704   4.477  14.937  1.2684  0.2678 -0.1832
 1922SOL    HW217229   0.057   4.608  14.957  0.3831  0.1869 -2.0518
 1923SOL     OW17230   4.019   3.682   6.506 -0.2522  0.0752  0.1785
 1923SOL    HW117231   4.056   3.770   6.502  1.6989 -0.7831 -0.4875
 1923SOL    HW217232   4.048   3.633   6.429 -0.0363  0.0601  0.2714
 1924SOL     OW17233   2.038   3.687   8.582  0.3980  0.3545  0.2550
 1924SOL    HW117234   2.129   3.671   8.604 -0.2217 -1.0640  1.7566
 1924SOL    HW217235   2.036   3.732   8.497  0.8986 -1.2679 -0.6025
 1925SOL     OW17236   0.276   1.525  13.917 -0.5412  0.3392  0.7362
 1925SOL    HW117237   0.239   1.490  13.998  2.3447 -0.9692  1.4552
 1925SOL    HW217238   0.233   1.610  13.904 -1.7713 -0.1297  1.6470
 1926SOL     OW17239   1.523   1.794   2.379  0.0204  0.5466 -0.0018
 1926SOL    HW117240   1.516   1.886   2.355  2.1045  0.4513 -0.9607
 1926SOL    HW217241   1.498   1.795   2.471  0.4829  0.1682  0.1287
 1927SOL     OW17242   2.962   0.528  10.790  0.1132 -0.5325 -0.1806
 1927SOL    HW117243   3.018   0.464  10.746  0.4620  0.8606 -1.7118
 1927SOL    HW217244   2.884   0.524  10.735  0.0813  0.9153 -0.2366
 1928SOL     OW17245   4.021   3.545  13.979  0.2556 -0.3530 -0.5306
 1928SOL    HW117246   4.060   3.624  14.018  0.9133 -1.4795  1.0812
 1928SOL    HW217247   3.993   3.487  14.049 -2.5134  2.6925  0.9270
 1929SOL     OW17248   1.117   2.596  12.560 -0.3271  0.8454  0.2957
 1929SOL    HW117249   1.212   2.607  12.562 -0.1194 -1.1472  1.2378
 1929SOL    HW217250   1.117   2.529  12.492 -1.3180  2.6407 -1.4812
 1930SOL     OW17251   0.289   0.543   7.550 -0.6567  0.5136 -0.4191
 1930SOL    HW117252   0.252   0.457   7.568  0.9766  0.0493  0.7283
 1930SOL    HW217253   0.213   0.599   7.536 -0.2625  1.6105  1.7894
 1931SOL     OW17254   2.120   0.962   2.247  0.6498 -0.3209 -0.9072
 1931SOL    HW117255   2.107   1.052   2.217  0.5828 -0.5029 -1.4289
 1931SOL    HW217256   2.048   0.906   2.218 -0.2594  0.0960  0.5618
 1932SOL     OW17257   3.493   0.198   9.112  0.4943  0.2405 -0.1624
 1932SOL    HW117258   3.496   0.149   9.194  2.3036 -2.1349 -1.6359
 1932SOL    HW217259   3.547   0.272   9.139  2.6678 -0.8846 -1.3348
 1933SOL     OW17260   2.364   3.664   3.280 -0.0245 -0.2062 -0.2599
 1933SOL    HW117261   2.414   3.713   3.215 -1.1918  0.5193 -0.5992
 1933SOL    HW217262   2.435   3.615   3.323 -0.7710 -1.9890 -1.0719
 1934SOL     OW17263   0.300   3.296  16.898 -0.2983 -0.4835  0.1700
 1934SOL    HW117264   0.255   3.356  16.838  0.7891  0.2751  0.1239
 1934SOL    HW217265   0.245   3.217  16.899 -0.2131 -0.5146  2.4518
 1935SOL     OW17266   4.680   1.782   2.792 -0.5291  0.1270  0.8344
 1935SOL    HW117267   4.638   1.715   2.738  1.3704  0.8792 -1.6120
 1935SOL    HW217268   0.032   1.737   2.825  0.1282  0.8731  0.3125
 1936SOL     OW17269   3.103   0.384   8.730  0.4033 -0.9842  0.2209
 1936SOL    HW117270   3.128   0.377   8.822  2.1696 -0.1951 -0.1974
 1936SOL    HW217271   3.148   0.466   8.710 -0.9828 -0.6893 -1.7436
 1937SOL     OW17272   4.010   1.936  10.724 -0.1685  0.1863  0.6514
 1937SOL    HW117273   4.020   2.025  10.688 -1.1300  1.2700  3.0769
 1937SOL    HW217274   3.998   1.890  10.641  1.1019 -0.5117  0.8638
 1938SOL     OW17275   2.282   1.667  17.430 -0.1567  0.1756 -0.1739
 1938SOL    HW117276   2.356   1.709  17.387 -0.8855  2.1845  0.5152
 1938SOL    HW217277   2.264   1.599  17.366  0.1496  0.2417 -0.3297
 1939SOL     OW17278   3.861   2.496   9.550 -0.1248 -0.0852  0.0411
 1939SOL    HW117279   3.838   2.583   9.517 -0.7683 -0.3158 -0.1073
 1939SOL    HW217280   3.946   2.528   9.582  0.1925 -1.8690  0.9911
 1940SOL     OW17281   1.900   2.085   8.352  0.4096  0.2066 -0.3793
 1940SOL    HW117282   1.966   2.052   8.291  1.1713  0.3733  0.3590
 1940SOL    HW217283   1.927   2.062   8.441  0.7289  1.8210 -0.0580
 1941SOL     OW17284   3.969   3.294   3.551  0.2492  0.7982  0.0141
 1941SOL    HW117285   3.876   3.315   3.560 -0.2922 -2.4597  1.9777
 1941SOL    HW217286   3.986   3.315   3.460 -2.8199  3.2794 -0.0060
 1942SOL     OW17287   2.328   3.741   9.665 -0.1940  0.5919 -0.1868
 1942SOL    HW117288   2.308   3.821   9.617  0.7611  0.8112 -0.2178
 1942SOL    HW217289   2.321   3.773   9.755 -0.2786 -0.0975  0.0523
 1943SOL     OW17290   0.043   1.416   6.513  0.0070 -0.0014 -0.2058
 1943SOL    HW117291   0.095   1.396   6.590 -0.7296 -1.8482 -0.1957
 1943SOL    HW217292   0.104   1.473   6.466  2.1118 -0.6461  1.7483
 1944SOL     OW17293   1.535   2.274  16.800 -0.1113  0.6332 -0.3345
 1944SOL    HW117294   1.617   2.279  16.849  1.9140  2.5917 -3.9388
 1944SOL    HW217295   1.530   2.359  16.757 -0.4315  1.7437  1.8823
 1945SOL     OW17296   1.882   1.708   4.062  0.0000  0.3136  0.1414
 1945SOL    HW117297   1.948   1.690   3.995  0.7908  3.0874  0.1860
 1945SOL    HW217298   1.849   1.620   4.083  0.3481 -0.2892 -1.9006
 1946SOL     OW17299   1.699   0.010   5.293  0.2629  0.1836 -0.2886
 1946SOL    HW117300   1.718   0.009   5.387 -1.4265  0.2494  0.0555
 1946SOL    HW217301   1.707   4.650   5.251 -1.1375  0.8857 -2.0172
 1947SOL     OW17302   3.915   0.415   2.484  0.6362 -0.5047 -0.0739
 1947SOL    HW117303   3.852   0.345   2.469  2.1566 -2.0025  0.5315
 1947SOL    HW217304   3.874   0.491   2.442  0.6774 -1.0104 -1.0120
 1948SOL     OW17305   0.435   1.502   1.705 -0.3440  0.4438  0.1819
 1948SOL    HW117306   0.341   1.485   1.712 -0.4002  0.6542 -0.0625
 1948SOL    HW217307   0.455   1.575   1.763 -1.1170 -0.4564  1.5868
 1949SOL     OW17308   0.973   2.633  13.625 -0.5713  0.0156  0.6409
 1949SOL    HW117309   1.038   2.669  13.564 -1.7994  0.7152 -0.2521
 1949SOL    HW217310   1.001   2.545  13.648 -0.3977 -0.2544 -0.5767
 1950SOL     OW17311   2.880   4.223   1.169  0.1482  0.5376  0.0684
 1950SOL    HW117312   2.943   4.165   1.212 -1.4172 -1.5701 -0.4415
 1950SOL    HW217313   2.822   4.154   1.135  0.3397  0.9493 -1.0984
 1951SOL     OW17314   1.974   4.167   3.498  0.7848  0.5154 -0.4812
 1951SOL    HW117315   1.972   4.072   3.507  0.8545  0.2808 -2.8143
 1951SOL    HW217316   1.895   4.183   3.446  1.5710  1.4896 -1.3782
 1952SOL     OW17317   0.837   2.019   8.543 -0.4870 -0.5612 -0.2783
 1952SOL    HW117318   0.791   2.080   8.485  0.0202  1.7198  1.7502
 1952SOL    HW217319   0.917   2.065   8.567 -1.4670  0.3119  1.3179
 1953SOL     OW17320   3.547   1.166   0.108  0.2125  0.1907  0.0225
 1953SOL    HW117321   3.474   1.197   0.054 -1.3322  1.3016  2.7386
 1953SOL    HW217322   3.556   1.242   0.166  0.5344  0.4785 -0.4030
 1954SOL     OW17323   1.228   2.518   1.031 -0.0044  0.4549 -0.4141
 1954SOL    HW117324   1.249   2.594   0.977  0.2350  0.7730  0.1330
 1954SOL    HW217325   1.149   2.492   0.983  1.2086  0.5634 -2.4564
 1955SOL     OW17326   1.916   0.899  10.681 -0.2122 -0.5636  0.0777
 1955SOL    HW117327   2.003   0.937  10.665  0.5684 -1.3288  2.6338
 1955SOL    HW217328   1.919   0.923  10.773  0.8441 -0.4755  0.0241
 1956SOL     OW17329   3.101   3.082   2.825 -0.1686 -0.7837  0.2452
 1956SOL    HW117330   3.109   3.170   2.789 -1.3301  0.1281  2.2137
 1956SOL    HW217331   3.148   3.095   2.908 -1.5936 -3.3396  1.4720
 1957SOL     OW17332   0.692   1.577   7.291 -0.4987 -0.8489 -0.2916
 1957SOL    HW117333   0.702   1.490   7.329 -1.3807 -0.3572  1.0709
 1957SOL    HW217334   0.606   1.603   7.324 -0.8313 -0.6699 -1.2778
 1958SOL     OW17335   2.004   1.493  17.340 -0.1232 -0.3115 -0.2404
 1958SOL    HW117336   2.021   1.502  17.434 -1.5414  0.4243 -0.0480
 1958SOL    HW217337   2.037   1.409  17.308 -3.2298 -1.8917  0.7517
 1959SOL     OW17338   4.389   1.945   8.731  0.4042 -0.8785 -0.2593
 1959SOL    HW117339   4.315   1.995   8.698  0.3811  1.0271  2.6850
 1959SOL    HW217340   4.401   1.900   8.647 -0.1296  1.4641 -1.5925
 1960SOL     OW17341   4.291   0.940  16.244  0.6902 -0.0997 -0.3775
 1960SOL    HW117342   4.359   0.974  16.186  0.5916  1.5082  0.4291
 1960SOL    HW217343   4.222   1.001  16.219 -0.0623 -0.7069  0.2267
 1961SOL     OW17344   2.642   2.288   5.653  0.0659  0.2939 -0.1403
 1961SOL    HW117345   2.711   2.237   5.696  0.4852 -0.4103 -1.6419
 1961SOL    HW217346   2.620   2.216   5.594 -1.0982  1.7977 -1.5332
 1962SOL     OW17347   0.328   3.932   8.579 -0.7744  0.0061  0.5070
 1962SOL    HW117348   0.330   3.903   8.670  1.6272  3.5989  1.5989
 1962SOL    HW217349   0.294   4.020   8.596 -2.5523 -0.7676  0.8948
 1963SOL     OW17350   3.137   0.111   6.458  0.0721 -0.3445  0.5946
 1963SOL    HW117351   3.130   0.191   6.405  0.2883 -0.5267  0.2944
 1963SOL    HW217352   3.063   0.072   6.410  0.3461 -1.4361  1.0611
 1964SOL     OW17353   2.666   3.219   2.140  0.5606  0.1674 -0.1331
 1964SOL    HW117354   2.620   3.288   2.092 -1.4274  0.1957  1.8143
 1964SOL    HW217355   2.755   3.255   2.140  0.5824  0.1233  1.4480
 1965SOL     OW17356   3.271   0.112   3.324  0.9685 -0.3263 -1.2706
 1965SOL    HW117357   3.250   0.020   3.307 -0.2865  0.0505 -1.7040
 1965SOL    HW217358   3.210   0.113   3.398  2.1035  2.6524 -0.3915
 1966SOL     OW17359   1.802   3.686   5.116  0.5855 -0.0654 -0.0400
 1966SOL    HW117360   1.867   3.664   5.049  0.4744 -3.9778  1.1315
 1966SOL    HW217361   1.723   3.651   5.074  0.1605 -2.0273  2.4007
 1967SOL     OW17362   3.094   2.567   1.931 -0.5850 -0.6787 -0.3983
 1967SOL    HW117363   3.164   2.608   1.982  2.6880 -1.6978 -4.0588
 1967SOL    HW217364   3.052   2.644   1.892  0.1621 -2.1091 -4.0301
 1968SOL     OW17365   3.846   1.288  14.879 -0.7380 -0.2410 -0.0943
 1968SOL    HW117366   3.843   1.229  14.804 -2.6156  1.0894 -1.0568
 1968SOL    HW217367   3.850   1.225  14.951  1.6082 -0.7279 -0.6537
 1969SOL     OW17368   3.518   4.401   4.865  0.3141  0.4717  0.0157
 1969SOL    HW117369   3.584   4.342   4.827 -0.8867  0.7502 -2.4986
 1969SOL    HW217370   3.501   4.465   4.797  0.6022 -0.1984 -0.6887
 1970SOL     OW17371   2.134   0.433   9.315 -0.2244  0.1822  0.1721
 1970SOL    HW117372   2.223   0.468   9.325 -1.1234  2.4376  0.2974
 1970SOL    HW217373   2.146   0.350   9.361 -1.0892  0.0826  0.2116
 1971SOL     OW17374   3.895   3.169   2.770  0.3355  0.3585  0.0367
 1971SOL    HW117375   3.984   3.202   2.764  0.3379  0.9110  3.0746
 1971SOL    HW217376   3.905   3.074   2.773  0.2922  0.2717 -2.6202
 1972SOL     OW17377   4.132   0.698   8.061  0.3284  0.7421 -0.5773
 1972SOL    HW117378   4.098   0.720   7.974 -1.7702  0.6708  0.2288
 1972SOL    HW217379   4.167   0.609   8.051  0.8055  1.0465 -1.6235
 1973SOL     OW17380   2.155   0.768  15.186  0.1894  0.3763 -0.1080
 1973SOL    HW117381   2.246   0.754  15.213 -0.5039 -2.8850  0.4258
 1973SOL    HW217382   2.149   0.758  15.091  1.3761  0.4926 -0.1905
 1974SOL     OW17383   1.507   4.298  14.015 -0.5136  0.4966  0.1410
 1974SOL    HW117384   1.551   4.214  14.001 -1.5417 -0.2434  1.2719
 1974SOL    HW217385   1.437   4.285  14.080 -0.7263  0.1343 -0.1584
 1975SOL     OW17386   0.822   4.530  14.043  0.2207 -0.4455  0.0413
 1975SOL    HW117387   0.814   4.618  14.007 -0.3847 -0.4296  0.2210
 1975SOL    HW217388   0.736   4.490  14.047 -0.0920  0.3478  1.3405
 1976SOL     OW17389   2.877   3.236   8.364  0.6883  0.0803 -0.1175
 1976SOL    HW117390   2.784   3.227   8.386  0.8491  0.8446  0.8635
 1976SOL    HW217391   2.906   3.310   8.417 -0.0740  0.8961 -0.8365
 1977SOL     OW17392   0.254   0.889  15.180 -0.1950  0.2804 -0.5493
 1977SOL    HW117393   0.277   0.942  15.103  0.2183  0.5180 -0.2613
 1977SOL    HW217394   0.163   0.870  15.160  0.1987 -2.7343  0.5998
 1978SOL     OW17395   0.451   3.056   6.438 -0.2171  0.0514 -0.0778
 1978SOL    HW117396   0.453   3.144   6.399  3.6778  1.6608  3.8269
 1978SOL    HW217397   0.387   3.074   6.506  2.0889  0.2479  2.0337
 1979SOL     OW17398   2.196   1.504   9.582  0.4337 -0.2310 -0.4049
 1979SOL    HW117399   2.160   1.589   9.555 -0.1414  0.4521  2.5421
 1979SOL    HW217400   2.288   1.526   9.595  0.4482 -0.3053 -0.3847
 1980SOL     OW17401   1.330   4.646   7.175 -0.7243 -1.1661 -0.2719
 1980SOL    HW117402   1.389   4.591   7.227 -0.6188 -1.9401 -1.2153
 1980SOL    HW217403   1.241   4.618   7.197 -1.3209  1.2626  0.4600
 1981SOL     OW17404   2.351   4.003   9.864  0.6749  0.1013 -0.4412
 1981SOL    HW117405   2.294   4.061   9.914  0.4786 -0.6479  0.2056
 1981SOL    HW217406   2.306   3.919   9.874  0.4110  0.0078 -2.5506
 1982SOL     OW17407   2.129   1.578  13.347 -0.4675 -0.3283  0.4984
 1982SOL    HW117408   2.219   1.562  13.320  0.8321  2.6150  3.1732
 1982SOL    HW217409   2.117   1.665  13.309  1.4148 -0.7261 -1.0031
 1983SOL     OW17410   2.532   1.180   7.231  0.1375  0.5315 -0.5394
 1983SOL    HW117411   2.457   1.239   7.235  1.3529  2.1401 -1.3790
 1983SOL    HW217412   2.489   1.095   7.223 -2.2153  1.4586  2.2020
 1984SOL     OW17413   3.126   0.891  11.325 -0.3903 -0.1217  0.7082
 1984SOL    HW117414   3.051   0.903  11.384 -0.3247  0.5864  0.6427
 1984SOL    HW217415   3.129   0.795  11.316  3.6220  0.1719 -0.8154
 1985SOL     OW17416   0.264   1.852   5.529  0.4827 -0.1720 -0.4710
 1985SOL    HW117417   0.356   1.826   5.537  0.5933  1.1523  2.7224
 1985SOL    HW217418   0.227   1.776   5.485 -1.7983  0.6657  0.0390
 1986SOL     OW17419   3.777   1.156   1.931  0.7894 -0.4172  0.3123
 1986SOL    HW117420   3.794   1.247   1.955 -0.5799 -0.3265  0.9385
 1986SOL    HW217421   3.857   1.114   1.962  0.7284 -0.0068  1.0300
 1987SOL     OW17422   2.664   1.562   8.348  0.1094 -0.9670 -0.4237
 1987SOL    HW117423   2.656   1.657   8.333 -1.0520 -0.7033  1.9373
 1987SOL    HW217424   2.738   1.565   8.409 -0.6843 -2.2352  0.5797
 1988SOL     OW17425   2.840   1.212   2.712 -0.2458  0.2761 -0.0186
 1988SOL    HW117426   2.812   1.243   2.798 -0.1460  0.6483 -0.1191
 1988SOL    HW217427   2.764   1.210   2.653 -0.2633 -1.6442  0.0897
 1989SOL     OW17428   3.141   1.317   5.213 -0.7567  0.1998 -0.1050
 1989SOL    HW117429   3.052   1.349   5.194  0.1301  3.5012  1.3512
 1989SOL    HW217430   3.144   1.222   5.198 -2.0033  0.2330 -0.5994
 1990SOL     OW17431   0.433   1.763   6.397 -0.5973  0.3629 -0.1943
 1990SOL    HW117432   0.457   1.734   6.485  0.6446 -1.4093 -1.1234
 1990SOL    HW217433   0.373   1.696   6.366  0.0109 -1.5773  2.7694
 1991SOL     OW17434   4.584   1.840  17.184 -0.0748 -0.2326 -0.3248
 1991SOL    HW117435   4.540   1.768  17.137 -0.9624  0.7560 -1.0050
 1991SOL    HW217436   4.672   1.803  17.192 -0.0276  0.0679  0.4903
 1992SOL     OW17437   2.465   3.155   8.985  0.0205 -0.0043 -0.4546
 1992SOL    HW117438   2.461   3.242   8.944  2.2142 -0.1153 -0.8922
 1992SOL    HW217439   2.464   3.176   9.078  0.1354 -0.4635 -0.3468
 1993SOL     OW17440   1.102   2.838   7.153 -0.1619 -0.0630  0.7035
 1993SOL    HW117441   1.125   2.831   7.246  1.7093  0.1085  0.2486
 1993SOL    HW217442   1.007   2.838   7.163 -0.1085  0.1789  1.2002
 1994SOL     OW17443   1.793   0.875   2.087 -0.5653  0.4651 -0.3571
 1994SOL    HW117444   1.773   0.792   2.044  1.1026 -1.0616  1.8100
 1994SOL    HW217445   1.709   0.895   2.129  0.0906  0.5986  0.8973
 1995SOL     OW17446   2.069   3.560   7.030 -0.2577 -0.0599 -0.1450
 1995SOL    HW117447   2.133   3.513   7.084  1.4161  0.7061 -1.4618
 1995SOL    HW217448   1.989   3.516   7.056  0.0625 -0.8745 -0.5507
 1996SOL     OW17449   0.458   1.247   0.774  0.2427 -0.7989  0.0143
 1996SOL    HW117450   0.398   1.259   0.701  0.4681  1.1907  0.1568
 1996SOL    HW217451   0.453   1.152   0.785 -0.4199 -0.4306  2.7778
 1997SOL     OW17452   1.469   0.395   4.713 -0.2843 -0.1143 -0.0384
 1997SOL    HW117453   1.385   0.436   4.695 -0.9522 -1.3038  0.3497
 1997SOL    HW217454   1.509   0.478   4.739 -2.4028  0.4511  1.4446
 1998SOL     OW17455   1.689   2.149   9.094 -0.6721 -0.5927 -0.1899
 1998SOL    HW117456   1.703   2.234   9.137 -0.9176  0.4988 -2.2770
 1998SOL    HW217457   1.599   2.130   9.117 -0.8510  0.8988  0.3694
 1999SOL     OW17458   1.039   0.564  11.453  0.0907 -0.1934 -0.4165
 1999SOL    HW117459   1.043   0.635  11.390 -1.0397 -0.6136 -0.9532
 1999SOL    HW217460   1.018   0.490  11.397 -1.2572  1.3542 -1.9202
 2000SOL     OW17461   4.586   3.230  13.410 -0.7734 -0.1499  0.0388
 2000SOL    HW117462   4.571   3.185  13.493 -1.5970  1.4222  0.7464
 2000SOL    HW217463   4.529   3.306  13.422 -0.4546  0.1247 -0.1930
 2001SOL     OW17464   1.805   0.020   5.580 -0.2198 -0.3351  0.1285
 2001SOL    HW117465   1.835   4.684   5.647 -0.1257 -1.7497 -1.2255
 2001SOL    HW217466   1.892   0.046   5.548 -0.8390  1.5656  0.0204
 2002SOL     OW17467   1.064   2.792   9.167 -0.1823  0.1681 -0.0296
 2002SOL    HW117468   1.041   2.807   9.076  0.4460 -2.2862 -0.5918
 2002SOL    HW217469   0.980   2.784   9.211  0.7214  0.8661  1.8503
 2003SOL     OW17470   1.122   2.026  12.167  0.0081 -0.1076  0.1096
 2003SOL    HW117471   1.178   1.970  12.113  0.7971 -0.5903  1.4180
 2003SOL    HW217472   1.040   2.024  12.119  0.4553 -2.7144 -0.5549
 2004SOL     OW17473   0.306   3.433  11.980  0.4389  0.2062  0.1353
 2004SOL    HW117474   0.326   3.513  11.932 -3.0710  0.5069 -0.8542
 2004SOL    HW217475   0.393   3.397  11.998  0.7130  1.0817  0.5604
 2005SOL     OW17476   2.872   1.415   6.285 -0.8813 -0.9532  0.5389
 2005SOL    HW117477   2.784   1.387   6.311 -1.9179  0.4577 -1.4536
 2005SOL    HW217478   2.901   1.326   6.265 -0.8071 -1.2130  1.8231
 2006SOL     OW17479   0.644   3.236   3.307  0.1187  0.5361 -0.1710
 2006SOL    HW117480   0.688   3.272   3.231 -0.9009  1.4316 -0.3200
 2006SOL    HW217481   0.577   3.294   3.342 -1.1146  0.3672 -2.2882
 2007SOL     OW17482   0.655   1.832   9.886  0.8849  0.1083 -0.6865
 2007SOL    HW117483   0.608   1.892   9.829  3.4359  0.8292 -2.0310
 2007SOL    HW217484   0.607   1.843   9.968  0.9563 -3.4534 -0.1551
 2008SOL     OW17485   3.889   1.263   2.290 -0.4456 -0.4374 -0.2855
 2008SOL    HW117486   3.926   1.313   2.362  1.9355 -1.2883 -0.9233
 2008SOL    HW217487   3.834   1.326   2.244 -0.7363 -1.4130 -1.2877
 2009SOL     OW17488   3.771   2.443  12.533  0.1897  0.1325  0.1309
 2009SOL    HW117489   3.834   2.380  12.567 -0.1485  0.2441  0.9639
 2009SOL    HW217490   3.780   2.510  12.601  2.5502 -1.0100  0.9554
 2010SOL     OW17491   2.311   0.988   5.054 -0.5881  0.1745 -0.2181
 2010SOL    HW117492   2.351   0.909   5.019 -1.9004 -1.6840  2.4785
 2010SOL    HW217493   2.383   1.049   5.041 -0.3394 -0.4317 -1.6640
 2011SOL     OW17494   1.456   1.157   5.692  0.2676 -0.3078 -0.1516
 2011SOL    HW117495   1.522   1.152   5.762 -1.0655  0.2656  1.1390
 2011SOL    HW217496   1.484   1.097   5.623 -0.2674  0.7393 -1.2648
 2012SOL     OW17497   4.083   2.792   8.580 -0.0324  0.4231 -0.8079
 2012SOL    HW117498   4.033   2.845   8.642 -2.2782 -0.9465 -1.4433
 2012SOL    HW217499   4.137   2.729   8.628 -2.5368  0.3693  1.9400
 2013SOL     OW17500   1.981   0.259   5.227  0.6848  0.4322 -0.0929
 2013SOL    HW117501   2.034   0.336   5.204 -1.3216  1.7805 -0.1993
 2013SOL    HW217502   1.919   0.267   5.154  0.6699  2.2136  0.1005
 2014SOL     OW17503   1.553   2.577   5.115 -0.0869 -0.0484  0.2938
 2014SOL    HW117504   1.524   2.668   5.127 -4.2153 -1.3134 -0.0589
 2014SOL    HW217505   1.595   2.547   5.195  0.5772  1.1531  0.3962
 2015SOL     OW17506   2.188   4.201   2.997  0.1633  0.0891  0.1091
 2015SOL    HW117507   2.219   4.292   2.997  0.7258 -0.1046  1.9896
 2015SOL    HW217508   2.166   4.202   2.904  0.7544 -0.1515 -0.0370
 2016SOL     OW17509   2.440   3.683   7.664 -0.0379 -0.2167 -0.2285
 2016SOL    HW117510   2.487   3.658   7.744  1.7746  0.3045 -1.1258
 2016SOL    HW217511   2.474   3.772   7.653 -0.6984 -0.2192 -2.1999
 2017SOL     OW17512   2.649   0.225   3.771 -0.0075 -0.2591  0.1862
 2017SOL    HW117513   2.679   0.210   3.682  1.8072  0.3034  0.6957
 2017SOL    HW217514   2.721   0.275   3.809 -0.0553 -0.6019  0.7247
 2018SOL     OW17515   2.098   1.638   8.889  0.0654 -0.6951 -1.2261
 2018SOL    HW117516   2.129   1.672   8.974  0.5236 -1.8756 -0.9169
 2018SOL    HW217517   2.053   1.557   8.914  0.7508 -0.8071 -0.3326
 2019SOL     OW17518   3.276   4.139   8.293  0.3290 -0.0809  0.8575
 2019SOL    HW117519   3.318   4.213   8.338  0.5276  1.7826 -2.3809
 2019SOL    HW217520   3.317   4.158   8.209  1.3589 -2.2806  0.8489
 2020SOL     OW17521   1.849   0.322   0.206 -0.4348  0.1914 -0.1061
 2020SOL    HW117522   1.788   0.396   0.207 -1.6336 -0.8090  0.8793
 2020SOL    HW217523   1.793   0.253   0.169 -0.0873 -0.0299 -0.2157
 2021SOL     OW17524   3.499   2.737   3.524 -0.2158 -0.1333 -0.2038
 2021SOL    HW117525   3.515   2.831   3.534  1.2140 -0.5683  1.7511
 2021SOL    HW217526   3.407   2.745   3.499  0.0811 -0.0803 -1.2720
 2022SOL     OW17527   3.015   0.226  11.563  0.4196  0.7232 -0.4971
 2022SOL    HW117528   3.062   0.297  11.607 -1.0402  0.9374  0.7082
 2022SOL    HW217529   2.924   0.242  11.588 -0.5745 -0.6674 -3.2348
 2023SOL     OW17530   0.342   2.432   5.420  0.0059  0.5957  0.1782
 2023SOL    HW117531   0.277   2.433   5.350  0.5631 -1.3332 -0.3822
 2023SOL    HW217532   0.359   2.339   5.438 -0.9285  0.4382  0.2030
 2024SOL     OW17533   4.281   4.381   8.916  0.3363  0.3329 -0.0515
 2024SOL    HW117534   4.225   4.454   8.940 -0.3595 -0.3963  0.5570
 2024SOL    HW217535   4.305   4.355   9.005  0.8133 -1.2912 -0.6501
 2025SOL     OW17536   1.607   0.703   6.236 -0.1681 -0.2070 -0.2324
 2025SOL    HW117537   1.568   0.790   6.230 -0.5321 -0.3773 -0.3568
 2025SOL    HW217538   1.702   0.711   6.232 -0.0104 -1.1366  1.7586
 2026SOL     OW17539   2.183   0.857  14.891 -0.9833 -0.1848 -0.0118
 2026SOL    HW117540   2.273   0.837  14.915 -1.1780  2.2255  2.7149
 2026SOL    HW217541   2.186   0.861  14.796  0.4497 -1.4777 -0.0133
 2027SOL     OW17542   2.528   2.430   5.101  0.6859 -0.4177 -0.1296
 2027SOL    HW117543   2.510   2.461   5.190 -3.0024  1.5020 -1.5473
 2027SOL    HW217544   2.600   2.488   5.078  0.2580  0.3654  0.4925
 2028SOL     OW17545   0.849   3.982   6.849 -0.5808  0.4450  0.6667
 2028SOL    HW117546   0.855   4.027   6.765  0.9708 -1.6146 -0.3344
 2028SOL    HW217547   0.831   3.895   6.813 -2.8355 -0.1729  3.2140
 2029SOL     OW17548   1.642   2.201  17.193 -0.8231  0.5718 -0.3171
 2029SOL    HW117549   1.610   2.144  17.123  2.3605 -1.7228  0.0769
 2029SOL    HW217550   1.610   2.150  17.268 -0.2773  0.2757 -0.2855
 2030SOL     OW17551   1.833   2.884   0.426 -0.0865  0.4802 -0.1411
 2030SOL    HW117552   1.794   2.954   0.479 -2.6313 -0.6454 -0.5574
 2030SOL    HW217553   1.781   2.813   0.462  1.7961 -0.9065 -0.1557
 2031SOL     OW17554   2.335   1.126   4.553 -0.0980  1.1210  0.5100
 2031SOL    HW117555   2.283   1.122   4.633  2.3543  0.4784  2.0422
 2031SOL    HW217556   2.348   1.220   4.544 -2.3341  1.3579 -0.4156
 2032SOL     OW17557   4.142   3.167  15.222  0.2374  0.8101 -0.8085
 2032SOL    HW117558   4.058   3.126  15.199 -0.2589  1.7505 -0.6994
 2032SOL    HW217559   4.118   3.185  15.313  0.9825 -1.9494 -0.0581
 2033SOL     OW17560   2.936   4.025  14.783 -0.1096  0.2344  0.6628
 2033SOL    HW117561   2.854   3.994  14.743 -0.0816  2.1260 -0.8538
 2033SOL    HW217562   2.910   4.046  14.873 -3.4313 -1.2221  0.0452
 2034SOL     OW17563   0.592   3.856   4.498  0.2253  0.2422  0.0817
 2034SOL    HW117564   0.657   3.883   4.563  0.0735 -1.4778  0.9338
 2034SOL    HW217565   0.513   3.903   4.523 -1.1282 -1.7808 -0.4664
 2035SOL     OW17566   0.641   3.624  14.412 -0.2087 -0.0178 -0.9573
 2035SOL    HW117567   0.718   3.583  14.372 -1.2627 -2.3572 -0.5644
 2035SOL    HW217568   0.614   3.544  14.456  1.9822 -0.3449 -0.1754
 2036SOL     OW17569   0.125   4.263   2.757  0.1661 -0.0498 -0.0173
 2036SOL    HW117570   0.140   4.295   2.668 -4.0711 -0.6677 -0.9853
 2036SOL    HW217571   0.155   4.334   2.814 -0.6378  0.2485  0.0347
 2037SOL     OW17572   1.476   2.662   6.054 -0.0405 -0.1033 -0.2219
 2037SOL    HW117573   1.515   2.736   6.100 -0.9716 -0.5521  1.3224
 2037SOL    HW217574   1.388   2.659   6.092  0.3716  0.0873  0.7615
 2038SOL     OW17575   2.792   0.119  12.936 -0.6551  0.6656 -0.3516
 2038SOL    HW117576   2.881   0.146  12.915 -0.7241  0.4367 -0.9496
 2038SOL    HW217577   2.739   0.137  12.858 -0.7046  1.4049 -0.1478
 2039SOL     OW17578   1.313   0.194   7.131 -0.0878  0.2441  0.1272
 2039SOL    HW117579   1.335   0.103   7.149  0.5265  0.6931  1.6759
 2039SOL    HW217580   1.225   0.217   7.160  0.2365  2.0436 -0.3083
 2040SOL     OW17581   1.885   3.682   6.673  0.3115 -0.4554  0.2087
 2040SOL    HW117582   1.919   3.749   6.613  0.5606 -1.5477 -0.8677
 2040SOL    HW217583   1.850   3.735   6.745 -1.2206  3.4721 -3.3524
 2041SOL     OW17584   1.635   1.710   7.965 -0.5147  0.8530  0.3177
 2041SOL    HW117585   1.596   1.764   7.897 -0.6673  0.4106  0.0579
 2041SOL    HW217586   1.608   1.754   8.046  0.7850  1.9056  0.1905
 2042SOL     OW17587   2.585   3.155   9.977 -0.1086  0.7681 -0.5195
 2042SOL    HW117588   2.592   3.191   9.889  0.7618  0.6231 -0.5056
 2042SOL    HW217589   2.575   3.232  10.034 -1.0748  1.1121 -1.1579
 2043SOL     OW17590   2.767   3.990   1.387  0.1854  0.4094 -0.4988
 2043SOL    HW117591   2.730   3.902   1.381 -0.3709  0.5288  1.0204
 2043SOL    HW217592   2.861   3.972   1.387 -0.1353 -1.3680  1.1331
 2044SOL     OW17593   3.538   3.923   5.056  0.0623  0.3706  0.6227
 2044SOL    HW117594   3.483   4.001   5.057 -1.9879 -1.0704 -0.1177
 2044SOL    HW217595   3.495   3.880   4.982  0.1297  1.3484  0.0151
 2045SOL     OW17596   1.502   1.920   3.708  0.7891  0.1012  0.1586
 2045SOL    HW117597   1.550   1.864   3.768 -1.6782 -1.4899  0.6493
 2045SOL    HW217598   1.443   1.973   3.762  0.5112 -1.0460  0.9749
 2046SOL     OW17599   0.523   1.954  17.563  0.1871 -0.5897 -0.4302
 2046SOL    HW117600   0.564   1.986  17.483  1.2634  1.0909  0.7918
 2046SOL    HW217601   0.530   1.859  17.551  0.6886 -0.5344 -0.5773
 2047SOL     OW17602   2.797   3.426   6.192 -0.1101 -0.1687  0.3025
 2047SOL    HW117603   2.740   3.485   6.141  1.1299  1.6014  0.9401
 2047SOL    HW217604   2.808   3.474   6.274 -1.1244 -1.3903  1.1340
 2048SOL     OW17605   4.189   4.066  17.418 -0.0425  0.3191 -0.4103
 2048SOL    HW117606   4.193   4.128  17.346  1.8770  0.4811 -0.1691
 2048SOL    HW217607   4.179   4.118  17.498 -2.4741  1.5153 -1.5038
 2049SOL     OW17608   3.158   3.652   7.875 -0.1857 -0.2132  0.4304
 2049SOL    HW117609   3.150   3.630   7.968  0.1844 -0.1613  0.4776
 2049SOL    HW217610   3.236   3.708   7.880 -1.8503  2.1503 -0.0972
 2050SOL     OW17611   0.182   3.838   6.124 -0.0029  0.1022  0.5618
 2050SOL    HW117612   0.130   3.786   6.062  0.5360  1.0906 -0.7163
 2050SOL    HW217613   0.220   3.911   6.077  0.6178 -1.7157 -1.7688
 2051SOL     OW17614   3.082   1.657   1.718  0.5135  0.5521  0.2915
 2051SOL    HW117615   3.037   1.575   1.738  0.4566  0.4377 -0.3010
 2051SOL    HW217616   3.081   1.696   1.805  3.0674  0.4502  0.3706
 2052SOL     OW17617   2.799   4.545   7.276  0.0804 -0.4813 -0.2225
 2052SOL    HW117618   2.770   4.625   7.233 -2.7802 -1.0388  0.6446
 2052SOL    HW217619   2.892   4.552   7.256 -0.4084  2.2916 -1.4586
 2053SOL     OW17620   2.212   1.728   3.675  0.5794 -0.5477 -0.1552
 2053SOL    HW117621   2.260   1.806   3.647 -0.8262 -0.1607 -1.4374
 2053SOL    HW217622   2.122   1.760   3.669  0.1481 -1.9684 -1.2797
 2054SOL     OW17623   2.768   3.502   7.310  0.4247 -0.6680  0.8791
 2054SOL    HW117624   2.758   3.526   7.218 -0.9859 -0.9005  0.9701
 2054SOL    HW217625   2.858   3.471   7.317  0.9290  0.2075 -1.7408
 2055SOL     OW17626   3.419   4.551   8.175 -0.1502 -0.6882  0.3003
 2055SOL    HW117627   3.344   4.493   8.162 -1.1223  0.6158  0.1012
 2055SOL    HW217628   3.402   4.575   8.267  0.6121 -0.2299  0.3226
 2056SOL     OW17629   3.746   3.601   8.692 -0.3575 -0.5741  0.1542
 2056SOL    HW117630   3.758   3.689   8.655  2.5302 -0.7808  0.6027
 2056SOL    HW217631   3.662   3.565   8.663 -2.3131  2.0867  2.4771
 2057SOL     OW17632   3.340   4.120   6.965  0.7928 -0.0513  0.0253
 2057SOL    HW117633   3.302   4.033   6.957  1.7089 -0.5555  1.1783
 2057SOL    HW217634   3.402   4.108   7.037  1.2964  0.6971 -0.2774
 2058SOL     OW17635   0.972   2.263   4.102  0.0751 -0.5843 -0.5480
 2058SOL    HW117636   0.888   2.294   4.135  0.8337 -1.2386  1.9609
 2058SOL    HW217637   0.967   2.317   4.022 -0.0518  1.4591  0.8402
 2059SOL     OW17638   3.103   3.696  14.605 -0.3724  0.4127  0.4405
 2059SOL    HW117639   3.100   3.685  14.510 -0.5226  0.8248  0.3974
 2059SOL    HW217640   3.031   3.639  14.629  0.5809 -0.7001  0.6408
 2060SOL     OW17641   2.133   3.627   1.353 -0.6537  0.0633 -0.2940
 2060SOL    HW117642   2.155   3.588   1.268  1.1257 -0.3234  0.3390
 2060SOL    HW217643   2.110   3.547   1.399 -0.5566  0.4422  0.4128
 2061SOL     OW17644   3.194   1.879   7.882  0.0558  1.2550 -0.0653
 2061SOL    HW117645   3.276   1.854   7.839 -0.9062 -2.3142  0.1960
 2061SOL    HW217646   3.135   1.890   7.807  0.5806  0.6400 -0.5661
 2062SOL     OW17647   3.435   4.497   9.331 -0.1013  0.1903 -0.1561
 2062SOL    HW117648   3.414   4.434   9.400 -1.7573 -0.9750 -1.7656
 2062SOL    HW217649   3.531   4.496   9.325 -0.2044  1.5022 -1.8197
 2063SOL     OW17650   0.889   3.656   6.194 -0.1304  0.2022  0.1555
 2063SOL    HW117651   0.819   3.722   6.195 -0.4048 -0.0973  0.6107
 2063SOL    HW217652   0.845   3.586   6.147  1.6412 -1.6146  1.2018
 2064SOL     OW17653   0.687   0.576   0.434  0.2569  0.1736  0.1617
 2064SOL    HW117654   0.601   0.534   0.427  0.1851  0.2740  0.4565
 2064SOL    HW217655   0.707   0.533   0.516 -0.4831  0.5018  0.5147
 2065SOL     OW17656   3.331   1.047   5.125  0.4599  0.8057 -0.3980
 2065SOL    HW117657   3.298   1.086   5.045 -1.1726  1.6339  0.6832
 2065SOL    HW217658   3.391   0.979   5.093 -2.3099 -1.9840  0.3183
 2066SOL     OW17659   1.228   3.158  16.535 -0.1220  0.3629 -0.3219
 2066SOL    HW117660   1.258   3.248  16.523  0.6988  0.2246  0.6402
 2066SOL    HW217661   1.282   3.127  16.608 -1.2634 -1.4681 -0.2506
 2067SOL     OW17662   3.447   4.362  16.508 -0.3640 -0.4295 -0.1073
 2067SOL    HW117663   3.535   4.386  16.539  0.2820 -0.1141 -2.2194
 2067SOL    HW217664   3.441   4.266  16.506 -1.5178 -0.3553 -0.1531
 2068SOL     OW17665   2.219   4.495   3.936  0.1835  0.6552  0.0746
 2068SOL    HW117666   2.245   4.575   3.890 -0.0711  0.4965 -0.3529
 2068SOL    HW217667   2.160   4.453   3.873 -0.3588  2.9590 -0.9419
 2069SOL     OW17668   1.499   2.209   7.756  0.1312  1.1866  0.0985
 2069SOL    HW117669   1.550   2.260   7.693  3.1203 -0.3549  1.2546
 2069SOL    HW217670   1.427   2.187   7.697 -0.4840 -2.1604  2.0805
 2070SOL     OW17671   3.865   0.204   8.478 -0.1430  0.3907  0.1187
 2070SOL    HW117672   3.826   0.167   8.557  0.7481  1.4356  1.0377
 2070SOL    HW217673   3.819   0.142   8.422  0.8116  1.1401 -1.4845
 2071SOL     OW17674   3.775   0.043   4.736 -0.0100  0.3723  0.0908
 2071SOL    HW117675   3.835   0.025   4.809 -0.5820 -1.6891  0.0577
 2071SOL    HW217676   3.761   4.680   4.702  0.5596 -0.6789  2.6338
 2072SOL     OW17677   2.933   2.136   9.706  0.0435  0.1676  0.1598
 2072SOL    HW117678   2.982   2.069   9.659 -1.6423 -0.4650 -0.6768
 2072SOL    HW217679   2.901   2.187   9.631 -2.3790 -0.2562  0.9026
 2073SOL     OW17680   2.817   3.077   0.026 -0.0826  0.0512  0.2038
 2073SOL    HW117681   2.849   2.988   0.039 -1.1849 -0.2059  1.1095
 2073SOL    HW217682   2.873   3.120   0.091  0.3225 -0.4088  0.1626
 2074SOL     OW17683   4.529   0.085  13.453 -0.7120 -0.1274 -0.1789
 2074SOL    HW117684   4.545   0.161  13.509  0.8610 -0.8614  0.3817
 2074SOL    HW217685   4.605   0.083  13.395 -2.1977  2.3479 -2.1605
 2075SOL     OW17686   2.586   2.221   1.851 -0.5502  0.5378  0.0588
 2075SOL    HW117687   2.680   2.216   1.871 -0.5422 -0.4106 -0.2169
 2075SOL    HW217688   2.553   2.286   1.913  0.3675 -0.6879  1.8353
 2076SOL     OW17689   4.390   0.361   4.697  0.1036 -0.1394 -0.3224
 2076SOL    HW117690   4.334   0.395   4.767 -1.7712  0.6463 -2.1897
 2076SOL    HW217691   4.430   0.280   4.730  1.4301  0.5832 -0.1633
 2077SOL     OW17692   0.574   0.930   8.522 -0.3266 -0.3974  1.3941
 2077SOL    HW117693   0.596   0.880   8.600  0.4865  0.6904  1.8525
 2077SOL    HW217694   0.568   1.018   8.560  0.1069  0.5788 -0.7459
 2078SOL     OW17695   1.255   2.328  10.316 -0.5218 -0.2404 -0.2086
 2078SOL    HW117696   1.284   2.400  10.373  0.4340  0.2502 -1.3108
 2078SOL    HW217697   1.209   2.281  10.385 -0.0526  0.0946  0.3433
 2079SOL     OW17698   0.948   4.533   4.125 -0.1515  0.8403 -0.2037
 2079SOL    HW117699   1.018   4.519   4.061  2.0698  1.9420  1.9637
 2079SOL    HW217700   0.885   4.467   4.098 -0.6210  1.7645 -1.3969
 2080SOL     OW17701   0.777   2.405   8.556 -0.2874 -0.4153 -0.1354
 2080SOL    HW117702   0.737   2.355   8.485  0.4439  2.7778 -2.7968
 2080SOL    HW217703   0.724   2.375   8.630  0.8650  2.6507  1.9395
 2081SOL     OW17704   3.768   0.550   9.445 -0.2746 -0.2359  0.3762
 2081SOL    HW117705   3.835   0.527   9.509  0.3434  0.9635  0.1559
 2081SOL    HW217706   3.736   0.632   9.482 -2.4896 -0.8393 -0.1898
 2082SOL     OW17707   3.876   2.757   0.776 -0.3517 -0.6667 -0.7960
 2082SOL    HW117708   3.847   2.736   0.687  0.3625  0.3117 -1.2641
 2082SOL    HW217709   3.882   2.672   0.820  0.4832 -0.6991 -0.9600
 2083SOL     OW17710   4.027   1.181   2.595  0.3547 -0.4084 -0.0137
 2083SOL    HW117711   3.991   1.101   2.555 -0.2140  0.1510 -0.6249
 2083SOL    HW217712   4.117   1.163   2.566  0.6359 -1.3523  1.4539
 2084SOL     OW17713   1.525   1.551  13.392 -0.1931  0.3184 -0.8797
 2084SOL    HW117714   1.508   1.631  13.441  2.0286  0.1855  0.0862
 2084SOL    HW217715   1.599   1.584  13.342  2.5951 -2.6651  1.2490
 2085SOL     OW17716   4.085   0.679   6.525 -0.4193  0.6659 -0.3341
 2085SOL    HW117717   4.047   0.758   6.564  1.3629  2.0297 -1.3796
 2085SOL    HW217718   4.174   0.679   6.560 -0.9259  0.9508  0.9604
 2086SOL     OW17719   1.611   4.562   1.355 -0.7131  1.0919  0.4362
 2086SOL    HW117720   1.694   4.520   1.333 -1.8165 -0.5630 -0.5947
 2086SOL    HW217721   1.552   4.514   1.297 -1.5325  3.4113 -0.6502
 2087SOL     OW17722   2.744   1.611  16.338 -0.2348 -0.1660 -0.2382
 2087SOL    HW117723   2.670   1.560  16.305 -1.3097  1.2554 -0.0311
 2087SOL    HW217724   2.754   1.554  16.415 -0.4139 -0.0951 -0.1618
 2088SOL     OW17725   3.526   1.944   2.765 -0.2824  0.0532  0.2166
 2088SOL    HW117726   3.596   1.903   2.713 -1.2310 -0.0296 -0.9883
 2088SOL    HW217727   3.470   1.973   2.693 -2.2899 -0.7898  1.4378
 2089SOL     OW17728   3.507   1.535   7.414 -0.2945  0.0697  0.3396
 2089SOL    HW117729   3.413   1.534   7.401 -0.4863 -2.2101  1.8744
 2089SOL    HW217730   3.502   1.535   7.510  0.3918  0.4140  0.3791
 2090SOL     OW17731   0.657   1.513  15.147 -0.0806  0.0414 -0.2280
 2090SOL    HW117732   0.573   1.512  15.193  0.4769 -0.8745  0.7667
 2090SOL    HW217733   0.651   1.421  15.121  2.7735 -1.2624  3.7560
 2091SOL     OW17734   1.191   3.515   4.041  0.1775 -0.0804  0.0852
 2091SOL    HW117735   1.185   3.437   4.096  0.1217  0.6957  1.1949
 2091SOL    HW217736   1.229   3.472   3.964 -1.8939  0.5998 -1.3006
 2092SOL     OW17737   0.752   3.084   4.579 -0.4247  0.0933 -0.1095
 2092SOL    HW117738   0.840   3.083   4.618 -0.8773 -1.9437  0.8864
 2092SOL    HW217739   0.725   3.172   4.604  0.3279  0.1953  0.3617
 2093SOL     OW17740   2.464   0.429   1.231 -0.4544 -0.3463  0.2081
 2093SOL    HW117741   2.415   0.375   1.169 -2.1194  1.6115 -0.1667
 2093SOL    HW217742   2.522   0.370   1.279 -0.8841  0.0361  1.2103
 2094SOL     OW17743   4.262   3.587   4.459 -0.0651  0.5821 -0.3862
 2094SOL    HW117744   4.264   3.525   4.533 -1.3740  1.3251  0.2780
 2094SOL    HW217745   4.343   3.636   4.469  0.2420  0.0113 -0.0286
 2095SOL     OW17746   0.009   3.970   3.205 -0.9828  0.5423 -0.0974
 2095SOL    HW117747   0.028   3.946   3.296 -0.6303  1.3412  0.0366
 2095SOL    HW217748   0.042   3.888   3.167  0.1043  1.4755 -1.1797
 2096SOL     OW17749   2.225   1.525   2.875 -0.3832 -0.0351  0.3727
 2096SOL    HW117750   2.257   1.516   2.965  0.5062  1.2990  0.1912
 2096SOL    HW217751   2.214   1.433   2.850 -0.7253 -0.0221  0.4727
 2097SOL     OW17752   4.245   2.058   9.438  0.0522 -0.3974 -0.1618
 2097SOL    HW117753   4.183   2.004   9.488 -2.2254  1.2668 -1.1767
 2097SOL    HW217754   4.317   2.087   9.494 -2.5258  5.0401  0.2849
 2098SOL     OW17755   4.375   2.821   5.058  0.0961 -0.3244  0.2522
 2098SOL    HW117756   4.414   2.792   5.141 -0.6432  0.8008  1.0000
 2098SOL    HW217757   4.285   2.802   5.083 -0.1735 -2.1665 -2.0763
 2099SOL     OW17758   3.213   3.491   9.660 -0.7948  0.0664  0.3891
 2099SOL    HW117759   3.238   3.555   9.726  2.9348  0.6854 -1.6141
 2099SOL    HW217760   3.223   3.412   9.713 -1.5712 -1.9920 -2.5242
 2100SOL     OW17761   2.867   2.129   0.285 -0.4421  0.3984 -0.2260
 2100SOL    HW117762   2.900   2.047   0.247 -0.7100  0.0725  0.2428
 2100SOL    HW217763   2.778   2.099   0.304  0.5439 -0.9729  2.2921
 2101SOL     OW17764   3.590   1.966  13.788 -0.3262  0.1511 -0.3669
 2101SOL    HW117765   3.665   1.910  13.810  0.9555  1.7619 -0.6216
 2101SOL    HW217766   3.545   1.978  13.872 -0.1956  1.5931 -0.5066
 2102SOL     OW17767   0.598   2.470   1.242 -0.2647 -0.2496  0.4358
 2102SOL    HW117768   0.678   2.484   1.291  1.1843  2.0582 -2.6047
 2102SOL    HW217769   0.545   2.417   1.302 -4.4970  2.7942 -0.6423
 2103SOL     OW17770   2.412   2.795   5.508 -0.8194 -0.2498  0.0886
 2103SOL    HW117771   2.337   2.838   5.550 -1.6935 -0.7960 -0.9102
 2103SOL    HW217772   2.388   2.806   5.416  0.1431 -2.3571 -0.4121
 2104SOL     OW17773   1.464   3.868   8.217  0.6576 -0.0552 -0.2794
 2104SOL    HW117774   1.368   3.861   8.210  0.5496  0.8203  0.3588
 2104SOL    HW217775   1.484   3.776   8.199  0.7552  0.4406 -2.7758
 2105SOL     OW17776   2.546   1.987  11.069 -0.0224 -0.2746  0.0891
 2105SOL    HW117777   2.604   1.975  11.145 -0.2408 -2.7312 -0.1236
 2105SOL    HW217778   2.586   1.936  10.999 -2.2193 -1.1417 -0.5239
 2106SOL     OW17779   2.373   3.088   2.492 -0.0933  0.3097 -0.6540
 2106SOL    HW117780   2.419   3.153   2.439 -0.9763  1.0356 -0.5384
 2106SOL    HW217781   2.281   3.100   2.467 -0.1407 -2.6519 -1.8693
 2107SOL     OW17782   3.707   3.358   3.370  0.6997  0.5718  0.2073
 2107SOL    HW117783   3.621   3.395   3.349 -0.5355 -1.7534  1.1644
 2107SOL    HW217784   3.741   3.365   3.281 -0.0917 -0.3631 -0.1744
 2108SOL     OW17785   0.912   3.377  14.357 -0.2041  0.0184  0.1905
 2108SOL    HW117786   0.949   3.291  14.336  0.6746  0.8394 -1.6619
 2108SOL    HW217787   0.825   3.355  14.390 -0.6574 -0.5703 -1.3868
 2109SOL     OW17788   0.167   0.019   9.849 -0.2167 -0.2082 -0.4117
 2109SOL    HW117789   0.190   4.653   9.865  1.3227  0.1491 -0.5436
 2109SOL    HW217790   0.248   0.069   9.858 -0.8113  0.0049  3.4645
 2110SOL     OW17791   3.333   2.835   4.603 -0.1362  0.0783 -0.2949
 2110SOL    HW117792   3.356   2.790   4.684 -0.3887 -0.3541 -0.4656
 2110SOL    HW217793   3.309   2.757   4.554 -1.1996 -0.2917  0.8352
 2111SOL     OW17794   1.204   3.407   0.423  0.5346  0.7482 -0.4678
 2111SOL    HW117795   1.147   3.483   0.414  0.4087  0.5389 -1.3847
 2111SOL    HW217796   1.153   3.351   0.481  0.5538 -1.1613 -2.2921
 2112SOL     OW17797   4.079   2.565   3.311 -0.1365  0.1989 -0.5233
 2112SOL    HW117798   4.019   2.491   3.306 -0.5686  0.7001 -2.5576
 2112SOL    HW217799   4.122   2.573   3.225  0.8344  0.2803 -0.0351
 2113SOL     OW17800   1.468   4.409   1.145 -0.0570 -0.1940  0.1833
 2113SOL    HW117801   1.381   4.374   1.166  0.4355 -2.1031 -0.9895
 2113SOL    HW217802   1.503   4.353   1.076 -0.0737  0.2632 -0.1943
 2114SOL     OW17803   2.742   3.470   3.841  0.2291  0.1079 -0.3239
 2114SOL    HW117804   2.651   3.443   3.849  0.9395 -1.2586  3.0959
 2114SOL    HW217805   2.777   3.405   3.780  1.1362 -0.8586  1.2464
 2115SOL     OW17806   4.345   3.527   3.735 -0.0397 -0.0243  0.3327
 2115SOL    HW117807   4.409   3.464   3.700  1.6657  1.0533  1.5295
 2115SOL    HW217808   4.293   3.558   3.661 -0.9248  0.5372  1.1962
 2116SOL     OW17809   2.986   4.404   4.388  0.1771 -0.2950 -0.2009
 2116SOL    HW117810   3.058   4.378   4.330  0.6345 -2.6891  1.4432
 2116SOL    HW217811   3.020   4.490   4.413  0.3921 -0.1465 -1.0046
 2117SOL     OW17812   3.840   3.478   4.998 -0.2666  0.1437  0.1408
 2117SOL    HW117813   3.887   3.418   5.055 -0.0340  0.7748  0.6100
 2117SOL    HW217814   3.771   3.523   5.046  0.0784 -1.4143  2.0614
 2118SOL     OW17815   4.591   3.717  15.226 -0.5679  0.0415 -0.4595
 2118SOL    HW117816   4.648   3.766  15.167 -0.5738  0.2364 -0.3043
 2118SOL    HW217817   4.640   3.635  15.215 -1.2329 -0.4448  0.2210
 2119SOL     OW17818   4.602   3.128   2.758 -0.0746 -0.1022  0.0229
 2119SOL    HW117819   4.604   3.131   2.662 -1.1725  0.3077  0.0235
 2119SOL    HW217820   4.689   3.088   2.770 -0.4131 -0.5368  0.9679
 2120SOL     OW17821   1.347   1.531  12.172 -1.0365 -0.1871 -0.1193
 2120SOL    HW117822   1.375   1.622  12.185  0.4277 -0.6444 -0.1122
 2120SOL    HW217823   1.419   1.496  12.120  0.0769 -0.1442  1.3856
 2121SOL     OW17824   2.891   2.670   4.687  0.1209 -0.1321 -0.1996
 2121SOL    HW117825   2.858   2.690   4.600  0.2306  4.1868  0.7018
 2121SOL    HW217826   2.819   2.623   4.730  1.6235 -2.0980  0.1518
 2122SOL     OW17827   2.091   0.878   2.567 -0.7962 -0.0171 -0.3979
 2122SOL    HW117828   2.160   0.931   2.527 -1.3853 -0.4539 -2.0094
 2122SOL    HW217829   2.014   0.919   2.528 -0.8317  0.8024  0.5373
 2123SOL     OW17830   0.083   1.776   8.074 -0.5019  0.5170  0.3953
 2123SOL    HW117831   0.152   1.843   8.077  0.3155 -0.2810 -0.8487
 2123SOL    HW217832   0.020   1.818   8.015  0.9318  0.3832 -1.2179
 2124SOL     OW17833   3.999   3.324   9.099 -0.1032 -0.2112  0.2860
 2124SOL    HW117834   4.041   3.397   9.143 -0.5602  0.5326 -0.5064
 2124SOL    HW217835   3.910   3.328   9.135  0.6428  1.7356  1.8823
 2125SOL     OW17836   2.423   1.927   2.827  0.4561  0.1213  0.0768
 2125SOL    HW117837   2.361   1.859   2.802  1.2560 -1.1446  1.4947
 2125SOL    HW217838   2.439   1.961   2.739  2.1371  2.3156  1.2432
 2126SOL     OW17839   2.487   0.921   3.349 -0.2522 -0.4641  0.0537
 2126SOL    HW117840   2.425   0.884   3.411 -0.6117  0.9210  0.5217
 2126SOL    HW217841   2.465   1.014   3.358  1.1122  0.0354 -1.8118
 2127SOL     OW17842   1.597   4.312   0.297  0.2174 -0.3462 -0.6208
 2127SOL    HW117843   1.541   4.243   0.334  0.1833 -1.3942 -2.6330
 2127SOL    HW217844   1.680   4.265   0.302  0.7646  0.8592  1.5857
 2128SOL     OW17845   0.747   1.555   7.608  0.1114 -0.4178  0.8337
 2128SOL    HW117846   0.828   1.604   7.592 -0.0411 -0.6934 -0.7533
 2128SOL    HW217847   0.760   1.492   7.679  2.2547  0.4042  1.1957
 2129SOL     OW17848   2.372   2.119   9.438 -0.3377 -0.2994 -0.2884
 2129SOL    HW117849   2.390   2.035   9.481  0.1367 -1.2295 -2.3378
 2129SOL    HW217850   2.355   2.182   9.508  1.4191  0.5458 -0.6364
 2130SOL     OW17851   4.214   1.630   8.350 -0.6626 -0.3571  0.1886
 2130SOL    HW117852   4.301   1.648   8.316 -1.2977  0.2109 -1.1125
 2130SOL    HW217853   4.161   1.698   8.310  0.9434 -0.7885 -2.6479
 2131SOL     OW17854   1.532   1.278   6.255  0.2565 -0.1660  0.7719
 2131SOL    HW117855   1.596   1.313   6.192 -0.1062 -0.3742  0.2912
 2131SOL    HW217856   1.579   1.223   6.317 -1.3153 -1.4848  0.7993
 2132SOL     OW17857   1.482   4.688   1.008 -0.1053 -0.2669 -0.1291
 2132SOL    HW117858   1.529   4.676   0.925 -1.6547  0.8633 -1.1587
 2132SOL    HW217859   1.486   4.608   1.060 -0.4959  0.5296  1.1107
 2133SOL     OW17860   3.518   3.310   7.922  0.2472 -0.4613  0.3523
 2133SOL    HW117861   3.461   3.300   7.846  0.6394 -1.7747  0.2462
 2133SOL    HW217862   3.514   3.404   7.942 -0.7024 -0.4841  0.2259
 2134SOL     OW17863   3.072   1.192   4.896  0.0488  0.6496  0.7122
 2134SOL    HW117864   3.085   1.286   4.890  0.4808  0.5038 -0.6451
 2134SOL    HW217865   2.998   1.194   4.957 -0.1099 -1.2200  0.5854
 2135SOL     OW17866   3.581   0.172  16.600  0.3129 -0.1306 -0.0403
 2135SOL    HW117867   3.632   0.194  16.678  1.6020  2.1155 -1.5314
 2135SOL    HW217868   3.647   0.143  16.537  0.4590  1.4021 -0.5931
 2136SOL     OW17869   0.153   2.133   7.511  0.0297 -0.1106  0.1585
 2136SOL    HW117870   0.123   2.054   7.467  2.3887 -1.2015  0.4933
 2136SOL    HW217871   0.229   2.104   7.562  0.5392  1.3657  0.2653
 2137SOL     OW17872   2.742   3.577   6.455  0.3477 -0.2274  0.9498
 2137SOL    HW117873   2.657   3.538   6.476 -0.4626 -0.9202 -3.6392
 2137SOL    HW217874   2.764   3.621   6.537 -2.2551 -1.1168  2.1388
 2138SOL     OW17875   1.252   0.554   6.615  0.3860 -0.1384 -0.4395
 2138SOL    HW117876   1.292   0.638   6.592 -1.7116  0.5901 -1.3599
 2138SOL    HW217877   1.301   0.534   6.695  0.0065 -1.7659 -0.6026
 2139SOL     OW17878   1.275   4.305   6.866 -0.6395 -0.1259 -0.7049
 2139SOL    HW117879   1.264   4.335   6.776 -0.1044 -0.9177 -1.0321
 2139SOL    HW217880   1.327   4.383   6.886 -1.7538  0.8463 -1.5572
 2140SOL     OW17881   2.305   0.225   8.513  0.2978 -0.0051 -0.3471
 2140SOL    HW117882   2.213   0.200   8.528  0.4699  0.9984  2.3788
 2140SOL    HW217883   2.307   0.180   8.428 -1.3629  1.3673 -1.1337
 2141SOL     OW17884   4.656   0.835  14.536 -0.0538  0.1244  0.2878
 2141SOL    HW117885   0.011   0.841  14.486  0.3351 -2.6975  0.5479
 2141SOL    HW217886   4.659   0.908  14.597  1.5181 -0.9026  1.4306
 2142SOL     OW17887   2.174   3.327   5.856  0.1317  0.1173 -0.9204
 2142SOL    HW117888   2.089   3.283   5.852  0.2824 -0.2249 -0.4223
 2142SOL    HW217889   2.140   3.392   5.795  0.1635  1.0847  0.1092
 2143SOL     OW17890   4.110   0.810   1.513 -0.0197  0.1526  0.0469
 2143SOL    HW117891   4.126   0.728   1.559  1.9932 -0.0469 -0.9976
 2143SOL    HW217892   4.195   0.844   1.542 -0.2227 -0.2364  1.1100
 2144SOL     OW17893   3.061   0.679   8.140 -0.3370 -0.3521  0.5187
 2144SOL    HW117894   3.136   0.699   8.197 -1.1452  2.0479  0.7483
 2144SOL    HW217895   3.105   0.680   8.055  1.1602 -1.1823  1.2709
 2145SOL     OW17896   1.811   0.419   8.532 -0.2038 -0.1061 -0.4285
 2145SOL    HW117897   1.884   0.383   8.583 -2.4610 -2.1186  1.3398
 2145SOL    HW217898   1.788   0.488   8.594  0.1426 -0.6557  0.3039
 2146SOL     OW17899   0.874   0.999   9.753  0.6302 -0.1412 -0.4225
 2146SOL    HW117900   0.832   1.021   9.837 -0.6623  2.1785 -1.6603
 2146SOL    HW217901   0.884   1.084   9.709  0.3214  0.1716  0.1080
 2147SOL     OW17902   3.498   3.275  15.673  0.2882  0.4601 -0.8124
 2147SOL    HW117903   3.457   3.347  15.625 -0.7772  0.6009  0.3088
 2147SOL    HW217904   3.428   3.210  15.669 -0.6081  1.3978 -0.2850
 2148SOL     OW17905   2.811   1.557   7.390 -0.0263 -0.1140 -0.2106
 2148SOL    HW117906   2.842   1.524   7.305 -0.8432 -0.4026 -0.4009
 2148SOL    HW217907   2.879   1.616   7.422  0.1163  0.0229 -0.7562
 2149SOL     OW17908   0.807   2.548   1.374 -0.0789  0.1120 -0.2169
 2149SOL    HW117909   0.871   2.553   1.446  0.6539 -1.8772 -0.7476
 2149SOL    HW217910   0.737   2.603   1.408 -0.6479 -0.0232 -1.1819
 2150SOL     OW17911   0.490   3.015   5.830  0.2280 -0.4386 -0.3161
 2150SOL    HW117912   0.414   3.032   5.775 -0.2867  1.4574  0.9825
 2150SOL    HW217913   0.487   2.919   5.831 -0.6498 -0.4449 -2.5324
 2151SOL     OW17914   4.531   2.351  12.410 -0.1638  0.4234  0.3306
 2151SOL    HW117915   4.604   2.290  12.406 -0.0350  0.5969 -0.0565
 2151SOL    HW217916   4.477   2.299  12.350  0.6288  2.3267 -2.0501
 2152SOL     OW17917   2.257   0.129   5.978 -0.1752  1.1659 -0.2066
 2152SOL    HW117918   2.192   0.122   5.908 -0.8188  2.7975  0.2291
 2152SOL    HW217919   2.291   0.040   5.970 -0.9058  0.9827 -1.2518
 2153SOL     OW17920   4.303   4.098  14.359  0.1431 -0.0298  0.3143
 2153SOL    HW117921   4.368   4.028  14.347 -0.0470 -0.1720  0.1219
 2153SOL    HW217922   4.250   4.076  14.282  1.2359  0.0260 -0.4633
 2154SOL     OW17923   4.357   0.968   4.242 -0.9579 -0.3759 -0.4219
 2154SOL    HW117924   4.273   0.996   4.279 -0.1100 -0.5841  1.6626
 2154SOL    HW217925   4.330   0.902   4.179 -1.3176 -1.1107  0.5060
 2155SOL     OW17926   3.518   2.492   4.450 -0.3029 -0.1261  0.3675
 2155SOL    HW117927   3.558   2.405   4.450  0.9879  0.4688 -0.7339
 2155SOL    HW217928   3.518   2.519   4.359  0.3281 -1.0190  0.1020
 2156SOL     OW17929   4.244   1.037   7.916 -0.4316  0.7284 -0.5216
 2156SOL    HW117930   4.162   1.046   7.866  0.4316 -0.9132 -2.2106
 2156SOL    HW217931   4.287   0.982   7.850 -0.5871 -0.8013  0.6473
 2157SOL     OW17932   3.262   2.225   7.080 -0.3968  0.4907  0.2482
 2157SOL    HW117933   3.185   2.174   7.107 -0.1407  0.1397  0.3118
 2157SOL    HW217934   3.243   2.229   6.986  0.8959 -2.0099 -0.1186
 2158SOL     OW17935   4.342   2.893   3.851 -0.0679  0.3022  0.1396
 2158SOL    HW117936   4.267   2.930   3.897  0.1250  0.2528  0.4911
 2158SOL    HW217937   4.413   2.908   3.912 -0.8845  2.8848  0.4396
 2159SOL     OW17938   4.393   3.783   2.620 -0.7414  0.0423  0.0477
 2159SOL    HW117939   4.486   3.774   2.596  0.0554  3.5714  1.8970
 2159SOL    HW217940   4.350   3.759   2.538 -2.3959  0.1607  0.8874
 2160SOL     OW17941   2.431   4.125  15.825  0.3168  0.0017 -0.5073
 2160SOL    HW117942   2.371   4.136  15.751 -1.3125  0.2248  0.8451
 2160SOL    HW217943   2.372   4.087  15.889 -1.0021  1.1852 -1.0252
 2161SOL     OW17944   4.164   4.571  15.631  0.2378  0.3915  0.2479
 2161SOL    HW117945   4.111   4.578  15.552  1.2000 -1.9424 -0.6011
 2161SOL    HW217946   4.236   4.633  15.616 -0.7711  1.5421  0.1976
 2162SOL     OW17947   4.299   3.207   3.952  0.9419  0.1838 -0.4478
 2162SOL    HW117948   4.237   3.188   3.882  0.9425 -2.7704  0.3499
 2162SOL    HW217949   4.286   3.301   3.965 -0.3575 -0.0075 -0.4275
 2163SOL     OW17950   3.651   0.438  12.802 -0.3031 -0.1662 -0.1929
 2163SOL    HW117951   3.646   0.513  12.861 -0.8749 -0.2799 -0.0999
 2163SOL    HW217952   3.740   0.414  12.776  0.8603  1.2503  2.5474
 2164SOL     OW17953   3.753   1.978  11.443  0.5247 -0.5708  0.4127
 2164SOL    HW117954   3.821   2.043  11.462 -0.1994  0.3738 -0.2225
 2164SOL    HW217955   3.737   1.935  11.526  0.2261 -1.0114  0.1256
 2165SOL     OW17956   2.420   3.403   4.579 -0.2634 -0.0356  0.7309
 2165SOL    HW117957   2.351   3.413   4.513 -0.8850 -0.3965  1.3277
 2165SOL    HW217958   2.377   3.400   4.665  1.0699 -1.0885  1.3577
 2166SOL     OW17959   4.015   1.575  14.912  0.1551 -0.0985  0.1155
 2166SOL    HW117960   4.009   1.648  14.974  1.0228  2.1193 -2.4242
 2166SOL    HW217961   4.063   1.617  14.841 -0.3737 -1.0996 -0.8258
 2167SOL     OW17962   0.059   0.975  11.938 -0.0735 -0.1809  0.0304
 2167SOL    HW117963   0.034   0.913  11.869 -3.1535 -0.1943  1.1696
 2167SOL    HW217964   0.016   1.058  11.916  2.5077  1.2093  0.1076
 2168SOL     OW17965   0.302   1.858  11.820 -0.3172  0.0656 -0.0652
 2168SOL    HW117966   0.217   1.847  11.779 -0.8185  1.0471  0.6938
 2168SOL    HW217967   0.320   1.951  11.804  1.5585 -0.2406  0.2668
 2169SOL     OW17968   3.885   4.179   4.019 -0.7318 -0.4749 -0.3456
 2169SOL    HW117969   3.800   4.171   3.975 -1.2886  0.8327  0.4684
 2169SOL    HW217970   3.877   4.103   4.075 -0.3419 -0.0312  0.3119
 2170SOL     OW17971   2.292   2.762   5.245 -0.2857 -0.7559  0.1600
 2170SOL    HW117972   2.230   2.822   5.204  0.7400  0.2897  0.1490
 2170SOL    HW217973   2.370   2.793   5.198 -1.5028  1.2666 -0.5216
 2171SOL     OW17974   1.506   4.562   9.796 -0.2287  0.5385  0.0601
 2171SOL    HW117975   1.577   4.519   9.844 -0.2661  1.2487  0.7670
 2171SOL    HW217976   1.432   4.526   9.845 -1.1751  2.5294  0.0998
 2172SOL     OW17977   3.887   0.161   1.981  0.1450  0.3071  0.2421
 2172SOL    HW117978   3.979   0.138   1.997  0.5366  1.4066 -0.3751
 2172SOL    HW217979   3.879   0.131   1.890 -1.0057 -1.0535  0.8065
 2173SOL     OW17980   2.994   0.350  16.114  0.3387  0.2051 -0.2185
 2173SOL    HW117981   2.950   0.267  16.133 -0.9751  0.7501 -0.8541
 2173SOL    HW217982   3.039   0.320  16.036 -0.2726  0.3515 -0.6320
 2174SOL     OW17983   1.476   0.676   2.026  0.1412 -0.1717 -0.1536
 2174SOL    HW117984   1.439   0.763   2.012  0.4230  0.0324  0.3650
 2174SOL    HW217985   1.564   0.668   1.989 -0.0246  1.2330 -0.8184
 2175SOL     OW17986   1.109   1.650  11.877  0.0479  0.6982  0.0461
 2175SOL    HW117987   1.069   1.695  11.802 -0.3062  1.9807  0.9918
 2175SOL    HW217988   1.040   1.665  11.942 -0.1694 -2.3944  0.5336
 2176SOL     OW17989   1.816   0.850  15.692  0.1724  0.3826 -0.6218
 2176SOL    HW117990   1.854   0.762  15.689  1.8652  1.1705 -2.1617
 2176SOL    HW217991   1.815   0.874  15.600  3.3994  1.4825 -0.3553
 2177SOL     OW17992   3.853   1.993   6.622  0.3764  0.0848 -0.1712
 2177SOL    HW117993   3.907   1.913   6.614  1.5845  0.8294  0.5277
 2177SOL    HW217994   3.912   2.057   6.662 -1.5156  1.4229  0.4416
 2178SOL     OW17995   3.459   4.065  16.459  0.2538 -0.1520  0.3195
 2178SOL    HW117996   3.527   4.108  16.406 -0.1945  0.4753  0.2538
 2178SOL    HW217997   3.508   3.992  16.496 -0.9396 -1.5313 -0.8384
 2179SOL     OW17998   1.923   2.123   4.792  0.2009 -0.1087  0.2949
 2179SOL    HW117999   1.970   2.040   4.789 -0.8921 -0.7370  0.4089
 2179SOL    HW218000   1.949   2.174   4.869 -1.1180  0.9636  0.0266
 2180SOL     OW18001   2.055   4.283  11.254  0.6429  0.0047 -0.0854
 2180SOL    HW118002   2.125   4.281  11.319  0.2275  2.6722  0.4591
 2180SOL    HW218003   1.987   4.323  11.307 -0.0489  0.2452 -1.1499
 2181SOL     OW18004   3.639   0.750  10.819 -0.3349 -0.2545  0.1165
 2181SOL    HW118005   3.562   0.789  10.777  0.9351  0.2032 -1.8101
 2181SOL    HW218006   3.699   0.739  10.746  1.7534 -0.3808  1.8634
 2182SOL     OW18007   3.566   2.764   7.213 -0.3268  0.0299 -0.2537
 2182SOL    HW118008   3.528   2.676   7.218 -1.7314  0.6343 -0.1646
 2182SOL    HW218009   3.495   2.823   7.240  0.1032  0.9553 -1.1522
 2183SOL     OW18010   2.821   4.098   7.309 -0.4966 -0.3318 -0.2052
 2183SOL    HW118011   2.779   4.016   7.285  1.8123 -1.3431 -0.7570
 2183SOL    HW218012   2.869   4.116   7.228 -0.8604 -0.2749 -0.4058
 2184SOL     OW18013   0.855   2.110   3.154  0.3498  0.6181  0.3647
 2184SOL    HW118014   0.859   2.023   3.193 -1.1598 -0.1786 -1.2768
 2184SOL    HW218015   0.782   2.102   3.093  1.1079 -0.5469 -0.3800
 2185SOL     OW18016   0.823   1.559   1.552  0.1669  0.0290  0.1052
 2185SOL    HW118017   0.849   1.525   1.467  0.5694 -0.0771  0.2699
 2185SOL    HW218018   0.857   1.648   1.549  2.0171 -0.6581  0.2624
 2186SOL     OW18019   3.392   1.891   5.671  0.1052  0.1511  0.0961
 2186SOL    HW118020   3.320   1.860   5.727 -1.3338  0.4549 -1.5826
 2186SOL    HW218021   3.362   1.873   5.582  0.9101  3.2248 -0.7903
 2187SOL     OW18022   3.667   2.811   5.903  0.0805 -0.0965 -0.0666
 2187SOL    HW118023   3.641   2.719   5.909  0.1193 -0.0419  0.9109
 2187SOL    HW218024   3.752   2.807   5.860  0.6843  1.2339  0.9919
 2188SOL     OW18025   2.839   0.257   6.438  0.2915 -0.4559  0.2398
 2188SOL    HW118026   2.833   0.173   6.485 -1.5686 -0.9270 -0.8232
 2188SOL    HW218027   2.846   0.318   6.511  1.0929  1.1517 -1.1823
 2189SOL     OW18028   3.094   2.823   9.426 -0.0394  0.1076  1.2436
 2189SOL    HW118029   3.185   2.854   9.425  0.0191 -0.0639  1.2935
 2189SOL    HW218030   3.099   2.766   9.503  1.0232 -0.6378  0.6249
 2190SOL     OW18031   0.260   3.814   5.147  0.1455  0.2515  0.3543
 2190SOL    HW118032   0.181   3.798   5.198 -1.7844  0.1697 -2.6214
 2190SOL    HW218033   0.323   3.827   5.218  1.1955 -0.3564 -0.4650
 2191SOL     OW18034   0.596   3.648   8.792 -0.0069 -0.2709 -0.2974
 2191SOL    HW118035   0.507   3.682   8.797  0.3161  0.3850  0.9388
 2191SOL    HW218036   0.577   3.555   8.803  0.3556  0.0510  3.1422
 2192SOL     OW18037   1.038   0.167   1.113  0.0783 -0.3011 -0.1640
 2192SOL    HW118038   1.108   0.118   1.157  0.6698  2.0793  1.5022
 2192SOL    HW218039   0.981   0.191   1.185 -0.7803  1.0047 -1.2936
 2193SOL     OW18040   2.842   2.377   0.574 -0.4792 -0.5177  0.0375
 2193SOL    HW118041   2.782   2.385   0.500 -0.4199 -3.4837 -0.3530
 2193SOL    HW218042   2.840   2.283   0.594  0.1449 -0.8604 -1.4857
 2194SOL     OW18043   2.223   3.913   3.353  0.2677 -0.6249 -0.4694
 2194SOL    HW118044   2.302   3.955   3.386  0.8855 -1.7339 -0.5318
 2194SOL    HW218045   2.254   3.823   3.343 -0.7583 -0.9235 -0.9855
 2195SOL     OW18046   0.037   2.285   4.803  0.0391  0.3986 -0.2828
 2195SOL    HW118047   0.111   2.278   4.743  0.9801 -0.4041  0.9526
 2195SOL    HW218048   0.013   2.376   4.789 -1.5752 -0.2292 -1.5299
 2196SOL     OW18049   2.870   0.398   1.830  0.2493 -0.1078  0.1696
 2196SOL    HW118050   2.937   0.355   1.779  0.1832  0.2268 -0.1981
 2196SOL    HW218051   2.845   0.330   1.892 -1.5210  0.2281 -0.1558
 2197SOL     OW18052   2.307   3.260   9.779  0.0034  0.3065  0.0570
 2197SOL    HW118053   2.370   3.331   9.773 -0.8762  1.0129 -0.7573
 2197SOL    HW218054   2.252   3.273   9.856  0.9617  0.3504  0.7318
 2198SOL     OW18055   3.071   1.639  10.073 -0.3516 -0.3703 -0.0570
 2198SOL    HW118056   3.064   1.724  10.115 -0.4869 -0.8739  0.9322
 2198SOL    HW218057   3.153   1.645  10.023 -0.6770  1.7488 -0.3088
 2199SOL     OW18058   4.395   1.118   0.119  0.4729 -0.1261 -0.2898
 2199SOL    HW118059   4.428   1.179   0.185 -1.9168 -0.1646  0.9165
 2199SOL    HW218060   4.430   1.037   0.158  1.2461 -0.4294 -1.6199
 2200SOL     OW18061   2.394   1.078   5.702 -0.4291 -0.0395  0.6552
 2200SOL    HW118062   2.424   1.115   5.786 -0.0197 -1.9753  1.3597
 2200SOL    HW218063   2.479   1.068   5.659 -0.9600  1.0481 -0.6332
 2201SOL     OW18064   2.664   2.174  12.463 -0.4077 -0.0726 -0.3865
 2201SOL    HW118065   2.652   2.151  12.371 -0.6071  2.8606 -1.0833
 2201SOL    HW218066   2.748   2.129  12.478 -1.5575 -2.8265 -2.2979
 2202SOL     OW18067   3.352   1.311   9.595 -0.3877 -0.1923 -0.3545
 2202SOL    HW118068   3.339   1.218   9.610 -1.0219  0.2408  1.8646
 2202SOL    HW218069   3.291   1.359   9.652 -0.4767  0.9502 -1.4127
 2203SOL     OW18070   3.249   2.646  10.428  0.4971  0.0437  0.0481
 2203SOL    HW118071   3.229   2.574  10.488 -1.0247  1.5633  1.3692
 2203SOL    HW218072   3.330   2.616  10.386 -0.1689  0.1507 -1.3181
 2204SOL     OW18073   4.711   3.966   4.614  0.4584  0.3483  0.0125
 2204SOL    HW118074   0.052   4.035   4.612 -0.7560  1.4726 -1.4078
 2204SOL    HW218075   4.690   3.973   4.707  1.6181  0.3402  0.2844
 2205SOL     OW18076   4.675   0.658  14.981 -0.4846 -0.4034 -0.1273
 2205SOL    HW118077   4.683   0.568  14.949  0.7131 -0.0624 -0.7589
 2205SOL    HW218078   0.036   0.692  14.960 -0.6709  0.1419 -0.0155
 2206SOL     OW18079   1.274   2.145   8.526  0.0176  0.3462  1.0105
 2206SOL    HW118080   1.347   2.179   8.578  0.8802 -0.0946  0.0698
 2206SOL    HW218081   1.191   2.189   8.546  0.7404  0.8735  2.8261
 2207SOL     OW18082   3.429   2.110  10.256 -0.0124  0.2044 -0.0976
 2207SOL    HW118083   3.375   2.060  10.317  2.1274 -2.9666 -0.7598
 2207SOL    HW218084   3.481   2.043  10.212 -0.2384 -0.1788  0.2150
 2208SOL     OW18085   2.501   4.629   1.599  0.0002 -0.2260 -0.2227
 2208SOL    HW118086   2.419   4.614   1.647 -0.9967  3.0784 -0.8951
 2208SOL    HW218087   2.470   4.628   1.509  1.4273 -1.5331 -0.6945
 2209SOL     OW18088   1.031   4.389   7.740  0.5105  0.2321  0.2107
 2209SOL    HW118089   1.046   4.319   7.676 -1.4162  1.5856 -1.7491
 2209SOL    HW218090   0.983   4.336   7.803  1.0338  2.1768  2.2183
 2210SOL     OW18091   3.497   1.090  16.116 -0.1330 -0.0512  0.2396
 2210SOL    HW118092   3.514   1.000  16.144 -1.2721 -0.4452 -0.3417
 2210SOL    HW218093   3.407   1.097  16.147 -0.9068  0.7877 -2.2235
 2211SOL     OW18094   4.289   3.957   8.432 -0.2595 -0.5253 -0.0218
 2211SOL    HW118095   4.263   3.894   8.499  1.6311 -1.3877 -0.0858
 2211SOL    HW218096   4.323   4.028   8.487 -0.0980  0.8603 -1.8978
 2212SOL     OW18097   3.291   1.674   6.184  0.0573 -0.2420 -0.0404
 2212SOL    HW118098   3.244   1.611   6.129  2.1137 -1.5320 -0.3276
 2212SOL    HW218099   3.365   1.685   6.124  1.2679  2.5144  1.9678
 2213SOL     OW18100   4.520   2.773  13.957  0.4745  0.0329  0.1789
 2213SOL    HW118101   4.603   2.790  14.001 -0.1077  2.9538  0.1463
 2213SOL    HW218102   4.523   2.829  13.879 -2.8616 -0.2345 -0.1435
 2214SOL     OW18103   2.452   2.624   3.430  0.2179 -0.0685 -0.4158
 2214SOL    HW118104   2.512   2.554   3.455 -0.4187  0.0529  1.4762
 2214SOL    HW218105   2.499   2.704   3.455  0.7528 -0.2301 -0.9189
 2215SOL     OW18106   4.297   2.200   3.589  0.5700 -0.6499 -0.3644
 2215SOL    HW118107   4.361   2.254   3.634  1.5303 -1.2837 -0.9752
 2215SOL    HW218108   4.309   2.114   3.631  1.6812 -0.3636 -0.1162
 2216SOL     OW18109   2.082   2.759   4.763 -0.4992  0.3548  0.3706
 2216SOL    HW118110   2.088   2.663   4.758 -0.5183  0.4145 -0.6346
 2216SOL    HW218111   2.159   2.778   4.816  0.1828 -0.9951 -0.1240
 2217SOL     OW18112   2.653   3.971   5.129  0.1688 -0.5122 -0.1836
 2217SOL    HW118113   2.728   3.926   5.091  0.4833 -0.3179  0.2042
 2217SOL    HW218114   2.597   3.972   5.051 -0.4692  0.6394  0.2926
 2218SOL     OW18115   4.322   0.913   8.274 -0.2905  0.0357 -0.2291
 2218SOL    HW118116   4.415   0.926   8.291 -0.6210  0.1038  1.5621
 2218SOL    HW218117   4.325   0.839   8.214 -0.8050  0.8865 -1.3089
 2219SOL     OW18118   1.143   3.237   7.398 -0.0758 -0.0674 -0.0985
 2219SOL    HW118119   1.160   3.205   7.487  0.3557 -1.0574 -0.5331
 2219SOL    HW218120   1.211   3.190   7.349 -1.3346 -1.1561 -0.7997
 2220SOL     OW18121   0.549   3.367   2.769 -0.5053 -0.1006  0.7372
 2220SOL    HW118122   0.481   3.375   2.701  2.2566  0.2007 -1.9878
 2220SOL    HW218123   0.550   3.459   2.796  1.5022 -0.0837  0.5780
 2221SOL     OW18124   2.565   1.302   3.847 -0.5259  0.4698 -0.4314
 2221SOL    HW118125   2.573   1.293   3.752  0.6129  0.7698 -0.3698
 2221SOL    HW218126   2.632   1.370   3.857  0.2863 -0.2650 -0.8166
 2222SOL     OW18127   3.404   1.119   7.151  0.6803  0.3954 -0.5792
 2222SOL    HW118128   3.450   1.053   7.098 -0.3472 -0.5003 -0.3661
 2222SOL    HW218129   3.455   1.117   7.232 -1.3346  0.8656  0.6865
 2223SOL     OW18130   2.411   1.450  12.228 -0.1528  0.0404  0.2759
 2223SOL    HW118131   2.341   1.487  12.282 -1.7389  1.3388 -2.6965
 2223SOL    HW218132   2.369   1.449  12.143  0.5105  0.0183 -0.0495
 2224SOL     OW18133   1.055   3.225   3.584 -0.5804 -0.0307 -0.2072
 2224SOL    HW118134   1.093   3.149   3.628 -1.6222 -0.2179  0.3707
 2224SOL    HW218135   0.962   3.218   3.607 -0.5954 -1.1452 -0.6383
 2225SOL     OW18136   2.870   3.294   5.715 -0.1471 -0.2222  0.2582
 2225SOL    HW118137   2.892   3.216   5.664 -0.8670 -1.6112  2.0462
 2225SOL    HW218138   2.860   3.252   5.801  1.5013 -2.2931 -0.5622
 2226SOL     OW18139   0.715   3.509  10.603 -0.3671  0.0757 -0.1522
 2226SOL    HW118140   0.697   3.578  10.539 -3.9343 -0.1952  0.5438
 2226SOL    HW218141   0.712   3.424  10.558 -1.2016  0.6746 -1.2426
 2227SOL     OW18142   4.058   4.624   3.610 -0.5181  0.0582 -0.1510
 2227SOL    HW118143   4.114   4.701   3.594 -0.1723 -0.1681 -0.0293
 2227SOL    HW218144   4.111   4.570   3.668  0.7801  1.6506  0.1491
 2228SOL     OW18145   0.725   2.986   9.316  0.3826 -0.2046  0.7069
 2228SOL    HW118146   0.723   2.890   9.316 -0.4404 -0.1798  0.1988
 2228SOL    HW218147   0.764   3.002   9.230  2.0970  0.6197  1.6387
 2229SOL     OW18148   3.409   1.770   7.739 -0.0185  0.1007  0.4978
 2229SOL    HW118149   3.468   1.696   7.723 -1.3471 -1.0069  0.6699
 2229SOL    HW218150   3.376   1.803   7.656  0.7946  1.7421  0.8243
 2230SOL     OW18151   0.088   3.803  12.254  0.2362  0.2216  0.1569
 2230SOL    HW118152   4.719   3.812  12.261  0.3128  1.5316 -0.5631
 2230SOL    HW218153   0.114   3.875  12.312  1.6134 -1.1165  1.2126
 2231SOL     OW18154   1.145   1.092  11.149  0.6766  0.1214 -0.3007
 2231SOL    HW118155   1.195   1.173  11.146  0.5781  0.1706 -0.5975
 2231SOL    HW218156   1.056   1.125  11.161 -1.0124 -4.7918  0.7294
 2232SOL     OW18157   3.666   3.659   2.984  0.2122 -0.4092 -0.2960
 2232SOL    HW118158   3.580   3.626   3.012 -0.3852  0.9641 -0.4994
 2232SOL    HW218159   3.690   3.587   2.925 -0.2578 -0.7058 -0.1239
 2233SOL     OW18160   1.446   2.034   9.345  1.0012  0.1694 -0.1595
 2233SOL    HW118161   1.369   2.011   9.398  1.1976  3.1263  1.4276
 2233SOL    HW218162   1.453   1.953   9.295 -0.0990  0.8729 -1.4754
 2234SOL     OW18163   3.122   2.552   7.642 -0.2646  0.0952  0.0530
 2234SOL    HW118164   3.123   2.521   7.733  0.2518 -0.3809 -0.1111
 2234SOL    HW218165   3.100   2.643   7.660  0.8130  0.5503 -0.9637
 2235SOL     OW18166   4.439   3.168   5.814 -0.4422  0.2168  0.2633
 2235SOL    HW118167   4.389   3.249   5.806 -0.5314  0.1889  0.5394
 2235SOL    HW218168   4.391   3.123   5.884 -0.8548 -1.7406 -1.2740
 2236SOL     OW18169   3.691   0.923   8.460  0.3975  0.0785 -0.0379
 2236SOL    HW118170   3.673   0.897   8.551 -1.5745  0.3426 -0.3580
 2236SOL    HW218171   3.766   0.863   8.451  1.0820  0.8289  0.6473
 2237SOL     OW18172   0.232   3.043   5.740 -0.0450  0.4071  0.1994
 2237SOL    HW118173   0.215   3.062   5.648 -0.9721 -1.1891  0.0486
 2237SOL    HW218174   0.146   3.069   5.772 -1.0797 -2.8409  0.0016
 2238SOL     OW18175   3.936   2.140   0.541 -0.7693  0.4677  0.2284
 2238SOL    HW118176   3.981   2.063   0.576  2.3207  0.5705 -3.4014
 2238SOL    HW218177   3.910   2.184   0.622  0.4432  0.0512  0.8473
 2239SOL     OW18178   4.293   0.745   8.938 -0.4853  0.2067  0.7225
 2239SOL    HW118179   4.256   0.670   8.986 -0.9925  0.1460  0.2270
 2239SOL    HW218180   4.326   0.704   8.858 -0.2440  0.5521  0.6461
 2240SOL     OW18181   0.190   1.202   4.788  0.4266  1.0102  0.3641
 2240SOL    HW118182   0.174   1.150   4.710  2.5654 -0.7531  1.0809
 2240SOL    HW218183   0.259   1.147   4.826 -3.1523 -1.7668  2.8646
 2241SOL     OW18184   1.007   4.141   9.243  0.7474 -0.1672 -0.1535
 2241SOL    HW118185   0.947   4.116   9.313  0.5360  1.2731  0.1757
 2241SOL    HW218186   1.078   4.077   9.244 -1.1012 -2.2211 -0.1834
 2242SOL     OW18187   0.283   2.778   3.073 -0.1471  0.2630  0.0687
 2242SOL    HW118188   0.289   2.684   3.091  1.3754  0.2815 -0.4028
 2242SOL    HW218189   0.289   2.784   2.977  0.4352 -1.9098 -0.0186
 2243SOL     OW18190   0.215   3.653   2.666  0.4048  0.3408 -0.0760
 2243SOL    HW118191   0.266   3.732   2.683  0.0900  0.0338  2.2917
 2243SOL    HW218192   0.164   3.677   2.589 -0.4130  1.3872  0.7831
 2244SOL     OW18193   3.168   3.362  16.817 -0.1873  0.3122  0.6338
 2244SOL    HW118194   3.083   3.400  16.794 -0.3895  0.3310  1.4275
 2244SOL    HW218195   3.161   3.371  16.912 -1.0525 -0.6800  0.6642
 2245SOL     OW18196   0.369   0.683  16.227  0.0141 -0.0727 -0.0523
 2245SOL    HW118197   0.343   0.610  16.170  0.7499 -0.1248 -0.3233
 2245SOL    HW218198   0.285   0.727  16.242  0.7406  0.0636  3.5981
 2246SOL     OW18199   1.767   4.685   1.605 -0.2000 -0.1038  0.3126
 2246SOL    HW118200   1.769   4.613   1.541  1.4063 -0.8656  1.2396
 2246SOL    HW218201   1.674   4.696   1.624 -0.6073 -1.2997 -0.9803
 2247SOL     OW18202   2.046   2.421   7.908 -0.3437  0.2364 -0.1881
 2247SOL    HW118203   2.070   2.498   7.857 -2.1860  1.3338  0.5956
 2247SOL    HW218204   2.050   2.457   7.996  0.2226  1.4505 -0.7029
 2248SOL     OW18205   1.262   1.238  12.741 -0.3158  0.3664  0.0701
 2248SOL    HW118206   1.247   1.169  12.677 -0.4511  1.1559 -0.7496
 2248SOL    HW218207   1.335   1.282  12.699  0.4187 -0.2603  0.7014
 2249SOL     OW18208   4.022   3.529   7.762  0.5994 -0.2916  0.1192
 2249SOL    HW118209   4.082   3.601   7.780 -2.0803  1.0095  3.8096
 2249SOL    HW218210   4.010   3.483   7.845 -4.1337 -1.6756 -1.3227
 2250SOL     OW18211   1.953   4.309   6.232  0.2600  0.0730 -0.5351
 2250SOL    HW118212   1.863   4.315   6.262  0.3490  0.4149 -0.3340
 2250SOL    HW218213   1.961   4.390   6.182  1.2416  1.1439  1.3469
 2251SOL     OW18214   4.562   2.547  14.623  0.1724 -0.1497 -0.2381
 2251SOL    HW118215   4.565   2.591  14.538 -1.6168 -2.6252 -1.5576
 2251SOL    HW218216   4.603   2.613  14.680 -3.1393  0.3065  1.6151
 2252SOL     OW18217   4.005   4.348   6.092 -0.7013  0.2815 -0.2442
 2252SOL    HW118218   3.937   4.394   6.042 -1.3956 -1.8104 -1.2104
 2252SOL    HW218219   4.078   4.410   6.091 -0.3506 -0.1782 -2.0933
 2253SOL     OW18220   1.761   0.228   7.715  0.2808 -0.1330  0.2498
 2253SOL    HW118221   1.746   0.135   7.695 -0.9551 -0.1952  1.5082
 2253SOL    HW218222   1.672   0.252   7.741  0.3905  1.8865 -1.2265
 2254SOL     OW18223   3.103   2.091  15.311 -0.5923  0.5596 -0.6462
 2254SOL    HW118224   3.049   2.025  15.355  0.8373 -1.4718 -1.9448
 2254SOL    HW218225   3.134   2.046  15.233 -1.6556 -2.5374  0.7224
 2255SOL     OW18226   2.327   1.454   1.400  0.1394  0.0109 -0.0545
 2255SOL    HW118227   2.273   1.390   1.448 -2.7227  1.8107 -0.8978
 2255SOL    HW218228   2.364   1.497   1.477 -1.2079  2.2214 -0.6516
 2256SOL     OW18229   0.453   3.354   3.798  0.4960 -0.0935 -0.3229
 2256SOL    HW118230   0.390   3.398   3.856  1.1157  1.1436 -0.6031
 2256SOL    HW218231   0.449   3.262   3.825 -0.9901  0.4170  1.1902
 2257SOL     OW18232   1.923   0.291   4.707 -0.0685 -0.4090 -0.7961
 2257SOL    HW118233   1.916   0.199   4.733  1.9455 -0.2948  0.1402
 2257SOL    HW218234   1.977   0.327   4.778 -0.0388  3.2583 -2.6696
 2258SOL     OW18235   0.317   1.194   7.234  0.2261 -0.1073 -0.3426
 2258SOL    HW118236   0.258   1.131   7.192 -1.5680 -0.0705  2.0896
 2258SOL    HW218237   0.398   1.146   7.221 -0.8824 -2.1708  0.2679
 2259SOL     OW18238   0.391   0.543   5.841 -0.1191  0.1459  0.6325
 2259SOL    HW118239   0.485   0.543   5.825 -0.2628  0.5735 -0.2245
 2259SOL    HW218240   0.391   0.600   5.918 -0.9563  0.7858  0.1633
 2260SOL     OW18241   1.005   1.368   8.273  0.0184  0.0699 -0.0089
 2260SOL    HW118242   1.087   1.393   8.315 -0.0687 -0.3525  0.4234
 2260SOL    HW218243   0.948   1.443   8.292 -0.9007 -0.5451 -0.3147
 2261SOL     OW18244   2.851   4.154   1.909 -0.4805 -0.4151 -0.2217
 2261SOL    HW118245   2.862   4.215   1.836  3.6856 -0.5323  0.2933
 2261SOL    HW218246   2.914   4.087   1.884  0.9640  1.7553 -2.4020
 2262SOL     OW18247   2.620   1.073   5.207  0.2931  0.3700 -0.6261
 2262SOL    HW118248   2.551   1.027   5.255 -1.3094  0.5941 -2.6915
 2262SOL    HW218249   2.565   1.146   5.178 -0.1901 -0.3324 -1.5042
 2263SOL     OW18250   0.775   2.311  13.729  0.6750 -0.0118 -0.3323
 2263SOL    HW118251   0.857   2.359  13.743  0.5886 -0.5959  2.1581
 2263SOL    HW218252   0.732   2.369  13.667  1.0475  1.0085  0.3626
 2264SOL     OW18253   4.313   3.538   4.000  0.3377  0.2290  0.9006
 2264SOL    HW118254   4.281   3.628   4.009  0.0892  0.1910  0.4125
 2264SOL    HW218255   4.311   3.526   3.905 -0.7524 -1.6475  1.1542
 2265SOL     OW18256   1.838   4.478  13.336  0.3377 -0.0874 -0.3769
 2265SOL    HW118257   1.820   4.414  13.405  0.9116  0.9853  0.7702
 2265SOL    HW218258   1.755   4.520  13.314 -0.8774 -1.2546  1.8887
 2266SOL     OW18259   2.940   1.945   2.102 -0.3378 -0.3176  0.4486
 2266SOL    HW118260   2.865   2.001   2.085  1.2919  1.9768  0.8649
 2266SOL    HW218261   2.929   1.935   2.196 -1.9495  1.7525  0.4600
 2267SOL     OW18262   0.246   4.295   7.544 -0.0261 -0.1911 -0.2571
 2267SOL    HW118263   0.329   4.325   7.582 -0.2331  1.6983 -1.3002
 2267SOL    HW218264   0.258   4.301   7.449 -0.4741  1.1867 -0.2172
 2268SOL     OW18265   4.542   4.098   3.487 -0.4516 -0.1234 -0.1529
 2268SOL    HW118266   4.615   4.037   3.495  0.5879  1.1330  0.0269
 2268SOL    HW218267   4.505   4.078   3.401  0.7424 -0.0003 -0.6973
 2269SOL     OW18268   2.318   4.723  14.124  0.5255 -0.0342  0.4475
 2269SOL    HW118269   2.322   4.665  14.048 -1.0102 -1.4031  1.4112
 2269SOL    HW218270   2.226   0.020  14.110  0.4013 -1.4669 -1.0907
 2270SOL     OW18271   2.473   1.275   8.885  0.0983  0.1221 -0.2510
 2270SOL    HW118272   2.492   1.228   8.804 -0.2361 -1.7755  0.7484
 2270SOL    HW218273   2.454   1.360   8.846 -0.7863  0.8566  1.7588
 2271SOL     OW18274   1.885   0.809   6.230  0.2909  0.2296 -0.4953
 2271SOL    HW118275   1.963   0.801   6.285 -1.2525 -1.4300  1.4848
 2271SOL    HW218276   1.827   0.875   6.267  1.6896  0.3897  1.3840
 2272SOL     OW18277   3.841   1.662   8.256 -0.2325  0.3462 -0.2341
 2272SOL    HW118278   3.823   1.752   8.230  0.7603  1.1513  1.7947
 2272SOL    HW218279   3.778   1.608   8.208  0.5798  0.7755 -1.7709
 2273SOL     OW18280   4.591   4.082   8.750  0.2676 -0.6526 -0.6629
 2273SOL    HW118281   4.574   4.159   8.804  1.1415 -0.7388 -0.2702
 2273SOL    HW218282   4.526   4.100   8.682  0.5560 -0.5820 -0.9173
 2274SOL     OW18283   3.499   2.294   8.891 -0.0754  0.4127 -0.7301
 2274SOL    HW118284   3.552   2.327   8.819 -1.1809  2.2341 -0.7165
 2274SOL    HW218285   3.432   2.239   8.850 -0.2711  0.0899  0.0215
 2275SOL     OW18286   4.215   0.528  14.478  0.2910 -0.2066  0.1061
 2275SOL    HW118287   4.240   0.619  14.497  1.3228 -0.8327  1.8282
 2275SOL    HW218288   4.129   0.520  14.518  0.0520  2.0773  0.0824
 2276SOL     OW18289   3.502   2.324   2.613  0.3178 -0.4651  0.1430
 2276SOL    HW118290   3.525   2.411   2.582 -0.3221 -0.3985 -0.1490
 2276SOL    HW218291   3.512   2.339   2.707 -0.9048 -0.9773  0.3649
 2277SOL     OW18292   4.608   1.574   9.034 -0.3069  0.0744 -0.3193
 2277SOL    HW118293   4.680   1.530   8.990  0.9894 -0.2211  2.0752
 2277SOL    HW218294   4.554   1.498   9.055  0.5417 -0.3818  0.2055
 2278SOL     OW18295   4.257   3.481  10.330  0.3549 -0.3113 -0.0349
 2278SOL    HW118296   4.221   3.456  10.245 -0.8481 -1.2223  0.7400
 2278SOL    HW218297   4.203   3.441  10.398  1.7199 -1.3656  0.4188
 2279SOL     OW18298   2.919   1.543   5.783  0.0576  0.1568 -0.0577
 2279SOL    HW118299   2.962   1.621   5.818 -0.2301  1.1739 -1.9355
 2279SOL    HW218300   2.843   1.587   5.745  0.5497  0.8382 -0.2499
 2280SOL     OW18301   0.896   4.158   2.497  0.5545  0.3105  0.4954
 2280SOL    HW118302   0.889   4.096   2.569  1.9756 -0.1958  0.1984
 2280SOL    HW218303   0.828   4.219   2.525 -1.9699 -1.2625 -2.2158
 2281SOL     OW18304   4.313   3.901   4.379 -0.0217 -0.2054 -0.1968
 2281SOL    HW118305   4.408   3.916   4.371  0.1342 -0.4088  1.3736
 2281SOL    HW218306   4.305   3.880   4.472 -2.0503 -0.8333 -0.5281
 2282SOL     OW18307   4.539   3.569   4.611  0.2666  0.0686  0.1511
 2282SOL    HW118308   4.570   3.496   4.557 -1.1811 -2.2260  2.4433
 2282SOL    HW218309   4.502   3.523   4.687 -1.7812 -1.3519 -1.7165
 2283SOL     OW18310   2.486   4.132   9.483 -0.2043 -0.0140 -0.1100
 2283SOL    HW118311   2.424   4.163   9.418  0.6747  0.7234 -0.6096
 2283SOL    HW218312   2.464   4.039   9.480 -1.8339  0.3896 -0.3621
 2284SOL     OW18313   2.698   4.425   7.009  0.6882 -0.4405 -0.2093
 2284SOL    HW118314   2.636   4.483   7.053  0.0321 -0.6148 -0.9046
 2284SOL    HW218315   2.666   4.347   7.053 -0.3156  0.1555  0.1177
 2285SOL     OW18316   0.237   2.975   2.391  0.5502  0.4779 -0.0725
 2285SOL    HW118317   0.229   2.996   2.297  1.4833  1.0560 -0.0223
 2285SOL    HW218318   0.236   3.063   2.428 -0.3620  0.5780 -0.3251
 2286SOL     OW18319   4.300   2.557   3.476 -0.1455  0.5373  0.2062
 2286SOL    HW118320   4.258   2.590   3.555 -0.4590 -1.3709  0.8351
 2286SOL    HW218321   4.228   2.561   3.412 -0.3113  1.1804  0.4343
 2287SOL     OW18322   3.697   1.470   6.148  0.3582 -0.6904  0.1046
 2287SOL    HW118323   3.630   1.402   6.147  0.3207 -0.6435 -0.6201
 2287SOL    HW218324   3.649   1.539   6.103 -0.1314 -0.8697  0.3554
 2288SOL     OW18325   4.198   2.996   1.889  0.2364 -0.4666  0.0719
 2288SOL    HW118326   4.216   3.007   1.982  1.7347 -0.9267 -0.1649
 2288SOL    HW218327   4.104   2.978   1.882  0.0233 -0.1376  2.0727
 2289SOL     OW18328   4.583   4.286   3.099  0.0897 -0.7454  0.9105
 2289SOL    HW118329   4.489   4.272   3.101 -0.1697  1.1863  2.2481
 2289SOL    HW218330   4.591   4.373   3.138  2.3215  0.4215 -2.0920
 2290SOL     OW18331   1.289   1.611   1.578  0.3063  0.5615 -0.2086
 2290SOL    HW118332   1.260   1.661   1.654 -1.8897  0.4638 -0.9783
 2290SOL    HW218333   1.344   1.550   1.628  0.4646  0.8393 -0.0440
 2291SOL     OW18334   4.207   4.454   3.748 -0.3336 -0.2076 -0.0074
 2291SOL    HW118335   4.161   4.376   3.719 -1.4269  0.3727  0.1409
 2291SOL    HW218336   4.233   4.433   3.838  0.1364 -1.7593 -0.5220
 2292SOL     OW18337   2.287   0.204  17.293 -0.0512  0.0258 -0.3613
 2292SOL    HW118338   2.324   0.128  17.339  1.9253  0.4429 -1.2277
 2292SOL    HW218339   2.336   0.264  17.349  1.8622 -2.6923  0.9300
 2293SOL     OW18340   1.827   3.599   7.966  0.7275  0.3134 -0.1734
 2293SOL    HW118341   1.794   3.672   7.914  2.0043  0.8963 -0.1889
 2293SOL    HW218342   1.778   3.612   8.047  2.9104  1.6283  0.9344
 2294SOL     OW18343   4.036   3.279   0.488 -0.6654  0.1812 -0.1862
 2294SOL    HW118344   4.005   3.231   0.564  0.2571 -1.4637 -0.8447
 2294SOL    HW218345   3.969   3.347   0.487 -0.4268  0.3513 -4.7415
 2295SOL     OW18346   2.900   2.954   0.953  0.2562 -0.1560 -0.0214
 2295SOL    HW118347   2.929   2.890   0.889  1.3853 -1.4734  1.8164
 2295SOL    HW218348   2.903   2.905   1.036 -0.4611 -0.9082 -0.4454
 2296SOL     OW18349   2.451   3.174   9.241 -0.1885  0.0359  0.1851
 2296SOL    HW118350   2.458   3.085   9.275  1.3948  0.3685  0.7198
 2296SOL    HW218351   2.425   3.225   9.318  1.4964 -0.3736  1.0364
 2297SOL     OW18352   2.144   1.339   6.258  0.1562 -0.6342 -0.1203
 2297SOL    HW118353   2.103   1.366   6.176 -2.5340 -3.2338  0.3397
 2297SOL    HW218354   2.167   1.424   6.294 -2.2931 -0.0062 -0.0439
 2298SOL     OW18355   1.632   2.592   2.931  0.5337 -0.9342 -0.4075
 2298SOL    HW118356   1.647   2.687   2.931  1.5905 -1.1002  0.5261
 2298SOL    HW218357   1.619   2.578   2.837 -0.0386  2.9088 -0.8919
 2299SOL     OW18358   0.627   2.320   2.779 -0.4959 -0.3151 -0.0965
 2299SOL    HW118359   0.614   2.412   2.803  1.4156  0.1389 -0.7999
 2299SOL    HW218360   0.553   2.312   2.718 -0.8362  0.4357  0.2196
 2300SOL     OW18361   3.239   3.815   6.159 -0.0497 -0.3122  0.2456
 2300SOL    HW118362   3.175   3.800   6.089 -1.0200  1.3195  0.7825
 2300SOL    HW218363   3.207   3.880   6.222 -1.2825 -2.0256  1.3775
 2301SOL     OW18364   4.034   0.856  14.872 -0.8293  0.0713  0.1393
 2301SOL    HW118365   4.130   0.845  14.872 -0.7077  1.1583  2.0976
 2301SOL    HW218366   4.011   0.792  14.804  1.3615 -0.4820 -0.0973
 2302SOL     OW18367   0.163   0.425   6.772  0.1250  0.2017 -0.0144
 2302SOL    HW118368   0.209   0.383   6.700  2.4011 -0.7336  1.9460
 2302SOL    HW218369   0.240   0.481   6.786  0.2927 -0.7536  3.0174
 2303SOL     OW18370   3.760   3.878   9.004 -0.3232  0.5132  0.3410
 2303SOL    HW118371   3.776   3.785   9.022 -3.2660 -0.1869 -0.7229
 2303SOL    HW218372   3.668   3.881   9.031 -0.7195  1.1121 -1.0726
 2304SOL     OW18373   3.448   3.630  16.236  0.4480 -0.5471  0.2407
 2304SOL    HW118374   3.481   3.685  16.165 -3.5038 -0.1642 -1.3546
 2304SOL    HW218375   3.533   3.589  16.247  0.4471 -1.1039 -1.7407
 2305SOL     OW18376   4.364   1.020   5.246 -0.1725  0.5351  0.3501
 2305SOL    HW118377   4.455   1.026   5.217  0.1651 -2.5432  0.7970
 2305SOL    HW218378   4.349   1.108   5.282  0.7870  0.9944 -0.3677
 2306SOL     OW18379   0.375   2.476   3.500  0.1804 -1.0181 -0.5000
 2306SOL    HW118380   0.367   2.429   3.583  1.7800  0.4088  0.4657
 2306SOL    HW218381   0.467   2.502   3.502  0.5929 -2.4226 -1.6305
 2307SOL     OW18382   1.435   1.791  16.229 -0.1718 -0.3473  0.4069
 2307SOL    HW118383   1.526   1.791  16.260  0.0169 -1.0923 -0.1358
 2307SOL    HW218384   1.412   1.884  16.230  0.0198 -0.2489 -3.1321
 2308SOL     OW18385   2.303   1.284   4.027 -0.4651  0.6067  0.7717
 2308SOL    HW118386   2.357   1.307   3.952 -0.0891 -1.1833  0.4825
 2308SOL    HW218387   2.297   1.189   4.012  0.7918  0.7147 -0.4490
 2309SOL     OW18388   4.260   1.536   6.158 -0.2878 -0.0578 -0.5994
 2309SOL    HW118389   4.180   1.502   6.119  0.6776  0.6549 -3.1439
 2309SOL    HW218390   4.257   1.627   6.130 -0.9248  0.1096  0.0272
 2310SOL     OW18391   1.014   0.574   4.138  0.3840 -0.3182  0.2759
 2310SOL    HW118392   0.937   0.589   4.192 -0.3058  0.3413 -0.8847
 2310SOL    HW218393   1.072   0.559   4.212  0.6339 -0.0320  0.1387
 2311SOL     OW18394   2.130   0.709   3.335 -0.2519 -0.2170 -0.1301
 2311SOL    HW118395   2.155   0.716   3.427  1.0064  0.3831 -0.5209
 2311SOL    HW218396   2.036   0.715   3.349 -0.3039 -1.0022 -0.1352
 2312SOL     OW18397   1.432   0.745  16.414  0.2563  0.2716  0.4128
 2312SOL    HW118398   1.476   0.733  16.329  0.4895 -2.0926  0.8689
 2312SOL    HW218399   1.366   0.809  16.389 -1.6260 -0.8492  2.5394
 2313SOL     OW18400   0.356   2.026   7.661  0.5621 -0.4230  0.0621
 2313SOL    HW118401   0.339   1.936   7.632  3.1362 -1.0572  0.4813
 2313SOL    HW218402   0.420   2.015   7.731 -1.0629 -0.9702  1.4615
 2314SOL     OW18403   0.251   3.700   3.524 -0.1127  0.6629 -0.0616
 2314SOL    HW118404   0.186   3.700   3.594 -0.2661 -1.5745 -0.2114
 2314SOL    HW218405   0.253   3.793   3.501  0.6410  1.2121  2.2886
 2315SOL     OW18406   1.616   0.921   8.986  0.0625 -0.0780  0.3623
 2315SOL    HW118407   1.688   0.881   8.936 -2.1140 -0.5637 -2.3969
 2315SOL    HW218408   1.550   0.931   8.917  1.1195 -0.8212 -0.7463
 2316SOL     OW18409   1.397   4.624   2.902  0.2799 -0.4280  0.4644
 2316SOL    HW118410   1.414   4.717   2.889  0.2372 -0.5770 -0.6410
 2316SOL    HW218411   1.382   4.585   2.816  1.8068 -2.2788  1.0454
 2317SOL     OW18412   3.719   2.606  12.762  0.0083  0.2174 -0.4232
 2317SOL    HW118413   3.687   2.598  12.852 -0.3659 -1.2376 -0.6827
 2317SOL    HW218414   3.754   2.695  12.763  0.6976 -0.0458 -1.7352
 2318SOL     OW18415   3.241   3.675   4.465 -0.4115 -0.5720  0.0236
 2318SOL    HW118416   3.172   3.727   4.506 -0.4739  0.7138 -1.7258
 2318SOL    HW218417   3.305   3.677   4.535  2.2406 -4.2067 -2.2914
 2319SOL     OW18418   3.104   3.057  12.225 -0.0738 -0.0380  0.2724
 2319SOL    HW118419   3.071   3.146  12.216 -0.8168 -0.3507 -0.0477
 2319SOL    HW218420   3.041   3.019  12.286 -0.0424  0.2783  0.5046
 2320SOL     OW18421   4.113   3.203   5.772  0.5667 -0.7470 -0.2276
 2320SOL    HW118422   4.139   3.112   5.788  1.0049 -0.8019 -1.3104
 2320SOL    HW218423   4.038   3.206   5.832  1.2226  0.2006  0.5534
 2321SOL     OW18424   1.009   1.753   3.499  0.5899  0.1065 -0.2538
 2321SOL    HW118425   1.028   1.670   3.455  2.6069  0.1000  0.6108
 2321SOL    HW218426   1.091   1.765   3.549  1.3475 -2.8756 -0.8037
 2322SOL     OW18427   4.525   2.094  17.104 -0.3033 -0.4580  0.2825
 2322SOL    HW118428   4.430   2.099  17.089 -0.2390 -0.9639 -0.2639
 2322SOL    HW218429   4.541   2.001  17.118 -0.6661 -0.4122  1.0056
 2323SOL     OW18430   0.800   4.188   4.019  0.3016  0.5073 -0.4089
 2323SOL    HW118431   0.888   4.180   3.981  0.0350  0.5699 -1.0373
 2323SOL    HW218432   0.804   4.132   4.096  2.1221 -0.3768 -1.1354
 2324SOL     OW18433   2.653   0.173   4.890 -0.0647  0.4320  0.2224
 2324SOL    HW118434   2.739   0.188   4.851 -0.2620 -1.3810 -0.9423
 2324SOL    HW218435   2.617   0.106   4.832  1.7709 -1.4828  1.2927
 2325SOL     OW18436   1.169   2.423   9.730  0.1350  0.0656  0.3021
 2325SOL    HW118437   1.167   2.339   9.683 -1.8453 -0.3165  1.0705
 2325SOL    HW218438   1.145   2.412   9.822  1.2778 -1.4141  0.4332
 2326SOL     OW18439   3.689   4.598   3.503 -0.4168  0.4582  0.4191
 2326SOL    HW118440   3.689   4.517   3.451 -0.4086  0.9975 -0.4140
 2326SOL    HW218441   3.666   4.552   3.584  0.0009  0.2257  0.4110
 2327SOL     OW18442   4.083   0.942   4.292  0.6702 -0.0865 -0.0317
 2327SOL    HW118443   4.038   0.985   4.365  0.4231  0.8765 -0.7522
 2327SOL    HW218444   4.079   0.850   4.317  0.3141 -0.2944 -0.8587
 2328SOL     OW18445   0.346   1.698  15.556 -0.0783 -0.7175  0.2000
 2328SOL    HW118446   0.396   1.771  15.595 -0.7480 -0.4438  0.5530
 2328SOL    HW218447   0.273   1.716  15.615 -0.4623  0.0144 -0.4956
 2329SOL     OW18448   4.412   4.013   6.435  0.3103 -0.4211  0.0369
 2329SOL    HW118449   4.406   4.088   6.375 -0.7332 -1.2574 -0.8974
 2329SOL    HW218450   4.443   4.053   6.516  0.2743  1.2367 -0.7645
 2330SOL     OW18451   2.729   2.107  15.421  0.0788  0.4360  0.3178
 2330SOL    HW118452   2.685   2.192  15.420 -0.2055  0.2489 -3.7192
 2330SOL    HW218453   2.821   2.131  15.425  0.1532  0.1714  0.1886
 2331SOL     OW18454   3.684   0.710   1.690  0.3270 -0.1362 -0.7474
 2331SOL    HW118455   3.601   0.756   1.703  0.3047 -0.1875 -0.7051
 2331SOL    HW218456   3.694   0.651   1.765  0.3492 -1.2307 -1.6104
 2332SOL     OW18457   3.356   2.082   1.795  0.1714  0.0138 -0.2785
 2332SOL    HW118458   3.341   1.988   1.783 -0.6596 -0.2234  2.6405
 2332SOL    HW218459   3.368   2.086   1.890  5.0449 -0.4720 -0.8755
 2333SOL     OW18460   1.708   3.439   8.987 -0.0141 -0.0878 -0.4167
 2333SOL    HW118461   1.785   3.384   8.976 -0.3746 -0.7568  0.4213
 2333SOL    HW218462   1.745   3.525   9.009  0.5506 -0.2839 -0.6066
 2334SOL     OW18463   2.743   1.157   6.849 -0.1514  0.4160 -0.2073
 2334SOL    HW118464   2.830   1.128   6.822 -0.0506  0.6871 -0.1762
 2334SOL    HW218465   2.768   1.204   6.928  0.1362 -0.5411  0.2702
 2335SOL     OW18466   1.627   3.831   4.674  0.1806  0.2843  0.3300
 2335SOL    HW118467   1.695   3.894   4.696  0.2891  0.7175 -1.2632
 2335SOL    HW218468   1.565   3.868   4.612  1.1464 -0.8555 -1.3294
 2336SOL     OW18469   0.106   1.710  15.738 -0.5034  0.3548  0.2420
 2336SOL    HW118470   0.023   1.704  15.691 -0.7564 -0.5167  0.7995
 2336SOL    HW218471   0.082   1.701  15.830 -1.7828 -1.4821 -0.2640
 2337SOL     OW18472   2.940   2.149   4.042  0.5971  0.0524  0.2752
 2337SOL    HW118473   2.970   2.187   3.959  0.3450 -1.0051 -0.2984
 2337SOL    HW218474   2.845   2.152   4.038  0.6842  1.5163 -0.9235
 2338SOL     OW18475   1.200   2.123   4.862 -0.6260 -0.2050 -0.2245
 2338SOL    HW118476   1.257   2.181   4.812  0.0598 -1.5909 -1.0470
 2338SOL    HW218477   1.255   2.050   4.890 -1.5560 -1.2889 -1.2806
 2339SOL     OW18478   3.229   3.851   9.409  0.6369 -0.3841  0.1330
 2339SOL    HW118479   3.218   3.769   9.362  0.4760 -0.2423 -0.0741
 2339SOL    HW218480   3.140   3.886   9.408 -0.3190 -2.8456 -1.5242
 2340SOL     OW18481   1.604   2.475  17.121  0.5162 -0.3324 -0.3287
 2340SOL    HW118482   1.687   2.510  17.088  0.1488  0.5570 -0.3055
 2340SOL    HW218483   1.635   2.387  17.144  1.4250  0.3756  1.1182
 2341SOL     OW18484   4.499   4.160   6.668  0.8204  0.2311  0.1234
 2341SOL    HW118485   4.594   4.149   6.663  0.8969  0.1402  1.8095
 2341SOL    HW218486   4.494   4.253   6.691  0.3846  0.1648  0.2979
 2342SOL     OW18487   3.235   0.389   6.607 -0.4509 -0.6192  0.3006
 2342SOL    HW118488   3.189   0.404   6.525  0.3318 -2.1238 -0.4198
 2342SOL    HW218489   3.328   0.411   6.596 -1.0599  1.7658 -0.0351
 2343SOL     OW18490   1.950   4.604   6.452 -0.1071  0.2028  0.1159
 2343SOL    HW118491   1.989   4.615   6.539  2.3575  1.6959 -1.1735
 2343SOL    HW218492   2.020   4.626   6.390  0.5048 -0.9222  0.4000
 2344SOL     OW18493   2.976   2.118   8.855 -0.3435 -0.2054 -0.2488
 2344SOL    HW118494   2.996   2.192   8.798  0.9742 -0.7416 -0.4832
 2344SOL    HW218495   3.061   2.078   8.873 -0.7107  0.7031  3.4173
 2345SOL     OW18496   1.630   1.048  12.557 -0.4305  0.2511  0.0054
 2345SOL    HW118497   1.548   1.096  12.563  0.9118  2.7086 -1.1163
 2345SOL    HW218498   1.631   1.017  12.466  0.0409  0.2138  0.0213
 2346SOL     OW18499   3.665   4.417   5.820 -0.4330 -0.3715 -0.3873
 2346SOL    HW118500   3.588   4.386   5.869 -2.0278  2.3057 -1.1865
 2346SOL    HW218501   3.745   4.388   5.863 -1.0145 -0.8087  0.4075
 2347SOL     OW18502   3.904   2.547  14.216 -0.0947  0.5399  1.1217
 2347SOL    HW118503   3.979   2.552  14.276  1.2200  1.1323 -0.5500
 2347SOL    HW218504   3.928   2.616  14.153  1.7067 -0.2103  0.9781
 2348SOL     OW18505   2.996   0.808   7.553 -0.0960  0.2732  0.6271
 2348SOL    HW118506   2.913   0.759   7.543 -0.1038  0.5022 -0.3927
 2348SOL    HW218507   2.963   0.872   7.616  0.5461  1.2994 -0.0813
 2349SOL     OW18508   1.161   3.076   9.875  0.6947  0.0870 -0.0644
 2349SOL    HW118509   1.239   3.053   9.925  0.2368 -0.3802  0.4309
 2349SOL    HW218510   1.170   3.031   9.791 -3.3194 -1.0745  0.1027
 2350SOL     OW18511   2.185   2.252   1.868  0.4990 -0.0237  0.2445
 2350SOL    HW118512   2.241   2.179   1.894  0.3529 -0.6162 -1.0877
 2350SOL    HW218513   2.201   2.255   1.773 -2.4533 -1.5792 -0.3118
 2351SOL     OW18514   3.303   0.854   7.596 -0.6808  0.0342 -1.3438
 2351SOL    HW118515   3.264   0.768   7.577 -1.1396  0.0151 -0.3025
 2351SOL    HW218516   3.236   0.917   7.572 -1.3825 -0.2507 -0.1272
 2352SOL     OW18517   3.657   2.561  15.411 -0.2231  0.1227 -0.0463
 2352SOL    HW118518   3.659   2.570  15.316 -0.6739  2.1401  0.1433
 2352SOL    HW218519   3.566   2.532  15.425  0.0149 -0.9546 -0.7471
 2353SOL     OW18520   2.779   3.815  12.909  0.0192 -0.0771 -0.6622
 2353SOL    HW118521   2.723   3.749  12.868  0.1007 -0.2768 -0.4525
 2353SOL    HW218522   2.728   3.896  12.909 -0.3620 -0.3201 -1.8872
 2354SOL     OW18523   0.320   1.786   7.081 -0.2013 -0.6151 -0.5706
 2354SOL    HW118524   0.345   1.825   7.165 -2.1207  0.1019 -0.3348
 2354SOL    HW218525   0.313   1.857   7.018  2.1140 -0.5752 -0.7669
 2355SOL     OW18526   4.249   3.988   9.163 -0.0510 -0.0095  0.0588
 2355SOL    HW118527   4.154   4.001   9.162 -0.3720 -2.3297 -0.0397
 2355SOL    HW218528   4.264   3.913   9.106  0.6272 -1.0626  1.6045
 2356SOL     OW18529   1.967   2.002   7.099 -0.0122 -0.0149 -0.3591
 2356SOL    HW118530   2.023   1.936   7.141  1.6290  1.3708 -0.3735
 2356SOL    HW218531   1.883   1.972   7.133  1.0497 -1.1595  1.2931
 2357SOL     OW18532   0.691   3.714   8.219  0.2968 -0.2691 -0.1924
 2357SOL    HW118533   0.698   3.786   8.157  1.6126 -1.6779 -1.6911
 2357SOL    HW218534   0.620   3.744   8.275 -1.3917 -1.1590 -1.8615
 2358SOL     OW18535   0.566   1.919   8.397  0.3306  0.0679 -0.5202
 2358SOL    HW118536   0.605   1.909   8.484  0.3990  1.7321 -0.3594
 2358SOL    HW218537   0.612   2.000   8.376  0.3151  0.2938  0.2955
 2359SOL     OW18538   4.451   4.549   9.758 -0.6444 -0.4666  0.4000
 2359SOL    HW118539   4.397   4.621   9.791 -1.7769  0.1922 -2.8602
 2359SOL    HW218540   4.496   4.518   9.836 -0.9953  1.0480  1.2235
 2360SOL     OW18541   1.975   1.961   7.780 -0.5126 -0.6445 -0.2873
 2360SOL    HW118542   1.910   1.983   7.847  0.1620  1.3068 -0.2648
 2360SOL    HW218543   2.033   2.034   7.800 -1.0608 -0.6845  1.4235
 2361SOL     OW18544   2.038   2.216   3.821  0.0079  0.4579  0.4115
 2361SOL    HW118545   2.043   2.279   3.748  0.1373 -0.2047 -0.1496
 2361SOL    HW218546   1.962   2.168   3.788 -1.0743  1.8645  0.8284
 2362SOL     OW18547   3.995   2.231   2.206 -0.2729 -0.2273 -0.3144
 2362SOL    HW118548   4.058   2.217   2.277 -2.0771  0.9743  1.4999
 2362SOL    HW218549   4.055   2.265   2.139 -0.4098  3.3002  1.3683
 2363SOL     OW18550   3.854   2.281  11.624 -0.3482 -0.0575  0.0839
 2363SOL    HW118551   3.913   2.244  11.557  1.4323  2.7615  0.1153
 2363SOL    HW218552   3.868   2.374  11.609 -1.4096  0.3890  1.9448
 2364SOL     OW18553   3.514   4.037  10.022 -0.2714 -0.4118  0.2705
 2364SOL    HW118554   3.570   3.962  10.042  0.2569 -0.0506  0.1390
 2364SOL    HW218555   3.556   4.078   9.947  1.3404 -0.5865  1.0840
 2365SOL     OW18556   4.287   0.555  12.588  0.1809  0.0661 -0.3626
 2365SOL    HW118557   4.282   0.510  12.504  0.8453  1.5631 -1.2148
 2365SOL    HW218558   4.202   0.524  12.619  0.9279  0.7084  2.3031
 2366SOL     OW18559   1.561   2.064   2.489 -0.4275 -0.5386 -0.3624
 2366SOL    HW118560   1.526   2.014   2.562 -0.3974 -0.5522 -0.3573
 2366SOL    HW218561   1.635   2.116   2.520  0.0928 -1.2746 -0.3761
 2367SOL     OW18562   0.581   3.342   8.772  0.3093 -0.2304  0.4852
 2367SOL    HW118563   0.537   3.380   8.848 -1.3608 -0.6448 -0.2611
 2367SOL    HW218564   0.568   3.249   8.786  1.4341 -0.6619 -1.3685
 2368SOL     OW18565   3.557   4.634  16.669 -0.2625 -0.5602  0.3048
 2368SOL    HW118566   3.648   4.612  16.691 -0.4557 -0.1975  1.4770
 2368SOL    HW218567   3.554   0.001  16.645 -0.5698 -0.5568  0.3555
 2369SOL     OW18568   0.780   1.745  10.235 -0.5336  0.4329  0.1578
 2369SOL    HW118569   0.694   1.745  10.193 -1.0278 -1.4005  1.1813
 2369SOL    HW218570   0.834   1.745  10.155 -0.1361 -0.9785  0.4288
 2370SOL     OW18571   4.563   0.129   7.500  1.1752 -0.9015 -0.5304
 2370SOL    HW118572   4.620   0.052   7.499 -0.8808 -2.4170  0.6013
 2370SOL    HW218573   4.476   0.090   7.507  0.4783  1.3341  2.8747
 2371SOL     OW18574   2.067   4.091   6.329  0.4042 -0.0516  0.2071
 2371SOL    HW118575   2.100   4.030   6.263 -0.1478 -0.0589 -0.0593
 2371SOL    HW218576   2.027   4.166   6.286  2.1642 -0.1684 -1.6039
 2372SOL     OW18577   4.153   2.262   4.536 -0.2839  0.2177  0.1035
 2372SOL    HW118578   4.118   2.321   4.469 -0.7209  1.9622  1.8781
 2372SOL    HW218579   4.226   2.214   4.497 -1.1244 -2.0412  1.3175
 2373SOL     OW18580   1.737   1.018   4.926  0.0396  0.0541 -0.4220
 2373SOL    HW118581   1.666   1.059   4.876 -0.5353 -0.1594  0.2194
 2373SOL    HW218582   1.792   0.987   4.854  0.9406  1.7645 -0.4813
 2374SOL     OW18583   3.922   3.570   6.751  0.1286 -0.0495  0.5364
 2374SOL    HW118584   3.964   3.614   6.825  0.5091 -0.6089  0.6603
 2374SOL    HW218585   3.978   3.600   6.679 -1.1611 -1.5016 -1.0784
 2375SOL     OW18586   3.796   3.378  11.760  0.5859 -0.3359  0.3946
 2375SOL    HW118587   3.867   3.314  11.768 -0.0816 -0.8509  2.4089
 2375SOL    HW218588   3.772   3.366  11.669  0.4882 -0.5461  0.4495
 2376SOL     OW18589   0.902   2.741   0.705 -1.0030  0.5812  0.4169
 2376SOL    HW118590   0.817   2.772   0.734 -1.4360 -0.0012 -0.2455
 2376SOL    HW218591   0.888   2.646   0.711  0.6379  0.2583 -0.6645
 2377SOL     OW18592   1.826   4.352  17.689 -0.6158  0.3367  0.1668
 2377SOL    HW118593   1.828   4.278  17.628 -1.1739  1.8279 -1.6577
 2377SOL    HW218594   1.733   4.365   0.002 -1.3303 -2.1596 -1.6480
 2378SOL     OW18595   1.178   0.703   1.703 -0.4787 -0.3148  0.4782
 2378SOL    HW118596   1.263   0.724   1.665 -0.5975  1.7692  1.3665
 2378SOL    HW218597   1.119   0.694   1.629 -0.0813  0.4605  0.0669
 2379SOL     OW18598   0.950   0.033  11.933 -0.8350 -0.6741 -0.0849
 2379SOL    HW118599   0.939   0.045  12.027 -0.4182  1.1524 -0.2690
 2379SOL    HW218600   0.957   4.663  11.929  1.1793 -0.5834  1.2517
 2380SOL     OW18601   1.379   2.339   1.662 -0.0273 -0.1793  0.2854
 2380SOL    HW118602   1.381   2.405   1.731 -0.1824 -1.9185  1.9602
 2380SOL    HW218603   1.340   2.269   1.715 -2.2385 -0.0837 -1.1687
 2381SOL     OW18604   2.019   0.270   1.660 -0.3760  0.1462  0.0356
 2381SOL    HW118605   1.991   0.212   1.589  0.7838 -1.9693  1.2978
 2381SOL    HW218606   2.017   0.218   1.740 -2.4647  1.5538  0.9177
 2382SOL     OW18607   0.640   0.153   8.609  0.0965  0.3472 -0.1157
 2382SOL    HW118608   0.555   0.117   8.584 -0.6638  2.3622 -0.4299
 2382SOL    HW218609   0.632   0.230   8.554 -0.0867 -0.5568 -1.3571
 2383SOL     OW18610   2.254   3.411   4.019  0.7058 -0.6175 -0.3835
 2383SOL    HW118611   2.260   3.403   4.114  3.6487  2.5485 -0.3177
 2383SOL    HW218612   2.159   3.401   4.011  0.8455 -2.0051 -0.3782
 2384SOL     OW18613   2.474   4.501   5.363 -0.5087 -0.0897 -0.8511
 2384SOL    HW118614   2.547   4.524   5.306 -0.3582 -1.6965 -1.3088
 2384SOL    HW218615   2.476   4.406   5.369  0.0931 -0.1080 -1.3497
 2385SOL     OW18616   1.573   0.934  14.599 -0.5836  0.7955 -0.5946
 2385SOL    HW118617   1.522   0.921  14.679  0.3096 -0.3873 -0.2216
 2385SOL    HW218618   1.528   0.871  14.544  1.5480 -0.4834 -0.8869
 2386SOL     OW18619   1.690   2.508   6.032  0.1277  0.0622 -0.3200
 2386SOL    HW118620   1.651   2.423   6.054 -2.1124  1.6196  1.6051
 2386SOL    HW218621   1.614   2.564   6.018 -0.6319 -0.8811  0.0178
 2387SOL     OW18622   4.562   0.124   9.590  0.5303  0.1441 -0.9689
 2387SOL    HW118623   4.563   0.061   9.662 -0.2593 -0.7166 -1.7172
 2387SOL    HW218624   4.645   0.173   9.595 -0.4151  1.6677  0.0440
 2388SOL     OW18625   2.748   0.988   8.374 -0.1680 -0.0995 -0.1153
 2388SOL    HW118626   2.837   1.019   8.357 -0.0815 -0.8285 -0.9550
 2388SOL    HW218627   2.755   0.953   8.463  0.3807 -1.4651 -0.6973
 2389SOL     OW18628   1.267   1.587   5.940 -0.0611  0.2961 -0.1271
 2389SOL    HW118629   1.331   1.581   6.011  0.3764  2.7373 -0.3091
 2389SOL    HW218630   1.299   1.661   5.888  0.0456 -0.6502 -1.3912
 2390SOL     OW18631   3.277   1.406   4.552  0.3256 -0.3771  0.6975
 2390SOL    HW118632   3.189   1.378   4.528 -0.2693  2.9944 -1.0674
 2390SOL    HW218633   3.292   1.468   4.481  0.2181 -1.5153 -0.3128
 2391SOL     OW18634   2.430   4.146   2.005 -0.2896 -0.7369 -0.8158
 2391SOL    HW118635   2.388   4.192   1.933 -1.2144 -0.1927  0.0613
 2391SOL    HW218636   2.418   4.219   2.066 -3.8432 -1.6166 -0.4983
 2392SOL     OW18637   3.228   3.412   1.544 -0.3662  0.6221  0.2763
 2392SOL    HW118638   3.191   3.500   1.537 -1.0188  0.3066 -0.2890
 2392SOL    HW218639   3.269   3.419   1.630  0.5466  0.7220 -0.1651
 2393SOL     OW18640   4.485   4.578   5.410 -0.2830 -0.5506 -0.3293
 2393SOL    HW118641   4.524   4.660   5.379 -0.0775 -1.6333 -2.9535
 2393SOL    HW218642   4.395   4.603   5.429  1.1942  2.0286  3.2466
 2394SOL     OW18643   2.450   1.900   9.582  0.3355 -0.2227 -0.0547
 2394SOL    HW118644   2.454   1.910   9.677  2.2184 -0.0509 -0.1543
 2394SOL    HW218645   2.534   1.935   9.554  0.4283 -0.8431 -0.5434
 2395SOL     OW18646   2.604   0.555   0.721  0.0871 -0.1265  0.3224
 2395SOL    HW118647   2.644   0.475   0.687  0.1523  0.2871 -0.5731
 2395SOL    HW218648   2.619   0.623   0.656  0.3999 -1.8162 -1.3778
 2396SOL     OW18649   2.001   0.773  13.647 -0.6397 -0.3880 -0.1166
 2396SOL    HW118650   1.946   0.695  13.641 -2.1314  0.6983 -0.2539
 2396SOL    HW218651   1.998   0.801  13.555 -2.4451  3.5627  1.1567
 2397SOL     OW18652   1.501   1.890   8.117  0.4383  0.4344 -0.0063
 2397SOL    HW118653   1.564   1.928   8.179  0.0072  0.7554  0.2284
 2397SOL    HW218654   1.419   1.891   8.167  1.4604 -2.3320  1.7596
 2398SOL     OW18655   0.499   1.669  17.486 -1.0027 -0.3399 -0.1404
 2398SOL    HW118656   0.530   1.586  17.522 -0.2151  0.5047  1.1419
 2398SOL    HW218657   0.558   1.688  17.414  1.3314 -0.2251  1.8190
 2399SOL     OW18658   2.141   0.228   4.160 -0.3510  0.2351  0.1222
 2399SOL    HW118659   2.103   0.141   4.147 -0.7995  0.3522  0.6247
 2399SOL    HW218660   2.228   0.205   4.128 -1.0989 -2.9881  0.3968
 2400SOL     OW18661   4.428   4.534   2.288  0.2964  0.1594  0.2545
 2400SOL    HW118662   4.359   4.585   2.330 -1.1958 -0.1474 -1.8313
 2400SOL    HW218663   4.376   4.464   2.249 -0.3124  0.8811 -0.2263
 2401SOL     OW18664   2.381   3.383   8.774 -0.0201  0.7559 -0.1724
 2401SOL    HW118665   2.293   3.410   8.797  0.2671  1.7037 -0.2156
 2401SOL    HW218666   2.425   3.403   8.856 -0.8915  1.3499  0.1503
 2402SOL     OW18667   4.025   2.156   7.496 -0.4428  0.0357 -0.4049
 2402SOL    HW118668   3.965   2.081   7.494  0.6304 -0.8523  0.2004
 2402SOL    HW218669   4.090   2.117   7.438 -0.4071 -0.1849 -0.2174
 2403SOL     OW18670   1.661   1.286   0.235  0.1139 -0.3938  0.4902
 2403SOL    HW118671   1.676   1.378   0.260  2.2288 -0.6177  0.0730
 2403SOL    HW218672   1.646   1.244   0.319  0.5468  1.5745  1.5641
 2404SOL     OW18673   4.142   3.160   3.735  0.1426  0.2372 -0.3775
 2404SOL    HW118674   4.086   3.209   3.674 -1.7752 -2.7408 -1.0453
 2404SOL    HW218675   4.224   3.155   3.685  1.0370  1.4631  0.9815
 2405SOL     OW18676   3.424   2.134  17.599  0.1279  0.2704  0.3525
 2405SOL    HW118677   3.468   2.159  17.518  0.1539 -0.2591  0.2012
 2405SOL    HW218678   3.333   2.164  17.595 -0.0004 -0.2559 -0.5663
 2406SOL     OW18679   0.254   4.352   7.211  0.4222 -0.3555 -0.2448
 2406SOL    HW118680   0.230   4.445   7.212  1.8465  0.0055  0.2131
 2406SOL    HW218681   0.349   4.361   7.213  0.2933  1.0527 -0.5082
 2407SOL     OW18682   0.132   0.089   5.331  0.4544 -0.1330 -0.3314
 2407SOL    HW118683   0.122   0.184   5.342 -2.1022 -0.2901 -1.2241
 2407SOL    HW218684   0.214   0.078   5.377  0.7598  0.5323 -0.7106
 2408SOL     OW18685   1.026   1.491   7.931 -0.0392 -0.2780  0.1042
 2408SOL    HW118686   0.941   1.525   7.901  0.4596  0.2794 -0.6869
 2408SOL    HW218687   1.010   1.405   7.892 -0.5334 -0.0116 -0.2863
 2409SOL     OW18688   0.028   3.822  15.053  0.5367  0.5300 -0.6192
 2409SOL    HW118689   0.034   3.786  14.965 -1.1811  0.2786 -0.6198
 2409SOL    HW218690   4.679   3.880  15.041  0.4920  0.1051 -2.3761
 2410SOL     OW18691   3.308   3.709   3.277 -0.1530  0.2009 -0.3811
 2410SOL    HW118692   3.272   3.767   3.210  0.9388  1.8569  0.4702
 2410SOL    HW218693   3.360   3.764   3.336 -1.7987 -0.0326  1.2970
 2411SOL     OW18694   3.362   4.584   9.055 -0.2240  0.2550 -0.0974
 2411SOL    HW118695   3.444   4.616   9.091  0.2385 -1.5408  0.4490
 2411SOL    HW218696   3.351   4.509   9.113  0.4711  0.1416 -0.1206
 2412SOL     OW18697   3.012   3.080   7.897  0.3575 -0.1202  1.0595
 2412SOL    HW118698   2.999   2.990   7.866  1.3812  0.2778 -0.5275
 2412SOL    HW218699   2.946   3.112   7.836 -0.4463 -0.5993  1.6863
 2413SOL     OW18700   2.705   1.656   8.901 -0.4023  0.4099  0.5836
 2413SOL    HW118701   2.769   1.603   8.949  1.9738  0.1713 -2.8620
 2413SOL    HW218702   2.757   1.734   8.884  1.4989 -1.6195 -2.8983
 2414SOL     OW18703   2.880   0.358   8.032 -0.2280 -0.5039 -0.2412
 2414SOL    HW118704   2.874   0.277   7.981 -0.3248  0.4865 -1.7844
 2414SOL    HW218705   2.820   0.418   7.989 -0.1300 -0.0512  0.2424
 2415SOL     OW18706   4.031   0.267   8.987  0.1548 -0.6949 -0.5917
 2415SOL    HW118707   4.103   0.241   8.930  0.8487 -3.2742  1.4410
 2415SOL    HW218708   4.039   0.207   9.061 -0.5104 -0.5933 -0.4285
 2416SOL     OW18709   1.595   2.507  16.661  0.2593  0.3241 -0.2330
 2416SOL    HW118710   1.500   2.514  16.653  0.1139 -1.5433 -0.2261
 2416SOL    HW218711   1.619   2.591  16.621  0.0980  0.6308  0.3196
 2417SOL     OW18712   2.802   4.122   6.867  0.0479 -0.0163 -0.8357
 2417SOL    HW118713   2.871   4.170   6.911 -0.0249 -0.3553 -0.3473
 2417SOL    HW218714   2.723   4.137   6.919  0.3432 -1.5952  0.0521
 2418SOL     OW18715   4.048   1.424   3.648  0.1488 -0.5009  0.3726
 2418SOL    HW118716   4.084   1.437   3.561  0.8999 -1.9706  0.4516
 2418SOL    HW218717   4.109   1.484   3.691 -0.5817  0.2727  0.3249
 2419SOL     OW18718   3.699   0.198   7.511  0.1915  0.5374 -0.2656
 2419SOL    HW118719   3.767   0.144   7.550  1.4022  1.9090 -0.4998
 2419SOL    HW218720   3.625   0.175   7.568 -0.8209  1.0108 -1.3840
 2420SOL     OW18721   3.567   3.907  16.170  0.1236 -0.0874 -0.3728
 2420SOL    HW118722   3.494   3.957  16.134  0.5336  0.0462 -1.0072
 2420SOL    HW218723   3.549   3.922  16.263  2.7382  1.1517 -0.0600
 2421SOL     OW18724   3.013   4.128  16.417  0.1809  0.0887 -0.1169
 2421SOL    HW118725   3.002   4.039  16.384  3.1605  0.3933 -1.9986
 2421SOL    HW218726   3.057   4.104  16.498 -1.1042 -1.2931  0.1586
 2422SOL     OW18727   2.091   3.384  14.947 -0.0948 -0.0430 -0.6113
 2422SOL    HW118728   2.089   3.454  15.012 -0.6279 -1.7109  1.1858
 2422SOL    HW218729   2.163   3.331  14.983 -2.9874 -2.5096  1.6132
 2423SOL     OW18730   1.149   0.380   0.277 -0.2515  0.5648  0.2306
 2423SOL    HW118731   1.130   0.330   0.356  1.5237 -0.5536 -0.0695
 2423SOL    HW218732   1.181   0.311   0.219 -0.7173 -0.2463  0.9395
 2424SOL     OW18733   3.949   0.356   7.220 -0.7237 -0.0455 -0.1954
 2424SOL    HW118734   3.919   0.447   7.224 -0.0063  0.2537 -1.8651
 2424SOL    HW218735   4.029   0.363   7.168  0.4931  1.0160  1.8095
 2425SOL     OW18736   4.440   0.727  16.203  0.0103  0.0481  0.3053
 2425SOL    HW118737   4.370   0.667  16.228  0.6563  0.5381  3.3518
 2425SOL    HW218738   4.392   0.810  16.204 -1.6235 -0.8896 -0.2128
 2426SOL     OW18739   0.523   4.493   6.016 -0.0396 -0.0196  0.8838
 2426SOL    HW118740   0.500   4.423   5.955  1.0254  1.2154 -0.9239
 2426SOL    HW218741   0.617   4.475   6.023 -0.0906 -0.6518 -0.1325
 2427SOL     OW18742   4.577   0.770   8.914  0.3820 -0.0834 -0.3045
 2427SOL    HW118743   4.628   0.698   8.876  1.7261  0.0275  1.2849
 2427SOL    HW218744   4.519   0.727   8.976  1.3340 -0.1166  0.5579
 2428SOL     OW18745   3.070   4.687   2.087  0.3470 -0.3557 -0.3101
 2428SOL    HW118746   3.095   4.595   2.100  1.6736  0.0089 -0.2112
 2428SOL    HW218747   3.154   0.003   2.069 -0.5710  1.4620 -0.4038
 2429SOL     OW18748   4.216   0.987  11.947  0.7728  0.7850 -0.4097
 2429SOL    HW118749   4.127   0.977  11.981  1.0517 -0.3227 -0.0204
 2429SOL    HW218750   4.248   0.905  11.909  0.0434 -1.3287  3.6436
 2430SOL     OW18751   2.749   3.817   9.869 -0.0115  0.0835  0.4911
 2430SOL    HW118752   2.683   3.775   9.925 -0.6133  3.5084  2.3687
 2430SOL    HW218753   2.710   3.904   9.858 -0.8314 -0.3952 -0.3647
 2431SOL     OW18754   1.185   0.159  14.908 -0.3771  0.5473  0.7072
 2431SOL    HW118755   1.201   0.253  14.919  1.0628  0.5158 -0.9361
 2431SOL    HW218756   1.247   0.123  14.971  2.0555  2.8736 -0.3159
 2432SOL     OW18757   3.783   1.257   0.710 -0.3208 -0.1727  0.1307
 2432SOL    HW118758   3.877   1.266   0.695 -0.4016 -1.1271 -0.9298
 2432SOL    HW218759   3.769   1.268   0.804 -0.4464  0.7989  0.0016
 2433SOL     OW18760   3.294   3.867   6.806  0.0615 -0.2439 -0.2813
 2433SOL    HW118761   3.289   3.918   6.724 -2.2901 -0.3282 -0.1880
 2433SOL    HW218762   3.308   3.778   6.773  0.1179  0.0708 -1.1287
 2434SOL     OW18763   3.513   1.519   7.709 -0.0650  0.3350  0.3883
 2434SOL    HW118764   3.607   1.511   7.694  0.0127  0.2853  0.9187
 2434SOL    HW218765   3.500   1.462   7.785 -0.8267  0.5225  0.3994
 2435SOL     OW18766   2.910   1.041   5.721 -0.4203  0.1350  0.0794
 2435SOL    HW118767   2.869   1.105   5.780 -1.0569  1.7226 -2.0923
 2435SOL    HW218768   2.893   1.075   5.634 -2.4081 -3.1708 -0.8220
 2436SOL     OW18769   4.559   0.151   2.544  0.2948 -0.5268 -0.2378
 2436SOL    HW118770   4.607   0.106   2.614  0.3037 -1.2202 -0.6829
 2436SOL    HW218771   4.469   0.125   2.560  0.7253 -1.2625  1.0169
 2437SOL     OW18772   2.875   2.101   6.888  0.2952 -0.1754 -0.0185
 2437SOL    HW118773   2.854   2.008   6.900  0.9099  0.1735  3.7157
 2437SOL    HW218774   2.800   2.135   6.936  0.5086  0.4427 -0.1311
 2438SOL     OW18775   4.364   0.953   0.727 -0.0452 -0.0714  0.1003
 2438SOL    HW118776   4.331   1.032   0.685 -0.0081 -0.8325 -1.3627
 2438SOL    HW218777   4.452   0.952   0.689  0.9505  3.0163  2.3043
 2439SOL     OW18778   1.111   2.585   4.045 -0.3044 -0.3519 -0.1322
 2439SOL    HW118779   1.039   2.632   4.088 -1.1378 -1.4558 -0.3283
 2439SOL    HW218780   1.065   2.513   4.002 -1.3975  0.3390 -0.1182
 2440SOL     OW18781   2.080   1.497   3.158 -0.4356  0.2289 -0.0376
 2440SOL    HW118782   2.154   1.437   3.147 -0.3508  0.4182 -0.5369
 2440SOL    HW218783   2.005   1.441   3.177  0.1503 -0.6150 -0.2226
 2441SOL     OW18784   1.694   0.678   1.622 -0.0041  0.2330 -0.6571
 2441SOL    HW118785   1.718   0.722   1.703  1.5464  1.0064 -1.5371
 2441SOL    HW218786   1.763   0.612   1.623  0.9772  1.2336 -1.5930
 2442SOL     OW18787   4.159   3.684   5.936  0.2972  0.2994  0.1585
 2442SOL    HW118788   4.094   3.752   5.951 -0.4625 -0.9832  2.7684
 2442SOL    HW218789   4.201   3.696   6.022 -0.0214 -2.7652  0.7489
 2443SOL     OW18790   2.947   0.548  16.270  0.1911  0.4175  0.5665
 2443SOL    HW118791   3.005   0.609  16.226  0.4837 -0.4090 -0.1777
 2443SOL    HW218792   2.972   0.467  16.225 -1.2766  0.2017  0.1463
 2444SOL     OW18793   2.396   4.471  12.842 -0.1501 -0.0374 -0.1176
 2444SOL    HW118794   2.366   4.561  12.858  0.3115  0.3241 -1.2941
 2444SOL    HW218795   2.377   4.463  12.748  0.1624  0.8414 -0.2568
 2445SOL     OW18796   0.839   0.028  13.922  0.3848  0.2711  0.5044
 2445SOL    HW118797   0.908   0.006  13.859  0.9475  0.1448  1.1674
 2445SOL    HW218798   0.803   0.105  13.878  0.1899 -0.0709  0.0714
 2446SOL     OW18799   4.445   0.503   6.975 -0.7375 -0.0061 -0.0692
 2446SOL    HW118800   4.452   0.535   7.065 -0.3678 -1.5561  0.4517
 2446SOL    HW218801   4.501   0.567   6.932 -1.1418  0.6954  0.4579
 2447SOL     OW18802   2.039   0.483   7.378  0.0500  0.2730 -0.2284
 2447SOL    HW118803   1.979   0.426   7.425 -0.5603  0.0161 -1.3288
 2447SOL    HW218804   2.019   0.567   7.421 -0.5542  0.0521 -0.0810
 2448SOL     OW18805   2.600   2.750   9.863  0.0324  0.4087  0.5772
 2448SOL    HW118806   2.682   2.732   9.818 -1.0894 -0.5937 -1.0375
 2448SOL    HW218807   2.542   2.746   9.787  0.7453  2.3418 -0.0584
 2449SOL     OW18808   0.021   0.863   6.854 -0.2512  0.5180  0.2991
 2449SOL    HW118809   4.723   0.950   6.821 -2.2344 -0.0092  0.3598
 2449SOL    HW218810   0.018   0.810   6.775  0.3484 -1.6530  1.7428
 2450SOL     OW18811   1.851   3.184   3.329  0.0723  0.1920  0.2959
 2450SOL    HW118812   1.817   3.141   3.408 -0.2952 -3.3705 -1.7758
 2450SOL    HW218813   1.870   3.274   3.355  1.4359 -0.0928  0.2963
 2451SOL     OW18814   0.970   2.683   3.721  0.1848  0.4022  0.3800
 2451SOL    HW118815   0.944   2.684   3.813  2.3953  0.3796  0.9830
 2451SOL    HW218816   1.056   2.641   3.726 -1.0230 -2.3479 -1.9738
 2452SOL     OW18817   0.687   2.777   7.499  0.0609  0.3310 -0.0699
 2452SOL    HW118818   0.602   2.735   7.516 -0.6194  1.4262 -0.7755
 2452SOL    HW218819   0.714   2.787   7.590  1.1132 -0.8656 -0.2552
 2453SOL     OW18820   1.207   3.189  14.373 -0.5964  0.0844 -0.5793
 2453SOL    HW118821   1.224   3.240  14.294  1.9506  1.5546  0.9338
 2453SOL    HW218822   1.124   3.144  14.358 -1.1803  1.0433 -0.2185
 2454SOL     OW18823   2.666   3.599  15.244  0.1735  0.2383  0.0730
 2454SOL    HW118824   2.678   3.505  15.259 -0.0692  0.4749  1.6957
 2454SOL    HW218825   2.675   3.607  15.149 -2.8838  0.6134 -0.1789
 2455SOL     OW18826   3.081   3.667  12.664  0.1087 -0.4066 -0.1488
 2455SOL    HW118827   3.109   3.718  12.740  0.2963 -0.9591  0.1507
 2455SOL    HW218828   3.153   3.605  12.658  0.7248  0.4300 -1.5036
 2456SOL     OW18829   0.958   0.906   1.734 -0.4264  0.0329  0.0045
 2456SOL    HW118830   0.979   0.976   1.671 -1.5201 -0.5121 -0.9684
 2456SOL    HW218831   0.911   0.851   1.671 -0.9396 -0.7963  1.1100
 2457SOL     OW18832   0.920   1.968   6.899 -0.3170 -0.0781 -0.5163
 2457SOL    HW118833   0.875   2.044   6.863  0.0264  0.5283  0.3229
 2457SOL    HW218834   0.962   2.008   6.976 -0.1216 -0.5252 -0.3893
 2458SOL     OW18835   4.638   2.654   3.657  0.3952  0.4853 -0.3212
 2458SOL    HW118836   4.720   2.697   3.635 -0.0302  1.6525  0.4067
 2458SOL    HW218837   4.645   2.657   3.752  0.6246  2.2722 -0.4078
 2459SOL     OW18838   4.424   2.522   4.043 -0.6274 -0.3406  0.1408
 2459SOL    HW118839   4.428   2.457   4.114  0.6569 -0.8828 -0.4260
 2459SOL    HW218840   4.369   2.588   4.084 -0.0907  0.6923 -0.8219
 2460SOL     OW18841   1.646   2.011   7.439 -0.4287  0.2089  0.3897
 2460SOL    HW118842   1.723   1.959   7.462  0.8344  1.8779 -0.0849
 2460SOL    HW218843   1.581   1.963   7.491 -0.4076 -0.0104  0.2129
 2461SOL     OW18844   2.589   1.036   8.943  0.2491 -0.8606 -0.4758
 2461SOL    HW118845   2.514   1.071   8.991 -1.1804 -1.5872 -2.1911
 2461SOL    HW218846   2.655   1.099   8.970 -0.6967 -1.0842  2.3693
 2462SOL     OW18847   3.046   0.776  10.224 -0.0066 -0.2840  0.1017
 2462SOL    HW118848   2.974   0.726  10.185 -2.3065  1.0932  2.6057
 2462SOL    HW218849   3.041   0.743  10.314 -2.6517  2.5810  0.9668
 2463SOL     OW18850   2.636   1.687   7.833 -0.3078 -0.2085 -0.2762
 2463SOL    HW118851   2.552   1.641   7.830 -0.1155 -0.5240 -0.9385
 2463SOL    HW218852   2.654   1.712   7.742  2.6726  1.8811  0.8651
 2464SOL     OW18853   3.513   1.361   7.039  0.1619 -0.1241  0.1867
 2464SOL    HW118854   3.496   1.315   6.956  0.6976  0.9100 -0.4928
 2464SOL    HW218855   3.435   1.339   7.089 -0.6878  0.9678 -0.6845
 2465SOL     OW18856   3.161   1.994   4.299  0.5644  0.3095  0.0403
 2465SOL    HW118857   3.178   2.017   4.207  1.7073  3.1707  0.9603
 2465SOL    HW218858   3.250   2.002   4.335  0.0716 -0.0211  1.3208
 2466SOL     OW18859   0.611   1.271  10.139 -0.1213  0.6081 -0.7286
 2466SOL    HW118860   0.577   1.249  10.226  0.8286 -0.5860 -0.6602
 2466SOL    HW218861   0.544   1.332  10.107  2.0038  1.9763 -2.5533
 2467SOL     OW18862   2.276   3.246   5.041  0.1385  0.7283  0.1115
 2467SOL    HW118863   2.344   3.178   5.043  0.3422  0.9828  2.0889
 2467SOL    HW218864   2.312   3.291   5.117  1.5633  1.5765 -1.0731
 2468SOL     OW18865   2.196   4.379   8.074  0.3390 -0.4443  0.1365
 2468SOL    HW118866   2.208   4.363   8.167  0.7075  0.6738  0.2817
 2468SOL    HW218867   2.187   4.292   8.033 -2.7561  0.0512 -0.1874
 2469SOL     OW18868   1.229   0.481  13.168  0.3385  0.5185 -0.3653
 2469SOL    HW118869   1.295   0.448  13.107 -0.1528 -4.8462  1.9476
 2469SOL    HW218870   1.233   0.575  13.151  1.7237  0.6881  0.9468
 2470SOL     OW18871   4.121   1.986   3.828 -0.0773  0.1509  0.5315
 2470SOL    HW118872   4.122   1.936   3.746  1.0189  1.3354 -0.1903
 2470SOL    HW218873   4.177   2.063   3.814  1.2188 -1.1300 -1.2946
 2471SOL     OW18874   0.687   2.919  11.612 -0.2018  0.4673  0.5526
 2471SOL    HW118875   0.733   2.876  11.683  3.8830 -0.5674 -2.7296
 2471SOL    HW218876   0.636   2.849  11.570  1.4922 -0.1485 -0.4737
 2472SOL     OW18877   1.165   1.674   7.027  0.0867  0.0933 -0.3257
 2472SOL    HW118878   1.172   1.578   7.018 -2.0893 -0.2075  1.2429
 2472SOL    HW218879   1.210   1.694   7.108 -1.2335  2.2194 -0.1391
 2473SOL     OW18880   1.363   3.382   1.270 -0.3641 -1.0128 -0.3329
 2473SOL    HW118881   1.342   3.474   1.255  2.1659 -0.0806  1.9692
 2473SOL    HW218882   1.409   3.367   1.187 -0.5423 -1.4228 -0.3590
 2474SOL     OW18883   2.509   4.241   0.643 -0.3270 -0.5843 -0.2197
 2474SOL    HW118884   2.498   4.166   0.585 -0.9284  0.0106 -0.8769
 2474SOL    HW218885   2.415   4.260   0.646 -0.1639  0.2257 -0.2462
 2475SOL     OW18886   1.952   2.476   1.604 -0.8285  0.5007  0.0664
 2475SOL    HW118887   2.030   2.491   1.551 -0.9445  0.4301 -0.1215
 2475SOL    HW218888   1.954   2.385   1.633  0.9608  0.1076 -1.3193
 2476SOL     OW18889   3.158   3.818   5.402  0.9304 -0.1214  0.1352
 2476SOL    HW118890   3.159   3.755   5.475  0.6852 -1.2098 -0.8044
 2476SOL    HW218891   3.112   3.762   5.339  0.2193  1.2788 -0.5928
 2477SOL     OW18892   0.428   0.844  12.760  0.0158  0.5397  0.1276
 2477SOL    HW118893   0.504   0.861  12.815 -1.1527  1.9536  1.2947
 2477SOL    HW218894   0.353   0.856  12.818  0.6061  0.2031  0.9582
 2478SOL     OW18895   1.938   2.224   1.952  0.3329 -0.1328 -0.1587
 2478SOL    HW118896   1.931   2.131   1.973 -0.6488  0.5575  2.6039
 2478SOL    HW218897   2.030   2.239   1.932  0.9451 -0.8534  2.1330
 2479SOL     OW18898   3.978   2.931   7.441 -0.1511 -0.4844  0.1278
 2479SOL    HW118899   3.926   2.975   7.374 -0.4458  0.5259  1.0212
 2479SOL    HW218900   3.902   2.877   7.461 -0.2719 -0.0853  0.7647
 2480SOL     OW18901   3.744   2.854   0.282  0.4560 -0.4059 -0.0828
 2480SOL    HW118902   3.724   2.772   0.238 -1.5143  0.5327 -0.9377
 2480SOL    HW218903   3.677   2.910   0.242  1.4796 -0.4541 -1.8718
 2481SOL     OW18904   1.586   1.199   2.307  0.2162  0.2011  0.2670
 2481SOL    HW118905   1.627   1.253   2.238 -2.1752  1.2972 -0.2796
 2481SOL    HW218906   1.492   1.211   2.300  0.3394  0.7368 -0.5453
 2482SOL     OW18907   4.457   2.721   0.608 -0.3540  0.2008 -0.0324
 2482SOL    HW118908   4.462   2.808   0.567 -4.6564  0.5915  0.2202
 2482SOL    HW218909   4.510   2.735   0.686  0.7115 -1.3554 -0.4876
 2483SOL     OW18910   3.187   3.962   7.359  0.0752  0.0997 -0.2688
 2483SOL    HW118911   3.100   3.951   7.321  0.7050 -0.0471 -1.6759
 2483SOL    HW218912   3.226   3.890   7.310  1.9063  2.8089 -2.7864
 2484SOL     OW18913   2.501   4.460  13.108 -0.2904 -0.3567 -0.2603
 2484SOL    HW118914   2.459   4.454  13.022  2.8278 -1.5699 -1.6771
 2484SOL    HW218915   2.423   4.464  13.165  2.4264  1.9233  3.3038
 2485SOL     OW18916   3.378   1.411   4.034 -0.1203 -0.3094 -0.0884
 2485SOL    HW118917   3.428   1.336   4.004 -1.2550 -2.3896  3.2564
 2485SOL    HW218918   3.441   1.484   4.027 -0.1546 -0.0393  2.1709
 2486SOL     OW18919   3.782   0.726   1.457  0.0600 -0.1748 -0.2058
 2486SOL    HW118920   3.746   0.722   1.546  0.1558 -2.2162 -0.2622
 2486SOL    HW218921   3.876   0.738   1.471  0.2151  1.0847 -2.1838
 2487SOL     OW18922   0.889   2.690   4.156 -0.2043 -0.2876  0.2289
 2487SOL    HW118923   0.808   2.730   4.188  0.4041  1.5355 -0.5288
 2487SOL    HW218924   0.893   2.625   4.226  1.7331 -0.2126  0.1793
 2488SOL     OW18925   2.910   0.540   3.217  0.3839 -0.1744  0.5073
 2488SOL    HW118926   2.913   0.559   3.123  0.6912 -1.0887  0.3382
 2488SOL    HW218927   2.819   0.512   3.230  0.1459  0.3223 -0.0668
 2489SOL     OW18928   0.608   2.327   5.584  0.2177  0.0669 -0.1303
 2489SOL    HW118929   0.587   2.295   5.496 -3.3682  0.4169  0.5940
 2489SOL    HW218930   0.601   2.251   5.642 -1.7102  0.7930  0.5882
 2490SOL     OW18931   2.640   3.036   8.817 -0.1120 -0.6459  0.3951
 2490SOL    HW118932   2.593   3.075   8.890  1.0369 -0.6573  1.1408
 2490SOL    HW218933   2.687   2.964   8.859  0.7110  0.5035  1.4336
 2491SOL     OW18934   3.782   1.396   7.716 -0.3276 -0.0564  0.3032
 2491SOL    HW118935   3.781   1.333   7.788  0.1570 -0.0764  0.2934
 2491SOL    HW218936   3.871   1.373   7.689  0.7542  2.1306  2.0169
 2492SOL     OW18937   0.507   1.854   8.130 -0.2708  0.4160  0.1715
 2492SOL    HW118938   0.535   1.762   8.129  0.7038  0.7074  0.7148
 2492SOL    HW218939   0.525   1.881   8.220 -0.1588 -0.8414  0.5368
 2493SOL     OW18940   1.387   2.148   6.927 -0.4839 -0.0334 -0.1938
 2493SOL    HW118941   1.297   2.164   6.953 -1.1299 -0.5031 -2.1692
 2493SOL    HW218942   1.422   2.096   7.000  0.4456  1.5044  0.4508
 2494SOL     OW18943   3.041   2.073   7.147 -0.4219  0.0833  0.3700
 2494SOL    HW118944   3.038   1.981   7.123  0.6326 -0.0323  0.6810
 2494SOL    HW218945   3.013   2.070   7.238  0.8387  0.4099  0.7631
 2495SOL     OW18946   2.974   3.668   1.181 -0.0503 -0.5670 -0.1322
 2495SOL    HW118947   3.024   3.597   1.141 -0.9285 -1.4422  0.2974
 2495SOL    HW218948   3.048   3.727   1.190  0.7551 -1.5074 -0.5351
 2496SOL     OW18949   3.363   3.864   8.243  0.3676  0.2199 -0.2023
 2496SOL    HW118950   3.325   3.925   8.306  2.9167  2.4877 -0.8860
 2496SOL    HW218951   3.353   3.907   8.158 -0.9996  0.8328  0.2650
 2497SOL     OW18952   4.695   1.640   5.063 -0.3284 -0.1077 -0.7440
 2497SOL    HW118953   0.063   1.650   5.079 -0.4328 -0.0256 -0.1941
 2497SOL    HW218954   4.690   1.544   5.069  2.3711 -0.2279 -0.4120
 2498SOL     OW18955   0.964   3.359   7.983 -0.5195 -0.3268  0.2401
 2498SOL    HW118956   1.018   3.426   8.025 -1.9644  0.2190  1.2282
 2498SOL    HW218957   0.915   3.330   8.060  1.1888 -0.0675  1.4321
 2499SOL     OW18958   4.613   1.261   6.139  0.0952  0.5052  0.6430
 2499SOL    HW118959   4.696   1.248   6.093 -0.2034  0.1635  0.2073
 2499SOL    HW218960   4.626   1.208   6.218  1.4773  0.0339  0.0830
 2500SOL     OW18961   1.093   0.018   2.952 -0.0714 -0.3116 -0.1665
 2500SOL    HW118962   1.123   4.671   2.898  0.3280  0.0703 -0.4611
 2500SOL    HW218963   1.000   0.005   2.970  0.0863  0.2885  1.0940
 2501SOL     OW18964   3.011   1.956   7.672  0.2011 -0.1185 -0.3814
 2501SOL    HW118965   3.004   2.052   7.671  1.6722 -0.0262 -0.9329
 2501SOL    HW218966   2.918   1.937   7.656  0.3764  0.1500 -1.7160
 2502SOL     OW18967   1.420   4.444   4.089  0.0254  0.1689  0.4268
 2502SOL    HW118968   1.434   4.420   4.181 -2.5284 -0.2834  0.6986
 2502SOL    HW218969   1.499   4.494   4.068  1.0056 -1.5605 -0.0088
 2503SOL     OW18970   0.835   0.958   2.583 -0.2170  0.3713 -0.0780
 2503SOL    HW118971   0.820   0.899   2.510  1.2493  0.7379 -0.6734
 2503SOL    HW218972   0.911   0.916   2.624  0.2580 -2.3035 -3.7828
 2504SOL     OW18973   0.134   0.738   6.595  0.4118  0.0600  0.1931
 2504SOL    HW118974   0.070   0.790   6.546 -2.2551 -2.3256  1.2071
 2504SOL    HW218975   0.173   0.690   6.522  0.1672 -0.3464  0.3345
 2505SOL     OW18976   0.035   3.186  12.868  0.2891  0.6809 -0.0324
 2505SOL    HW118977   0.129   3.202  12.863  0.2195  0.9365 -0.6690
 2505SOL    HW218978   0.018   3.168  12.960  1.4450 -1.8267 -0.3231
 2506SOL     OW18979   0.714   0.063   3.183 -0.4588 -0.5014  0.4557
 2506SOL    HW118980   0.743   4.699   3.165  0.6910 -0.2967  1.2650
 2506SOL    HW218981   0.633   0.036   3.225  0.0281  1.1099  2.4127
 2507SOL     OW18982   2.943   2.431  15.772 -0.4629 -0.4673 -0.2953
 2507SOL    HW118983   3.028   2.475  15.765 -1.1321  0.6328 -1.5953
 2507SOL    HW218984   2.955   2.345  15.811  1.4345  0.2178  0.6406
 2508SOL     OW18985   4.583   0.747   5.702 -0.1430 -0.4346 -0.1649
 2508SOL    HW118986   4.623   0.699   5.774 -1.1633  0.5518  1.0801
 2508SOL    HW218987   4.524   0.808   5.747  0.6194 -1.0024  1.5768
 2509SOL     OW18988   1.164   0.490   7.015  0.0445  0.2275 -0.3973
 2509SOL    HW118989   1.240   0.515   6.963  0.4331 -1.8947 -0.8475
 2509SOL    HW218990   1.098   0.533   6.960  0.9934  0.1124 -1.6044
 2510SOL     OW18991   0.435   2.294   4.065 -1.1376 -0.0020 -0.6250
 2510SOL    HW118992   0.469   2.383   4.073  0.0852 -0.5259 -0.0608
 2510SOL    HW218993   0.505   2.260   4.009 -2.2178 -0.9210 -1.4265
 2511SOL     OW18994   4.488   3.705   7.930 -0.0130 -0.1106  0.3311
 2511SOL    HW118995   4.460   3.738   8.016  2.2414 -1.5382  1.5925
 2511SOL    HW218996   4.570   3.661   7.951 -0.5039  0.1534  2.7924
 2512SOL     OW18997   2.363   1.024  14.596  0.2775  0.0318 -0.3215
 2512SOL    HW118998   2.346   1.071  14.677 -3.1413  0.7780 -1.4861
 2512SOL    HW218999   2.273   0.998  14.577 -0.4433  1.6978  0.8542
 2513SOL     OW19000   2.191   2.238  10.969  0.1694 -0.3079 -0.3767
 2513SOL    HW119001   2.097   2.260  10.971  0.9869  3.2893 -1.1637
 2513SOL    HW219002   2.218   2.287  10.892 -2.2560  0.2868 -0.8722
 2514SOL     OW19003   0.310   1.227   2.921  0.3021 -0.4851  0.0653
 2514SOL    HW119004   0.225   1.205   2.958 -0.8464  1.7873 -1.2315
 2514SOL    HW219005   0.314   1.158   2.854  3.7070 -1.4464  1.2606
 2515SOL     OW19006   2.181   1.277   2.780 -0.2891 -0.1974  0.2870
 2515SOL    HW119007   2.086   1.281   2.792 -0.2725 -5.1842  1.8780
 2515SOL    HW219008   2.193   1.279   2.685 -0.3624  0.1558  0.2847
 2516SOL     OW19009   0.585   3.550   7.883 -0.1112 -0.0998  0.8434
 2516SOL    HW119010   0.668   3.591   7.861 -0.3902 -0.7994 -1.5293
 2516SOL    HW219011   0.541   3.631   7.909 -0.5376  0.6523 -2.1736
 2517SOL     OW19012   3.308   3.755   8.812 -0.1845  0.1003 -0.1462
 2517SOL    HW119013   3.374   3.686   8.805 -0.6541 -0.3820  0.1331
 2517SOL    HW219014   3.240   3.716   8.866  0.0455  1.8406  1.3988
 2518SOL     OW19015   2.812   2.670   3.323  0.1733 -0.3573  0.4680
 2518SOL    HW119016   2.759   2.620   3.261  1.3143 -0.5861 -0.3242
 2518SOL    HW219017   2.896   2.657   3.279 -0.5887  2.2897 -1.8300
 2519SOL     OW19018   2.132   1.931   3.382  0.7193  0.5458  0.2480
 2519SOL    HW119019   2.116   1.881   3.303  2.8235  0.2886 -0.0196
 2519SOL    HW219020   2.052   1.983   3.382  0.7410  0.5693 -1.5100
 2520SOL     OW19021   0.125   4.483   0.534  0.0790  0.4989  0.0612
 2520SOL    HW119022   0.196   4.460   0.595 -1.4497  2.2661  2.4559
 2520SOL    HW219023   0.142   4.405   0.480  2.3051 -1.2226  3.1924
 2521SOL     OW19024   0.484   4.168   0.065  0.1815 -0.5436 -0.2232
 2521SOL    HW119025   0.502   4.238   0.002 -1.2446  0.9829  1.0398
 2521SOL    HW219026   0.390   4.180   0.081  0.7894  1.7135  1.8467
 2522SOL     OW19027   3.147   2.120  11.116  0.2329  0.1203 -0.0929
 2522SOL    HW119028   3.210   2.186  11.145  0.1899  0.0046  0.2658
 2522SOL    HW219029   3.152   2.050  11.181  1.1031 -0.8575 -1.1924
 2523SOL     OW19030   2.169   0.005   2.528 -0.2378  0.6042  0.2449
 2523SOL    HW119031   2.174   4.684   2.444 -0.9238  0.4638  0.2822
 2523SOL    HW219032   2.226   4.678   2.584  0.2719  0.9659  0.0675
 2524SOL     OW19033   3.670   2.207   6.328 -0.1136 -0.2601  0.6969
 2524SOL    HW119034   3.577   2.226   6.337  0.2589  1.5118  0.8292
 2524SOL    HW219035   3.682   2.211   6.233 -3.8446 -0.1054  0.2465
 2525SOL     OW19036   1.153   3.836   9.764 -0.4303  0.2552 -0.0717
 2525SOL    HW119037   1.159   3.847   9.670 -2.0109  1.4787 -0.0311
 2525SOL    HW219038   1.148   3.742   9.780 -2.2141  0.5144  0.8602
 2526SOL     OW19039   1.068   4.539   5.494  0.1430  0.1076  0.7278
 2526SOL    HW119040   1.058   4.629   5.463 -0.7464  0.1810  1.2486
 2526SOL    HW219041   1.087   4.553   5.587 -0.3080  0.8794  0.7084
 2527SOL     OW19042   1.980   2.284   4.992  0.6520  0.4705 -0.3450
 2527SOL    HW119043   1.966   2.378   5.000  0.0543  0.3223  0.4911
 2527SOL    HW219044   2.070   2.276   5.023  0.3519 -0.7612  0.2504
 2528SOL     OW19045   3.097   0.363   6.876  0.0118 -0.0894 -0.2334
 2528SOL    HW119046   3.137   0.359   6.789  0.4809  0.3219 -0.0371
 2528SOL    HW219047   3.172   0.409   6.914  0.3643 -1.0973  0.2842
 2529SOL     OW19048   2.605   4.238   2.950 -0.3039  0.3754  0.8141
 2529SOL    HW119049   2.519   4.196   2.939  0.1246  0.0551 -1.1847
 2529SOL    HW219050   2.609   4.252   3.045  1.9783 -0.8413  0.8855
 2530SOL     OW19051   3.014   2.383   3.324  0.7585 -0.3633  0.4430
 2530SOL    HW119052   3.071   2.377   3.247  1.7067  1.8767  0.9583
 2530SOL    HW219053   2.932   2.352   3.285  0.6916 -1.7111  1.6873
 2531SOL     OW19054   3.791   1.101   1.438  0.5238 -0.4052 -0.7846
 2531SOL    HW119055   3.742   1.183   1.440 -0.4736 -0.9721 -2.9635
 2531SOL    HW219056   3.772   1.064   1.524  2.0238  1.1798  0.2307
 2532SOL     OW19057   0.676   4.507   0.980 -0.4583  0.0512 -0.0496
 2532SOL    HW119058   0.731   4.547   0.913 -1.2922  0.6467 -0.3770
 2532SOL    HW219059   0.589   4.497   0.943  0.0811 -0.4262 -1.1650
 2533SOL     OW19060   1.535   2.461   4.866  0.1724 -0.3405  0.2212
 2533SOL    HW119061   1.535   2.495   4.955  0.5131 -1.1000  0.5142
 2533SOL    HW219062   1.597   2.388   4.865 -0.6620 -1.0176 -1.7397
 2534SOL     OW19063   2.018   4.505   0.553 -0.1299 -0.4827 -0.2295
 2534SOL    HW119064   1.929   4.471   0.556 -0.3140  0.0858  0.6010
 2534SOL    HW219065   2.002   4.577   0.492 -1.1142 -1.9983 -1.7505
 2535SOL     OW19066   3.382   4.621   0.762  0.0868 -0.7376  0.0877
 2535SOL    HW119067   3.297   4.657   0.734  0.5047  0.8832  0.9443
 2535SOL    HW219068   3.373   4.530   0.733  1.7690 -0.6597 -0.7063
 2536SOL     OW19069   3.657   3.043   8.817  0.3397  0.1218  0.2400
 2536SOL    HW119070   3.670   3.052   8.912  1.2994 -0.7406  0.1900
 2536SOL    HW219071   3.673   3.135   8.794  3.4291 -0.8439 -1.4210
 2537SOL     OW19072   4.574   4.096  13.870 -0.1596 -0.3952 -0.3646
 2537SOL    HW119073   4.517   4.092  13.947  0.4915 -1.2772  0.0727
 2537SOL    HW219074   4.639   4.162  13.895 -0.9507 -0.4263  1.7529
 2538SOL     OW19075   4.281   0.949   9.155  1.2944 -0.7707  0.0350
 2538SOL    HW119076   4.272   0.891   9.080  0.5221 -1.1180  0.4059
 2538SOL    HW219077   4.329   1.021   9.113 -0.2600  0.9408  1.2067
 2539SOL     OW19078   3.411   3.707   7.958  0.2762 -0.1275  0.1634
 2539SOL    HW119079   3.398   3.713   8.052  1.9882  1.0933  0.3232
 2539SOL    HW219080   3.492   3.656   7.954 -1.1791 -2.6536  2.9536
 2540SOL     OW19081   3.623   1.594  17.489 -1.0131  0.2658 -0.1708
 2540SOL    HW119082   3.533   1.560  17.496 -1.5330  1.6806 -0.0197
 2540SOL    HW219083   3.623   1.642  17.572  2.0910 -0.7749  0.4345
 2541SOL     OW19084   4.069   2.730   6.128 -0.3164 -0.2577  0.0478
 2541SOL    HW119085   4.088   2.733   6.035 -0.6092  0.6364  0.0146
 2541SOL    HW219086   3.995   2.790   6.138  0.6049  1.0270 -0.8897
 2542SOL     OW19087   4.696   4.696   8.134  0.1597  0.1209 -0.1658
 2542SOL    HW119088   4.671   4.665   8.221  3.5512  0.3050  0.8891
 2542SOL    HW219089   0.055   0.013   8.147  0.9915 -1.5285 -0.0154
 2543SOL     OW19090   0.002   1.286  15.024  0.0903  0.3459  0.1133
 2543SOL    HW119091   4.695   1.325  14.942  2.5816 -1.8003 -1.9117
 2543SOL    HW219092   0.059   1.214  14.997 -0.8352 -0.4662  0.3412
 2544SOL     OW19093   4.149   2.357   5.790 -0.0284  0.7674  0.3919
 2544SOL    HW119094   4.066   2.335   5.833  0.2520 -1.6180 -0.2590
 2544SOL    HW219095   4.201   2.364   5.870  1.5533 -3.2228 -0.2905
 2545SOL     OW19096   1.124   1.474   3.574  0.2938 -0.0349 -0.1376
 2545SOL    HW119097   1.041   1.433   3.595  0.2321  0.0095 -0.2903
 2545SOL    HW219098   1.189   1.432   3.631 -0.6155 -0.1748  0.7874
 2546SOL     OW19099   4.582   2.672  15.321 -0.1225  0.1553  0.3756
 2546SOL    HW119100   4.626   2.754  15.298  0.0351 -0.3231 -1.0086
 2546SOL    HW219101   4.492   2.685  15.289 -0.8973 -2.0200  1.6798
 2547SOL     OW19102   4.694   1.825   8.989 -0.7872 -0.1095 -0.5019
 2547SOL    HW119103   4.650   1.747   9.021  1.1660 -1.0438 -0.0817
 2547SOL    HW219104   4.681   1.797   8.899 -1.3403  0.9806 -0.7586
 2548SOL     OW19105   0.800   1.544   0.649 -0.1523 -1.2002 -0.1903
 2548SOL    HW119106   0.792   1.461   0.602 -0.7472 -0.4482 -1.4074
 2548SOL    HW219107   0.852   1.510   0.722  1.1404 -2.2176 -1.5813
 2549SOL     OW19108   1.503   2.943   9.182  0.0294  0.3156  0.2083
 2549SOL    HW119109   1.409   2.958   9.188 -0.5301 -2.4906 -1.4359
 2549SOL    HW219110   1.525   2.988   9.101 -1.1039 -0.1686 -0.3729
 2550SOL     OW19111   2.909   0.348   3.769 -0.1905 -0.2748 -0.0351
 2550SOL    HW119112   2.911   0.334   3.674  0.8681  3.7370 -0.6043
 2550SOL    HW219113   2.963   0.274   3.795  2.5610  1.2460 -1.3740
 2551SOL     OW19114   3.442   3.240   0.053 -0.5079 -0.2603  0.0408
 2551SOL    HW119115   3.472   3.326   0.083  0.1369 -1.0059  1.5296
 2551SOL    HW219116   3.511   3.224  17.693 -0.3013 -0.6998  0.3626
 2552SOL     OW19117   4.293   2.486   6.694  0.7267 -0.4383  0.0530
 2552SOL    HW119118   4.265   2.539   6.619 -1.6751 -1.3250  0.3315
 2552SOL    HW219119   4.228   2.516   6.758 -0.2188 -0.5025 -0.8688
 2553SOL     OW19120   1.144   3.818   3.639 -0.8277  0.1796  0.4657
 2553SOL    HW119121   1.062   3.790   3.680 -1.4109  0.9876 -0.1353
 2553SOL    HW219122   1.110   3.891   3.587 -2.2665 -0.1674  0.9085
 2554SOL     OW19123   3.059   0.526   3.933  0.4664  0.0868 -0.4781
 2554SOL    HW119124   3.067   0.620   3.918  2.7201 -0.3355 -1.8796
 2554SOL    HW219125   2.997   0.496   3.866  0.2132 -1.7728  0.5688
 2555SOL     OW19126   0.433   2.955   0.883  0.7378  0.3398  0.0642
 2555SOL    HW119127   0.340   2.974   0.893  0.8409  2.1175 -2.2317
 2555SOL    HW219128   0.449   2.874   0.930  0.1963  1.2566  1.8057
 2556SOL     OW19129   4.022   2.826   5.453 -0.0567 -0.3770 -0.1564
 2556SOL    HW119130   3.996   2.751   5.399 -1.2150  1.3210 -1.9069
 2556SOL    HW219131   4.016   2.895   5.388  0.5629 -0.6463 -0.4982
 2557SOL     OW19132   0.599   2.665  16.864  0.4328 -0.4118  0.3287
 2557SOL    HW119133   0.607   2.618  16.781 -1.0163 -0.7106  0.3497
 2557SOL    HW219134   0.686   2.703  16.872  0.2683  0.9417 -4.7190
 2558SOL     OW19135   2.779   1.136   1.446 -0.5237 -0.0879  0.1787
 2558SOL    HW119136   2.770   1.116   1.539  0.8650 -0.0142  0.3292
 2558SOL    HW219137   2.724   1.214   1.437 -0.8280 -0.4798 -1.3679
 2559SOL     OW19138   4.587   1.660  15.663  0.5846 -0.3404  0.3683
 2559SOL    HW119139   4.605   1.611  15.583 -1.0066 -1.7226  0.8440
 2559SOL    HW219140   4.552   1.745  15.633  1.6431  0.0074  0.1219
 2560SOL     OW19141   4.139   2.650   8.318 -0.4915  0.7010  0.4884
 2560SOL    HW119142   4.089   2.704   8.379 -1.5322 -0.1941  0.4350
 2560SOL    HW219143   4.226   2.669   8.352 -0.9144  1.6239  1.0609
 2561SOL     OW19144   1.893   2.909   4.931  0.5122  0.2476  0.0439
 2561SOL    HW119145   1.846   2.907   4.848 -0.2464  1.0255  0.4550
 2561SOL    HW219146   1.952   2.834   4.936  2.0117  1.4473  0.3295
 2562SOL     OW19147   1.758   3.797   6.865 -0.7601  0.3332  0.0261
 2562SOL    HW119148   1.717   3.777   6.949  1.9036 -1.7479  0.8314
 2562SOL    HW219149   1.732   3.889   6.858  1.7880  1.1969  1.6586
 2563SOL     OW19150   3.574   3.952   3.683  0.5437  0.3714  0.5819
 2563SOL    HW119151   3.526   3.872   3.663  3.7659 -1.5766  0.7343
 2563SOL    HW219152   3.667   3.930   3.682  0.2674 -0.6624 -1.9271
 2564SOL     OW19153   4.245   0.878  11.084 -0.3162 -0.2943  0.2065
 2564SOL    HW119154   4.192   0.826  11.144  0.5602 -1.6737 -0.2145
 2564SOL    HW219155   4.206   0.852  11.000  1.0429  0.6986 -0.7249
 2565SOL     OW19156   2.098   3.253  17.254  0.5092 -0.6694  0.0247
 2565SOL    HW119157   2.010   3.267  17.220  0.3669  0.0426  0.6699
 2565SOL    HW219158   2.069   3.251  17.346 -0.0821 -0.3213 -0.1547
 2566SOL     OW19159   2.070   0.798   5.238  0.9883  0.6135 -0.2436
 2566SOL    HW119160   2.108   0.797   5.326 -0.1884  1.8829  0.2939
 2566SOL    HW219161   2.074   0.893   5.226 -0.0261  0.7883  0.8278
 2567SOL     OW19162   2.529   3.998   5.533 -0.3483 -0.5584  0.0603
 2567SOL    HW119163   2.441   3.981   5.500 -0.6264 -0.1822  0.6029
 2567SOL    HW219164   2.509   4.058   5.605 -3.0937 -0.2738 -0.9568
 2568SOL     OW19165   1.376   2.438   4.059 -0.5520 -0.1537 -0.3521
 2568SOL    HW119166   1.438   2.445   3.985  1.1087 -0.9304  0.9646
 2568SOL    HW219167   1.299   2.478   4.019 -0.4342  1.0420  0.6327
 2569SOL     OW19168   1.440   0.922   7.737 -0.0078  0.3052  0.0519
 2569SOL    HW119169   1.386   0.861   7.686 -0.8662  0.2947  0.9931
 2569SOL    HW219170   1.476   0.865   7.805 -0.4460  1.0582  0.8957
 2570SOL     OW19171   1.123   1.357   2.415 -0.6084  0.5081  0.6726
 2570SOL    HW119172   1.079   1.294   2.473  0.5166 -0.4118  0.5086
 2570SOL    HW219173   1.052   1.416   2.389  0.1971  0.5521 -1.3547
 2571SOL     OW19174   2.007   1.449   8.220  0.5981  0.1127 -0.0476
 2571SOL    HW119175   1.914   1.427   8.218  0.8879 -1.0599 -0.3304
 2571SOL    HW219176   2.042   1.363   8.196  0.0396 -0.7260  2.1489
 2572SOL     OW19177   2.742   1.054   1.692  0.0847  0.4103 -0.2641
 2572SOL    HW119178   2.793   1.035   1.771  0.3695 -2.4356 -1.1327
 2572SOL    HW219179   2.691   0.973   1.688  1.6737 -0.6009 -0.1544
 2573SOL     OW19180   0.851   2.713   7.282  0.0970 -0.4010  0.4206
 2573SOL    HW119181   0.855   2.624   7.318  0.9633 -0.2315  0.7484
 2573SOL    HW219182   0.804   2.755   7.354  1.9126 -1.3047  2.1477
 2574SOL     OW19183   0.817   2.936   4.888 -0.1863 -0.0292 -0.1177
 2574SOL    HW119184   0.908   2.932   4.920 -0.0475  0.7788 -0.4044
 2574SOL    HW219185   0.814   3.032   4.884  1.3614  0.0813  1.1167
 2575SOL     OW19186   2.745   3.707   1.323  0.5638 -0.8031  0.4102
 2575SOL    HW119187   2.821   3.699   1.265 -0.0267  2.1888 -0.8089
 2575SOL    HW219188   2.749   3.616   1.352  2.0194 -0.4669  1.2458
 2576SOL     OW19189   2.048   0.538  11.575 -0.7142  0.5162  0.4638
 2576SOL    HW119190   1.980   0.542  11.642 -2.9707  1.8543 -1.8519
 2576SOL    HW219191   2.103   0.610  11.607  0.0484  0.5371 -0.8516
 2577SOL     OW19192   4.131   1.095   6.878 -0.1667 -0.2732  0.6080
 2577SOL    HW119193   4.141   1.137   6.792  1.2394 -0.1745  0.8063
 2577SOL    HW219194   4.056   1.133   6.923  0.9948  1.6488  0.9286
 2578SOL     OW19195   1.456   0.698   6.945 -0.1355 -0.6800 -0.3885
 2578SOL    HW119196   1.442   0.788   6.915  1.6716 -0.1087  0.4862
 2578SOL    HW219197   1.497   0.721   7.028  0.3066  0.3654 -0.8890
 2579SOL     OW19198   2.081   4.592  16.434 -0.3379 -0.5404 -0.1414
 2579SOL    HW119199   2.044   4.558  16.516 -1.3861  0.8008 -0.0703
 2579SOL    HW219200   2.045   4.680  16.447 -0.0033 -0.5534  0.9040
 2580SOL     OW19201   3.379   2.401  15.368 -0.3614 -0.0726 -0.5772
 2580SOL    HW119202   3.301   2.352  15.393 -2.2011  2.5748 -1.0287
 2580SOL    HW219203   3.374   2.380  15.274 -1.2309 -1.1142 -0.2944
 2581SOL     OW19204   4.227   3.366   2.053 -0.7444 -0.3511  0.0519
 2581SOL    HW119205   4.212   3.276   2.081 -0.6439 -0.5875 -0.6585
 2581SOL    HW219206   4.213   3.410   2.138 -0.1754  1.0213 -0.5612
 2582SOL     OW19207   4.629   2.568  16.050 -0.4046 -0.2924 -0.0244
 2582SOL    HW119208   4.595   2.606  15.969 -1.3845 -0.8844  0.1151
 2582SOL    HW219209   4.580   2.486  16.045 -0.6815 -0.1700  0.7716
 2583SOL     OW19210   2.278   1.063   6.520 -0.0408 -0.6741 -0.4466
 2583SOL    HW119211   2.340   1.006   6.565  1.2359 -1.4949 -3.2320
 2583SOL    HW219212   2.203   1.067   6.580  0.1942 -0.3918 -0.1774
 2584SOL     OW19213   3.072   1.081   2.733 -0.2731 -0.0588 -0.3704
 2584SOL    HW119214   3.061   0.989   2.710  0.3195  0.2498 -1.8756
 2584SOL    HW219215   2.980   1.107   2.725 -0.0146  1.1097  0.4320
 2585SOL     OW19216   1.058   2.933   6.540  0.5703 -0.0411 -0.1648
 2585SOL    HW119217   1.039   2.948   6.632  2.7620 -0.4776  0.3651
 2585SOL    HW219218   1.118   2.859   6.551  0.8613  0.4065  1.2949
 2586SOL     OW19219   4.567   1.459  15.859 -0.0854 -0.1212  0.2931
 2586SOL    HW119220   4.474   1.436  15.864  0.0779 -0.6475  0.9322
 2586SOL    HW219221   4.568   1.532  15.797  1.7720  0.7852  1.4058
 2587SOL     OW19222   2.567   1.942   8.547  0.3470 -0.2667 -0.1642
 2587SOL    HW119223   2.589   1.994   8.470 -1.0483 -0.2962 -0.5909
 2587SOL    HW219224   2.644   1.955   8.602 -0.0298  1.8454 -0.1236
 2588SOL     OW19225   4.539   1.793   6.820  0.0599  0.5402 -0.4410
 2588SOL    HW119226   4.556   1.883   6.791  1.5619  0.4711  0.2000
 2588SOL    HW219227   4.589   1.787   6.902  1.0043 -3.5040 -1.3053
 2589SOL     OW19228   3.988   4.592   5.200 -0.9780  0.0437  0.1319
 2589SOL    HW119229   4.018   4.512   5.244 -3.0520 -2.4397 -2.9285
 2589SOL    HW219230   3.914   4.607   5.259  0.5584  0.5018  1.9479
 2590SOL     OW19231   0.443   3.810   8.368  0.0325  0.2620 -0.2353
 2590SOL    HW119232   0.396   3.840   8.446  0.2330 -1.7830  0.6673
 2590SOL    HW219233   0.405   3.723   8.356  1.8877 -0.3298 -1.7762
 2591SOL     OW19234   3.277   1.205   8.067 -0.0538 -0.2421 -0.3521
 2591SOL    HW119235   3.290   1.223   8.160 -0.5678  0.5044 -0.4242
 2591SOL    HW219236   3.183   1.191   8.056 -0.1913 -0.1782  0.6992
 2592SOL     OW19237   1.381   3.030   6.794  0.0967 -0.2766 -0.0910
 2592SOL    HW119238   1.287   3.009   6.793  0.0689 -0.1255 -0.8400
 2592SOL    HW219239   1.418   2.949   6.759 -1.4556 -0.1177 -2.1346
 2593SOL     OW19240   3.660   2.527   3.390  0.3079  0.3191 -0.5626
 2593SOL    HW119241   3.575   2.492   3.364  0.1424 -1.1588  1.8823
 2593SOL    HW219242   3.644   2.621   3.387 -3.1812 -0.3485 -2.8048
 2594SOL     OW19243   1.794   0.835   5.607  0.5662  0.1175 -0.2148
 2594SOL    HW119244   1.748   0.803   5.684 -1.7702  0.6936 -1.3675
 2594SOL    HW219245   1.791   0.762   5.545 -0.5321  2.9075 -3.4692
 2595SOL     OW19246   3.236   0.489  13.766  0.2714 -0.2368 -0.2595
 2595SOL    HW119247   3.222   0.551  13.694 -0.2175 -1.3629 -1.1467
 2595SOL    HW219248   3.296   0.427  13.723 -0.8553 -0.8743 -0.9130
 2596SOL     OW19249   1.925   3.644  16.764 -0.1862  0.2380 -0.0147
 2596SOL    HW119250   1.972   3.577  16.814 -1.4554 -1.0846 -0.5791
 2596SOL    HW219251   1.916   3.601  16.678  1.0049 -0.3464  0.1465
 2597SOL     OW19252   2.869   2.770   1.160 -0.4300  0.3664 -0.8700
 2597SOL    HW119253   2.883   2.795   1.251  1.8837  2.6699 -1.8793
 2597SOL    HW219254   2.823   2.687   1.173 -0.3655  0.8154  2.3200
 2598SOL     OW19255   4.058   2.077   4.944 -0.1901  0.2436 -0.1122
 2598SOL    HW119256   4.107   2.155   4.970  1.0199  0.1191 -1.9908
 2598SOL    HW219257   4.105   2.070   4.861 -0.6675  0.1371 -0.3745
 2599SOL     OW19258   3.623   1.109   2.343  0.1178  0.6047  0.4428
 2599SOL    HW119259   3.565   1.159   2.286  1.5803  0.1808 -1.4469
 2599SOL    HW219260   3.710   1.127   2.306 -0.7305  0.5770 -1.6101
 2600SOL     OW19261   2.100   3.986   1.115  0.2904 -0.1811 -0.3250
 2600SOL    HW119262   2.175   3.925   1.111 -0.9953 -1.6805 -1.6691
 2600SOL    HW219263   2.129   4.048   1.181  0.7189 -0.1077 -0.5784
 2601SOL     OW19264   0.916   0.661   0.283  0.2172  0.1165  0.4535
 2601SOL    HW119265   0.969   0.582   0.290  0.4674  0.3689  1.4392
 2601SOL    HW219266   0.843   0.644   0.342  1.7094 -1.5730  1.8079
 2602SOL     OW19267   1.075   2.104   5.947  0.0500  0.7820  0.3796
 2602SOL    HW119268   1.046   2.136   6.032  0.3029  1.5127  0.1945
 2602SOL    HW219269   1.074   2.174   5.881  0.3731  0.5899  0.1740
 2603SOL     OW19270   1.190   1.142  12.987  0.2103  0.5497  0.2625
 2603SOL    HW119271   1.105   1.110  12.954  0.2691  0.2247  0.4237
 2603SOL    HW219272   1.223   1.181  12.907  0.9535 -3.6108 -1.4818
 2604SOL     OW19273   1.826   1.328   4.834 -0.1812 -0.1356  0.2232
 2604SOL    HW119274   1.885   1.325   4.758  0.2027  1.4649  0.4545
 2604SOL    HW219275   1.892   1.321   4.903  2.6199  1.8334 -2.2074
 2605SOL     OW19276   1.989   2.255   3.468  0.0244  0.2308  0.2102
 2605SOL    HW119277   1.904   2.212   3.461  0.5115 -0.8349  0.8634
 2605SOL    HW219278   1.991   2.311   3.390 -0.2481 -1.8187 -1.2529
 2606SOL     OW19279   2.896   1.539   1.476 -0.0442 -0.2498  0.3619
 2606SOL    HW119280   2.944   1.599   1.419 -1.5226  1.7286  1.1907
 2606SOL    HW219281   2.960   1.477   1.510  1.2026  1.4605  1.1210
 2607SOL     OW19282   3.347   0.987   9.316 -0.5475 -0.2767  0.2208
 2607SOL    HW119283   3.362   0.967   9.409  1.1090  0.8762  0.2074
 2607SOL    HW219284   3.322   1.079   9.329 -1.0938 -0.2323 -1.2242
 2608SOL     OW19285   0.762   3.569   3.389  0.1791  0.7310  0.1393
 2608SOL    HW119286   0.827   3.567   3.460  0.6473  0.6184 -0.2972
 2608SOL    HW219287   0.715   3.647   3.419  1.0351  1.2868  0.0493
 2609SOL     OW19288   1.820   0.411   6.751  0.2047 -0.9658 -0.7370
 2609SOL    HW119289   1.823   0.503   6.778  1.6257 -1.1724 -0.1508
 2609SOL    HW219290   1.859   0.374   6.830 -0.9293 -0.8749 -0.1329
 2610SOL     OW19291   1.775   1.315   1.926  0.1270  0.0138  0.4078
 2610SOL    HW119292   1.835   1.338   1.855  0.5463  0.1380  0.7943
 2610SOL    HW219293   1.787   1.393   1.981  1.6259  0.5654 -0.6907
 2611SOL     OW19294   0.040   2.420   8.837  0.1781  0.1980  0.0673
 2611SOL    HW119295   0.101   2.347   8.824  0.1800  0.4999 -1.5621
 2611SOL    HW219296   4.686   2.369   8.850 -0.2085  0.8837  0.3545
 2612SOL     OW19297   2.398   4.030   2.941  0.0938 -0.1603  0.5011
 2612SOL    HW119298   2.308   4.051   2.966 -0.4580  0.1766 -1.7428
 2612SOL    HW219299   2.446   4.023   3.023  0.6566  1.2661  0.2891
 2613SOL     OW19300   4.262   2.877  10.125  0.4004 -0.0724  0.1731
 2613SOL    HW119301   4.323   2.813  10.163 -0.6721 -1.9106 -1.1628
 2613SOL    HW219302   4.288   2.965  10.150  1.1059 -0.2244 -0.0001
 2614SOL     OW19303   2.611   0.940   4.247 -0.0229  0.2287 -0.2316
 2614SOL    HW119304   2.614   1.004   4.176  1.8080 -0.9110 -1.1807
 2614SOL    HW219305   2.702   0.916   4.265  0.1545  0.1870 -1.2067
 2615SOL     OW19306   2.396   2.299   4.514 -0.7319 -0.8520  0.2060
 2615SOL    HW119307   2.377   2.382   4.469 -1.3283 -1.1401 -0.0726
 2615SOL    HW219308   2.487   2.285   4.486 -0.5860 -0.0339  0.2501
 2616SOL     OW19309   2.925   2.102   4.309  0.2890 -0.1696 -0.0576
 2616SOL    HW119310   3.007   2.057   4.330  0.3168 -1.2471 -2.4740
 2616SOL    HW219311   2.922   2.092   4.214  0.7005  1.7714 -0.2841
 2617SOL     OW19312   2.082   1.376  13.164  0.0241  0.2217 -0.6648
 2617SOL    HW119313   2.098   1.458  13.211 -4.4968  0.8254 -0.1374
 2617SOL    HW219314   2.148   1.378  13.095 -0.4112  0.8880 -1.0640
 2618SOL     OW19315   2.980   0.114   8.731 -0.0671  0.2069  0.4828
 2618SOL    HW119316   2.968   0.055   8.657  0.2149  1.4435 -0.5600
 2618SOL    HW219317   2.983   0.200   8.690 -2.2640  0.4346  0.8157
 2619SOL     OW19318   3.177   4.319   7.196  0.0070 -0.4909 -0.5553
 2619SOL    HW119319   3.136   4.379   7.259  1.6451  0.3721 -0.3065
 2619SOL    HW219320   3.263   4.302   7.235 -0.5246  0.2629  0.9610
 2620SOL     OW19321   3.344   4.220   6.699  0.3300 -0.0427 -0.4755
 2620SOL    HW119322   3.433   4.239   6.727 -0.4549  0.8937  1.4433
 2620SOL    HW219323   3.315   4.195   6.787  0.0031  0.3888 -0.4562
 2621SOL     OW19324   1.768   3.472  11.736  0.4032 -0.2256  0.0138
 2621SOL    HW119325   1.861   3.465  11.714 -0.0273 -2.0828 -1.2380
 2621SOL    HW219326   1.785   3.523  11.815 -1.0771  0.6509 -0.2515
 2622SOL     OW19327   4.266   0.221  13.571 -0.6240  0.0643  0.2653
 2622SOL    HW119328   4.287   0.312  13.591  1.5410  0.3169 -3.0324
 2622SOL    HW219329   4.343   0.175  13.606 -0.9758  0.5917  1.7195
 2623SOL     OW19330   2.794   0.881   2.467 -0.6757 -0.5749  0.0255
 2623SOL    HW119331   2.740   0.954   2.438  0.4635  1.0560  2.0545
 2623SOL    HW219332   2.806   0.853   2.376  0.7959 -0.4116  0.1812
 2624SOL     OW19333   3.813   4.430   6.262 -0.1451 -0.6744  0.4273
 2624SOL    HW119334   3.863   4.512   6.263  0.0848 -0.8732  3.3927
 2624SOL    HW219335   3.879   4.381   6.213 -0.2581 -0.3271 -0.0806
 2625SOL     OW19336   2.381   3.493   0.621  0.3992  0.3764  0.1392
 2625SOL    HW119337   2.327   3.447   0.556 -1.5282  2.4780  0.2467
 2625SOL    HW219338   2.359   3.454   0.706 -0.7849  1.1276  0.1741
 2626SOL     OW19339   3.619   3.448  16.323  0.1178  0.0096 -0.0418
 2626SOL    HW119340   3.715   3.443  16.326  0.2055  1.2619 -1.0379
 2626SOL    HW219341   3.605   3.479  16.413  0.4098 -0.3663  0.1346
 2627SOL     OW19342   0.885   0.985   5.778 -0.2367  0.5272 -0.3553
 2627SOL    HW119343   0.807   1.038   5.795 -1.5303 -1.5695  0.2026
 2627SOL    HW219344   0.953   1.046   5.806  0.7759  0.6122 -3.0018
 2628SOL     OW19345   4.406   1.125   6.486 -0.0132  0.4324  0.3493
 2628SOL    HW119346   4.426   1.210   6.447  1.2958 -0.3633 -0.7250
 2628SOL    HW219347   4.315   1.112   6.458 -0.2490  0.1606  1.2382
 2629SOL     OW19348   3.558   1.414   8.316  0.4459  0.4722  0.1397
 2629SOL    HW119349   3.611   1.338   8.293  0.1369  0.8056 -1.7129
 2629SOL    HW219350   3.585   1.471   8.243 -0.0897 -0.3675 -0.7191
 2630SOL     OW19351   1.332   2.013  15.419  0.0062  0.3519 -0.2571
 2630SOL    HW119352   1.390   1.959  15.473 -0.7937 -0.6072 -0.3724
 2630SOL    HW219353   1.243   2.003  15.451  0.4696 -1.5930  0.3834
 2631SOL     OW19354   1.884   0.290   3.357  0.0573  0.1856 -0.2310
 2631SOL    HW119355   1.968   0.318   3.394  0.4959 -0.9057 -0.4075
 2631SOL    HW219356   1.916   0.218   3.302  1.2029  1.0511 -0.7045
 2632SOL     OW19357   0.491   4.632   2.688 -0.4785  0.1029  0.4682
 2632SOL    HW119358   0.433   4.694   2.733  1.8325  1.5543  1.4857
 2632SOL    HW219359   0.512   4.579   2.764 -0.7236  1.2284  1.3216
 2633SOL     OW19360   2.178   0.888   9.070 -0.1150 -0.6544  0.1141
 2633SOL    HW119361   2.206   0.948   9.140 -0.5428 -3.8672  3.0787
 2633SOL    HW219362   2.152   0.817   9.130 -0.4078 -0.1589  0.5788
 2634SOL     OW19363   0.290   1.509   4.736 -0.1988  0.3306 -0.2460
 2634SOL    HW119364   0.368   1.547   4.694 -2.1263  2.6708 -1.6656
 2634SOL    HW219365   0.309   1.521   4.829 -1.4887  1.8423 -0.1885
 2635SOL     OW19366   4.439   0.913   6.658  0.4051  0.3705 -0.0438
 2635SOL    HW119367   4.488   0.994   6.673  0.0112  0.1664  2.4081
 2635SOL    HW219368   4.393   0.940   6.579 -0.1142 -2.4258 -0.7024
 2636SOL     OW19369   2.353   3.671   0.199  0.1601  0.4970 -0.2756
 2636SOL    HW119370   2.297   3.690   0.274 -0.6353 -1.7339 -0.3259
 2636SOL    HW219371   2.406   3.751   0.198  2.4158 -0.9692  1.6276
 2637SOL     OW19372   2.819   1.698   4.704  0.0905 -0.7951 -0.1515
 2637SOL    HW119373   2.895   1.709   4.760  1.1053 -1.5949 -1.3547
 2637SOL    HW219374   2.848   1.620   4.656  0.5072 -0.8711  0.2228
 2638SOL     OW19375   3.871   0.578   8.769  0.0847  1.0792  0.4459
 2638SOL    HW119376   3.864   0.666   8.804 -0.7228  0.5637  1.6026
 2638SOL    HW219377   3.960   0.570   8.736  0.2617 -3.0326  1.8941
 2639SOL     OW19378   3.043   3.185   7.458 -0.7947 -0.1452  0.2644
 2639SOL    HW119379   3.027   3.136   7.538  0.1573 -0.4172  0.2915
 2639SOL    HW219380   3.136   3.171   7.440 -1.6283  0.9505 -4.9909
 2640SOL     OW19381   2.308   0.175  13.763 -0.6595  0.1054  0.4395
 2640SOL    HW119382   2.236   0.159  13.824 -0.6694 -1.0322  0.1262
 2640SOL    HW219383   2.285   0.109  13.698  0.4141 -0.6499  0.8304
 2641SOL     OW19384   3.482   4.636  11.918  0.3328  1.0117  0.6707
 2641SOL    HW119385   3.521   4.712  11.962 -0.4434  1.8976 -0.1783
 2641SOL    HW219386   3.413   4.678  11.866  1.6149  0.3998 -1.5260
 2642SOL     OW19387   1.353   3.079   7.346 -0.1173 -0.2354 -0.4339
 2642SOL    HW119388   1.421   3.146   7.336 -1.6796  1.3383 -0.6653
 2642SOL    HW219389   1.366   3.044   7.258  0.5911  0.1113 -0.4654
 2643SOL     OW19390   0.313   0.486  10.610 -0.4353  0.2280  0.2638
 2643SOL    HW119391   0.225   0.522  10.622  0.6701  3.1680 -0.3767
 2643SOL    HW219392   0.307   0.399  10.649 -0.0879  1.0655  2.1742
 2644SOL     OW19393   0.275   4.135   4.346 -0.8462  0.3428  0.0402
 2644SOL    HW119394   0.321   4.148   4.263  1.0801  2.7562  1.5119
 2644SOL    HW219395   0.263   4.224   4.378  0.1029  0.4246  0.1766
 2645SOL     OW19396   2.268   4.486   6.533 -0.1487  0.1128 -0.5077
 2645SOL    HW119397   2.199   4.509   6.595 -1.2209 -0.8666 -1.3264
 2645SOL    HW219398   2.309   4.571   6.521  0.0856  0.0819  0.0940
 2646SOL     OW19399   4.524   1.462   3.557 -0.4686 -0.3561  0.3722
 2646SOL    HW119400   4.446   1.505   3.591 -0.9988 -2.3727  1.7326
 2646SOL    HW219401   4.494   1.401   3.489 -2.6378 -0.0408  1.0486
 2647SOL     OW19402   0.631   3.422   5.298  0.1863 -0.0555 -0.1671
 2647SOL    HW119403   0.566   3.391   5.361 -0.3201 -1.0805 -1.1940
 2647SOL    HW219404   0.676   3.493   5.343  0.8826 -0.9228  0.5134
 2648SOL     OW19405   2.849   2.158   5.755 -1.0554 -0.0386  0.4759
 2648SOL    HW119406   2.830   2.129   5.844 -0.1510 -1.5273  0.1838
 2648SOL    HW219407   2.891   2.084   5.710 -1.8374 -0.7511  0.9114
 2649SOL     OW19408   2.882   3.429  10.892  0.0359 -0.6135 -0.0294
 2649SOL    HW119409   2.812   3.389  10.943  1.5864 -1.4500  1.4321
 2649SOL    HW219410   2.937   3.474  10.955 -1.9411  1.5542  0.1726
 2650SOL     OW19411   4.537   2.306   8.870 -0.2045 -0.0404  0.7648
 2650SOL    HW119412   4.456   2.288   8.918 -1.7696 -0.1208 -1.9317
 2650SOL    HW219413   4.556   2.219   8.834 -0.6220  0.1200  0.1728
 2651SOL     OW19414   2.415   3.428  15.243  0.0826 -0.3055  0.2822
 2651SOL    HW119415   2.320   3.436  15.244  0.0305 -1.0578  1.1138
 2651SOL    HW219416   2.446   3.519  15.241 -0.8888  0.0612  1.9668
 2652SOL     OW19417   4.066   1.001   6.026  0.0693 -0.3045  0.0609
 2652SOL    HW119418   4.037   0.920   6.066 -1.2556  0.8292  1.4015
 2652SOL    HW219419   4.001   1.009   5.957 -0.8750  1.7290  1.1566
 2653SOL     OW19420   0.621   1.732  12.259 -0.2437  0.0599  0.4662
 2653SOL    HW119421   0.530   1.739  12.287 -0.2793  1.0714  0.0896
 2653SOL    HW219422   0.612   1.783  12.179 -0.0533 -0.2106  0.2704
 2654SOL     OW19423   1.999   1.734   7.160 -0.0210 -0.4081 -0.7087
 2654SOL    HW119424   2.089   1.722   7.190  0.3466  1.0631 -1.2508
 2654SOL    HW219425   1.943   1.701   7.230  0.2490 -0.4642 -0.5158
 2655SOL     OW19426   3.239   3.510   5.893  0.8050 -0.0004 -0.0091
 2655SOL    HW119427   3.174   3.442   5.909  0.2756  0.5025  0.0094
 2655SOL    HW219428   3.299   3.493   5.964 -0.5270 -1.5404  0.7465
 2656SOL     OW19429   3.725   0.439  12.172 -0.6807 -0.1360  0.3707
 2656SOL    HW119430   3.636   0.409  12.191 -0.8672 -2.1798 -3.5680
 2656SOL    HW219431   3.753   0.456  12.262  0.3776 -2.0493  0.4056
 2657SOL     OW19432   3.646   1.720   2.967  0.4760  0.7290 -0.5204
 2657SOL    HW119433   3.601   1.758   2.891 -1.4387  1.5406  1.0093
 2657SOL    HW219434   3.723   1.776   2.977 -0.3511  1.6505  0.7234
 2658SOL     OW19435   4.160   1.029   0.212 -0.6002  0.4228  0.2101
 2658SOL    HW119436   4.239   1.062   0.170  0.9756 -1.6315  1.5489
 2658SOL    HW219437   4.150   0.940   0.178  3.8174  1.1708 -2.9684
 2659SOL     OW19438   1.061   2.738   1.254 -0.2193 -0.7210 -0.4429
 2659SOL    HW119439   1.059   2.646   1.231  0.7034 -0.3346 -2.0912
 2659SOL    HW219440   1.004   2.738   1.330 -1.3217  0.0420 -1.2542
 2660SOL     OW19441   2.696   3.357   7.863 -0.2001 -0.4431 -0.2395
 2660SOL    HW119442   2.661   3.444   7.845  0.4298 -0.1889 -0.2359
 2660SOL    HW219443   2.751   3.383   7.937  0.3194 -2.0269 -0.0623
 2661SOL     OW19444   1.101   4.639   3.356  0.0560 -0.2566 -0.2255
 2661SOL    HW119445   1.148   4.560   3.383  1.1755  0.1108 -1.0861
 2661SOL    HW219446   1.023   4.607   3.310 -0.4707  0.5910  0.0742
 2662SOL     OW19447   4.646   4.227   1.837 -0.4758 -0.1768  0.2752
 2662SOL    HW119448   0.001   4.278   1.843 -1.1392  0.8314  0.7469
 2662SOL    HW219449   4.574   4.286   1.861 -1.3134 -0.4432 -1.5612
 2663SOL     OW19450   2.135   3.857   6.989  0.3977  0.2923  0.2250
 2663SOL    HW119451   2.106   3.767   7.006  0.4343  0.1019 -0.7465
 2663SOL    HW219452   2.228   3.850   6.967 -0.0160 -0.5222 -1.2340
 2664SOL     OW19453   1.263   3.003   3.073 -0.1407 -0.2625  0.1490
 2664SOL    HW119454   1.212   3.074   3.112  0.6837 -0.4306  1.5395
 2664SOL    HW219455   1.199   2.933   3.080 -0.0629 -0.4601 -1.0365
 2665SOL     OW19456   0.785   1.534   8.646 -0.0023 -0.4148 -0.5556
 2665SOL    HW119457   0.725   1.469   8.682  0.6430 -0.4991  0.3571
 2665SOL    HW219458   0.859   1.521   8.706 -0.2572  2.6765  0.3990
 2666SOL     OW19459   0.354   4.606  13.719  0.0279 -0.5624 -0.7410
 2666SOL    HW119460   0.429   4.627  13.774  0.9803 -1.0755 -1.8375
 2666SOL    HW219461   0.289   4.599  13.788  1.4961  0.6916  0.7623
 2667SOL     OW19462   3.623   2.579   3.031  0.5604 -0.3187 -0.5849
 2667SOL    HW119463   3.713   2.581   2.999  0.3191 -2.5030 -1.3894
 2667SOL    HW219464   3.624   2.610   3.122  0.8050  0.2671 -0.7912
 2668SOL     OW19465   4.116   1.465   7.101  0.1446  0.1256  0.1381
 2668SOL    HW119466   4.080   1.491   7.016 -1.3828  2.8150  1.6025
 2668SOL    HW219467   4.048   1.505   7.155 -0.8336  0.5610 -1.4224
 2669SOL     OW19468   1.866   1.854   3.195  0.4040  0.1832 -0.8303
 2669SOL    HW119469   1.951   1.818   3.171  0.5935  0.0595  0.0198
 2669SOL    HW219470   1.832   1.881   3.110 -0.2957 -0.4689 -0.7584
 2670SOL     OW19471   0.703   2.833   2.776 -0.0478 -0.5913 -0.1241
 2670SOL    HW119472   0.637   2.821   2.708 -1.4925  0.6302  1.0601
 2670SOL    HW219473   0.725   2.749   2.815 -0.5485 -0.4348  0.4984
 2671SOL     OW19474   2.812   1.582   5.407 -0.3255 -0.1002  0.4668
 2671SOL    HW119475   2.739   1.642   5.394 -0.7112 -0.7642 -0.3938
 2671SOL    HW219476   2.789   1.509   5.350 -0.6721  0.2717  0.1263
 2672SOL     OW19477   4.111   2.626   9.624 -0.0353  0.1670  0.0200
 2672SOL    HW119478   4.200   2.641   9.656  0.1371  1.7748 -1.2295
 2672SOL    HW219479   4.072   2.645   9.710 -2.4444  0.8430 -1.2356
 2673SOL     OW19480   1.119   1.205   4.895 -0.2916  0.1267  0.0749
 2673SOL    HW119481   1.126   1.288   4.943  1.9859 -1.3962  2.4383
 2673SOL    HW219482   1.025   1.207   4.880 -0.1855 -0.2990 -0.6243
 2674SOL     OW19483   4.512   2.345   3.670  0.2741  0.2596 -0.4754
 2674SOL    HW119484   4.569   2.388   3.734  1.9405 -0.2282 -1.6041
 2674SOL    HW219485   4.519   2.399   3.592 -0.6772 -0.8913 -1.3585
 2675SOL     OW19486   4.180   1.386   5.165 -0.3449  0.2278  0.0245
 2675SOL    HW119487   4.094   1.412   5.197 -0.0893  0.9969  0.1011
 2675SOL    HW219488   4.209   1.465   5.120  0.6606  1.2635  2.4488
 2676SOL     OW19489   3.126   0.001  15.871  1.1420  0.2910 -0.5884
 2676SOL    HW119490   3.151   4.723  15.964 -0.7111 -0.0051 -0.0936
 2676SOL    HW219491   3.119   0.096  15.865  1.2804  0.3950  0.8434
 2677SOL     OW19492   4.214   1.669  10.701 -0.1362 -0.1348  0.2908
 2677SOL    HW119493   4.239   1.580  10.728 -1.4459 -0.2415  1.0962
 2677SOL    HW219494   4.124   1.649  10.676 -0.1064 -0.1384  0.1851
 2678SOL     OW19495   3.178   4.299   6.246 -0.6476  0.2246 -0.1772
 2678SOL    HW119496   3.170   4.327   6.337 -3.0924 -0.5626 -0.1634
 2678SOL    HW219497   3.256   4.346   6.217  0.3136 -1.5180 -0.4263
 2679SOL     OW19498   2.871   3.652   5.717  0.0691 -0.4589 -0.0704
 2679SOL    HW119499   2.775   3.652   5.718  0.0773  0.3514  0.9628
 2679SOL    HW219500   2.892   3.560   5.708 -0.3639 -0.8004  2.4064
 2680SOL     OW19501   0.922   0.513  13.149  0.2555 -0.3060 -0.1022
 2680SOL    HW119502   0.934   0.522  13.243 -0.2010  1.3251 -0.1910
 2680SOL    HW219503   1.010   0.490  13.120  0.6624  0.8615  0.2243
 2681SOL     OW19504   0.943   0.638   0.718 -0.2532  0.1014  0.3121
 2681SOL    HW119505   0.966   0.668   0.630  1.3186 -2.2018 -0.0458
 2681SOL    HW219506   0.893   0.716   0.743 -0.8126  0.0042 -0.4733
 2682SOL     OW19507   3.224   2.418   4.957  0.1802  0.3489  0.0775
 2682SOL    HW119508   3.198   2.505   4.985  0.9877  0.8058 -0.5857
 2682SOL    HW219509   3.239   2.430   4.864 -0.5477  2.4087  0.2321
 2683SOL     OW19510   1.304   1.651   7.706  0.2894 -0.2177 -0.0552
 2683SOL    HW119511   1.264   1.569   7.676  2.0889 -1.5600  1.1865
 2683SOL    HW219512   1.340   1.620   7.790  0.9304  1.4903  0.2869
 2684SOL     OW19513   0.346   1.443  15.151  0.0928 -0.0467 -0.4806
 2684SOL    HW119514   0.361   1.358  15.193  0.4000 -0.6265 -1.7671
 2684SOL    HW219515   0.320   1.416  15.063 -0.0420  0.5727 -0.6327
 2685SOL     OW19516   1.484   0.520   2.258  0.1873 -0.2891  0.2257
 2685SOL    HW119517   1.494   0.570   2.177  0.3482  1.0104  1.0604
 2685SOL    HW219518   1.470   0.590   2.322  0.9227  0.1918 -0.1383
 2686SOL     OW19519   2.484   0.371   1.706 -0.3689 -0.7943  0.4283
 2686SOL    HW119520   2.553   0.304   1.707  0.1182 -0.2906  0.0472
 2686SOL    HW219521   2.525   0.443   1.754  1.5579 -0.6701 -1.3929
 2687SOL     OW19522   3.329   1.886   6.848  0.1036  0.4260 -0.0369
 2687SOL    HW119523   3.258   1.890   6.912  1.3176 -0.7519  1.3459
 2687SOL    HW219524   3.402   1.862   6.905 -0.1675  0.8422  0.4794
 2688SOL     OW19525   0.216   2.158   4.622 -0.8657  0.2157 -0.1456
 2688SOL    HW119526   0.203   2.065   4.643  3.2767 -0.2190  0.4921
 2688SOL    HW219527   0.298   2.159   4.574 -0.3817  0.4014  0.6884
 2689SOL     OW19528   1.422   4.118   7.625  0.3679 -0.1116 -0.5033
 2689SOL    HW119529   1.495   4.117   7.686 -2.1630 -2.6827  2.4513
 2689SOL    HW219530   1.447   4.041   7.574 -2.3245 -1.4651  0.2090
 2690SOL     OW19531   4.368   2.605   2.438 -0.1521 -0.4677  0.5428
 2690SOL    HW119532   4.452   2.570   2.468 -0.5624  1.3997  3.7796
 2690SOL    HW219533   4.379   2.588   2.344  0.8328  0.8539  0.4278
 2691SOL     OW19534   0.864   3.006   0.593 -0.2583 -0.3952 -0.1825
 2691SOL    HW119535   0.793   2.989   0.531  0.2757  4.3956 -2.1066
 2691SOL    HW219536   0.927   2.938   0.572  0.2179 -0.2165  0.6565
 2692SOL     OW19537   0.448   0.377   1.724  0.4755  0.3638 -0.7498
 2692SOL    HW119538   0.369   0.376   1.671  0.3425 -0.2609 -0.5417
 2692SOL    HW219539   0.507   0.313   1.684  1.9870 -0.4360  2.7476
 2693SOL     OW19540   2.607   2.408   8.867 -0.0565  0.3343  0.1689
 2693SOL    HW119541   2.601   2.361   8.951  0.2529 -3.1671 -1.7691
 2693SOL    HW219542   2.578   2.496   8.890 -0.8210  0.0537  0.2758
 2694SOL     OW19543   3.906   2.315   9.134  0.1541 -0.2293 -0.1940
 2694SOL    HW119544   3.966   2.258   9.183 -0.1177 -0.5129 -0.1860
 2694SOL    HW219545   3.820   2.273   9.134  0.6025 -1.1569  0.2603
 2695SOL     OW19546   2.565   1.514   3.657  0.3284 -1.1100 -0.2151
 2695SOL    HW119547   2.536   1.469   3.577  0.9840 -0.3010 -0.9043
 2695SOL    HW219548   2.482   1.525   3.703  1.0951  0.2591  0.8438
 2696SOL     OW19549   1.614   2.501   1.591 -0.1064 -0.3502  0.8359
 2696SOL    HW119550   1.555   2.556   1.539  1.8857  1.0433  0.0514
 2696SOL    HW219551   1.575   2.414   1.600 -1.1448  0.1359  1.1498
 2697SOL     OW19552   3.228   1.447   6.822 -0.1474  0.3854 -0.1061
 2697SOL    HW119553   3.271   1.366   6.794  1.2781  1.2422 -0.3636
 2697SOL    HW219554   3.284   1.511   6.780  0.7091  1.8111  3.2002
 2698SOL     OW19555   0.505   2.305   8.221 -0.2176 -0.1213 -0.7151
 2698SOL    HW119556   0.459   2.264   8.147 -0.1185 -0.4386 -0.6017
 2698SOL    HW219557   0.502   2.393   8.184 -0.9039  1.1074  2.2532
 2699SOL     OW19558   4.194   0.852  12.254 -0.3797 -0.3163 -0.3360
 2699SOL    HW119559   4.141   0.930  12.239 -0.9940 -0.6870 -0.0662
 2699SOL    HW219560   4.138   0.785  12.215  0.1008 -0.3696 -0.9307
 2700SOL     OW19561   4.074   2.243   6.160  0.0257  0.0742  0.2135
 2700SOL    HW119562   4.107   2.329   6.186 -0.4476  0.4669 -0.4818
 2700SOL    HW219563   4.029   2.217   6.240  1.6497 -0.2122  1.0334
 2701SOL     OW19564   1.238   0.855   0.828 -0.9536  0.1835 -0.2987
 2701SOL    HW119565   1.258   0.843   0.921  0.9749  0.6345 -0.6603
 2701SOL    HW219566   1.144   0.876   0.835 -1.0891 -0.3061 -0.6754
 2702SOL     OW19567   2.420   2.280   2.137  0.0946 -0.0212  0.0137
 2702SOL    HW119568   2.348   2.327   2.178  0.7115  0.2656  0.7544
 2702SOL    HW219569   2.485   2.349   2.123 -1.5217  1.0975 -2.0276
 2703SOL     OW19570   2.631   3.070   5.418 -0.3547  0.3711 -0.3280
 2703SOL    HW119571   2.696   3.049   5.486 -1.3179 -0.2360  0.4002
 2703SOL    HW219572   2.550   3.048   5.464  0.1215 -1.1569 -0.2218
 2704SOL     OW19573   4.250   3.383   3.083  0.2837  0.3379 -0.2949
 2704SOL    HW119574   4.224   3.467   3.046  0.5380  0.8906  0.7704
 2704SOL    HW219575   4.341   3.398   3.107 -0.4044  1.9595  1.2709
 2705SOL     OW19576   2.664   0.669   2.088  0.5278 -0.1166 -0.2018
 2705SOL    HW119577   2.714   0.730   2.142  2.3188 -3.1554  1.5965
 2705SOL    HW219578   2.582   0.717   2.096  0.8009  0.8131 -3.1615
 2706SOL     OW19579   1.253   0.525   2.002  0.0727 -0.4956 -0.0514
 2706SOL    HW119580   1.174   0.574   2.027 -0.9719 -2.1992  0.0266
 2706SOL    HW219581   1.322   0.590   2.013  0.7140 -1.0098 -1.0859
 2707SOL     OW19582   2.725   0.334   0.620 -0.3563  0.8654  0.0847
 2707SOL    HW119583   2.792   0.268   0.638 -1.3313  0.0386  0.7013
 2707SOL    HW219584   2.680   0.294   0.546  0.7530 -1.3265  0.6051
 2708SOL     OW19585   1.728   2.369   9.275 -0.0290 -0.0575  0.1177
 2708SOL    HW119586   1.644   2.416   9.281  0.3007  0.3996  1.1965
 2708SOL    HW219587   1.779   2.443   9.242 -2.4413  1.7008  0.2668
 2709SOL     OW19588   4.222   4.127   1.941  0.3554  0.7033 -0.0324
 2709SOL    HW119589   4.177   4.204   1.978  0.4479  1.3776 -1.3428
 2709SOL    HW219590   4.211   4.058   2.006  1.4412  0.2133 -0.3715
 2710SOL     OW19591   4.517   3.838   6.144  0.1896  0.2069  0.1686
 2710SOL    HW119592   4.496   3.891   6.067 -0.0279  0.1557  0.1924
 2710SOL    HW219593   4.429   3.805   6.162  0.3221 -1.2141 -1.7749
 2711SOL     OW19594   3.354   0.938   7.992 -0.5256 -0.0175 -0.3115
 2711SOL    HW119595   3.415   0.907   8.059 -0.6961  2.7460  1.1100
 2711SOL    HW219596   3.317   1.013   8.038  1.1453  1.1436 -0.8574
 2712SOL     OW19597   3.746   2.703   4.022 -0.1333 -0.1423  0.1458
 2712SOL    HW119598   3.701   2.774   4.068 -2.9038 -0.4182 -2.1310
 2712SOL    HW219599   3.714   2.711   3.931  3.2856  3.6663 -0.7433
 2713SOL     OW19600   2.601   1.845  13.361  0.3193  0.5374  0.7628
 2713SOL    HW119601   2.679   1.845  13.417  0.5263 -0.0120  0.4750
 2713SOL    HW219602   2.632   1.862  13.273  1.4392 -0.0315  1.0498
 2714SOL     OW19603   4.644   1.129   8.523 -0.4192 -0.6990  0.4394
 2714SOL    HW119604   4.638   1.050   8.577  0.2240 -1.4736 -0.6373
 2714SOL    HW219605   4.614   1.195   8.586  1.6456  0.8961 -0.2499
 2715SOL     OW19606   1.735   3.655   7.490 -1.1269  0.6871 -0.0360
 2715SOL    HW119607   1.723   3.600   7.413 -1.6320 -0.4567  0.8592
 2715SOL    HW219608   1.827   3.644   7.512 -1.5182 -2.3835 -0.0053
 2716SOL     OW19609   4.042   4.207  14.714  0.0937  0.4022  0.5986
 2716SOL    HW119610   4.085   4.151  14.779 -0.5443 -0.0333  0.6460
 2716SOL    HW219611   4.087   4.287  14.742  0.9146  0.4839 -0.9673
 2717SOL     OW19612   4.007   1.928   7.747 -0.2005  0.1779 -0.4113
 2717SOL    HW119613   4.002   1.988   7.822 -0.0197  1.1569 -1.1882
 2717SOL    HW219614   4.011   1.974   7.663  0.0051  0.6288 -0.1558
 2718SOL     OW19615   0.542   3.893   2.917  0.6637 -0.3529  0.8626
 2718SOL    HW119616   0.578   3.981   2.911 -0.7408  0.0334 -2.0829
 2718SOL    HW219617   0.469   3.918   2.975  0.1044 -0.5446  0.2466
 2719SOL     OW19618   1.740   2.198  10.823  0.1678  0.0556  0.2392
 2719SOL    HW119619   1.808   2.244  10.874 -0.5780  1.9166 -0.4348
 2719SOL    HW219620   1.797   2.181  10.748 -1.7960  1.5767 -1.5862
 2720SOL     OW19621   4.340   2.666   4.426  0.0650  0.1383  0.4244
 2720SOL    HW119622   4.303   2.642   4.342  3.7721  0.5122 -1.3132
 2720SOL    HW219623   4.294   2.747   4.445 -2.4736 -1.3524  0.6181
 2721SOL     OW19624   3.083   2.952   3.142  0.1488 -0.0558  0.1522
 2721SOL    HW119625   3.012   2.915   3.089  0.1043  0.0072  0.1683
 2721SOL    HW219626   3.038   2.965   3.225 -2.8529 -0.8779 -1.3411
 2722SOL     OW19627   2.086   3.923   7.569 -0.4280 -0.0760 -0.1532
 2722SOL    HW119628   2.095   4.014   7.541  2.2589 -0.0180  0.9342
 2722SOL    HW219629   2.052   3.889   7.486  0.9428 -0.1071 -0.6886
 2723SOL     OW19630   3.623   1.074   3.747 -0.1289  0.2392 -0.1736
 2723SOL    HW119631   3.684   1.142   3.721 -0.0208  0.7954  1.5220
 2723SOL    HW219632   3.685   1.007   3.776  0.1469  1.4692  2.1015
 2724SOL     OW19633   1.406   3.780  15.550 -0.3415  0.0501 -0.6638
 2724SOL    HW119634   1.380   3.713  15.613 -0.6678 -0.2509 -1.1206
 2724SOL    HW219635   1.364   3.854  15.593 -0.5487 -0.5911  0.2448
 2725SOL     OW19636   0.374   0.732   2.750 -0.5356 -0.6384 -0.2040
 2725SOL    HW119637   0.370   0.674   2.674 -1.9490 -2.2495  1.0902
 2725SOL    HW219638   0.426   0.805   2.717  0.7519 -1.3713  0.2151
 2726SOL     OW19639   0.663   2.851   6.830 -0.1651  0.3596 -0.0948
 2726SOL    HW119640   0.579   2.892   6.850 -0.8826 -0.4502 -1.5191
 2726SOL    HW219641   0.626   2.788   6.769 -1.4718  0.3861  0.6701
 2727SOL     OW19642   4.046   3.649   2.472 -0.0454 -0.2037 -0.1734
 2727SOL    HW119643   4.055   3.741   2.496 -0.4553  0.2000 -1.5655
 2727SOL    HW219644   3.987   3.621   2.542  0.9519  1.2516  1.2300
 2728SOL     OW19645   1.370   4.501   2.674  0.4643  1.0043  0.1619
 2728SOL    HW119646   1.395   4.497   2.582 -0.8112 -1.6954 -0.0795
 2728SOL    HW219647   1.279   4.471   2.677  0.0336  2.1564 -1.3572
 2729SOL     OW19648   2.645   0.070   7.744  0.3301  0.3625  0.1643
 2729SOL    HW119649   2.603   0.028   7.669  1.5753  1.0324 -0.9189
 2729SOL    HW219650   2.587   0.055   7.818  0.2792  1.8490  0.4383
 2730SOL     OW19651   1.599   1.461   9.728 -0.6424 -0.3200  0.5879
 2730SOL    HW119652   1.519   1.480   9.678  0.2355  0.2608 -0.6103
 2730SOL    HW219653   1.638   1.545   9.751  0.0651 -0.0280 -1.6594
 2731SOL     OW19654   1.771   0.850   1.801  0.3317 -0.0649 -0.6964
 2731SOL    HW119655   1.843   0.890   1.851 -1.0795 -0.1812  1.4333
 2731SOL    HW219656   1.748   0.778   1.860 -1.4107  0.0453 -1.2601
 2732SOL     OW19657   4.711   4.402   7.678  0.4621 -0.3026 -0.2394
 2732SOL    HW119658   0.079   4.419   7.679  0.3932  0.0964 -1.7329
 2732SOL    HW219659   4.681   4.453   7.754  0.7117 -1.4159  0.6082
 2733SOL     OW19660   1.036   2.174   4.619 -0.6033 -0.7288  0.4155
 2733SOL    HW119661   1.100   2.151   4.686 -1.0465  1.0828  1.4550
 2733SOL    HW219662   1.098   2.188   4.546 -0.3691 -3.2405  0.1348
 2734SOL     OW19663   3.059   4.637   7.656 -0.0158 -0.0497  0.3343
 2734SOL    HW119664   2.979   4.595   7.690 -0.5159  1.1548  0.6579
 2734SOL    HW219665   3.054   0.007   7.663 -1.4096 -0.0239 -1.0034
 2735SOL     OW19666   1.744   3.426  16.020  0.0198  0.1094  0.4288
 2735SOL    HW119667   1.760   3.410  15.927  0.4840 -0.4638  0.6081
 2735SOL    HW219668   1.830   3.434  16.061  0.7077 -0.9673 -0.7867
 2736SOL     OW19669   2.143   2.718   9.588 -0.3641 -0.7038  0.2429
 2736SOL    HW119670   2.134   2.661   9.512  1.3722 -0.6998  0.0453
 2736SOL    HW219671   2.126   2.806   9.553 -0.3382  1.2390  5.0380
 2737SOL     OW19672   3.812   2.523   3.624  0.1607  0.0373  0.0447
 2737SOL    HW119673   3.888   2.579   3.610 -0.5238  0.9632  0.0684
 2737SOL    HW219674   3.745   2.542   3.558 -0.3450  1.7592  1.0536
 2738SOL     OW19675   1.255   2.817  16.255  0.2984 -0.4001  0.5415
 2738SOL    HW119676   1.320   2.886  16.265 -0.8907  0.5613  1.6301
 2738SOL    HW219677   1.312   2.749  16.219 -0.4201 -0.5806 -0.2495
 2739SOL     OW19678   2.730   4.499   6.727  0.0192  0.0713  0.4054
 2739SOL    HW119679   2.825   4.507   6.720  0.1245 -2.2349 -0.7524
 2739SOL    HW219680   2.718   4.471   6.817 -0.4498  2.7245  1.1797
 2740SOL     OW19681   1.987   1.893   4.220 -0.0640 -0.0791  0.3552
 2740SOL    HW119682   1.903   1.922   4.256  0.2675 -0.2731  1.2886
 2740SOL    HW219683   1.960   1.819   4.166  1.7739  0.0083 -0.6720
 2741SOL     OW19684   0.252   4.068   5.031 -0.6130 -1.4456 -0.4344
 2741SOL    HW119685   0.182   4.033   4.975 -1.8065 -1.2725  0.9242
 2741SOL    HW219686   0.280   3.987   5.075 -0.5430 -1.2581 -0.1330
 2742SOL     OW19687   2.962   3.703   4.158 -0.3146  0.0154  0.2010
 2742SOL    HW119688   2.876   3.683   4.120 -0.8743 -0.6649  1.8205
 2742SOL    HW219689   2.944   3.782   4.209 -1.1843  1.5723 -2.4754
 2743SOL     OW19690   4.447   3.752  11.997  0.5085  0.2039  0.4766
 2743SOL    HW119691   4.370   3.797  11.962 -1.2771 -1.8875  1.7493
 2743SOL    HW219692   4.432   3.662  11.968 -0.1278  0.5307 -0.1899
 2744SOL     OW19693   2.846   0.317   6.964  0.1541 -0.0420 -0.1463
 2744SOL    HW119694   2.937   0.326   6.935 -0.4209  0.5229 -1.7985
 2744SOL    HW219695   2.849   0.222   6.977  0.3425  0.1670  1.2981
 2745SOL     OW19696   2.223   3.811   2.160 -0.3965  0.4198 -0.3646
 2745SOL    HW119697   2.238   3.717   2.169  0.9364  0.7576  0.8481
 2745SOL    HW219698   2.127   3.818   2.162 -0.4942 -1.1163 -0.0607
 2746SOL     OW19699   2.061   4.340  12.892  0.0564 -0.3309  0.2276
 2746SOL    HW119700   2.108   4.391  12.826 -1.4707  1.1547  0.3050
 2746SOL    HW219701   2.023   4.400  12.956  1.3611  1.4135 -0.6196
 2747SOL     OW19702   3.381   3.172   7.654  0.0933 -0.9379  0.3408
 2747SOL    HW119703   3.329   3.103   7.697  0.2087 -0.4920  1.1932
 2747SOL    HW219704   3.333   3.181   7.572 -2.4905 -2.6059  1.6747
 2748SOL     OW19705   2.372   2.960   8.530  0.2955  0.6162  0.2639
 2748SOL    HW119706   2.414   3.045   8.543  2.0776 -0.4766  1.6368
 2748SOL    HW219707   2.306   2.969   8.599  1.2343  0.3748  1.1891
 2749SOL     OW19708   4.031   2.965  15.703  0.3552  0.0995  0.3148
 2749SOL    HW119709   4.022   2.872  15.723 -0.1371  0.4226  1.6015
 2749SOL    HW219710   4.110   2.964  15.650  0.9891 -1.5211  1.3255
 2750SOL     OW19711   3.458   3.726   9.517  0.6936  0.0833 -0.2997
 2750SOL    HW119712   3.481   3.737   9.610  0.4834 -0.5821 -0.1708
 2750SOL    HW219713   3.375   3.773   9.513  2.5169  3.4656  0.8480
 2751SOL     OW19714   3.871   2.473   7.239  0.2476  0.5035  0.2462
 2751SOL    HW119715   3.904   2.469   7.329  2.2287  1.3625 -0.4483
 2751SOL    HW219716   3.935   2.419   7.193 -1.2458 -0.7029 -0.3923
 2752SOL     OW19717   3.105   0.116   3.559 -0.1119  0.1062  0.1308
 2752SOL    HW119718   3.106   0.055   3.633 -2.6558 -1.8370 -1.4433
 2752SOL    HW219719   3.040   0.074   3.503 -0.0782  1.1174 -0.6675
 2753SOL     OW19720   1.546   3.601   9.248  0.6530 -0.7558  0.3006
 2753SOL    HW119721   1.571   3.674   9.191 -0.3149  2.0818  3.5492
 2753SOL    HW219722   1.459   3.578   9.217  1.8904 -2.8122 -1.7111
 2754SOL     OW19723   0.608   1.995   6.827 -0.2442 -0.5095 -0.2666
 2754SOL    HW119724   0.565   1.916   6.794 -0.5576 -0.4912  0.0986
 2754SOL    HW219725   0.699   1.975   6.846 -0.1708  1.7460  1.7168
 2755SOL     OW19726   4.627   3.726   9.164  0.5042  0.6936  0.1831
 2755SOL    HW119727   4.696   3.660   9.155  0.1460  0.5800 -1.7793
 2755SOL    HW219728   4.635   3.763   9.076 -0.0900  0.2211 -0.0700
 2756SOL     OW19729   4.720   1.741   4.741 -0.3980 -0.4025 -0.0639
 2756SOL    HW119730   4.701   1.650   4.717 -1.6027 -0.5890  1.6633
 2756SOL    HW219731   4.693   1.733   4.832  0.8237  1.5850  0.4790
 2757SOL     OW19732   2.478   2.079   1.613 -0.1079 -0.0543 -0.4844
 2757SOL    HW119733   2.383   2.091   1.600 -0.3414 -0.3985  0.9187
 2757SOL    HW219734   2.508   2.137   1.682  0.7005 -1.0079 -0.0338
 2758SOL     OW19735   0.246   0.652   3.194 -0.2514 -0.1318 -0.6074
 2758SOL    HW119736   0.180   0.583   3.188 -1.7514  1.0995  1.5567
 2758SOL    HW219737   0.267   0.645   3.101  1.4211  1.2112 -0.3281
 2759SOL     OW19738   2.233   2.197   8.643 -0.1134 -0.2462  0.1080
 2759SOL    HW119739   2.236   2.116   8.694 -0.7604  0.7888  1.8152
 2759SOL    HW219740   2.151   2.187   8.594 -0.4570  1.6635  0.2994
 2760SOL     OW19741   3.095   1.968   9.580  0.6615 -0.4206 -0.4387
 2760SOL    HW119742   3.103   1.881   9.539  2.1862 -1.7498  2.6434
 2760SOL    HW219743   3.113   2.033   9.513 -0.2642  0.5847  0.2942
 2761SOL     OW19744   1.892   4.537   9.105  0.0965  0.3595 -0.3770
 2761SOL    HW119745   1.836   4.585   9.045  2.0420  2.3332 -0.6187
 2761SOL    HW219746   1.899   4.593   9.183  0.6283 -1.2568  0.7390
 2762SOL     OW19747   0.420   0.077  16.052 -0.0156  0.3012  0.4410
 2762SOL    HW119748   0.431   0.127  15.971  1.9275  0.3975  0.7485
 2762SOL    HW219749   0.500   0.026  16.040  0.4441  1.0172  0.4457
 2763SOL     OW19750   0.469   3.854   2.091  0.1995 -0.1768  0.1940
 2763SOL    HW119751   0.565   3.858   2.083  0.2729 -0.3592  0.9298
 2763SOL    HW219752   0.452   3.922   2.156  1.2493  0.6144 -0.3653
 2764SOL     OW19753   1.615   4.082  14.697  0.1146  0.2197  0.0352
 2764SOL    HW119754   1.670   4.013  14.734 -0.9007 -0.8036 -0.3522
 2764SOL    HW219755   1.610   4.140  14.773 -0.4557 -2.0940  1.7604
 2765SOL     OW19756   0.638   3.300   4.971 -0.0497  0.2073 -0.5284
 2765SOL    HW119757   0.710   3.290   4.910  0.9664 -1.0301  0.8654
 2765SOL    HW219758   0.684   3.310   5.054  0.2086  0.1212 -0.6631
 2766SOL     OW19759   0.662   3.374  14.492  0.1797 -0.3881  0.0912
 2766SOL    HW119760   0.711   3.327  14.559 -1.0299 -1.3974  0.2792
 2766SOL    HW219761   0.580   3.324  14.498  0.4695 -0.8601  0.0227
 2767SOL     OW19762   3.892   2.728   7.870 -0.0976 -0.7647 -0.2291
 2767SOL    HW119763   3.925   2.657   7.926  2.5476 -0.0808 -0.9672
 2767SOL    HW219764   3.868   2.683   7.789  1.5910 -0.9485 -0.6318
 2768SOL     OW19765   2.660   1.803   8.242 -0.1480  0.0362 -0.2063
 2768SOL    HW119766   2.632   1.808   8.151  2.9427  1.2197 -1.1127
 2768SOL    HW219767   2.649   1.892   8.275  1.3154 -0.0181  0.4460
 2769SOL     OW19768   0.234   0.933   7.709  0.2396 -0.2325  0.6748
 2769SOL    HW119769   0.279   0.976   7.635  0.3324  0.9798  1.4336
 2769SOL    HW219770   0.304   0.873   7.736  2.1521  1.9208  0.5196
 2770SOL     OW19771   3.535   2.666   9.697 -0.0443  0.1213  0.0484
 2770SOL    HW119772   3.625   2.663   9.729  0.0052 -0.9029 -0.1979
 2770SOL    HW219773   3.496   2.738   9.746 -0.3888 -0.8265  1.1579
 2771SOL     OW19774   4.030   4.662   8.330  1.0083  0.4665  0.0280
 2771SOL    HW119775   4.108   4.641   8.381  1.7248 -1.1746 -1.7479
 2771SOL    HW219776   4.068   0.006   8.277 -0.6106  0.7512 -0.7557
 2772SOL     OW19777   0.514   4.265   5.843  0.6405 -0.0629 -0.3500
 2772SOL    HW119778   0.429   4.224   5.829  0.6352 -0.0326 -0.4054
 2772SOL    HW219779   0.576   4.195   5.823  1.7704  1.3074 -1.6860
 2773SOL     OW19780   0.837   3.737   4.157 -0.0105 -0.4045  0.3590
 2773SOL    HW119781   0.799   3.698   4.236  1.1031  0.6870  1.4227
 2773SOL    HW219782   0.928   3.729   4.184 -0.1254 -1.2306  0.4924
 2774SOL     OW19783   0.354   4.062  15.069  0.4070 -0.0229  0.0605
 2774SOL    HW119784   0.282   4.033  15.013 -0.2536  1.9782 -0.1546
 2774SOL    HW219785   0.388   4.144  15.034 -1.1935  0.2850 -0.8097
 2775SOL     OW19786   1.394   2.630  16.983  0.0793  0.4117  0.1613
 2775SOL    HW119787   1.320   2.580  16.950  0.4033 -0.3330  0.5480
 2775SOL    HW219788   1.451   2.564  17.022  2.0466  2.2132  0.3561
 2776SOL     OW19789   2.821   3.071   4.962  0.5778  0.3316 -0.5857
 2776SOL    HW119790   2.903   3.116   4.979 -0.0527  1.5667 -0.8342
 2776SOL    HW219791   2.855   2.998   4.909  2.7452  0.0055  1.2525
 2777SOL     OW19792   1.953   0.534   4.092 -0.5690  0.4420  0.4066
 2777SOL    HW119793   1.912   0.487   4.165 -1.9655  0.0372 -0.6355
 2777SOL    HW219794   2.043   0.536   4.125 -0.5554  2.4884  0.2349
 2778SOL     OW19795   2.301   0.581   7.305 -0.3714  0.1051 -0.4168
 2778SOL    HW119796   2.237   0.572   7.376 -0.2662  0.0861 -0.3243
 2778SOL    HW219797   2.278   0.503   7.254 -0.0046  0.1068 -0.5857
 2779SOL     OW19798   0.809   0.902  15.284 -0.7152  0.0699  0.0587
 2779SOL    HW119799   0.722   0.862  15.282  0.6098 -2.8116 -0.3663
 2779SOL    HW219800   0.809   0.948  15.200 -2.0238 -2.6875 -1.4462
 2780SOL     OW19801   1.983   4.306   6.819 -0.6294 -0.1868  0.4164
 2780SOL    HW119802   1.922   4.342   6.755 -0.1090 -1.3780 -0.7513
 2780SOL    HW219803   2.041   4.380   6.835  1.3309 -1.3039 -1.4164
 2781SOL     OW19804   1.666   4.150   6.472 -0.4121 -0.1223  0.0312
 2781SOL    HW119805   1.658   4.165   6.566  1.9073 -2.2473  0.5431
 2781SOL    HW219806   1.741   4.092   6.466  0.0840  0.4863  0.3770
 2782SOL     OW19807   0.978   3.214  13.663  0.2904  0.3393 -0.1554
 2782SOL    HW119808   0.978   3.220  13.567  0.3964  1.1579 -0.1082
 2782SOL    HW219809   0.979   3.119  13.672  1.0628  0.2882 -0.7472
 2783SOL     OW19810   2.485   0.588   3.439 -0.4293 -0.0136 -0.1212
 2783SOL    HW119811   2.447   0.598   3.351 -1.3281 -0.4740  0.2205
 2783SOL    HW219812   2.477   0.494   3.452 -0.4244 -0.2839 -1.9712
 2784SOL     OW19813   0.476   0.897  10.806 -0.2567 -0.1807 -0.5853
 2784SOL    HW119814   0.514   0.973  10.849  0.3304  0.1870 -1.7303
 2784SOL    HW219815   0.451   0.837  10.875  2.2517 -3.4100 -2.4616
 2785SOL     OW19816   3.222   4.097  16.594 -0.0301 -0.1002  0.2523
 2785SOL    HW119817   3.285   4.069  16.527 -0.2586 -3.1735  1.2958
 2785SOL    HW219818   3.259   4.057  16.673 -1.5633  0.0957  1.0675
 2786SOL     OW19819   1.094   1.627  16.373  0.3074 -0.6022  0.4015
 2786SOL    HW119820   1.167   1.568  16.354  1.2698  0.6380  0.2564
 2786SOL    HW219821   1.023   1.564  16.364 -0.9134  0.5977  1.4390
 2787SOL     OW19822   4.314   0.870   7.703 -0.3799  0.5449  0.0373
 2787SOL    HW119823   4.364   0.900   7.627 -1.1656  0.3527 -0.5515
 2787SOL    HW219824   4.351   0.781   7.707 -0.3679  0.4288 -2.8111
 2788SOL     OW19825   3.532   0.079   3.430 -0.5527  0.1134  0.2840
 2788SOL    HW119826   3.548   4.712   3.448 -0.7791 -0.2316 -1.2914
 2788SOL    HW219827   3.440   0.088   3.404  0.0052  2.5531 -0.8541
 2789SOL     OW19828   3.480   0.385   5.776 -0.7099  0.1739  0.0280
 2789SOL    HW119829   3.393   0.346   5.773  0.2891 -1.9786 -1.1237
 2789SOL    HW219830   3.504   0.339   5.856 -1.0530 -0.5854 -0.3090
 2790SOL     OW19831   3.150   2.787   0.105 -0.2187 -0.1150  0.3317
 2790SOL    HW119832   3.079   2.768   0.043  1.8071  1.3713 -2.4284
 2790SOL    HW219833   3.112   2.760   0.188  1.1960  0.1985  1.0737
 2791SOL     OW19834   4.263   2.886   2.424  0.0782 -0.4002  0.0182
 2791SOL    HW119835   4.309   2.809   2.457  1.9030  1.5183  1.9197
 2791SOL    HW219836   4.268   2.945   2.499  3.2176 -1.9469  1.0260
 2792SOL     OW19837   2.663   4.541   7.594 -0.7891  0.0838  0.2612
 2792SOL    HW119838   2.721   4.523   7.520  0.4357  0.3877  1.1396
 2792SOL    HW219839   2.709   4.524   7.677  1.1136  0.0203 -0.8027
 2793SOL     OW19840   0.701   2.664   8.690 -0.3910  0.0968  0.4229
 2793SOL    HW119841   0.737   2.597   8.632 -0.1518  0.8253 -0.2695
 2793SOL    HW219842   0.693   2.741   8.634 -0.4493  0.3469  0.7720
 2794SOL     OW19843   4.080   4.090   6.182  0.7139 -0.0217  0.7754
 2794SOL    HW119844   4.053   4.175   6.145  0.0898 -1.7306 -2.6685
 2794SOL    HW219845   4.068   4.123   6.271 -1.4987 -0.2243  0.5388
 2795SOL     OW19846   2.007   4.538  15.443 -0.2479 -0.3791 -0.1301
 2795SOL    HW119847   2.021   4.528  15.537  0.2065  0.7757 -0.0819
 2795SOL    HW219848   2.095   4.521  15.410  0.3938  1.1125  0.8028
 2796SOL     OW19849   1.544   0.837   7.957 -0.6717 -0.1835  0.2591
 2796SOL    HW119850   1.560   0.811   8.048  0.3606  1.3379  0.5013
 2796SOL    HW219851   1.510   0.926   7.964 -0.4614  0.1174 -2.4062
 2797SOL     OW19852   2.088   1.077   6.709 -0.0992  0.3929 -0.1417
 2797SOL    HW119853   2.092   1.065   6.804 -1.9102  1.5789  0.0666
 2797SOL    HW219854   2.011   1.133   6.697 -0.4581 -0.6159 -2.4701
 2798SOL     OW19855   1.895   1.869   6.398  0.3933 -0.2610 -0.1580
 2798SOL    HW119856   1.888   1.884   6.492  1.5353  2.9777 -0.5975
 2798SOL    HW219857   1.862   1.954   6.370  0.3418 -0.7059 -1.4832
 2799SOL     OW19858   1.328   0.064   5.355 -0.4435 -0.3196  0.4712
 2799SOL    HW119859   1.348   4.709   5.401 -0.4695  0.2631  1.5231
 2799SOL    HW219860   1.393   0.122   5.395 -1.2108  0.7984  0.1238
 2800SOL     OW19861   2.404   2.629   2.827 -1.0246 -0.1043 -0.5036
 2800SOL    HW119862   2.396   2.718   2.859 -0.6049  0.3100 -1.5500
 2800SOL    HW219863   2.422   2.573   2.902  1.6617  0.2197 -0.9216
 2801SOL     OW19864   1.738   0.829   7.549  0.5266 -0.6595  0.4246
 2801SOL    HW119865   1.643   0.833   7.540  0.6143  0.9533  0.1253
 2801SOL    HW219866   1.753   0.735   7.553 -1.4189 -0.9560  0.7329
 2802SOL     OW19867   3.720   2.544   7.017 -0.1501  0.2242 -0.7545
 2802SOL    HW119868   3.634   2.509   7.040  0.0537  1.3951  1.6990
 2802SOL    HW219869   3.772   2.506   7.087  0.0800  2.4740  0.2957
 2803SOL     OW19870   3.020   3.053   8.227  0.0456  0.7274  0.2480
 2803SOL    HW119871   2.982   3.132   8.266  0.3076  0.2147  1.5484
 2803SOL    HW219872   3.054   3.019   8.310 -0.8410 -0.4529  0.1384
 2804SOL     OW19873   3.402   2.100   7.439 -0.1212  0.0743  0.3418
 2804SOL    HW119874   3.464   2.073   7.372 -0.3996  0.8403 -0.2366
 2804SOL    HW219875   3.355   2.174   7.399 -1.5797  0.0662  2.0370
 2805SOL     OW19876   4.360   1.362  13.637 -0.1599 -0.0304  0.1424
 2805SOL    HW119877   4.359   1.391  13.546  0.7753 -2.3306 -0.5833
 2805SOL    HW219878   4.348   1.442  13.689 -1.6332  1.3830 -2.3624
 2806SOL     OW19879   2.750   1.459   4.069 -0.4547 -0.0499  0.4101
 2806SOL    HW119880   2.816   1.393   4.047  1.4379  2.0335 -0.1097
 2806SOL    HW219881   2.782   1.538   4.026 -1.9058  0.1250 -0.3348
 2807SOL     OW19882   1.192   3.158  15.087 -0.4527 -0.5803  0.0984
 2807SOL    HW119883   1.212   3.216  15.014  1.1151  1.1397  1.8757
 2807SOL    HW219884   1.151   3.087  15.039  0.4715 -2.6802  2.4107
 2808SOL     OW19885   0.573   3.109   0.202  0.3254 -0.1769 -0.1045
 2808SOL    HW119886   0.618   3.049   0.142  0.7439 -0.5061  0.5440
 2808SOL    HW219887   0.500   3.141   0.149 -0.2688 -0.5531  0.4788
 2809SOL     OW19888   1.256   0.619   3.273 -0.4029  0.0529 -0.0566
 2809SOL    HW119889   1.285   0.550   3.214  1.3313 -0.0525  0.9145
 2809SOL    HW219890   1.171   0.643   3.236  0.4581  2.6993 -0.3257
 2810SOL     OW19891   0.615   1.250   2.854 -0.1096  0.2568 -0.5535
 2810SOL    HW119892   0.693   1.304   2.870  1.2780 -1.5925 -1.0975
 2810SOL    HW219893   0.649   1.161   2.863 -1.1099 -0.1943 -1.2241
 2811SOL     OW19894   3.149   0.465  16.907  0.3496  0.2348 -0.4894
 2811SOL    HW119895   3.210   0.498  16.842  0.1378  0.7335 -0.4385
 2811SOL    HW219896   3.192   0.482  16.991 -0.3372 -2.3701  0.4017
 2812SOL     OW19897   2.288   3.013   4.830 -0.1759 -0.1509  0.2818
 2812SOL    HW119898   2.240   3.093   4.808 -2.3733 -1.9018 -1.3223
 2812SOL    HW219899   2.373   3.044   4.860 -0.2715  2.8877 -2.6088
 2813SOL     OW19900   2.173   1.259   8.456 -0.0486  0.0374 -1.0079
 2813SOL    HW119901   2.165   1.216   8.370  3.4344 -0.6915 -0.9757
 2813SOL    HW219902   2.243   1.322   8.436 -1.4087  1.4572 -1.2636
 2814SOL     OW19903   3.665   3.770   1.443  0.0012 -0.3819 -0.5720
 2814SOL    HW119904   3.580   3.764   1.486  0.2311 -3.3930 -0.5902
 2814SOL    HW219905   3.650   3.783   1.349  0.5211  2.3356 -0.3017
 2815SOL     OW19906   4.226   2.243   9.244  0.5732 -0.1305  0.5152
 2815SOL    HW119907   4.224   2.305   9.317 -1.8231  1.8215 -1.2170
 2815SOL    HW219908   4.197   2.171   9.300  1.6361 -0.3443  0.7799
 2816SOL     OW19909   0.244   3.904  11.032  0.1734 -0.4869  0.4021
 2816SOL    HW119910   0.233   3.984  10.980  0.2185 -0.3693  0.5752
 2816SOL    HW219911   0.338   3.888  11.023 -0.2310 -1.7928 -1.5220
 2817SOL     OW19912   1.446   2.180   4.083  0.3283 -0.4812  0.0635
 2817SOL    HW119913   1.367   2.232   4.071  0.8609  0.7060  1.7526
 2817SOL    HW219914   1.489   2.233   4.150  0.4051 -0.9109  0.3520
 2818SOL     OW19915   4.570   4.550   3.983 -0.1525 -0.2493 -0.4791
 2818SOL    HW119916   4.618   4.562   3.901 -1.3224  0.1720 -1.0984
 2818SOL    HW219917   4.552   4.638   4.016 -2.6326 -0.6098 -0.9077
 2819SOL     OW19918   1.839   3.626   5.397 -0.2711 -0.0667 -0.6549
 2819SOL    HW119919   1.880   3.711   5.413 -0.3411 -0.0689 -0.4586
 2819SOL    HW219920   1.829   3.631   5.302 -1.2135  1.8179 -0.4665
 2820SOL     OW19921   2.304   0.981   7.706  0.3018 -0.2302  0.4814
 2820SOL    HW119922   2.313   0.886   7.693 -3.0151 -0.9582  3.3599
 2820SOL    HW219923   2.373   1.015   7.649 -0.8912  0.6218 -0.4638
 2821SOL     OW19924   3.637   1.416   2.908  0.3507 -0.2429 -0.1261
 2821SOL    HW119925   3.605   1.502   2.880 -0.1983 -0.7102 -0.9275
 2821SOL    HW219926   3.691   1.400   2.831 -1.9057 -0.8838 -1.5735
 2822SOL     OW19927   3.504   1.752   5.108  0.3337 -0.0896  0.0351
 2822SOL    HW119928   3.517   1.687   5.178  3.9844  0.7493  0.1243
 2822SOL    HW219929   3.410   1.772   5.113  0.4643  0.4820  0.1170
 2823SOL     OW19930   3.974   4.707  10.384  0.0534  0.3845  0.0034
 2823SOL    HW119931   3.982   4.641  10.315 -0.5741  1.9372 -1.5586
 2823SOL    HW219932   4.025   0.058  10.357 -0.0250  0.1062 -0.9450
 2824SOL     OW19933   1.086   2.469   0.622 -0.3602  0.6266  0.1236
 2824SOL    HW119934   1.047   2.461   0.709  0.8333 -2.1903  0.4069
 2824SOL    HW219935   1.169   2.504   0.657  0.3566  0.4470 -1.4057
 2825SOL     OW19936   2.759   2.907   5.699 -0.5013 -0.0788 -0.1588
 2825SOL    HW119937   2.764   2.811   5.695 -2.9278 -0.1404 -1.6904
 2825SOL    HW219938   2.767   2.919   5.794 -1.8536  0.4461 -0.1168
 2826SOL     OW19939   2.364   3.197   2.158  0.5182  0.1407  0.2447
 2826SOL    HW119940   2.432   3.258   2.189 -1.2881  2.8612 -1.1026
 2826SOL    HW219941   2.300   3.223   2.225 -0.7934 -0.6770 -0.6863
 2827SOL     OW19942   3.952   2.797  16.547 -0.0460 -0.8275 -0.4507
 2827SOL    HW119943   3.909   2.772  16.629  1.6455 -0.1073  0.6680
 2827SOL    HW219944   4.035   2.752  16.564  0.9522  0.9167 -0.6376
 2828SOL     OW19945   1.867   0.408   4.303  0.5476 -0.2181 -0.4194
 2828SOL    HW119946   1.870   0.313   4.314 -2.1307 -0.3013 -0.2740
 2828SOL    HW219947   1.866   0.431   4.396  0.2904  1.4932 -0.8446
 2829SOL     OW19948   3.969   1.709   5.088  0.2513  0.4194 -0.2927
 2829SOL    HW119949   3.907   1.775   5.057  0.7044  1.3004  0.6513
 2829SOL    HW219950   4.040   1.767   5.116 -0.2073  1.2413 -0.8376
 2830SOL     OW19951   1.591   2.449   3.848  0.3363 -0.6670 -0.5747
 2830SOL    HW119952   1.602   2.534   3.889 -1.9848 -0.3757 -0.5422
 2830SOL    HW219953   1.681   2.437   3.820  0.1928  0.1580 -1.3832
 2831SOL     OW19954   4.100   2.734   1.432  0.0303 -0.3467  0.0310
 2831SOL    HW119955   4.071   2.647   1.459  1.3078 -0.6576  0.4052
 2831SOL    HW219956   4.018   2.783   1.420 -0.2137 -0.9075 -0.5799
 2832SOL     OW19957   3.663   2.712   3.773  0.4171  0.3659  0.7810
 2832SOL    HW119958   3.591   2.672   3.726  2.3882 -1.3531 -0.7806
 2832SOL    HW219959   3.739   2.663   3.742 -0.5999 -0.7695  0.1047
 2833SOL     OW19960   2.848   1.814  12.707 -0.6474 -0.2216  0.4483
 2833SOL    HW119961   2.926   1.826  12.762  1.0901  0.6700 -2.2573
 2833SOL    HW219962   2.863   1.723  12.681  0.9317  0.0579  0.4043
 2834SOL     OW19963   1.844   1.121   6.121 -0.1180  0.5605  0.6590
 2834SOL    HW119964   1.910   1.174   6.075 -1.6049  1.8274  0.0018
 2834SOL    HW219965   1.895   1.092   6.197 -0.5986 -1.2556  0.2824
 2835SOL     OW19966   4.289   2.795   2.785 -0.4016  0.3723  0.8480
 2835SOL    HW119967   4.336   2.864   2.832  2.8158 -2.1689  1.3756
 2835SOL    HW219968   4.345   2.781   2.709 -1.9897  1.4446 -0.4894
 2836SOL     OW19969   0.299   3.128   3.177 -0.4878 -0.3044  0.1711
 2836SOL    HW119970   0.228   3.096   3.122 -1.5174 -1.5375  2.2285
 2836SOL    HW219971   0.329   3.044   3.211 -0.0346  0.5047  1.7906
 2837SOL     OW19972   3.494   0.683   5.749  0.2684  0.3254  0.1981
 2837SOL    HW119973   3.435   0.746   5.707  0.1168 -0.9938 -1.5803
 2837SOL    HW219974   3.440   0.605   5.734 -0.1758  1.3009 -3.4032
 2838SOL     OW19975   4.428   2.037   2.018 -0.2343  0.4898 -0.2734
 2838SOL    HW119976   4.429   2.003   1.929  1.7530 -3.3388  1.1696
 2838SOL    HW219977   4.469   2.122   2.002  2.6936 -0.8952 -0.2342
 2839SOL     OW19978   1.032   3.627   5.884  0.8129 -0.5515 -0.2418
 2839SOL    HW119979   0.971   3.691   5.920  1.0374 -0.4104 -0.1152
 2839SOL    HW219980   1.061   3.583   5.963  1.4204 -3.1551 -1.8931
 2840SOL     OW19981   1.811   3.138   4.216  0.1331 -1.0034 -0.6326
 2840SOL    HW119982   1.904   3.161   4.214 -0.1034  0.3306  2.9691
 2840SOL    HW219983   1.796   3.102   4.303  1.3908 -2.6926 -1.1264
 2841SOL     OW19984   1.771   3.660   4.499 -0.3553  0.2517 -0.1688
 2841SOL    HW119985   1.795   3.726   4.434  1.4134 -0.1633  0.0715
 2841SOL    HW219986   1.724   3.713   4.563 -0.4552 -1.6734  1.3511
 2842SOL     OW19987   3.637   4.099   3.897 -0.2248  0.4921 -0.0798
 2842SOL    HW119988   3.582   4.041   3.950 -2.1289 -0.2965 -2.9257
 2842SOL    HW219989   3.628   4.050   3.815 -0.7483  0.9269 -0.2799
 2843SOL     OW19990   2.634   0.483   3.170 -0.1408  0.4394 -0.2655
 2843SOL    HW119991   2.551   0.527   3.153 -0.1131 -0.2157 -2.0284
 2843SOL    HW219992   2.605   0.393   3.183 -2.1803  1.3290  1.3839
 2844SOL     OW19993   2.009   4.168   9.430  0.3032  0.0330  0.8747
 2844SOL    HW119994   1.954   4.221   9.487  2.0426  0.7291  1.9064
 2844SOL    HW219995   1.952   4.152   9.355  0.0527  0.2374  1.0219
 2845SOL     OW19996   3.720   4.633   2.689  0.5681 -0.5052  0.0248
 2845SOL    HW119997   3.669   4.631   2.608  0.0882  2.7544  0.2403
 2845SOL    HW219998   3.809   4.616   2.659  0.7783 -0.8880  0.8729
 2846SOL     OW19999   2.412   4.593   8.748  0.1888  0.2798  0.1708
 2846SOL    HW120000   2.411   4.510   8.702  1.7393 -0.4242  1.4077
 2846SOL    HW220001   2.317   4.604   8.750  0.0613 -1.0000  0.8794
 2847SOL     OW20002   0.036   2.453  17.216  0.0267  0.4935 -0.3430
 2847SOL    HW120003   0.120   2.426  17.180 -0.6702 -0.3365 -1.3319
 2847SOL    HW220004   0.011   2.379  17.272  2.7499  0.2935  0.5750
 2848SOL     OW20005   1.987   0.108   8.747  0.0227  0.0301  0.3134
 2848SOL    HW120006   1.896   0.079   8.739 -0.2668  0.7933  0.9528
 2848SOL    HW220007   1.974   0.202   8.757  0.5074 -0.1454  2.5152
 2849SOL     OW20008   3.846   2.741   9.394 -0.0200 -0.4660  0.0750
 2849SOL    HW120009   3.920   2.743   9.333  1.0896  1.0636  1.4973
 2849SOL    HW220010   3.776   2.740   9.328 -1.9493 -1.3594  2.1394
 2850SOL     OW20011   4.593   1.119   2.526 -0.0163  0.7584 -0.1448
 2850SOL    HW120012   4.566   1.036   2.485 -2.0105  2.8630 -3.0709
 2850SOL    HW220013   4.620   1.077   2.608  1.0646  0.8229 -0.4762
 2851SOL     OW20014   1.616   3.581   5.573  0.0441 -0.0911  0.3266
 2851SOL    HW120015   1.591   3.494   5.543  0.0486  0.1609 -0.4107
 2851SOL    HW220016   1.691   3.601   5.518  0.3463 -1.8201  0.1060
 2852SOL     OW20017   2.172   4.547   9.323  0.0520  0.1006 -0.4023
 2852SOL    HW120018   2.085   4.576   9.351  0.6961  0.8861  0.7730
 2852SOL    HW220019   2.186   4.615   9.258 -1.1842  1.7628  1.0683
 2853SOL     OW20020   3.993   1.619   8.761  0.4259  0.2940 -0.0347
 2853SOL    HW120021   4.072   1.639   8.812  1.6677 -0.2818 -1.7123
 2853SOL    HW220022   4.011   1.531   8.727 -1.8832 -0.4441  0.6541
 2854SOL     OW20023   2.606   2.193   2.684 -0.6353 -0.1900  0.7165
 2854SOL    HW120024   2.674   2.197   2.751 -1.2914  1.0143  1.3016
 2854SOL    HW220025   2.629   2.106   2.650 -1.3807 -0.1962  0.2176
 2855SOL     OW20026   1.537   4.644   5.629  0.4354 -0.5292  0.5110
 2855SOL    HW120027   1.628   4.668   5.612 -0.6679  3.0201 -0.3518
 2855SOL    HW220028   1.515   4.620   5.539 -2.0617  1.1793  0.6786
 2856SOL     OW20029   4.297   4.430   7.028  0.3045 -0.4982 -0.4021
 2856SOL    HW120030   4.323   4.458   6.940  0.4368  0.0899 -0.1754
 2856SOL    HW220031   4.374   4.384   7.062  1.0365  1.0636  0.0810
 2857SOL     OW20032   0.218   1.003   3.558  0.2154 -0.2089 -0.3825
 2857SOL    HW120033   0.264   0.920   3.543 -1.1226 -1.1058  0.4976
 2857SOL    HW220034   0.171   0.977   3.637 -1.9468  1.5719 -1.1047
 2858SOL     OW20035   4.321   3.442   7.616  0.5001 -0.3192  0.4973
 2858SOL    HW120036   4.410   3.429   7.647  0.7553 -1.9891 -0.9398
 2858SOL    HW220037   4.278   3.361   7.644  0.5325 -0.9371 -1.2593
 2859SOL     OW20038   1.347   2.276   7.995  0.5588 -0.0865 -0.2263
 2859SOL    HW120039   1.346   2.221   8.073  0.2997  1.4045  0.8290
 2859SOL    HW220040   1.418   2.243   7.940  0.3129 -0.8306 -0.0892
 2860SOL     OW20041   3.201   2.238   9.120 -0.2908 -0.2483  0.0617
 2860SOL    HW120042   3.204   2.146   9.094 -1.1187 -0.0311 -0.7755
 2860SOL    HW220043   3.284   2.254   9.166  0.0612  0.1307 -0.7046
 2861SOL     OW20044   3.691   1.316  16.202 -0.1779  0.1341  0.2297
 2861SOL    HW120045   3.632   1.249  16.169 -2.0370  1.8009  0.1622
 2861SOL    HW220046   3.779   1.278  16.195 -0.5572 -0.7215  0.0885
 2862SOL     OW20047   4.489   2.525   5.551 -0.5196 -0.2357 -0.1906
 2862SOL    HW120048   4.540   2.606   5.560 -2.3038  0.8787 -0.0698
 2862SOL    HW220049   4.404   2.543   5.591  0.8481 -1.9824  3.4558
 2863SOL     OW20050   1.681   0.110   4.847  0.1684 -0.1184  0.1671
 2863SOL    HW120051   1.657   0.019   4.862  1.8938 -0.2602  2.1000
 2863SOL    HW220052   1.596   0.155   4.840 -0.6026 -1.7456 -0.8728
 2864SOL     OW20053   2.833   3.745   3.138  0.1887  0.2267 -0.0507
 2864SOL    HW120054   2.850   3.703   3.053 -0.4129 -0.5704  0.2260
 2864SOL    HW220055   2.914   3.719   3.181 -0.1335  0.1825  0.5264
 2865SOL     OW20056   1.253   2.302   8.924  0.2536 -0.5994 -0.0435
 2865SOL    HW120057   1.279   2.341   8.840  1.5691 -0.8514  0.2434
 2865SOL    HW220058   1.319   2.344   8.979  0.3280  0.9591 -1.3265
 2866SOL     OW20059   2.950   3.614   8.790 -0.0114  0.1884 -0.0096
 2866SOL    HW120060   2.904   3.697   8.780  0.6799  0.7221  1.1974
 2866SOL    HW220061   2.890   3.541   8.807  3.7315 -3.3351 -2.0874
 2867SOL     OW20062   0.833   0.482   8.616 -0.1164  0.2907 -0.1173
 2867SOL    HW120063   0.907   0.482   8.676 -0.2964  3.3030  0.0879
 2867SOL    HW220064   0.760   0.516   8.668  0.6276  0.0291  1.0968
 2868SOL     OW20065   3.398   2.823   0.794 -0.0217 -0.3149 -0.1226
 2868SOL    HW120066   3.373   2.836   0.886 -0.5243 -0.0226 -0.3060
 2868SOL    HW220067   3.324   2.872   0.758 -0.2054 -0.4774  0.0346
 2869SOL     OW20068   3.275   0.883  13.725 -0.1922  0.2131  0.4936
 2869SOL    HW120069   3.244   0.945  13.659 -1.1215 -0.2414  0.5097
 2869SOL    HW220070   3.224   0.813  13.685 -0.0413  0.3540  0.0527
 2870SOL     OW20071   0.014   2.309   0.702  0.6838 -0.0612  0.2214
 2870SOL    HW120072   4.683   2.284   0.775 -1.1237 -0.1729 -1.2434
 2870SOL    HW220073   4.682   2.373   0.660 -1.6892 -2.4274 -0.1218
 2871SOL     OW20074   1.902   4.169   7.212  0.4473 -0.1312  0.5049
 2871SOL    HW120075   1.952   4.250   7.219 -0.6833  0.4400  1.9558
 2871SOL    HW220076   1.931   4.130   7.129  0.2119 -0.5514  0.6180
 2872SOL     OW20077   3.493   0.156   3.682 -0.3304  0.2574 -0.7865
 2872SOL    HW120078   3.587   0.144   3.698 -0.2650 -0.8562 -1.9709
 2872SOL    HW220079   3.479   0.116   3.596  0.3338  1.7464 -1.5982
 2873SOL     OW20080   2.271   4.454   2.018  0.2811 -0.6921 -0.3216
 2873SOL    HW120081   2.291   4.378   1.963  1.8736 -0.3641 -0.1783
 2873SOL    HW220082   2.353   4.502   2.028 -0.1264 -0.1148  0.2052
 2874SOL     OW20083   2.119   3.088   7.664  0.2605  0.3087  0.0416
 2874SOL    HW120084   2.187   3.122   7.721 -2.0183  0.2571  2.7622
 2874SOL    HW220085   2.168   3.024   7.613  0.1389 -0.1658  0.5351
 2875SOL     OW20086   1.705   2.927   6.902 -0.1945 -0.0854  0.3024
 2875SOL    HW120087   1.709   2.901   6.810 -0.0103 -1.9278  0.8362
 2875SOL    HW220088   1.661   2.848   6.931 -0.8175  0.4761  0.8805
 2876SOL     OW20089   3.250   2.319   9.592  0.8757  0.1211 -0.0155
 2876SOL    HW120090   3.168   2.360   9.619  0.4177  0.0617 -1.3391
 2876SOL    HW220091   3.308   2.343   9.665  0.2222 -1.9634  1.1862
 2877SOL     OW20092   0.719   1.423   6.278 -0.0656  0.2695 -0.0347
 2877SOL    HW120093   0.769   1.505   6.271  2.3169 -1.1473  0.2788
 2877SOL    HW220094   0.783   1.360   6.310 -0.1705  0.9069  1.4301
 2878SOL     OW20095   3.939   0.799   5.009 -0.1618  0.1255  0.1603
 2878SOL    HW120096   4.003   0.842   5.066 -0.7785  0.0510  0.8947
 2878SOL    HW220097   3.998   0.739   4.963  0.0667  0.6615 -0.2569
 2879SOL     OW20098   1.993   0.315   6.510  0.1407 -0.2717 -0.2852
 2879SOL    HW120099   1.905   0.286   6.537 -0.1458 -0.7547 -1.7371
 2879SOL    HW220100   2.016   0.385   6.571  0.6955 -1.8387  1.3148
 2880SOL     OW20101   3.501   2.435  14.940 -0.2008  0.7290  0.2790
 2880SOL    HW120102   3.501   2.370  15.011 -1.2900  0.3989 -0.0226
 2880SOL    HW220103   3.417   2.477  14.956 -0.2845  1.3619 -1.8031
 2881SOL     OW20104   2.768   2.325   2.455 -0.2780  0.0407  0.2248
 2881SOL    HW120105   2.838   2.289   2.510  1.0788  2.4644  0.0660
 2881SOL    HW220106   2.694   2.287   2.502  1.1231 -0.0563  2.3588
 2882SOL     OW20107   4.240   0.496   6.809  0.3872  0.7350  0.1994
 2882SOL    HW120108   4.292   0.503   6.889  1.7264  1.3258 -0.7199
 2882SOL    HW220109   4.282   0.560   6.752  0.1569  1.9078  1.3559
 2883SOL     OW20110   0.035   3.482  15.387  0.0689  0.8052  0.0717
 2883SOL    HW120111   4.721   3.520  15.465 -0.5255 -0.7906  0.5669
 2883SOL    HW220112   0.118   3.451  15.421 -0.9876 -2.2517 -0.0880
 2884SOL     OW20113   1.015   3.025   9.423 -0.3528 -0.5546  0.1229
 2884SOL    HW120114   0.998   3.001   9.514  0.7359  1.1792  0.7753
 2884SOL    HW220115   0.952   3.097   9.422 -1.3160 -1.3888  0.8038
 2885SOL     OW20116   0.642   1.317   1.263  0.0727  0.2377 -0.0012
 2885SOL    HW120117   0.710   1.377   1.233  1.1269 -0.5377  0.8272
 2885SOL    HW220118   0.628   1.259   1.189 -1.9935  0.4938  0.1766
 2886SOL     OW20119   0.112   3.605  12.700  0.3938  0.0956 -0.1182
 2886SOL    HW120120   0.048   3.625  12.631 -0.4475  0.7953  0.8505
 2886SOL    HW220121   0.133   3.515  12.676 -1.5368 -0.7724  1.4270
 2887SOL     OW20122   0.206   2.156  16.302 -1.0269 -0.3898  0.2996
 2887SOL    HW120123   0.234   2.226  16.244 -0.8976 -1.1742 -0.5892
 2887SOL    HW220124   0.260   2.084  16.270  0.3111  1.3780 -1.3531
 2888SOL     OW20125   4.666   3.666   6.009  0.1200  0.3986  0.3315
 2888SOL    HW120126   4.624   3.727   6.070 -0.5011 -0.7148  1.0123
 2888SOL    HW220127   4.615   3.687   5.931  1.1336 -1.8783 -0.9354
 2889SOL     OW20128   1.203   3.513   6.760 -0.1892  0.1157  0.0111
 2889SOL    HW120129   1.213   3.461   6.681  0.0936 -2.0723  1.4683
 2889SOL    HW220130   1.186   3.599   6.723 -0.1576 -0.2779 -0.8967
 2890SOL     OW20131   0.522   2.888  11.858 -0.3791  0.1355  0.8083
 2890SOL    HW120132   0.549   2.919  11.771  1.4169  2.3528  2.1465
 2890SOL    HW220133   0.496   2.970  11.898  2.1423  0.7152  1.2655
 2891SOL     OW20134   1.971   0.286   9.661  0.5385 -0.1104  0.2147
 2891SOL    HW120135   1.961   0.379   9.681 -1.1580 -0.0475 -0.9863
 2891SOL    HW220136   2.008   0.270   9.748 -0.1360  0.8204  0.6783
 2892SOL     OW20137   4.048   3.082   3.973  0.0695 -0.9634  0.0450
 2892SOL    HW120138   4.066   3.132   3.892  0.0964 -1.6645 -0.3797
 2892SOL    HW220139   4.073   3.149   4.037  0.1587  2.3337 -3.3766
 2893SOL     OW20140   2.237   4.170   1.252  0.4468 -0.2329  0.0824
 2893SOL    HW120141   2.282   4.191   1.334  0.7932 -1.0385  0.1055
 2893SOL    HW220142   2.312   4.128   1.208  0.8731  0.2363  0.3574
 2894SOL     OW20143   4.473   3.393  15.377 -0.0958  0.1189 -0.0442
 2894SOL    HW120144   4.462   3.349  15.461 -2.0303 -0.2385 -0.4854
 2894SOL    HW220145   4.565   3.416  15.387  0.0020  0.7056 -2.4629
 2895SOL     OW20146   0.319   3.598  13.842 -0.4589  0.2192  0.1261
 2895SOL    HW120147   0.391   3.580  13.781 -2.0490  1.5044 -2.1434
 2895SOL    HW220148   0.240   3.577  13.791 -0.5393  0.7627  0.0232
 2896SOL     OW20149   3.142   1.812  17.078  0.5644  0.6568  0.2337
 2896SOL    HW120150   3.080   1.756  17.031 -0.7680  1.5460  0.9336
 2896SOL    HW220151   3.125   1.790  17.169 -0.1829  0.2867  0.0061
 2897SOL     OW20152   3.648   4.619   6.960 -0.1854  0.0264  0.1594
 2897SOL    HW120153   3.735   4.636   6.923 -0.4402  1.1376  0.0921
 2897SOL    HW220154   3.651   4.659   7.047  0.2176  0.3370  0.0002
 2898SOL     OW20155   1.872   4.112   8.645 -0.3841 -0.4722  0.0613
 2898SOL    HW120156   1.824   4.188   8.680 -1.3517 -0.8630 -0.4231
 2898SOL    HW220157   1.803   4.049   8.626  0.0344 -0.9955  0.2955
 2899SOL     OW20158   1.765   4.304  13.545  0.4019  0.0880  0.1174
 2899SOL    HW120159   1.774   4.265  13.631 -1.3488  0.7319  0.6009
 2899SOL    HW220160   1.705   4.251  13.492 -0.2699  0.9943 -0.0495
 2900SOL     OW20161   2.238   2.537   1.955 -0.0816 -0.1884 -0.0697
 2900SOL    HW120162   2.203   2.451   1.933 -0.4270 -0.6915  2.5543
 2900SOL    HW220163   2.332   2.524   1.971  0.1729 -1.0333 -2.2571
 2901SOL     OW20164   2.055   4.556  11.713 -0.0250  0.0139 -0.0060
 2901SOL    HW120165   2.016   4.472  11.690  0.4390 -0.4449  0.8549
 2901SOL    HW220166   2.091   4.583  11.629  1.1327  0.8258  0.7468
 2902SOL     OW20167   0.819   0.889  13.272  0.7274 -0.1818  0.1643
 2902SOL    HW120168   0.914   0.894  13.284  0.6637  1.0434  0.1617
 2902SOL    HW220169   0.809   0.857  13.182 -0.9611  0.2231  0.2199
 2903SOL     OW20170   3.405   0.898   2.716 -0.5683 -0.3218 -0.2502
 2903SOL    HW120171   3.414   0.971   2.655 -2.4157  0.1673  0.0452
 2903SOL    HW220172   3.418   0.936   2.803  0.5276  1.6545 -1.2927
 2904SOL     OW20173   2.123   0.218   2.269  0.3126  0.4814  0.4633
 2904SOL    HW120174   2.174   0.265   2.203  0.5197 -1.7660 -0.9651
 2904SOL    HW220175   2.042   0.267   2.283 -0.1000  0.0019 -0.2448
 2905SOL     OW20176   3.519   0.189   8.324 -0.6565 -0.0016 -0.1974
 2905SOL    HW120177   3.545   0.103   8.359 -0.0073  0.5063  0.5753
 2905SOL    HW220178   3.425   0.179   8.310 -0.8052  0.2790  0.5932
 2906SOL     OW20179   3.547   3.449   7.416  0.1130  0.1691  0.4200
 2906SOL    HW120180   3.586   3.403   7.491 -1.7691  2.3167  2.6992
 2906SOL    HW220181   3.621   3.471   7.360  1.9645 -1.2967  2.2844
 2907SOL     OW20182   0.908   0.203   8.924 -0.0102 -0.4836 -0.0479
 2907SOL    HW120183   0.856   0.136   8.968 -1.2581  0.3436 -0.2742
 2907SOL    HW220184   0.923   0.258   9.001  2.7973 -0.5449 -0.5364
 2908SOL     OW20185   1.241   1.085   4.293 -0.6444 -0.3422  0.5529
 2908SOL    HW120186   1.324   1.038   4.285  0.2019  0.8927  2.1691
 2908SOL    HW220187   1.207   1.063   4.206  0.1224  2.5936 -0.4696
 2909SOL     OW20188   2.236   0.731   7.870 -0.5617 -0.2494 -0.1461
 2909SOL    HW120189   2.328   0.713   7.888 -0.6674 -1.2072 -0.5518
 2909SOL    HW220190   2.216   0.678   7.793  0.0589 -1.1048  0.2776
 2910SOL     OW20191   0.121   4.315   8.441  0.3431 -0.3873  0.3287
 2910SOL    HW120192   0.117   4.241   8.501 -1.1987  0.5720  1.4082
 2910SOL    HW220193   0.032   4.347   8.436  0.4939  0.0623  0.5558
 2911SOL     OW20194   0.873   3.095  17.619 -0.1593  0.2437  0.3484
 2911SOL    HW120195   0.824   3.049  17.687 -0.3068  0.9410  0.7127
 2911SOL    HW220196   0.812   3.167  17.610 -0.5793  0.0570  1.5919
 2912SOL     OW20197   0.113   2.592  15.092  0.0305  0.3030 -0.1822
 2912SOL    HW120198   0.090   2.685  15.093  0.8377  0.4828  3.5668
 2912SOL    HW220199   0.137   2.584  15.000  1.8801 -1.9821  0.4842
 2913SOL     OW20200   3.707   2.874   2.098  0.4370 -0.3890  0.3255
 2913SOL    HW120201   3.727   2.946   2.158 -0.0610  1.0429 -1.2446
 2913SOL    HW220202   3.687   2.810   2.167 -4.2204  0.9634  0.2370
 2914SOL     OW20203   2.307   2.349   7.751  0.2485 -0.0907 -0.4586
 2914SOL    HW120204   2.221   2.388   7.741  0.1315 -0.4248 -0.7563
 2914SOL    HW220205   2.332   2.382   7.838  0.0225  1.5804 -1.0313
 2915SOL     OW20206   4.134   0.307   8.718  0.1870  0.0564 -0.2126
 2915SOL    HW120207   4.143   0.292   8.624 -0.2043 -1.6196  0.0226
 2915SOL    HW220208   4.141   0.402   8.720  2.6772 -0.1456  0.9043
 2916SOL     OW20209   3.613   0.092   4.012  0.2044 -0.3486  0.1560
 2916SOL    HW120210   3.697   0.052   4.033 -0.0197 -0.3870  0.9956
 2916SOL    HW220211   3.562   0.015   3.989  1.1443 -0.7993 -0.3815
 2917SOL     OW20212   0.122   0.185   8.274  0.2841  0.1461  0.7873
 2917SOL    HW120213   0.028   0.182   8.291  0.3581  0.6358  1.2957
 2917SOL    HW220214   0.115   0.269   8.229 -0.3101 -0.6915 -0.6724
 2918SOL     OW20215   4.077   0.544   6.124 -0.2839 -0.1086 -0.0797
 2918SOL    HW120216   4.027   0.617   6.087  0.9015  1.0694  0.6196
 2918SOL    HW220217   4.122   0.495   6.055 -0.3446 -0.5467  0.1885
 2919SOL     OW20218   2.756   0.101   5.168  0.0153 -0.1796 -0.0807
 2919SOL    HW120219   2.726   0.089   5.078  0.0767 -1.9385  0.1286
 2919SOL    HW220220   2.839   0.053   5.161  0.9839  1.4642  0.1975
 2920SOL     OW20221   3.950   2.570  15.512 -0.0113 -0.0316  0.0789
 2920SOL    HW120222   3.856   2.588  15.500  0.3419  1.0623 -1.1119
 2920SOL    HW220223   3.956   2.526  15.597  0.1026 -1.0401 -0.4581
 2921SOL     OW20224   3.837   4.541   6.000 -0.1482 -0.0215  0.0389
 2921SOL    HW120225   3.754   4.589   5.991 -0.4896 -0.1669  2.5912
 2921SOL    HW220226   3.901   4.612   5.996 -0.3933  0.2324  0.6124
 2922SOL     OW20227   2.280   4.012   0.382  0.2887  0.3964 -0.8126
 2922SOL    HW120228   2.351   4.013   0.447  0.0523  0.4553 -0.5571
 2922SOL    HW220229   2.327   3.966   0.313  2.0899  1.1463 -0.1024
 2923SOL     OW20230   3.288   2.949   9.215  0.2726  0.0073  0.3598
 2923SOL    HW120231   3.263   2.857   9.206  2.2076 -0.3949 -0.8280
 2923SOL    HW220232   3.291   2.979   9.124 -0.4446 -2.1522 -0.3770
 2924SOL     OW20233   3.095   3.368   3.450 -0.0176  0.4273 -0.0031
 2924SOL    HW120234   3.106   3.458   3.422 -0.2885 -0.4514 -2.9347
 2924SOL    HW220235   3.021   3.345   3.393  0.6921 -0.6192 -0.5020
 2925SOL     OW20236   2.991   1.897   3.826  0.3791  0.7982  1.0434
 2925SOL    HW120237   2.925   1.966   3.834 -1.9575 -1.3031 -0.1415
 2925SOL    HW220238   2.946   1.824   3.868 -2.1118 -0.2818 -3.4395
 2926SOL     OW20239   2.478   4.577   9.620  0.4176  0.5323 -0.0812
 2926SOL    HW120240   2.480   4.569   9.525  0.3813  0.9782 -0.1188
 2926SOL    HW220241   2.438   4.497   9.655 -0.8960  1.1781 -0.1280
 2927SOL     OW20242   3.101   2.241  17.685  0.3682 -0.5338 -0.0346
 2927SOL    HW120243   3.064   2.223  17.599  1.0036 -0.0371 -0.4055
 2927SOL    HW220244   3.091   2.155   0.021  1.5204 -0.7724 -0.2869
 2928SOL     OW20245   2.418   2.652   4.880 -0.0042 -0.2548  0.4200
 2928SOL    HW120246   2.433   2.725   4.941  0.6229 -0.2539  0.2648
 2928SOL    HW220247   2.360   2.596   4.932  1.4432 -1.4995  0.7097
 2929SOL     OW20248   0.517   0.748   2.427  0.0902 -0.5499  0.0456
 2929SOL    HW120249   0.435   0.759   2.379 -0.4651  1.3759  1.4709
 2929SOL    HW220250   0.497   0.663   2.467  0.6520  1.0913  3.7806
 2930SOL     OW20251   4.520   4.182  11.505 -0.4655  0.1240 -0.2431
 2930SOL    HW120252   4.526   4.238  11.427  0.7762 -0.9411 -0.9128
 2930SOL    HW220253   4.485   4.243  11.571  0.9774  0.4667  0.2039
 2931SOL     OW20254   1.709   4.572   2.456  0.3705  0.1385  0.0737
 2931SOL    HW120255   1.779   4.512   2.480  0.9998  0.6019 -0.6048
 2931SOL    HW220256   1.656   4.521   2.395 -0.5320 -2.0498  2.6959
 2932SOL     OW20257   0.468   1.522   2.783 -0.2491  0.3351  0.4615
 2932SOL    HW120258   0.532   1.572   2.731 -0.0734  0.2360  0.5851
 2932SOL    HW220259   0.496   1.560   2.866  2.1315 -1.1505  0.3550
 2933SOL     OW20260   3.215   0.561   7.576 -0.0596 -0.5582 -0.4344
 2933SOL    HW120261   3.239   0.469   7.585 -0.1278 -0.3490  1.9289
 2933SOL    HW220262   3.180   0.578   7.663  0.8471 -0.1171 -0.1458
 2934SOL     OW20263   4.666   3.580   1.715 -0.1648  0.3244  0.8492
 2934SOL    HW120264   4.710   3.583   1.800 -0.0921  2.5451  0.7495
 2934SOL    HW220265   4.610   3.657   1.723  0.4158  0.9939 -1.4679
 2935SOL     OW20266   3.126   3.775  15.289 -0.4237 -0.2039 -0.6349
 2935SOL    HW120267   3.114   3.834  15.214  0.3088  0.4325 -0.2476
 2935SOL    HW220268   3.132   3.689  15.248 -1.6991 -0.4892 -0.2490
 2936SOL     OW20269   2.384   0.135   4.143  0.2685 -0.8052 -0.3093
 2936SOL    HW120270   2.429   0.069   4.197  1.4386 -0.5642 -1.0018
 2936SOL    HW220271   2.458   0.194   4.134  1.3468 -1.9523  0.9996
 2937SOL     OW20272   3.769   2.325  12.901  0.1268 -0.7404 -0.3287
 2937SOL    HW120273   3.721   2.407  12.910  0.8628 -0.3995  0.5130
 2937SOL    HW220274   3.711   2.272  12.955 -0.3036 -0.7601 -0.8084
 2938SOL     OW20275   2.759   3.625   5.030 -0.0853  0.1134 -0.4998
 2938SOL    HW120276   2.671   3.651   5.058 -0.3543 -1.7710  0.4434
 2938SOL    HW220277   2.745   3.549   4.973 -0.9719 -1.1670  1.4438
 2939SOL     OW20278   4.049   1.013   4.041 -0.8429  0.2010 -0.1501
 2939SOL    HW120279   4.141   1.028   4.017 -0.4630 -1.5975  0.1508
 2939SOL    HW220280   4.054   0.981   4.132  1.7672  1.4432  0.1421
 2940SOL     OW20281   1.883   2.354   5.369 -0.1751  0.4457 -0.3483
 2940SOL    HW120282   1.946   2.318   5.306  1.1681  1.3974  0.4541
 2940SOL    HW220283   1.890   2.309   5.453 -0.3706 -0.3167 -0.7372
 2941SOL     OW20284   3.328   0.397   9.653  0.0819  0.1629  0.0424
 2941SOL    HW120285   3.402   0.421   9.708 -0.1984 -2.1343  1.4078
 2941SOL    HW220286   3.252   0.424   9.705 -1.5074  0.2132 -2.3130
 2942SOL     OW20287   1.921   0.738  14.056  0.5827  0.7939 -0.1112
 2942SOL    HW120288   1.866   0.780  13.989  1.8092  0.5786 -1.2497
 2942SOL    HW220289   1.937   0.815  14.111  0.3641  0.6864  0.1018
 2943SOL     OW20290   1.938   0.802   3.698 -0.6101  0.5673 -0.3085
 2943SOL    HW120291   1.872   0.767   3.759  0.0576 -0.6377 -0.2628
 2943SOL    HW220292   1.884   0.806   3.619 -0.1995  1.3828 -0.5393
 2944SOL     OW20293   0.023   1.479   5.767  0.0404  0.1685 -0.5431
 2944SOL    HW120294   0.065   1.556   5.728  1.4048  1.1837  2.9217
 2944SOL    HW220295   0.014   1.429   5.686  0.0548  1.7778 -1.5483
 2945SOL     OW20296   2.020   0.082  12.846  0.1712 -0.3998 -0.1958
 2945SOL    HW120297   2.027   0.056  12.938  0.1972 -1.4697 -0.5015
 2945SOL    HW220298   2.105   0.125  12.836 -0.8253  1.3823 -0.9930
 2946SOL     OW20299   2.151   2.074   6.888  0.1562 -0.4555 -0.5579
 2946SOL    HW120300   2.095   2.079   6.965  2.2086 -1.5588  1.0139
 2946SOL    HW220301   2.230   2.062   6.941  0.6107  2.2308 -0.5897
 2947SOL     OW20302   4.549   4.092   4.822 -0.1606  0.1426 -0.2895
 2947SOL    HW120303   4.475   4.031   4.816  0.6720 -0.6296 -2.9639
 2947SOL    HW220304   4.551   4.101   4.917 -0.6720 -0.2078 -0.2464
 2948SOL     OW20305   3.429   4.066  12.962 -0.4374  0.4427 -0.3702
 2948SOL    HW120306   3.483   4.048  12.885 -1.5056  0.9046 -1.2151
 2948SOL    HW220307   3.403   4.151  12.927 -0.2610  0.1809 -1.1327
 2949SOL     OW20308   4.704   1.093   4.262  0.0768 -0.7845 -0.1673
 2949SOL    HW120309   0.003   1.186   4.261 -1.1406 -0.4707 -0.6858
 2949SOL    HW220310   4.680   1.071   4.352 -0.8667 -1.6747 -0.6362
 2950SOL     OW20311   2.715   1.614   5.098  0.1017  0.5352 -0.0360
 2950SOL    HW120312   2.647   1.680   5.091  0.6886  1.3813  2.0124
 2950SOL    HW220313   2.666   1.538   5.068  2.0867  0.1287 -2.2883
 2951SOL     OW20314   2.916   0.361  16.998  0.2598 -0.8425 -1.1155
 2951SOL    HW120315   2.856   0.357  16.924  0.7294 -2.4463 -1.4147
 2951SOL    HW220316   2.995   0.394  16.953  0.4496 -0.7995 -0.7482
 2952SOL     OW20317   2.580   3.571  11.196 -0.3219  0.3495 -0.2056
 2952SOL    HW120318   2.617   3.624  11.125 -0.3987  1.0197  0.2506
 2952SOL    HW220319   2.637   3.495  11.186 -0.1826  0.3713  0.4218
 2953SOL     OW20320   0.632   1.047   1.550  0.5538  0.5829  0.3625
 2953SOL    HW120321   0.675   0.964   1.531  0.5830  0.8830 -0.8221
 2953SOL    HW220322   0.601   1.020   1.637 -0.9229  0.9590 -0.0361
 2954SOL     OW20323   4.278   2.090   2.875 -0.1561 -0.5952  0.0470
 2954SOL    HW120324   4.238   2.158   2.929 -0.0189 -1.0576  0.7279
 2954SOL    HW220325   4.369   2.117   2.882 -0.3538  0.3176 -0.9230
 2955SOL     OW20326   4.599   4.332   8.518 -0.1775  0.3033 -0.0518
 2955SOL    HW120327   4.561   4.338   8.606  0.3911  1.0269  0.1451
 2955SOL    HW220328   4.521   4.308   8.468  0.1907 -0.3634 -0.3121
 2956SOL     OW20329   2.870   0.824   2.233 -0.4031  0.0632 -0.5932
 2956SOL    HW120330   2.946   0.771   2.257  1.6498  1.7898 -3.2706
 2956SOL    HW220331   2.915   0.906   2.212  1.9934 -1.8016 -2.7079
 2957SOL     OW20332   4.209   4.277   2.712 -0.3726 -0.1010 -0.0166
 2957SOL    HW120333   4.228   4.186   2.736 -1.1182 -0.4279 -0.6474
 2957SOL    HW220334   4.185   4.314   2.797 -1.2419  1.3626 -0.9062
 2958SOL     OW20335   0.828   2.893   5.309 -0.1861  0.1467 -0.1796
 2958SOL    HW120336   0.777   2.812   5.301  0.1496 -0.1174  0.3234
 2958SOL    HW220337   0.754   2.953   5.316  0.2620  0.8713 -1.7313
 2959SOL     OW20338   3.682   2.734   8.624  0.1443 -0.4399 -0.0897
 2959SOL    HW120339   3.756   2.693   8.669  0.2520  0.3397  0.4421
 2959SOL    HW220340   3.619   2.663   8.613 -0.5785  0.1665  0.1627
 2960SOL     OW20341   2.868   1.668  13.820 -0.0527 -0.5982  0.4632
 2960SOL    HW120342   2.862   1.591  13.876  2.0594 -0.5349  0.7674
 2960SOL    HW220343   2.819   1.643  13.742 -0.3112 -0.6130  0.6296
 2961SOL     OW20344   2.035   2.345   6.239  0.1255 -0.1878 -0.2814
 2961SOL    HW120345   2.078   2.348   6.153  1.1675  1.1771  0.2897
 2961SOL    HW220346   2.105   2.319   6.299  0.2942 -1.3704 -0.9862
 2962SOL     OW20347   2.433   3.655   6.492 -0.4987 -0.0455 -0.1602
 2962SOL    HW120348   2.352   3.694   6.525  0.5019  0.2410  1.9321
 2962SOL    HW220349   2.470   3.734   6.452  2.5740 -0.5420  1.6718
 2963SOL     OW20350   2.078   3.625   8.103  0.0336  0.8585 -0.2562
 2963SOL    HW120351   2.025   3.627   8.024  1.2050 -4.0480 -1.1324
 2963SOL    HW220352   2.146   3.674   8.056  1.9032 -1.4314  0.0926
 2964SOL     OW20353   4.100   2.536  10.851  0.0782 -0.0141 -0.1225
 2964SOL    HW120354   4.145   2.572  10.927 -0.3149 -1.9875  1.0304
 2964SOL    HW220355   4.040   2.470  10.885  0.2678  0.1304  0.4963
 2965SOL     OW20356   1.113   1.828   2.667  0.1594  0.9564  0.4987
 2965SOL    HW120357   1.124   1.890   2.595 -1.5160 -1.1845 -1.5636
 2965SOL    HW220358   1.064   1.758   2.625  1.3249 -2.0450  4.1908
 2966SOL     OW20359   4.371   3.643   9.128 -0.0518  0.0179 -0.5353
 2966SOL    HW120360   4.397   3.554   9.103  0.2168 -0.0203 -0.1309
 2966SOL    HW220361   4.456   3.684   9.146  0.1330  0.5825 -2.7950
 2967SOL     OW20362   3.192   4.581  10.210  0.4649 -0.7927  0.3595
 2967SOL    HW120363   3.201   4.591  10.305 -0.2006 -1.8723  0.5267
 2967SOL    HW220364   3.112   4.530  10.201 -0.3178  0.1175  2.1734
 2968SOL     OW20365   2.750   0.023   6.543  0.9947  0.7999 -0.2841
 2968SOL    HW120366   2.773   4.671   6.594  0.0569  1.1082  0.6137
 2968SOL    HW220367   2.656   0.028   6.563  0.9882 -0.7866  0.1116
 2969SOL     OW20368   3.641   2.651   5.631  0.1441 -0.5977 -0.3332
 2969SOL    HW120369   3.718   2.620   5.679  0.0092 -1.9838 -1.0082
 2969SOL    HW220370   3.574   2.585   5.648  0.4053 -0.5259  0.9905
 2970SOL     OW20371   0.736   3.753   9.317  0.1960 -0.3958  0.1610
 2970SOL    HW120372   0.736   3.750   9.222 -1.0239 -0.1084  0.1530
 2970SOL    HW220373   0.643   3.733   9.328 -0.0614 -0.2350 -1.7492
 2971SOL     OW20374   1.166   0.806   5.886  0.2333  0.4027 -0.6271
 2971SOL    HW120375   1.073   0.826   5.878  0.3000 -0.6640 -3.8318
 2971SOL    HW220376   1.193   0.870   5.952 -2.4974 -1.6917  2.5032
 2972SOL     OW20377   2.867   2.830  15.703 -0.3986 -0.2181  0.2726
 2972SOL    HW120378   2.948   2.817  15.752 -0.0884 -0.1334 -0.2221
 2972SOL    HW220379   2.816   2.783  15.770  0.4948 -1.0320  0.3837
 2973SOL     OW20380   3.669   1.061   4.381  0.5936  0.3454 -0.5178
 2973SOL    HW120381   3.624   1.038   4.300  1.2166  0.0935 -0.7924
 2973SOL    HW220382   3.616   1.125   4.428 -1.0620 -1.5340  0.1865
 2974SOL     OW20383   1.362   3.678   2.331  0.3487  0.2848 -0.0599
 2974SOL    HW120384   1.416   3.756   2.318  2.0911 -0.6543  1.3753
 2974SOL    HW220385   1.278   3.722   2.335  0.9163  1.2273  1.8261
 2975SOL     OW20386   1.009   0.740  11.251  0.5634  0.0538  0.3533
 2975SOL    HW120387   1.060   0.767  11.175  0.8003 -1.2034  0.0692
 2975SOL    HW220388   0.944   0.686  11.206  0.5146  0.9822 -0.6881
 2976SOL     OW20389   2.559   3.216  10.882 -0.2324 -0.5078  0.0658
 2976SOL    HW120390   2.617   3.211  10.805 -1.3586 -0.8791 -0.7675
 2976SOL    HW220391   2.516   3.131  10.866 -2.6583  0.4339  1.6351
 2977SOL     OW20392   1.064   2.336  16.158  0.2769  0.3780  0.1217
 2977SOL    HW120393   0.987   2.283  16.136  1.7275 -1.6564  0.0271
 2977SOL    HW220394   1.029   2.388  16.231  0.8837 -0.5519  1.0638
 2978SOL     OW20395   0.490   0.619   3.035 -0.1804 -0.0974 -0.1199
 2978SOL    HW120396   0.412   0.596   2.986  0.2064 -2.1835  0.2434
 2978SOL    HW220397   0.502   0.557   3.107 -1.4490 -2.3974 -1.8935
 2979SOL     OW20398   3.756   4.024   6.734 -0.0943 -0.0333 -0.0172
 2979SOL    HW120399   3.745   4.115   6.763 -1.3979  0.1453 -1.0336
 2979SOL    HW220400   3.703   3.981   6.801  0.6524 -0.6374  0.1726
 2980SOL     OW20401   2.999   3.753   7.264  0.6870 -0.4197 -0.0598
 2980SOL    HW120402   2.907   3.775   7.275  1.1114  0.8262  0.9529
 2980SOL    HW220403   2.999   3.663   7.296 -1.3002 -1.1493 -2.1014
 2981SOL     OW20404   2.343   3.105   5.527  0.4015 -0.2666 -0.3854
 2981SOL    HW120405   2.282   3.036   5.555  0.2834 -0.7383 -1.8015
 2981SOL    HW220406   2.354   3.154   5.608  1.0346 -1.4775  0.2548
 2982SOL     OW20407   2.849   4.226   8.634  0.1510 -0.5025 -0.2838
 2982SOL    HW120408   2.926   4.282   8.639 -0.4551  0.3044  0.1765
 2982SOL    HW220409   2.834   4.223   8.729 -1.3195  1.0957 -0.4599
 2983SOL     OW20410   1.981   4.452   2.705 -0.1703  0.3006  0.2095
 2983SOL    HW120411   2.023   4.374   2.741 -1.6100  1.0379  3.4757
 2983SOL    HW220412   1.974   4.425   2.614  1.4536  0.5531  0.0092
 2984SOL     OW20413   4.417   3.540   5.371  0.9405  0.0455 -0.2410
 2984SOL    HW120414   4.425   3.451   5.336  2.4208  0.7127 -1.5872
 2984SOL    HW220415   4.470   3.533   5.450 -0.4625  0.7249  0.7731
 2985SOL     OW20416   3.063   2.499   5.274  0.4301  0.0571  0.8117
 2985SOL    HW120417   3.044   2.415   5.231 -0.4224 -0.3712  2.0398
 2985SOL    HW220418   3.081   2.560   5.202  0.9984 -0.6861  0.3211
 2986SOL     OW20419   4.140   1.579   4.553 -0.3861  0.8105  0.6586
 2986SOL    HW120420   4.080   1.646   4.520 -1.8266 -0.7541  0.0832
 2986SOL    HW220421   4.141   1.604   4.646  4.6348 -0.6089  0.9342
 2987SOL     OW20422   2.150   2.618   7.202 -0.1565 -0.2781  0.1296
 2987SOL    HW120423   2.221   2.568   7.162 -0.8428 -2.0652  1.1572
 2987SOL    HW220424   2.074   2.592   7.149 -0.7023  0.0159  0.7572
 2988SOL     OW20425   4.399   4.368   8.319  0.0051 -0.0438 -0.1000
 2988SOL    HW120426   4.352   4.450   8.303 -1.4701 -1.0940 -1.1428
 2988SOL    HW220427   4.354   4.300   8.269 -0.6897 -0.2391  0.7851
 2989SOL     OW20428   1.866   1.711  16.556 -0.8308 -0.1064  0.5330
 2989SOL    HW120429   1.951   1.711  16.514 -0.7519  0.2690  0.6888
 2989SOL    HW220430   1.877   1.645  16.625 -0.9935  1.1713  1.7827
 2990SOL     OW20431   1.959   3.401   7.395  0.0288 -0.1649 -0.2132
 2990SOL    HW120432   2.002   3.431   7.475 -0.2089  0.9714 -0.5110
 2990SOL    HW220433   2.021   3.413   7.324 -1.5863  0.2712 -1.5443
 2991SOL     OW20434   2.930   2.429   2.087 -0.4442  0.1827 -0.5267
 2991SOL    HW120435   2.965   2.462   2.170  0.7723 -1.0065 -0.5567
 2991SOL    HW220436   2.993   2.475   2.032 -1.6814  1.9585 -0.4503
 2992SOL     OW20437   2.127   4.187   7.488  0.2816  0.3102 -0.5740
 2992SOL    HW120438   2.113   4.235   7.406  1.3983  0.7483 -0.5093
 2992SOL    HW220439   2.099   4.250   7.555  0.0793 -0.0388 -0.3318
 2993SOL     OW20440   3.223   2.431   7.889  0.3474 -0.0953 -0.0833
 2993SOL    HW120441   3.138   2.403   7.923  0.0646 -1.3346 -1.7730
 2993SOL    HW220442   3.256   2.504   7.941 -0.1760  1.2386 -1.6365
 2994SOL     OW20443   4.391   1.713  16.026  0.5982  0.6177 -0.4602
 2994SOL    HW120444   4.306   1.726  16.068  0.5706  0.4241 -0.4570
 2994SOL    HW220445   4.365   1.670  15.945 -2.9131  1.9873 -0.0470
 2995SOL     OW20446   3.420   0.353  12.731  0.0793  0.0255  0.0018
 2995SOL    HW120447   3.506   0.386  12.760 -1.3617  0.9648  3.1604
 2995SOL    HW220448   3.371   0.429  12.701  0.0299 -0.7446 -1.9209
 2996SOL     OW20449   2.510   3.435   9.018  0.4738 -0.1073 -0.2071
 2996SOL    HW120450   2.494   3.508   9.078 -1.6250  0.4690 -1.4672
 2996SOL    HW220451   2.605   3.428   9.021  0.4752 -0.8446 -1.7866
 2997SOL     OW20452   4.131   0.921   5.162 -0.4073  0.1667  0.0105
 2997SOL    HW120453   4.208   0.933   5.217  1.3773 -3.3567 -1.7161
 2997SOL    HW220454   4.112   1.014   5.147 -0.0395 -0.1928 -2.6915
 2998SOL     OW20455   2.589   4.489   0.562 -0.0338  0.6824 -0.3866
 2998SOL    HW120456   2.621   4.417   0.617 -0.1309  0.3405 -0.7743
 2998SOL    HW220457   2.506   4.518   0.600 -0.2468 -0.1130 -0.2474
 2999SOL     OW20458   3.376   2.360  10.070 -0.1599 -0.4374  0.1454
 2999SOL    HW120459   3.375   2.428  10.003  1.3405 -1.6810 -1.1357
 2999SOL    HW220460   3.378   2.277  10.022  1.1669  0.5101 -1.4755
 3000SOL     OW20461   2.997   1.060   3.112  0.5028  0.0968 -0.7689
 3000SOL    HW120462   2.960   0.976   3.084 -0.4747  0.5144 -0.7316
 3000SOL    HW220463   2.927   1.096   3.166  0.3632 -0.1669 -0.7737
 3001SOL     OW20464   4.254   3.601  12.197 -0.1623  0.0894 -0.2470
 3001SOL    HW120465   4.235   3.518  12.153 -0.5484  0.5137 -0.8692
 3001SOL    HW220466   4.345   3.591  12.227 -0.1593  0.8236 -0.0107
 3002SOL     OW20467   2.904   4.447  11.991  0.4297 -0.2511  0.1270
 3002SOL    HW120468   2.938   4.471  12.077 -1.0778 -0.5799  0.7964
 3002SOL    HW220469   2.877   4.536  11.967  1.5145 -0.4086 -1.6908
 3003SOL     OW20470   3.417   2.125   9.945  0.2070  0.2804 -0.4522
 3003SOL    HW120471   3.358   2.068   9.896  0.1079 -0.1709  0.1942
 3003SOL    HW220472   3.445   2.063  10.012 -0.9091 -0.0680 -0.2987
 3004SOL     OW20473   1.010   2.598   6.374  0.4368 -0.4069  0.2039
 3004SOL    HW120474   0.972   2.666   6.319 -1.8375 -1.8294  0.0085
 3004SOL    HW220475   1.068   2.650   6.430  1.4240  0.1956 -1.3892
 3005SOL     OW20476   1.592   2.094   5.065  0.2227  0.1009  0.0065
 3005SOL    HW120477   1.678   2.115   5.101 -0.3033  0.1778  1.2181
 3005SOL    HW220478   1.536   2.097   5.143  1.5120 -0.6573  0.9655
 3006SOL     OW20479   3.932   0.054   7.628 -0.0748  0.8575  0.2427
 3006SOL    HW120480   3.987   0.129   7.652  0.6251 -0.1382  1.7328
 3006SOL    HW220481   3.974   0.023   7.547 -0.3213 -1.5128  1.0318
 3007SOL     OW20482   2.665   3.657  10.454  0.0074  0.8140  0.9935
 3007SOL    HW120483   2.660   3.745  10.492  1.3250  0.7049  1.4296
 3007SOL    HW220484   2.705   3.599  10.519  0.6237  1.6513  1.3537
 3008SOL     OW20485   1.088   0.289  15.440 -0.6582 -0.1510 -0.3258
 3008SOL    HW120486   1.042   0.207  15.418  0.3922 -1.0345  0.7900
 3008SOL    HW220487   1.091   0.300  15.535 -0.8743 -1.7304 -0.1272
 3009SOL     OW20488   4.634   4.492   7.931 -0.1270 -0.3154 -0.0896
 3009SOL    HW120489   4.651   4.580   7.966  0.2602  0.5163 -2.3311
 3009SOL    HW220490   4.714   4.446   7.957 -0.9596 -1.7555 -0.1231
 3010SOL     OW20491   3.804   2.656  16.732 -0.3232  0.3545 -0.4479
 3010SOL    HW120492   3.800   2.709  16.811  0.3811 -0.4751  0.1592
 3010SOL    HW220493   3.718   2.679  16.696 -1.1261 -0.9651  0.6294
 3011SOL     OW20494   2.015   4.688   1.063  0.1031  0.1824  0.4873
 3011SOL    HW120495   1.928   4.720   1.088  0.6262  1.2197  0.9610
 3011SOL    HW220496   1.999   4.597   1.037 -0.4164  0.5823 -0.5599
 3012SOL     OW20497   1.431   2.422  16.240  0.6321 -0.7083  0.5686
 3012SOL    HW120498   1.440   2.420  16.145 -0.7878 -0.2189  0.4333
 3012SOL    HW220499   1.336   2.428  16.247  0.3209 -2.4913 -2.3485
 3013SOL     OW20500   2.510   3.914  10.306  0.2766  0.4367 -0.4439
 3013SOL    HW120501   2.419   3.900  10.332  0.2044 -0.1168 -0.9784
 3013SOL    HW220502   2.556   3.899  10.388 -0.0889  2.0886  0.0781
 3014SOL     OW20503   1.103   2.624  16.438 -0.4627  0.0812 -0.4187
 3014SOL    HW120504   1.143   2.687  16.378 -1.8865  2.2364  0.8672
 3014SOL    HW220505   1.017   2.611  16.397 -1.1970 -0.0700  1.1424
 3015SOL     OW20506   1.171   0.301   3.357  0.4665 -0.6664 -0.3578
 3015SOL    HW120507   1.149   0.392   3.378 -0.8403 -0.5503 -2.2222
 3015SOL    HW220508   1.226   0.319   3.280  0.8690 -0.4607 -0.0223
 3016SOL     OW20509   2.008   1.004   1.040  0.0426 -0.4521 -0.8148
 3016SOL    HW120510   2.018   0.979   1.132 -0.6190  0.6858 -0.4450
 3016SOL    HW220511   1.927   0.961   1.014  0.7685 -0.6995 -2.6837
 3017SOL     OW20512   4.584   1.370   3.804 -0.2493 -0.1218  0.2412
 3017SOL    HW120513   4.623   1.283   3.808  0.4475  0.2959  2.7381
 3017SOL    HW220514   4.575   1.393   3.711  0.3321  3.4423  1.0623
 3018SOL     OW20515   2.464   4.168  10.101 -0.4824 -0.3863 -0.0931
 3018SOL    HW120516   2.470   4.076  10.128 -0.3238 -0.5845 -0.8053
 3018SOL    HW220517   2.430   4.218  10.175 -1.7358 -0.9490 -0.2986
 3019SOL     OW20518   1.890   0.297  13.134  0.3023 -0.5215 -0.7697
 3019SOL    HW120519   1.868   0.338  13.050  0.3715  0.4086 -0.3367
 3019SOL    HW220520   1.857   0.355  13.203 -0.6566 -3.0533  0.9132
 3020SOL     OW20521   0.853   3.598  10.986 -0.0717 -0.4015 -0.4025
 3020SOL    HW120522   0.785   3.645  11.034  0.1908  2.7128 -3.1224
 3020SOL    HW220523   0.927   3.615  11.045  0.0593  1.0963 -0.9883
 3021SOL     OW20524   0.046   2.967   6.041  0.3781  0.3696  0.0932
 3021SOL    HW120525   0.063   2.976   6.135 -2.9825 -0.7606  0.8040
 3021SOL    HW220526   0.069   2.879   6.012  1.4296  0.7286 -0.1844
 3022SOL     OW20527   0.171   1.782  13.922 -0.2946  0.0697 -0.0085
 3022SOL    HW120528   0.087   1.827  13.912 -0.0635  0.5293  0.1239
 3022SOL    HW220529   0.233   1.816  13.858 -1.1031  1.9801  0.2026
 3023SOL     OW20530   2.069   1.732  16.371 -0.1473 -0.2458 -0.1324
 3023SOL    HW120531   2.145   1.674  16.382 -0.1305 -0.0025  1.0690
 3023SOL    HW220532   2.024   1.677  16.307  1.0503 -1.7994  0.3481
 3024SOL     OW20533   2.509   3.121  12.081  0.3001 -0.1079  1.0637
 3024SOL    HW120534   2.570   3.170  12.136 -0.4508  1.0850  0.8231
 3024SOL    HW220535   2.498   3.182  12.008 -2.1239 -1.3581  0.3967
 3025SOL     OW20536   4.143   3.688   5.481 -0.2999  0.0221 -0.1027
 3025SOL    HW120537   4.077   3.653   5.540  0.1356 -0.6501 -0.0197
 3025SOL    HW220538   4.220   3.657   5.529 -1.1165 -1.9598 -0.0825
 3026SOL     OW20539   3.980   0.360   0.603  0.1428  0.2826  0.1765
 3026SOL    HW120540   4.000   0.448   0.635 -0.9890 -0.2040  2.1539
 3026SOL    HW220541   4.059   0.323   0.563  0.3670  0.5636  0.3561
 3027SOL     OW20542   2.798   2.269   3.820  0.3974  0.5003  0.1928
 3027SOL    HW120543   2.862   2.313   3.763  1.3107 -0.0110  0.8164
 3027SOL    HW220544   2.774   2.207   3.751  0.5732  1.1611 -0.4573
 3028SOL     OW20545   4.566   2.100  12.584  0.2030  0.1912 -0.1008
 3028SOL    HW120546   4.492   2.158  12.568  0.2959  0.6089  1.0212
 3028SOL    HW220547   4.534   2.026  12.531  0.7620 -0.5621  0.6115
 3029SOL     OW20548   0.187   2.133   3.585  0.3978  0.1564  0.1088
 3029SOL    HW120549   0.119   2.137   3.652 -1.0579 -1.3749 -1.2587
 3029SOL    HW220550   0.141   2.165   3.507  1.0846 -0.0575 -0.3823
 3030SOL     OW20551   1.057   0.879  10.986  0.0126 -0.4904  0.1930
 3030SOL    HW120552   1.089   0.957  11.031 -1.8348 -0.2284  1.0763
 3030SOL    HW220553   1.125   0.852  10.925 -2.1501 -1.0951 -1.9656
 3031SOL     OW20554   4.238   2.488   0.022 -0.0697 -0.0118 -0.3697
 3031SOL    HW120555   4.266   2.399   0.001 -0.6421  0.2507 -2.2251
 3031SOL    HW220556   4.183   2.473   0.098 -0.8657  1.5521 -0.6464
 3032SOL     OW20557   3.462   1.449   1.876 -0.1801 -0.1321 -0.5437
 3032SOL    HW120558   3.496   1.533   1.905  1.3377 -0.9716  0.0770
 3032SOL    HW220559   3.524   1.408   1.816  1.9111  0.8184  1.0020
 3033SOL     OW20560   4.200   0.965   0.464 -0.2962  0.8392  0.7299
 3033SOL    HW120561   4.170   0.986   0.376 -4.0597  1.4720  2.1163
 3033SOL    HW220562   4.215   1.053   0.498 -0.2395  0.1870  2.3902
 3034SOL     OW20563   3.725   3.383   2.798 -0.4625  0.2561  0.2237
 3034SOL    HW120564   3.754   3.297   2.827 -1.6956 -0.2093  0.0594
 3034SOL    HW220565   3.641   3.363   2.756 -0.2206  1.5637 -0.8770
 3035SOL     OW20566   2.344   1.730   2.500  0.2253 -0.2450 -0.3868
 3035SOL    HW120567   2.374   1.639   2.506 -1.1058 -0.2726  5.3610
 3035SOL    HW220568   2.422   1.776   2.470  0.8869 -0.3278  1.2053
 3036SOL     OW20569   4.064   1.347   7.944 -0.0478 -0.3645  0.2314
 3036SOL    HW120570   4.156   1.368   7.964 -0.5949 -1.1458  3.4999
 3036SOL    HW220571   4.021   1.432   7.955  2.8925  1.0947  0.5761
 3037SOL     OW20572   0.793   0.261   3.043  0.2290  0.8580 -0.8870
 3037SOL    HW120573   0.747   0.239   2.962 -0.7679 -0.0953 -0.0645
 3037SOL    HW220574   0.763   0.186   3.095  1.6758  1.2743  0.5516
 3038SOL     OW20575   4.569   0.148   7.803 -0.4372  0.0689  0.4479
 3038SOL    HW120576   4.660   0.176   7.816 -0.4366 -0.0060  0.6111
 3038SOL    HW220577   4.546   0.178   7.715 -0.8462 -1.9483 -0.1331
 3039SOL     OW20578   2.372   3.730  11.003 -0.1002 -0.2087  0.7856
 3039SOL    HW120579   2.464   3.748  10.986 -0.2497 -0.1481  0.0594
 3039SOL    HW220580   2.384   3.672  11.078  1.7830 -0.0932  0.5692
 3040SOL     OW20581   3.733   0.127  11.115 -0.1013  0.3183  0.5123
 3040SOL    HW120582   3.760   0.213  11.081 -1.9581  0.6318 -0.1647
 3040SOL    HW220583   3.639   0.141  11.109 -0.0656  0.4076  0.1117
 3041SOL     OW20584   3.424   0.902  12.654 -0.2408 -0.5062  0.3101
 3041SOL    HW120585   3.371   0.956  12.713 -1.2333  0.2499 -1.2683
 3041SOL    HW220586   3.508   0.943  12.673 -0.8872  1.3100 -0.7714
 3042SOL     OW20587   0.423   3.667  12.670  0.0722 -0.0501 -0.3864
 3042SOL    HW120588   0.509   3.635  12.645  0.8895  1.8138  0.0051
 3042SOL    HW220589   0.367   3.606  12.622 -0.7398  0.2207  0.2132
 3043SOL     OW20590   0.664   3.280  17.288 -0.0297 -0.8929 -0.0201
 3043SOL    HW120591   0.678   3.207  17.228  2.1659 -0.5634  0.0999
 3043SOL    HW220592   0.569   3.287  17.298 -0.3121 -1.7080 -2.1928
 3044SOL     OW20593   3.303   1.356   1.025 -0.2427  0.7704  0.2068
 3044SOL    HW120594   3.351   1.281   0.989 -0.9998  0.3211  0.1572
 3044SOL    HW220595   3.307   1.418   0.952  0.3311 -0.2725 -0.6407
 3045SOL     OW20596   0.833   0.827  13.007 -0.2577 -0.6350 -0.2715
 3045SOL    HW120597   0.747   0.861  12.980 -0.5491 -0.2553  1.1693
 3045SOL    HW220598   0.841   0.752  12.948  0.8002 -0.8363  0.1321
 3046SOL     OW20599   2.091   4.416  13.422  0.3509 -0.4567 -0.4692
 3046SOL    HW120600   2.086   4.425  13.517  1.3321 -1.5128 -0.3089
 3046SOL    HW220601   2.003   4.433  13.390  0.0641 -1.4391 -0.1920
 3047SOL     OW20602   0.766   0.201   4.307  0.2402  0.1002 -0.1071
 3047SOL    HW120603   0.850   0.166   4.276  0.2200 -1.0665  1.1545
 3047SOL    HW220604   0.730   0.220   4.220 -1.2368  1.1037  0.7278
 3048SOL     OW20605   1.137   0.841   8.654 -0.2982 -0.4513 -0.2913
 3048SOL    HW120606   1.106   0.923   8.617 -0.1890  0.0192  0.6583
 3048SOL    HW220607   1.200   0.803   8.592 -0.3140 -0.3899 -0.3447
 3049SOL     OW20608   4.425   0.548   8.750  0.1105  0.3577 -0.1480
 3049SOL    HW120609   4.454   0.481   8.688 -0.5412 -0.6513  0.6476
 3049SOL    HW220610   4.491   0.529   8.816  1.5018  0.4565 -1.5147
 3050SOL     OW20611   0.900   4.484  11.938 -0.1584 -0.2375  0.4705
 3050SOL    HW120612   0.929   4.395  11.921  2.0945  0.5346  0.2742
 3050SOL    HW220613   0.912   4.488  12.032 -0.1353 -0.2342  0.4676
 3051SOL     OW20614   3.786   3.294   5.456  0.5390 -0.7599  0.0769
 3051SOL    HW120615   3.755   3.229   5.518 -0.2865  2.6012  3.1733
 3051SOL    HW220616   3.878   3.268   5.459  0.6793 -0.1940  0.5943
 3052SOL     OW20617   2.714   1.295   9.158 -0.2900  0.0656 -0.4393
 3052SOL    HW120618   2.679   1.345   9.232 -0.5716  0.6090 -0.9451
 3052SOL    HW220619   2.651   1.224   9.172  0.5683 -0.6503 -0.2049
 3053SOL     OW20620   1.109   0.904   4.494  0.1016 -0.1542 -0.1381
 3053SOL    HW120621   1.185   0.852   4.519 -0.7503 -1.3513 -0.0152
 3053SOL    HW220622   1.142   0.963   4.427 -2.5712  2.1060  0.5567
 3054SOL     OW20623   2.923   0.169   8.987 -0.4747 -0.7231 -0.6458
 3054SOL    HW120624   2.828   0.163   8.987 -0.5267  0.0289 -2.5993
 3054SOL    HW220625   2.942   0.156   8.894  1.7340 -0.1847 -0.2839
 3055SOL     OW20626   3.186   0.159  13.664  0.1488  0.1023  0.3926
 3055SOL    HW120627   3.172   0.229  13.728  0.7265  0.2230  0.3907
 3055SOL    HW220628   3.174   0.214  13.587 -2.3226 -0.7749  0.1811
 3056SOL     OW20629   2.214   1.583   6.379  0.1380  0.4845  0.2028
 3056SOL    HW120630   2.220   1.613   6.469 -2.1040  0.4372  0.3689
 3056SOL    HW220631   2.151   1.640   6.335  0.1088 -0.1412 -0.5738
 3057SOL     OW20632   2.025   3.831   4.366  0.4350 -0.5290 -0.0439
 3057SOL    HW120633   1.932   3.844   4.344  0.3023  0.0700  0.8793
 3057SOL    HW220634   2.025   3.856   4.459  1.9151  0.9391 -0.4480
 3058SOL     OW20635   3.427   4.276   5.950  0.3262  0.4225 -0.0612
 3058SOL    HW120636   3.473   4.204   5.993  0.7275  0.7650  0.0912
 3058SOL    HW220637   3.415   4.326   6.031 -2.2767  2.4250 -1.6658
 3059SOL     OW20638   2.370   2.879  14.479 -0.0791 -0.0380 -0.0115
 3059SOL    HW120639   2.353   2.948  14.414 -1.4993  0.2033  0.5997
 3059SOL    HW220640   2.295   2.886  14.538  0.4788  1.3748  0.5351
 3060SOL     OW20641   3.599   0.491  16.445 -0.3734  0.1331  0.4309
 3060SOL    HW120642   3.519   0.543  16.455  0.1840  1.3379 -1.2990
 3060SOL    HW220643   3.645   0.525  16.367 -1.6623  0.2860 -0.2551
 3061SOL     OW20644   3.847   2.445   0.392  0.5401 -0.4546 -0.0824
 3061SOL    HW120645   3.916   2.474   0.332 -0.8360 -1.1209 -1.9849
 3061SOL    HW220646   3.780   2.399   0.342  1.3328 -2.6823  0.9082
 3062SOL     OW20647   1.586   0.453   6.306 -0.6658 -0.0556 -0.2112
 3062SOL    HW120648   1.638   0.494   6.375 -0.4823 -0.1154 -0.3105
 3062SOL    HW220649   1.561   0.532   6.259  1.8404  0.2116 -1.1333
 3063SOL     OW20650   2.389   1.514   4.281 -0.2812  0.4254 -0.0834
 3063SOL    HW120651   2.404   1.491   4.189 -0.7365  3.2850 -0.8846
 3063SOL    HW220652   2.324   1.585   4.279  0.4136  1.0479 -1.1185
 3064SOL     OW20653   2.371   4.573   9.071 -0.3620 -0.6023 -0.4724
 3064SOL    HW120654   2.319   4.610   9.000  1.9588 -0.3143 -2.0059
 3064SOL    HW220655   2.404   4.649   9.119 -1.6289  0.0477 -0.6425
 3065SOL     OW20656   0.893   2.342   7.089 -0.1754  0.4829 -0.1428
 3065SOL    HW120657   0.943   2.351   7.170 -0.3535 -1.0397  0.1361
 3065SOL    HW220658   0.828   2.282   7.124  2.3287 -1.8507  0.4674
 3066SOL     OW20659   1.939   1.314  10.718 -0.3061 -0.0909 -0.5865
 3066SOL    HW120660   1.992   1.333  10.795  0.0945 -0.2000 -0.8345
 3066SOL    HW220661   1.995   1.281  10.647 -0.3389 -2.0608  0.2969
 3067SOL     OW20662   2.369   2.660  14.161 -0.0474  0.0154  0.4432
 3067SOL    HW120663   2.286   2.636  14.202  0.1325  1.3999  1.5773
 3067SOL    HW220664   2.425   2.684  14.234  0.1726  0.0165  0.2752
 3068SOL     OW20665   0.701   0.301   1.587 -0.3322 -0.0430  0.6187
 3068SOL    HW120666   0.791   0.294   1.619  0.2100 -0.3216 -0.9773
 3068SOL    HW220667   0.714   0.279   1.495  0.0045 -1.3789  0.9888
 3069SOL     OW20668   1.483   3.086   1.054  0.1500  0.3683 -0.1801
 3069SOL    HW120669   1.573   3.053   1.057 -0.2702 -0.5620  2.0801
 3069SOL    HW220670   1.472   3.088   0.959 -1.6865  0.5568  0.0396
 3070SOL     OW20671   3.967   2.886   6.776  0.7047  0.4649 -0.6176
 3070SOL    HW120672   3.927   2.799   6.770  1.4704 -0.0149  1.1267
 3070SOL    HW220673   3.901   2.933   6.726 -0.3224 -1.5091 -1.1001
 3071SOL     OW20674   3.173   2.649   7.051 -0.1990 -0.4691  0.0413
 3071SOL    HW120675   3.150   2.642   7.144  0.2430 -1.3255  0.0856
 3071SOL    HW220676   3.128   2.580   7.002 -0.4094 -0.1705 -0.1820
 3072SOL     OW20677   1.703   3.507   6.830  0.1026 -0.2124 -0.3301
 3072SOL    HW120678   1.697   3.453   6.750  0.9434 -0.3034 -0.3363
 3072SOL    HW220679   1.751   3.586   6.804 -0.3027  0.1153 -0.0762
 3073SOL     OW20680   3.466   3.881   5.821 -0.1919  0.7400  0.1954
 3073SOL    HW120681   3.371   3.876   5.819 -0.2154  1.3690 -0.3059
 3073SOL    HW220682   3.476   3.926   5.737  1.8862  0.3764  0.2489
 3074SOL     OW20683   3.748   3.296   8.706  0.2533 -0.7426  0.1405
 3074SOL    HW120684   3.682   3.295   8.637  0.8929  1.0442 -0.4862
 3074SOL    HW220685   3.785   3.384   8.702  1.1644 -1.1384  0.0757
 3075SOL     OW20686   1.892   1.577   2.965 -0.2846 -0.4902 -0.0274
 3075SOL    HW120687   1.972   1.546   3.006 -0.0338 -0.3254 -0.3966
 3075SOL    HW220688   1.834   1.566   3.040  0.5596 -0.5194  0.6215
 3076SOL     OW20689   4.458   1.825   3.009 -0.0760 -0.7691 -0.2997
 3076SOL    HW120690   4.528   1.847   2.948 -1.2733 -2.7370 -2.3556
 3076SOL    HW220691   4.397   1.898   2.995  0.7448 -0.1627 -0.6915
 3077SOL     OW20692   3.636   0.404   2.978 -0.0855 -0.4060 -0.5876
 3077SOL    HW120693   3.704   0.428   2.914  1.8966  0.4142  1.7927
 3077SOL    HW220694   3.622   0.480   3.035 -2.2096 -0.7244 -0.7103
 3078SOL     OW20695   1.237   1.137  13.250  0.3673  0.0690 -0.2910
 3078SOL    HW120696   1.253   1.158  13.158  1.4441  0.5418  0.0054
 3078SOL    HW220697   1.253   1.227  13.279 -0.0789  0.4561 -1.2556
 3079SOL     OW20698   0.178   3.873   4.337 -0.1964  0.0884 -0.0439
 3079SOL    HW120699   0.200   3.966   4.343 -1.1045  0.4219 -2.1332
 3079SOL    HW220700   0.182   3.849   4.430 -0.0427 -0.4584 -0.1919
 3080SOL     OW20701   4.181   1.637  11.818 -0.1411 -0.0723  0.0105
 3080SOL    HW120702   4.228   1.598  11.744 -0.9709  0.4992 -0.8092
 3080SOL    HW220703   4.250   1.694  11.854 -0.5040  0.2033  0.2683
 3081SOL     OW20704   4.575   1.206   8.871  0.5440 -0.2432 -0.2318
 3081SOL    HW120705   4.641   1.138   8.885 -0.6247 -0.8308  2.4352
 3081SOL    HW220706   4.624   1.289   8.864 -1.1371  0.8021  0.3199
 3082SOL     OW20707   3.241   1.907   7.543 -0.0427  0.0424  0.2576
 3082SOL    HW120708   3.290   1.985   7.516 -1.4679  0.2868 -1.6364
 3082SOL    HW220709   3.162   1.949   7.577  1.4990  2.5940  0.7799
 3083SOL     OW20710   1.832   1.880   8.882  0.5807  0.0193  0.0698
 3083SOL    HW120711   1.738   1.889   8.865  0.3437 -1.2625  0.7204
 3083SOL    HW220712   1.845   1.811   8.946  1.5373  0.7759  0.6909
 3084SOL     OW20713   3.028   3.641  10.493 -0.0955 -0.1291  0.2645
 3084SOL    HW120714   3.094   3.603  10.551  0.3574 -1.4539 -1.1054
 3084SOL    HW220715   2.951   3.597  10.530  0.5591 -0.6711  0.9851
 3085SOL     OW20716   2.737   4.155   4.615  0.5328 -0.0275 -0.2872
 3085SOL    HW120717   2.680   4.078   4.609  2.6767 -1.6439 -0.1969
 3085SOL    HW220718   2.730   4.184   4.524  1.2411 -0.3852 -0.4557
 3086SOL     OW20719   0.247   4.335   3.412 -0.3484  0.3346  0.1940
 3086SOL    HW120720   0.221   4.340   3.320 -1.7629 -1.2084  0.5005
 3086SOL    HW220721   0.159   4.316   3.444 -0.8536 -1.2509 -2.1279
 3087SOL     OW20722   3.986   0.229   3.262 -0.4065 -0.1190  0.0218
 3087SOL    HW120723   3.986   0.155   3.323  1.3663  0.5081  0.7869
 3087SOL    HW220724   4.080   0.245   3.259 -0.6401  1.5601  1.5230
 3088SOL     OW20725   2.032   0.924   8.209  0.0848 -0.1908 -0.1167
 3088SOL    HW120726   2.108   0.874   8.238  0.0526 -0.5040 -0.5611
 3088SOL    HW220727   2.007   0.884   8.125 -0.7708  1.3871 -0.6097
 3089SOL     OW20728   3.330   4.488  16.728 -0.3305  0.2392 -0.0708
 3089SOL    HW120729   3.364   4.428  16.662  0.0242 -2.0486  2.1900
 3089SOL    HW220730   3.409   4.542  16.731 -0.9075  1.1982 -2.2415
 3090SOL     OW20731   4.087   4.438   5.535 -0.4312 -0.0132 -0.5327
 3090SOL    HW120732   4.074   4.510   5.598  1.4258 -1.3943  1.4366
 3090SOL    HW220733   4.010   4.382   5.546  0.5548 -0.9888  1.3363
 3091SOL     OW20734   4.382   1.954   0.476  0.2208 -0.2049  0.1129
 3091SOL    HW120735   4.353   1.878   0.526  2.4278 -1.0694  0.0677
 3091SOL    HW220736   4.442   1.988   0.543 -1.0709  0.5048  0.8997
 3092SOL     OW20737   0.078   2.975   8.873 -0.2656  0.5819  0.1050
 3092SOL    HW120738   0.129   2.958   8.794  0.5085 -1.6509  1.0890
 3092SOL    HW220739   4.715   2.953   8.845 -0.2629 -0.0241  0.5706
 3093SOL     OW20740   2.391   4.619   1.354 -0.1308  0.0413  0.0451
 3093SOL    HW120741   2.304   4.654   1.371 -0.6756 -0.1234 -2.3398
 3093SOL    HW220742   2.365   4.536   1.314 -1.2432 -0.2498  1.3716
 3094SOL     OW20743   1.961   1.438   1.767  0.2604  0.6391 -0.3163
 3094SOL    HW120744   1.952   1.529   1.739 -1.0768  0.7184  0.3930
 3094SOL    HW220745   2.052   1.423   1.741  0.1729  1.6433 -1.2050
 3095SOL     OW20746   4.009   3.784   8.329 -0.2120 -0.1907  0.3532
 3095SOL    HW120747   3.954   3.862   8.331  0.1053  0.0107  1.3077
 3095SOL    HW220748   4.088   3.810   8.376  0.6219 -2.8044  0.3959
 3096SOL     OW20749   3.005   3.889   1.500  0.2119  1.1855 -0.7863
 3096SOL    HW120750   3.091   3.929   1.486  0.6434  0.8209  0.8632
 3096SOL    HW220751   3.028   3.802   1.533 -0.9080  0.8705 -0.8441
 3097SOL     OW20752   0.289   3.586  15.824 -0.0696  0.4399  0.0445
 3097SOL    HW120753   0.339   3.613  15.747 -0.2946 -0.3040 -0.3705
 3097SOL    HW220754   0.294   3.657  15.888  3.1460 -0.9246  1.3308
 3098SOL     OW20755   0.327   0.031   5.533 -0.3143  0.0555 -0.0527
 3098SOL    HW120756   0.415   0.065   5.548 -1.0456  1.4067  1.1495
 3098SOL    HW220757   0.314   0.022   5.628  0.7193  1.2843  0.2052
 3099SOL     OW20758   3.649   2.082   7.681 -0.4514 -0.0969 -0.3907
 3099SOL    HW120759   3.665   2.016   7.614 -1.1830  1.2413 -1.8744
 3099SOL    HW220760   3.725   2.084   7.739 -0.1164  1.0589 -0.8575
 3100SOL     OW20761   0.853   0.461   6.333 -0.3091  0.3064 -0.5072
 3100SOL    HW120762   0.906   0.495   6.261  0.8937 -1.6042 -0.5383
 3100SOL    HW220763   0.897   0.492   6.412  0.2184 -0.7877 -0.3664
 3101SOL     OW20764   3.697   3.611   7.663 -0.4052 -0.1705 -0.4701
 3101SOL    HW120765   3.601   3.601   7.666 -0.2146 -1.9977 -0.6414
 3101SOL    HW220766   3.729   3.522   7.659 -1.3514 -0.5443  0.1215
 3102SOL     OW20767   2.773   1.940   8.778  0.4152  0.1250  0.1972
 3102SOL    HW120768   2.839   2.005   8.802  1.0643 -0.4881  0.0834
 3102SOL    HW220769   2.699   1.997   8.802 -0.9413 -1.6870  0.2960
 3103SOL     OW20770   3.031   4.383  10.400  1.0421  0.3318  0.0631
 3103SOL    HW120771   3.012   4.477  10.409 -2.8439 -0.6077  1.3007
 3103SOL    HW220772   3.107   4.381  10.458  1.2613  1.1440 -0.1869
 3104SOL     OW20773   4.689   0.775   2.270  0.5183  0.2480  0.3616
 3104SOL    HW120774   4.717   0.697   2.223  0.1148 -0.4042  1.2022
 3104SOL    HW220775   4.715   0.756   2.360  1.8853 -1.5110 -0.4021
 3105SOL     OW20776   4.426   1.727   4.887 -0.3582 -1.0744  0.2631
 3105SOL    HW120777   4.410   1.633   4.885 -3.3418 -0.5651  0.6627
 3105SOL    HW220778   4.419   1.743   4.981 -0.7744 -2.1767  0.4093
 3106SOL     OW20779   4.275   4.023   0.093 -0.7405 -0.3816 -0.0058
 3106SOL    HW120780   4.246   4.092   0.033  0.9127  1.6892  1.5711
 3106SOL    HW220781   4.227   4.050   0.171  1.1450 -2.2734  1.8242
 3107SOL     OW20782   0.733   1.892   0.305  0.4770 -0.3669 -0.3192
 3107SOL    HW120783   0.715   1.970   0.253 -0.2701  0.2397  0.8589
 3107SOL    HW220784   0.662   1.831   0.285  0.3712 -0.0887 -0.7785
 3108SOL     OW20785   1.661   0.850   9.289 -0.4427 -0.0084 -0.6406
 3108SOL    HW120786   1.623   0.931   9.322  0.9831  0.1833  0.4853
 3108SOL    HW220787   1.651   0.860   9.194 -0.2937 -0.3392 -0.6901
 3109SOL     OW20788   1.588   3.177   3.921  0.0654  0.1069 -0.8229
 3109SOL    HW120789   1.558   3.142   3.837 -0.8472 -0.3058 -0.3248
 3109SOL    HW220790   1.633   3.256   3.890  1.8495 -0.3847  0.4813
 3110SOL     OW20791   4.027   1.045  10.727 -0.5738 -0.4008 -0.1100
 3110SOL    HW120792   3.932   1.041  10.741 -0.6544 -0.9082 -0.8096
 3110SOL    HW220793   4.030   1.008  10.639 -0.5756  0.6189 -0.5365
 3111SOL     OW20794   1.151   2.932   8.583  0.6317 -0.2389  0.6246
 3111SOL    HW120795   1.187   2.850   8.549 -0.9543 -0.5435 -0.2715
 3111SOL    HW220796   1.223   2.965   8.637 -0.1372 -1.4966  2.3964
 3112SOL     OW20797   4.530   1.654  14.742  0.0712  0.0596  0.8233
 3112SOL    HW120798   4.457   1.705  14.706 -0.8284 -1.4472  0.5240
 3112SOL    HW220799   4.500   1.568  14.769  3.3111 -1.5022 -0.6094
 3113SOL     OW20800   0.116   1.878   7.425  0.1535  0.4925 -0.1537
 3113SOL    HW120801   0.045   1.823   7.393  1.1476 -0.9998  0.1910
 3113SOL    HW220802   0.095   1.864   7.517  1.6272 -0.8315 -0.0090
 3114SOL     OW20803   2.403   4.148   7.505  0.0705 -0.2065 -0.1600
 3114SOL    HW120804   2.444   4.233   7.486  1.4024 -0.6643  0.6197
 3114SOL    HW220805   2.312   4.163   7.482  0.6658  0.4137 -2.0668
 3115SOL     OW20806   1.053   0.810   0.084 -0.9109  0.4709  0.1389
 3115SOL    HW120807   0.992   0.764   0.140  0.2312  0.3727  1.2979
 3115SOL    HW220808   1.137   0.769   0.103 -1.0933  0.2941  0.5549
 3116SOL     OW20809   2.547   3.352  11.691 -0.0114 -0.4595  0.3378
 3116SOL    HW120810   2.634   3.388  11.711 -0.4564  1.9127 -1.9190
 3116SOL    HW220811   2.536   3.376  11.599 -1.0137  0.6343  0.7391
 3117SOL     OW20812   4.206   2.688  16.583 -0.8530 -0.1082 -0.3003
 3117SOL    HW120813   4.241   2.742  16.513 -1.6288 -1.3298 -1.6242
 3117SOL    HW220814   4.225   2.599  16.553 -0.9086  0.0528 -0.7996
 3118SOL     OW20815   3.770   1.486  15.128 -0.3556 -0.0375  0.4243
 3118SOL    HW120816   3.775   1.413  15.190  2.3283  1.5655  2.0891
 3118SOL    HW220817   3.825   1.553  15.168 -0.6767 -0.2934  1.3017
 3119SOL     OW20818   2.351   0.019   5.105 -0.4119 -0.1977 -0.3322
 3119SOL    HW120819   2.393   0.088   5.156  1.7786 -0.1671 -2.1106
 3119SOL    HW220820   2.430   4.691   5.094 -2.1394 -2.5492 -1.2906
 3120SOL     OW20821   2.727   2.951   2.109 -0.1344 -0.2682 -0.0477
 3120SOL    HW120822   2.794   2.926   2.173  0.5228  0.9516 -0.2492
 3120SOL    HW220823   2.698   3.038   2.135 -1.5868 -0.6940 -0.2368
 3121SOL     OW20824   4.180   3.604   5.192 -0.0537  0.2646  0.0649
 3121SOL    HW120825   4.257   3.621   5.247  0.1878 -0.1862 -0.1393
 3121SOL    HW220826   4.114   3.654   5.239  0.6346  0.4001  0.8972
 3122SOL     OW20827   0.488   4.415   7.570 -0.5099 -0.5133  0.1563
 3122SOL    HW120828   0.547   4.341   7.556  1.5213  0.2660  4.6284
 3122SOL    HW220829   0.541   4.486   7.534  0.3130 -0.1376  2.1319
 3123SOL     OW20830   0.152   2.881   8.418 -0.4551  0.1093  0.3867
 3123SOL    HW120831   0.114   2.805   8.374 -0.8298  2.4845 -3.4168
 3123SOL    HW220832   0.110   2.950   8.368 -1.3712 -1.4160 -0.9408
 3124SOL     OW20833   2.890   2.048   3.270  0.9250 -0.0048 -0.0949
 3124SOL    HW120834   2.910   2.035   3.177  0.9681  1.1308 -0.2404
 3124SOL    HW220835   2.813   2.105   3.273  0.2318 -0.9261 -0.5417
 3125SOL     OW20836   0.672   1.418   5.060  0.0296 -0.3896 -0.1083
 3125SOL    HW120837   0.741   1.426   5.126 -0.0460 -1.0485  0.0581
 3125SOL    HW220838   0.719   1.405   4.978 -0.9332  0.1723 -0.7488
 3126SOL     OW20839   3.219   1.971  15.076  0.1039  0.0177 -0.5994
 3126SOL    HW120840   3.162   2.009  15.010 -0.0043 -0.4683 -0.7863
 3126SOL    HW220841   3.284   1.921  15.025  1.3995  0.2721  0.7898
 3127SOL     OW20842   4.614   3.037   0.659  0.1055 -0.3710 -0.0227
 3127SOL    HW120843   4.638   3.114   0.607 -2.9853  0.3181 -0.4341
 3127SOL    HW220844   4.694   3.033   0.713 -0.9488  0.9953  1.6490
 3128SOL     OW20845   3.961   1.543   2.798 -0.1989 -0.3359 -0.4801
 3128SOL    HW120846   3.917   1.513   2.878  0.6261 -1.4480 -0.4431
 3128SOL    HW220847   3.946   1.638   2.798  1.2131 -0.1083  0.6151
 3129SOL     OW20848   4.081   0.284   7.518  0.3812 -0.0966  0.4029
 3129SOL    HW120849   4.037   0.369   7.524  0.4304 -0.1343  1.2473
 3129SOL    HW220850   4.074   0.268   7.424 -0.1400  0.7650  0.2874
 3130SOL     OW20851   1.710   1.217   2.537 -0.6092  0.1637  0.1412
 3130SOL    HW120852   1.666   1.211   2.452 -1.9546 -1.2833  0.9274
 3130SOL    HW220853   1.642   1.238   2.601 -1.5552 -1.3561 -0.3537
 3131SOL     OW20854   2.322   2.372  10.494 -0.3691 -0.3238 -0.1061
 3131SOL    HW120855   2.359   2.448  10.449 -0.2351  1.0756  2.3966
 3131SOL    HW220856   2.258   2.337  10.432  0.5873  0.9592 -1.8423
 3132SOL     OW20857   1.850   3.441   3.429  0.6772 -0.1043  0.8565
 3132SOL    HW120858   1.838   3.482   3.343  1.6786 -0.7841  0.3917
 3132SOL    HW220859   1.769   3.468   3.471 -0.0775  0.4925 -0.9548
 3133SOL     OW20860   4.513   2.391   7.534 -0.4341  0.0882 -0.6316
 3133SOL    HW120861   4.457   2.420   7.461 -3.7064 -1.6200  1.2089
 3133SOL    HW220862   4.478   2.303   7.547 -0.3302  0.1443  0.0357
 3134SOL     OW20863   3.375   0.335   3.127 -0.1552 -0.2200  0.5018
 3134SOL    HW120864   3.447   0.329   3.065 -1.0044  0.4293 -0.5278
 3134SOL    HW220865   3.375   0.254   3.179 -1.0179  0.3403  1.3738
 3135SOL     OW20866   2.229   1.813   4.080  0.5103 -0.4232  0.2986
 3135SOL    HW120867   2.213   1.903   4.050 -0.1714 -0.1880  1.3695
 3135SOL    HW220868   2.190   1.820   4.167 -1.8522  2.0979 -0.9546
 3136SOL     OW20869   3.214   2.430   4.535 -0.2066  0.0784  0.0669
 3136SOL    HW120870   3.244   2.339   4.541 -1.8241 -0.4822 -0.2769
 3136SOL    HW220871   3.253   2.440   4.448  2.2984  1.9979  1.4393
 3137SOL     OW20872   2.575   1.164   8.599  0.2277  0.0739  0.5812
 3137SOL    HW120873   2.510   1.094   8.595 -0.1322  0.4240  0.3072
 3137SOL    HW220874   2.653   1.112   8.618  1.1926  0.7894 -1.4238
 3138SOL     OW20875   3.924   2.425  17.139  0.4091  0.1335 -0.6288
 3138SOL    HW120876   4.004   2.448  17.187  0.5511 -1.0183 -0.2956
 3138SOL    HW220877   3.957   2.368  17.070 -1.2391 -1.7183  0.0976
 3139SOL     OW20878   4.170   0.311   4.045 -0.1659  0.4322 -0.5998
 3139SOL    HW120879   4.136   0.241   4.101  3.5807 -0.1069  0.9795
 3139SOL    HW220880   4.218   0.269   3.973  1.9366  0.9204  0.5260
 3140SOL     OW20881   1.250   2.516   8.755  0.0604  0.0738 -0.3588
 3140SOL    HW120882   1.178   2.544   8.811  0.9969 -2.7473  2.3137
 3140SOL    HW220883   1.251   2.577   8.682  2.2131  0.1307 -0.2931
 3141SOL     OW20884   3.925   1.463   5.784 -0.1030  0.1478  0.8645
 3141SOL    HW120885   3.982   1.388   5.804  0.4131  0.6912  1.4224
 3141SOL    HW220886   3.941   1.474   5.691  1.0557  2.8204  1.3747
 3142SOL     OW20887   0.431   1.032   8.032 -0.0485  0.0433  0.1253
 3142SOL    HW120888   0.503   0.969   8.029 -1.8439 -1.9798 -1.0410
 3142SOL    HW220889   0.421   1.060   8.123 -2.2144  0.0570 -0.1220
 3143SOL     OW20890   3.728   1.697   4.318  0.3836  0.3590  0.3535
 3143SOL    HW120891   3.758   1.611   4.287  3.1514  1.5392 -0.2063
 3143SOL    HW220892   3.684   1.660   4.395  0.4039  0.7293  0.5421
 3144SOL     OW20893   4.230   0.461   3.489 -0.4261 -0.5948  0.0703
 3144SOL    HW120894   4.157   0.404   3.512 -0.0799 -1.7324 -1.6563
 3144SOL    HW220895   4.186   0.519   3.426 -0.7558 -0.4688  0.4137
 3145SOL     OW20896   1.528   4.326   3.504  0.2680 -0.0638  0.3634
 3145SOL    HW120897   1.604   4.345   3.448 -0.3474  2.1175  0.2958
 3145SOL    HW220898   1.495   4.246   3.464 -0.2634 -0.0328  0.7482
 3146SOL     OW20899   1.913   0.356   7.001  0.0435  0.6106 -0.1519
 3146SOL    HW120900   1.970   0.298   7.051 -0.2943  0.6749  0.2957
 3146SOL    HW220901   1.960   0.434   7.031  0.3550  0.8331 -1.1999
 3147SOL     OW20902   3.406   0.850  16.278  0.2509  0.0174 -0.1507
 3147SOL    HW120903   3.349   0.927  16.276 -0.4560 -0.5413 -1.4614
 3147SOL    HW220904   3.406   0.823  16.370  0.1184  1.3647  0.2414
 3148SOL     OW20905   3.324   2.224  17.003  0.1218 -0.3106 -0.1265
 3148SOL    HW120906   3.385   2.298  16.995  0.2890 -0.3225  1.0009
 3148SOL    HW220907   3.243   2.264  16.972 -0.1476 -0.4328  0.4319
 3149SOL     OW20908   3.489   3.836  17.529  0.0381 -0.1011 -0.3605
 3149SOL    HW120909   3.438   3.772  17.577  1.0224  0.5488  1.5568
 3149SOL    HW220910   3.564   3.856  17.586 -1.1330 -1.6874  1.7064
 3150SOL     OW20911   2.035   0.718   7.512 -0.6223 -0.3604  0.3368
 3150SOL    HW120912   2.031   0.813   7.503  1.1194 -0.2366  0.8465
 3150SOL    HW220913   1.965   0.700   7.575 -0.8720  2.2216  0.7617
 3151SOL     OW20914   3.915   2.254   6.415 -0.0503  0.0382  0.2548
 3151SOL    HW120915   3.828   2.222   6.391 -0.0476  0.0986  0.1647
 3151SOL    HW220916   3.893   2.342   6.445  1.5873  1.1067 -1.6859
 3152SOL     OW20917   4.015   3.197   9.486  0.4020 -0.1150 -0.2462
 3152SOL    HW120918   4.092   3.162   9.532 -0.1177 -0.2508  0.5238
 3152SOL    HW220919   4.039   3.288   9.465 -0.0425  0.0724  0.0702
 3153SOL     OW20920   0.829   0.575  11.069  0.1649 -0.0657  0.3245
 3153SOL    HW120921   0.890   0.571  10.996  0.5185 -1.0215  0.6633
 3153SOL    HW220922   0.791   0.487  11.074  1.4122 -0.5106  2.2830
 3154SOL     OW20923   3.984   0.047   6.002  0.4701  0.2665 -0.3561
 3154SOL    HW120924   3.966   0.108   5.930 -0.4009 -1.6461 -1.7543
 3154SOL    HW220925   4.070   0.084   6.023  0.2509  1.9874 -2.4901
 3155SOL     OW20926   2.553   2.286   9.269  0.1377  0.4387  0.0826
 3155SOL    HW120927   2.488   2.273   9.338 -0.9606 -2.7097 -1.5600
 3155SOL    HW220928   2.598   2.202   9.257 -0.4948  0.1256 -0.0765
 3156SOL     OW20929   4.116   4.608   8.995 -0.3294 -0.5526  0.2640
 3156SOL    HW120930   4.165   4.681   8.958 -4.1212  2.2795  0.8742
 3156SOL    HW220931   4.077   4.660   9.066  0.9826  0.4255  0.2574
 3157SOL     OW20932   4.568   1.170  12.733  0.7723 -1.1179  0.6446
 3157SOL    HW120933   4.581   1.113  12.809  1.9118 -0.5005  0.9261
 3157SOL    HW220934   4.479   1.198  12.752  0.5420 -0.9610 -0.6979
 3158SOL     OW20935   1.479   3.229   0.781  0.1200  0.2946  0.1368
 3158SOL    HW120936   1.457   3.138   0.760 -0.4376  0.6827 -0.9964
 3158SOL    HW220937   1.438   3.265   0.701 -0.7793  0.3366  0.6154
 3159SOL     OW20938   0.372   2.715   8.193  0.2962  0.4803 -0.2364
 3159SOL    HW120939   0.361   2.804   8.158  0.8698 -0.3137 -2.3957
 3159SOL    HW220940   0.295   2.667   8.164 -0.7074  1.5687  0.6103
 3160SOL     OW20941   4.641   4.709  12.446  0.1705  0.1966  0.1581
 3160SOL    HW120942   4.643   0.043  12.521 -0.5465 -1.3467  1.4278
 3160SOL    HW220943   4.712   0.024  12.397  0.2326 -2.6463 -2.1421
 3161SOL     OW20944   1.819   4.369   8.829 -0.3739  0.5737  0.2702
 3161SOL    HW120945   1.841   4.447   8.777  0.1502  0.2343 -0.0199
 3161SOL    HW220946   1.902   4.365   8.877  0.5099 -0.4337 -1.3322
 3162SOL     OW20947   1.681   2.694   5.375  0.3635  0.2173  0.7054
 3162SOL    HW120948   1.650   2.750   5.304  0.6868  0.1921  0.5455
 3162SOL    HW220949   1.775   2.695   5.358  0.6710 -0.0077  2.3897
 3163SOL     OW20950   1.081   1.385  13.039 -0.3931  0.1136 -0.2268
 3163SOL    HW120951   1.028   1.358  12.964 -1.8089 -0.0661  0.8370
 3163SOL    HW220952   1.137   1.307  13.043 -1.9073 -1.0209 -1.4037
 3164SOL     OW20953   0.755   3.464  17.093  0.4555  0.2532 -0.4448
 3164SOL    HW120954   0.697   3.406  17.044  2.4873  0.0336 -2.5695
 3164SOL    HW220955   0.777   3.407  17.167 -0.5449 -1.9978 -1.8524
 3165SOL     OW20956   2.649   4.219  12.042  0.3590  0.4042  0.2119
 3165SOL    HW120957   2.563   4.176  12.040  0.3988  0.3961 -1.0534
 3165SOL    HW220958   2.615   4.308  12.031  1.8337  0.4349 -3.7559
 3166SOL     OW20959   1.645   4.240   5.325 -0.4667  0.2167 -0.0823
 3166SOL    HW120960   1.708   4.174   5.354  0.5297  1.6190  0.9668
 3166SOL    HW220961   1.656   4.232   5.231 -1.2180  1.7796 -0.3049
 3167SOL     OW20962   1.086   2.006  16.639  0.0668 -0.5148  0.5020
 3167SOL    HW120963   1.119   2.079  16.586 -2.1963 -1.2421 -1.8919
 3167SOL    HW220964   1.088   2.049  16.724 -3.1934 -0.3981  0.5093
 3168SOL     OW20965   3.195   3.949  14.676 -0.1996 -0.6483 -0.0412
 3168SOL    HW120966   3.119   3.989  14.720 -2.0479 -2.5099 -1.5633
 3168SOL    HW220967   3.159   3.861  14.666 -1.1627 -0.0617 -1.8657
 3169SOL     OW20968   1.092   0.425   1.783 -0.5051 -0.1712 -0.3367
 3169SOL    HW120969   1.148   0.471   1.846 -0.5296  1.1796 -1.3147
 3169SOL    HW220970   1.101   0.489   1.713 -0.3238 -0.1565 -0.2990
 3170SOL     OW20971   4.205   3.597  15.116 -0.0643 -0.1184  0.2076
 3170SOL    HW120972   4.250   3.597  15.200 -0.3467 -0.5313  0.3542
 3170SOL    HW220973   4.207   3.505  15.090  0.3964 -0.4405  1.3888
 3171SOL     OW20974   1.402   0.194   3.679 -0.1210 -0.2182 -0.1026
 3171SOL    HW120975   1.348   0.164   3.606 -1.2848 -1.5037  1.3033
 3171SOL    HW220976   1.485   0.176   3.635 -0.7195  1.1717 -1.7866
 3172SOL     OW20977   1.209   1.874   7.813  0.0089  0.3093  0.1673
 3172SOL    HW120978   1.305   1.877   7.818  0.1699  1.1482 -3.2080
 3172SOL    HW220979   1.193   1.797   7.758 -0.5191  0.9108 -0.5270
 3173SOL     OW20980   1.816   1.311   9.635  0.1798 -0.2502  0.8789
 3173SOL    HW120981   1.750   1.376   9.657  1.0366  1.1307 -0.5886
 3173SOL    HW220982   1.842   1.349   9.551 -1.8914 -0.4445  0.1380
 3174SOL     OW20983   2.043   1.286   5.978  0.0101  0.3658 -0.7835
 3174SOL    HW120984   1.984   1.357   5.954 -0.1915  0.8851  1.1995
 3174SOL    HW220985   2.099   1.282   5.901  0.3421 -0.3579 -0.5082
 3175SOL     OW20986   1.085   3.138   6.797 -0.0254 -0.6066 -0.3430
 3175SOL    HW120987   0.997   3.153   6.761  0.1937  1.1988 -0.0920
 3175SOL    HW220988   1.132   3.203   6.745 -0.7480  0.5225  0.4304
 3176SOL     OW20989   3.479   3.400   9.581 -0.0204  0.1772 -0.2389
 3176SOL    HW120990   3.484   3.496   9.576 -2.2082  0.2741 -0.9637
 3176SOL    HW220991   3.410   3.370   9.521  0.4715 -2.0264  0.3396
 3177SOL     OW20992   1.988   4.244  11.983  0.1689  0.3215  0.6787
 3177SOL    HW120993   1.988   4.290  12.067  1.2469  0.6450  0.5093
 3177SOL    HW220994   1.923   4.175  11.997 -1.5337  2.2251  2.1028
 3178SOL     OW20995   1.527   1.462  15.299 -0.5005  0.4427 -0.2412
 3178SOL    HW120996   1.542   1.512  15.219  0.7818 -0.3716 -0.5021
 3178SOL    HW220997   1.590   1.390  15.294  0.2953  1.0894  0.6702
 3179SOL     OW20998   4.291   3.410   5.005  1.0497 -0.0129  0.1720
 3179SOL    HW120999   4.288   3.319   5.036  1.8535  0.1690  0.7938
 3179SOL    HW221000   4.249   3.447   5.083  0.2141 -2.0530  0.7115
 3180SOL     OW21001   1.602   1.427  16.467 -0.3381  0.3928 -0.1254
 3180SOL    HW121002   1.623   1.520  16.461  0.5088  0.3988  2.7047
 3180SOL    HW221003   1.681   1.393  16.425 -0.8997 -0.8130 -0.2012
 3181SOL     OW21004   2.361   3.125  15.379  0.5774  0.6076  0.0223
 3181SOL    HW121005   2.298   3.191  15.406  0.1537 -0.2673  1.1801
 3181SOL    HW221006   2.314   3.047  15.407  0.3045  1.3444  1.6150
 3182SOL     OW21007   4.150   0.610   5.259  0.8373 -0.2603  0.1999
 3182SOL    HW121008   4.241   0.618   5.287  1.1614 -1.5346 -0.4797
 3182SOL    HW221009   4.132   0.703   5.250 -0.8462 -0.5340  0.7188
 3183SOL     OW21010   3.393   2.930   2.494  0.1638 -0.0732 -0.6555
 3183SOL    HW121011   3.367   3.016   2.526  0.0784  0.0969 -1.1966
 3183SOL    HW221012   3.486   2.925   2.517  0.2228  1.0580 -0.6394
 3184SOL     OW21013   4.622   3.935   2.497 -0.1473 -0.1279 -0.5281
 3184SOL    HW121014   4.566   4.007   2.526  0.2542 -1.1617  2.7883
 3184SOL    HW221015   4.673   3.924   2.577  2.3313 -1.6375 -2.3183
 3185SOL     OW21016   2.670   2.048   2.140 -0.4005  0.4946  0.3294
 3185SOL    HW121017   2.577   2.058   2.159 -0.5809 -0.4378 -0.0429
 3185SOL    HW221018   2.695   2.140   2.145  0.8567  0.2202 -0.9206
 3186SOL     OW21019   2.284   4.215   9.324 -0.2006  0.1203  0.3235
 3186SOL    HW121020   2.274   4.144   9.260  0.8787  0.4727 -0.2250
 3186SOL    HW221021   2.208   4.201   9.380 -0.2461 -0.2381  0.1768
 3187SOL     OW21022   0.510   2.760  12.199  0.0160 -0.3683 -1.0435
 3187SOL    HW121023   0.526   2.751  12.293 -1.6413  0.2958 -0.7001
 3187SOL    HW221024   0.595   2.725  12.173  0.3621  0.3999 -0.9722
 3188SOL     OW21025   1.932   2.012  14.810 -0.7423 -0.5579  0.1679
 3188SOL    HW121026   1.961   2.082  14.868  0.2432 -1.5849  0.8980
 3188SOL    HW221027   1.925   2.059  14.727  1.5935 -1.1236 -0.3348
 3189SOL     OW21028   2.806   2.984   3.097  0.4233  0.0430 -0.1498
 3189SOL    HW121029   2.766   3.006   3.181  0.4144  0.1858 -0.1927
 3189SOL    HW221030   2.847   3.069   3.082 -2.3253  1.3874  0.0227
 3190SOL     OW21031   3.162   1.906  14.677 -0.0768  0.4121 -0.3165
 3190SOL    HW121032   3.185   1.834  14.618 -2.0508 -0.8902  0.4982
 3190SOL    HW221033   3.145   1.858  14.758 -1.3481  2.5244  0.6632
 3191SOL     OW21034   0.976   1.622   2.558 -0.2918 -0.2197 -0.5777
 3191SOL    HW121035   0.966   1.536   2.598  0.0593 -0.4199 -0.9255
 3191SOL    HW221036   0.960   1.595   2.468  0.3822 -0.4040 -0.6377
 3192SOL     OW21037   3.853   1.054  13.264  0.6400 -0.2200  0.4463
 3192SOL    HW121038   3.764   1.020  13.274  0.9697 -1.4272 -0.6519
 3192SOL    HW221039   3.843   1.124  13.200 -0.3380 -1.4944 -0.7911
 3193SOL     OW21040   4.286   0.894  11.590  0.1117  0.4474 -0.1948
 3193SOL    HW121041   4.376   0.884  11.623  0.3783 -1.1771 -1.3728
 3193SOL    HW221042   4.266   0.801  11.578  1.7258 -0.2581  2.6629
 3194SOL     OW21043   4.355   0.478   4.962  0.0726 -0.0028  0.1250
 3194SOL    HW121044   4.344   0.572   4.979 -0.2803 -0.2851  1.4290
 3194SOL    HW221045   4.312   0.434   5.035 -2.4169  0.5789 -0.9864
 3195SOL     OW21046   4.076   2.109  12.274 -0.0696  0.0920 -0.1496
 3195SOL    HW121047   4.087   2.056  12.195  0.5481 -0.5606  0.3814
 3195SOL    HW221048   3.981   2.108  12.282  0.0523 -0.4722  1.1875
 3196SOL     OW21049   4.358   1.563  11.552 -0.3229  0.3768 -0.1436
 3196SOL    HW121050   4.347   1.479  11.596  2.7115  1.2490  2.2998
 3196SOL    HW221051   4.442   1.561  11.506  0.3881  2.4258  1.0411
 3197SOL     OW21052   2.322   4.398  16.392 -0.2511 -0.0301 -0.0399
 3197SOL    HW121053   2.280   4.484  16.403 -0.1961  0.0660 -0.5901
 3197SOL    HW221054   2.414   4.409  16.415 -0.0684  0.3285 -0.9400
 3198SOL     OW21055   3.752   3.350  12.534 -0.2983 -0.2496  0.2028
 3198SOL    HW121056   3.832   3.343  12.586  0.7612 -0.2650 -1.4433
 3198SOL    HW221057   3.794   3.352  12.449 -0.3381 -0.0540  0.1863
 3199SOL     OW21058   4.611   3.172   4.785  0.0354  0.5977 -0.0718
 3199SOL    HW121059   4.564   3.090   4.770 -0.0882  0.9197 -1.4495
 3199SOL    HW221060   4.624   3.202   4.695 -2.5304  0.6725 -0.4051
 3200SOL     OW21061   1.492   0.023   6.774  0.0458  0.3130 -0.0366
 3200SOL    HW121062   1.432   0.086   6.814 -0.1745 -1.1421  1.9117
 3200SOL    HW221063   1.463   0.034   6.683 -0.3297 -0.8914 -0.0606
 3201SOL     OW21064   4.646   3.563   7.063  0.0983  0.2738 -0.5460
 3201SOL    HW121065   4.712   3.533   7.126 -0.7242  0.7170  0.5292
 3201SOL    HW221066   4.699   3.611   7.000  0.0152  1.4728  0.3110
 3202SOL     OW21067   1.001   1.556  16.084 -0.8794 -1.0402 -0.8403
 3202SOL    HW121068   0.933   1.614  16.048 -0.4831 -1.3002 -2.0223
 3202SOL    HW221069   1.078   1.589  16.038 -0.3384 -0.8518  0.2060
 3203SOL     OW21070   3.880   1.007   5.833 -0.1646 -1.0256  0.3286
 3203SOL    HW121071   3.887   1.051   5.748  1.2471  3.2290  2.6281
 3203SOL    HW221072   3.863   0.914   5.817 -3.6124 -0.8820  3.0578
 3204SOL     OW21073   0.476   1.229   3.354  0.5756  0.5283  0.4101
 3204SOL    HW121074   0.408   1.296   3.352  1.6208  1.6542  2.6361
 3204SOL    HW221075   0.464   1.188   3.268  1.1304  0.3258  0.4302
 3205SOL     OW21076   3.915   1.627  11.887 -0.0784 -0.3170 -0.0416
 3205SOL    HW121077   4.006   1.650  11.871  0.4011 -1.0714  1.5273
 3205SOL    HW221078   3.907   1.651  11.980 -0.9696 -0.2678 -0.1275
 3206SOL     OW21079   3.643   3.322   7.622  0.4056  0.6564  0.3883
 3206SOL    HW121080   3.560   3.276   7.636  0.5148  0.0401 -0.9750
 3206SOL    HW221081   3.698   3.263   7.673  0.6733  1.3038  0.8422
 3207SOL     OW21082   2.807   1.537   2.535 -0.2611 -0.1656  0.3986
 3207SOL    HW121083   2.821   1.565   2.444 -1.7836  2.0021  0.8350
 3207SOL    HW221084   2.886   1.485   2.552 -0.5714 -0.5651  0.6215
 3208SOL     OW21085   2.054   3.841   9.316 -0.4032 -0.0996  0.0050
 3208SOL    HW121086   1.961   3.848   9.337  0.1056  1.6778  1.7292
 3208SOL    HW221087   2.044   3.854   9.222  1.4844  1.2094 -0.0098
 3209SOL     OW21088   4.168   3.112   2.762 -0.0669 -0.1128 -0.2727
 3209SOL    HW121089   4.207   3.187   2.717 -0.4747  0.8344  0.9583
 3209SOL    HW221090   4.252   3.076   2.790 -0.5842 -0.3838  0.9300
 3210SOL     OW21091   3.880   1.791   6.905 -0.1328 -0.2532  0.1716
 3210SOL    HW121092   3.829   1.713   6.883 -0.2826 -0.5515  1.5684
 3210SOL    HW221093   3.938   1.790   6.828  0.9022  1.1620  0.9267
 3211SOL     OW21094   4.041   2.507   2.372  0.1721 -0.5422  0.0963
 3211SOL    HW121095   3.976   2.465   2.316 -0.1467  0.3649 -0.2062
 3211SOL    HW221096   3.999   2.590   2.394 -1.8139 -1.3513 -0.7224
 3212SOL     OW21097   3.275   4.332  11.673 -0.1106  0.5509  0.4251
 3212SOL    HW121098   3.191   4.374  11.692 -0.4353  0.2667 -0.3961
 3212SOL    HW221099   3.251   4.253  11.625  0.5844  1.0751 -0.7680
 3213SOL     OW21100   3.528   1.863   8.244 -0.0083  0.1266  0.8447
 3213SOL    HW121101   3.574   1.877   8.161 -0.7626 -0.0478  0.3934
 3213SOL    HW221102   3.442   1.832   8.214  1.5747 -3.1199 -0.2699
 3214SOL     OW21103   4.057   1.924  11.585  0.0940 -0.2994  0.1391
 3214SOL    HW121104   4.058   2.015  11.557 -2.6288  0.0008  1.0903
 3214SOL    HW221105   3.981   1.919  11.643  0.2314 -1.9247  0.1708
 3215SOL     OW21106   1.510   3.357   5.428  0.1244  0.3736 -0.0114
 3215SOL    HW121107   1.465   3.296   5.486  1.9820 -1.2005 -0.2170
 3215SOL    HW221108   1.568   3.305   5.371  0.4393  1.2993 -0.5303
 3216SOL     OW21109   1.261   2.348  10.847  0.1567  0.1840  0.1516
 3216SOL    HW121110   1.332   2.284  10.857 -0.0430 -0.0099  0.2944
 3216SOL    HW221111   1.302   2.410  10.786  0.0232 -2.4704 -2.6198
 3217SOL     OW21112   2.097   1.946   4.531  0.0341  0.4510  0.0878
 3217SOL    HW121113   2.125   2.028   4.490 -0.9454 -0.2979 -2.0384
 3217SOL    HW221114   2.016   1.924   4.485  0.8919  0.2115 -1.2939
 3218SOL     OW21115   1.849   2.671   7.608 -0.3480  0.1432  0.3238
 3218SOL    HW121116   1.874   2.733   7.540  1.8169 -3.9013 -2.5547
 3218SOL    HW221117   1.845   2.594   7.551  0.0292 -0.1469  0.6832
 3219SOL     OW21118   1.310   2.570  16.672  0.5776 -0.1997 -0.0677
 3219SOL    HW121119   1.258   2.575  16.753  0.5634 -1.5846 -0.0014
 3219SOL    HW221120   1.257   2.617  16.608  0.9102  1.2515  0.7163
 3220SOL     OW21121   3.435   2.812   7.649  0.0905  0.0931 -0.8995
 3220SOL    HW121122   3.481   2.739   7.690  0.3670  0.8180  0.0804
 3220SOL    HW221123   3.494   2.886   7.660 -0.8008  0.8174 -0.9988
 3221SOL     OW21124   1.257   3.117   1.203 -0.1634 -0.3567 -0.7334
 3221SOL    HW121125   1.282   3.209   1.210 -2.3269  0.4021 -3.0729
 3221SOL    HW221126   1.331   3.087   1.151 -1.2712  0.4315 -2.7765
 3222SOL     OW21127   2.071   4.603   6.708 -0.0928 -0.2185 -0.1242
 3222SOL    HW121128   2.108   4.566   6.789 -4.6348  0.6158  2.3540
 3222SOL    HW221129   2.038   4.689   6.735  1.5483  0.6331 -0.8498
 3223SOL     OW21130   2.190   4.487   6.914 -0.4052 -0.2736 -0.3512
 3223SOL    HW121131   2.257   4.519   6.975  0.8038  0.4953 -2.0803
 3223SOL    HW221132   2.212   4.394   6.917 -1.1529 -0.5185 -2.2023
 3224SOL     OW21133   1.309   4.123   2.387 -0.1131  0.1404 -0.5967
 3224SOL    HW121134   1.248   4.195   2.403  1.2102  0.7031  1.8911
 3224SOL    HW221135   1.315   4.083   2.473 -0.0135 -0.4443 -0.8785
 3225SOL     OW21136   2.936   2.926   4.740  0.5610  0.4257  0.1658
 3225SOL    HW121137   2.932   2.830   4.745  4.3741  0.2460  0.0733
 3225SOL    HW221138   3.016   2.931   4.793  1.1233  1.8403 -0.8086
 3226SOL     OW21139   0.826   0.279   6.082 -0.0291  0.4371  0.0674
 3226SOL    HW121140   0.886   0.219   6.126 -0.8040  0.3051  0.9261
 3226SOL    HW221141   0.880   0.314   6.011 -0.0084 -0.1349 -0.2033
 3227SOL     OW21142   4.100   2.338   5.139  0.4446 -0.0355 -0.3276
 3227SOL    HW121143   4.189   2.317   5.110  1.4174  3.1610  0.3118
 3227SOL    HW221144   4.077   2.405   5.074  0.1895 -0.5748 -0.7914
 3228SOL     OW21145   0.051   0.383   1.032  0.3390  0.3214 -0.1614
 3228SOL    HW121146   0.071   0.470   1.065  0.0797  1.1559 -2.1900
 3228SOL    HW221147   0.001   0.404   0.953  0.8573  1.0137 -0.3076
 3229SOL     OW21148   3.940   2.660   4.509  0.6410  0.0983 -0.2098
 3229SOL    HW121149   3.887   2.628   4.582 -2.1208  1.2896 -1.6780
 3229SOL    HW221150   3.874   2.684   4.444  0.7552  1.0582  0.0367
 3230SOL     OW21151   3.022   2.400  10.187  0.3308  0.1050  0.1338
 3230SOL    HW121152   2.975   2.392  10.105  0.6219 -0.3015  0.0084
 3230SOL    HW221153   2.965   2.462  10.233 -0.9714 -0.3194 -0.9075
 3231SOL     OW21154   1.781   4.272  16.700  0.6327 -0.4930  0.1251
 3231SOL    HW121155   1.857   4.215  16.692  0.0973 -0.8778 -2.1978
 3231SOL    HW221156   1.764   4.257  16.793 -1.4365 -0.9857 -0.3384
 3232SOL     OW21157   0.411   1.621   6.044 -0.3231 -0.0691 -0.1774
 3232SOL    HW121158   0.316   1.620   6.048 -0.3187 -1.7204 -0.4752
 3232SOL    HW221159   0.429   1.708   6.010 -1.6634  0.5583  0.7266
 3233SOL     OW21160   1.375   2.250   5.286 -0.2188 -0.2825  0.2526
 3233SOL    HW121161   1.463   2.282   5.307  0.7995 -3.3410  0.6918
 3233SOL    HW221162   1.349   2.314   5.220  2.0302 -1.0778 -1.4104
 3234SOL     OW21163   3.048   1.171   9.503  0.4876  0.1344  0.2774
 3234SOL    HW121164   2.967   1.136   9.466  0.9609  1.5167 -2.0494
 3234SOL    HW221165   3.056   1.120   9.584 -0.9758 -0.5657 -0.0131
 3235SOL     OW21166   4.440   3.974   9.381 -0.4862 -0.1500 -0.2107
 3235SOL    HW121167   4.387   4.009   9.453 -1.7527 -0.7657 -0.8347
 3235SOL    HW221168   4.377   3.963   9.310  0.3041 -1.1921 -0.7459
 3236SOL     OW21169   4.094   1.212   8.420 -0.4216  0.0354  0.0823
 3236SOL    HW121170   4.138   1.187   8.339 -0.6971  0.2885 -0.1440
 3236SOL    HW221171   4.165   1.244   8.476  0.3432  0.8255 -1.3517
 3237SOL     OW21172   4.205   0.019  16.701  0.7945 -0.4920 -0.1022
 3237SOL    HW121173   4.294   0.049  16.719  0.1237 -0.0779  2.5923
 3237SOL    HW221174   4.209   4.697  16.618 -0.3286  3.6944 -2.5617
 3238SOL     OW21175   3.382   2.875  12.623  0.4800 -0.0222 -0.1308
 3238SOL    HW121176   3.300   2.848  12.581  1.1462 -1.9247 -0.2161
 3238SOL    HW221177   3.375   2.816  12.698  0.5478 -1.3198 -1.1420
 3239SOL     OW21178   1.737   4.679   6.899  0.4645 -0.0482 -0.5748
 3239SOL    HW121179   1.683   4.601   6.912 -1.2233  0.9030 -1.8904
 3239SOL    HW221180   1.695   4.710   6.818  0.9924 -1.6613 -1.4744
 3240SOL     OW21181   0.634   1.191   1.012  0.3485 -0.4610  0.2007
 3240SOL    HW121182   0.573   1.240   0.956 -2.4324 -2.6093  1.3347
 3240SOL    HW221183   0.578   1.128   1.057  0.2455 -0.1968  0.4398
 3241SOL     OW21184   4.459   1.625   5.525  0.2238 -0.2243  0.1896
 3241SOL    HW121185   4.512   1.685   5.577  0.5143 -1.5331  1.4040
 3241SOL    HW221186   4.532   1.582   5.481  0.4530  0.0655  0.2891
 3242SOL     OW21187   4.664   4.366   6.821  0.2014 -0.3308 -0.5016
 3242SOL    HW121188   4.686   4.448   6.866  0.2849 -0.4099 -0.3993
 3242SOL    HW221189   0.011   4.316   6.857  2.7128  4.5851  1.3020
 3243SOL     OW21190   4.288   2.483  16.233  0.5418 -0.4021  0.0961
 3243SOL    HW121191   4.212   2.427  16.216  0.3951 -0.3122  0.4454
 3243SOL    HW221192   4.356   2.420  16.208  1.3992  2.0131 -3.5866
 3244SOL     OW21193   2.463   1.952   9.839 -0.0013  0.5888  0.2145
 3244SOL    HW121194   2.469   1.908   9.925 -1.5308  0.2844  0.1687
 3244SOL    HW221195   2.517   2.029   9.855  0.4323  0.3776 -0.2451
 3245SOL     OW21196   1.035   1.931  11.477  0.1161 -0.0930 -0.3420
 3245SOL    HW121197   1.075   2.016  11.496 -0.4625  0.0156  0.3724
 3245SOL    HW221198   1.114   1.884  11.452  0.3847  0.9245 -1.4260
 3246SOL     OW21199   4.242   4.042   1.692 -0.3754  0.2825  0.4367
 3246SOL    HW121200   4.248   4.087   1.777  1.1159  0.8310  0.0437
 3246SOL    HW221201   4.215   4.115   1.636  3.2553 -0.0536 -1.7687
 3247SOL     OW21202   2.317   4.231   6.961 -0.2209  0.7252 -0.4630
 3247SOL    HW121203   2.323   4.152   7.015  2.4134  0.2054 -1.4850
 3247SOL    HW221204   2.365   4.194   6.886 -0.5579  0.6982 -0.6621
 3248SOL     OW21205   2.580   0.212   3.260 -0.8741 -0.2120 -0.3159
 3248SOL    HW121206   2.534   0.130   3.240 -1.8332 -0.0261  1.0587
 3248SOL    HW221207   2.628   0.186   3.339 -0.1879  0.4330 -0.5259
 3249SOL     OW21208   0.569   2.037   2.143  0.7125 -0.3620  0.0208
 3249SOL    HW121209   0.522   2.076   2.217 -1.0250  1.1482 -1.8625
 3249SOL    HW221210   0.488   2.006   2.104  1.7638 -2.0301 -0.8456
 3250SOL     OW21211   4.163   2.969   7.601 -0.9916 -0.3177 -0.1583
 3250SOL    HW121212   4.092   2.944   7.542 -2.7898 -0.9213  2.2613
 3250SOL    HW221213   4.242   2.947   7.551  2.0832  2.2533  3.6299
 3251SOL     OW21214   0.547   4.527   6.750 -0.5928 -0.2992  0.2892
 3251SOL    HW121215   0.461   4.497   6.778 -1.0729  0.3825 -0.4681
 3251SOL    HW221216   0.581   4.459   6.692  0.8240  0.6009  0.0643
 3252SOL     OW21217   3.632   0.600   7.380 -0.0530  0.0988 -0.0188
 3252SOL    HW121218   3.611   0.562   7.466  0.4235  1.9942  0.9361
 3252SOL    HW221219   3.565   0.669   7.373 -1.2727 -1.1552 -0.5992
 3253SOL     OW21220   0.708   0.459   6.695 -0.0406 -0.4656  0.4348
 3253SOL    HW121221   0.637   0.488   6.638 -1.5369 -1.4784  1.8130
 3253SOL    HW221222   0.689   0.366   6.687 -1.7236 -0.0997  0.1546
 3254SOL     OW21223   0.670   4.057   5.817  0.0634 -0.5432  0.6429
 3254SOL    HW121224   0.727   4.048   5.740 -0.5061  0.3346  0.1122
 3254SOL    HW221225   0.628   3.971   5.815 -0.2117 -0.3827 -0.8801
 3255SOL     OW21226   1.262   4.470   3.076 -0.2040 -0.1022  0.5281
 3255SOL    HW121227   1.312   4.532   3.022  1.5346 -2.4165 -0.5664
 3255SOL    HW221228   1.320   4.462   3.152 -0.7523 -2.5303  0.6766
 3256SOL     OW21229   3.805   4.702   5.369 -0.2671 -0.0627 -0.4595
 3256SOL    HW121230   3.824   4.646   5.444  0.2930  0.7104 -0.0240
 3256SOL    HW221231   3.881   0.034   5.371 -1.3961  1.3497  0.6434
 3257SOL     OW21232   0.843   3.189  13.220  0.0621 -0.4730 -0.1713
 3257SOL    HW121233   0.835   3.263  13.281 -1.5693 -1.4365  0.7806
 3257SOL    HW221234   0.931   3.155  13.235 -0.5198 -0.6024  2.9227
 3258SOL     OW21235   3.650   2.550   1.783 -0.3738 -0.1962  0.2582
 3258SOL    HW121236   3.668   2.487   1.713  0.5581 -0.7207  0.9669
 3258SOL    HW221237   3.720   2.614   1.768 -0.0389 -0.3881  0.9997
 3259SOL     OW21238   0.730   1.833   0.565  0.2200  0.0229  0.6057
 3259SOL    HW121239   0.744   1.743   0.597  0.5737 -0.2256 -0.2464
 3259SOL    HW221240   0.739   1.834   0.470 -0.9198  4.0968  0.5666
 3260SOL     OW21241   2.081   0.193   9.455  0.5822  0.1638 -0.0709
 3260SOL    HW121242   2.039   0.245   9.524  0.3283 -1.4842  1.0124
 3260SOL    HW221243   2.098   0.112   9.502  2.5449  0.9997  0.6583
 3261SOL     OW21244   1.559   4.636   3.694 -0.2052  0.0797 -0.5610
 3261SOL    HW121245   1.637   4.582   3.698  0.3815  0.9436 -0.4496
 3261SOL    HW221246   1.578   4.692   3.619  0.4675 -0.1208 -0.5369
 3262SOL     OW21247   0.837   0.885   8.886 -0.0190  0.7277 -0.1686
 3262SOL    HW121248   0.920   0.906   8.843  0.2762  0.1396  0.1159
 3262SOL    HW221249   0.879   0.842   8.960 -1.0487  0.2364  0.1348
 3263SOL     OW21250   1.293   0.192   6.849 -0.3292  0.1699 -0.6052
 3263SOL    HW121251   1.285   0.190   6.945  1.6327 -3.8100 -0.5000
 3263SOL    HW221252   1.321   0.280   6.826  0.8860  0.7253  2.9517
 3264SOL     OW21253   2.339   1.384   4.539  0.0058  0.1645 -0.0401
 3264SOL    HW121254   2.317   1.466   4.584  0.2794  0.5366 -0.5752
 3264SOL    HW221255   2.360   1.409   4.449  0.2469 -1.1860 -0.3524
 3265SOL     OW21256   2.722   1.288   8.197 -0.0314  0.1660  0.1761
 3265SOL    HW121257   2.665   1.360   8.171 -0.2982  0.1412  0.6918
 3265SOL    HW221258   2.741   1.262   8.107  1.6687 -1.1841  0.9332
 3266SOL     OW21259   4.165   1.944   5.744  0.4611  0.2052  0.1950
 3266SOL    HW121260   4.081   1.983   5.766 -0.4058 -0.9274 -1.1523
 3266SOL    HW221261   4.136   1.854   5.731 -0.7675  0.7298 -0.7566
 3267SOL     OW21262   0.413   2.929   2.630 -0.1632  0.0249  0.2215
 3267SOL    HW121263   0.413   2.981   2.550 -1.1796  0.5818  0.5866
 3267SOL    HW221264   0.464   2.851   2.605 -1.0832 -0.2750 -0.7412
 3268SOL     OW21265   0.778   1.179   8.652  0.3011 -0.1052 -0.3692
 3268SOL    HW121266   0.691   1.197   8.616 -1.5274  1.5094  4.8386
 3268SOL    HW221267   0.763   1.224   8.735  1.0077  1.0170 -0.8538
 3269SOL     OW21268   3.242   1.068  16.280 -0.0680 -0.0943  0.0039
 3269SOL    HW121269   3.194   1.149  16.298  0.6513 -0.1452  2.2058
 3269SOL    HW221270   3.164   1.019  16.252 -0.0932  0.5451 -1.0167
 3270SOL     OW21271   3.740   0.213   2.426  0.0361  0.0480  0.2215
 3270SOL    HW121272   3.661   0.244   2.472 -1.2203 -0.9516 -1.2513
 3270SOL    HW221273   3.709   0.220   2.336 -0.4749 -0.8676  0.3180
 3271SOL     OW21274   2.284   0.394   0.874  0.5028  0.4177  0.5604
 3271SOL    HW121275   2.296   0.488   0.862 -0.5558  0.6434  1.3486
 3271SOL    HW221276   2.366   0.379   0.921  0.2753 -3.8585 -0.4080
 3272SOL     OW21277   3.521   1.054   1.877  0.1939 -0.2298  0.1608
 3272SOL    HW121278   3.615   1.072   1.874  0.2057 -0.2058  0.7364
 3272SOL    HW221279   3.492   1.145   1.873  2.0243  0.3236 -0.3435
 3273SOL     OW21280   0.196   1.606   1.186  0.0453  0.0163  0.5341
 3273SOL    HW121281   0.149   1.539   1.235 -0.3736  0.2825  0.4992
 3273SOL    HW221282   0.165   1.673   1.247 -1.0387 -0.1966  0.2315
 3274SOL     OW21283   0.868   0.232   2.319 -0.1047 -0.2826 -0.7476
 3274SOL    HW121284   0.846   0.244   2.227 -1.2147  0.5982 -0.3693
 3274SOL    HW221285   0.899   0.142   2.313  0.3848 -0.1636  0.0052
 3275SOL     OW21286   0.469   0.531  13.324 -0.1071  0.2412  0.0380
 3275SOL    HW121287   0.561   0.556  13.338 -0.1137 -0.0116  0.5127
 3275SOL    HW221288   0.461   0.562  13.233 -1.4847  1.2948  0.5266
 3276SOL     OW21289   4.684   2.464   2.868 -0.0576  0.0658  0.1204
 3276SOL    HW121290   4.714   2.426   2.786 -0.1602  1.4314 -0.5484
 3276SOL    HW221291   0.003   2.412   2.934 -3.5439 -1.9600  0.8884
 3277SOL     OW21292   0.811   2.188  12.145 -0.3159  0.1747  0.2499
 3277SOL    HW121293   0.853   2.235  12.217 -1.5941  0.9699  0.4654
 3277SOL    HW221294   0.762   2.262  12.110 -0.2602  0.0841 -0.0203
 3278SOL     OW21295   4.452   2.566   9.324  0.0079  0.4728 -0.0795
 3278SOL    HW121296   4.501   2.513   9.261 -0.8300  1.6583 -1.7351
 3278SOL    HW221297   4.488   2.651   9.299  0.2005 -0.0045 -1.4351
 3279SOL     OW21298   4.359   3.951   5.692  0.1783  0.3609  0.0487
 3279SOL    HW121299   4.304   3.959   5.614 -0.1368 -0.6372  0.1658
 3279SOL    HW221300   4.432   3.896   5.662 -0.8684 -0.9425 -0.0790
 3280SOL     OW21301   4.532   3.836  12.257  0.4567  0.0479  0.2312
 3280SOL    HW121302   4.486   3.755  12.282  0.6849 -0.4330 -0.9125
 3280SOL    HW221303   4.507   3.834  12.165 -0.1298 -2.9569  0.4439
 3281SOL     OW21304   3.207   0.707  14.365  0.7725 -0.6003 -0.4587
 3281SOL    HW121305   3.211   0.623  14.411  0.4073  0.7390  1.9997
 3281SOL    HW221306   3.149   0.682  14.292  1.4523 -0.3962 -1.0651
 3282SOL     OW21307   1.224   3.112   3.392 -0.0166 -0.5548 -0.0921
 3282SOL    HW121308   1.240   3.198   3.432 -1.7058  0.8097 -2.3514
 3282SOL    HW221309   1.132   3.109   3.418 -0.1923  0.4858 -0.5914
 3283SOL     OW21310   3.019   1.759   4.251 -0.1390  0.3891 -0.1380
 3283SOL    HW121311   3.095   1.817   4.256 -1.0137  1.4758  0.6726
 3283SOL    HW221312   2.958   1.803   4.310  0.5046  1.2450 -0.1018
 3284SOL     OW21313   3.822   3.013   3.304 -0.1548 -0.2592 -0.5369
 3284SOL    HW121314   3.739   3.041   3.267  0.5559  0.0115 -1.9083
 3284SOL    HW221315   3.885   3.066   3.255  0.7697  1.1294  2.1175
 3285SOL     OW21316   3.164   3.218  10.369  0.0947  0.2500  0.0649
 3285SOL    HW121317   3.091   3.238  10.428  0.6712  0.5017  0.6924
 3285SOL    HW221318   3.125   3.154  10.309  0.3827 -0.9993  1.2125
 3286SOL     OW21319   2.596   4.238   5.071  0.2437  0.1284  0.6131
 3286SOL    HW121320   2.641   4.161   5.037 -0.6538  0.3578 -1.0869
 3286SOL    HW221321   2.562   4.190   5.146 -0.3394 -2.0430 -1.0605
 3287SOL     OW21322   3.501   0.673   6.792 -1.0760  0.0442 -0.8448
 3287SOL    HW121323   3.444   0.604   6.824 -1.0025  0.0323 -0.7400
 3287SOL    HW221324   3.464   0.683   6.705 -0.2329 -0.2826 -1.2437
 3288SOL     OW21325   4.327   2.731   5.411  0.6307 -0.4733 -0.2756
 3288SOL    HW121326   4.297   2.676   5.483  1.1811 -0.2378  0.1291
 3288SOL    HW221327   4.246   2.763   5.370  0.2689 -0.5016  0.4166
 3289SOL     OW21328   3.616   0.541   8.605  0.8529  0.1509  0.2820
 3289SOL    HW121329   3.711   0.551   8.601  0.8388 -1.1811 -3.9410
 3289SOL    HW221330   3.592   0.631   8.624  1.9854 -0.0075  2.4278
 3290SOL     OW21331   2.474   0.360   2.005 -0.1184 -0.1578  0.0972
 3290SOL    HW121332   2.449   0.268   2.000 -1.3391  0.2107 -0.7203
 3290SOL    HW221333   2.441   0.403   1.925  1.0751 -0.3609 -0.4993
 3291SOL     OW21334   2.819   0.965  10.295  0.7580 -0.1308  0.2322
 3291SOL    HW121335   2.810   0.987  10.388 -0.3926  0.5429 -0.0340
 3291SOL    HW221336   2.906   0.925  10.292 -0.0672 -2.1554  2.4351
 3292SOL     OW21337   2.386   3.708   4.239 -0.1325  0.2221  0.5287
 3292SOL    HW121338   2.316   3.648   4.210 -0.3234 -0.0805  1.5976
 3292SOL    HW221339   2.355   3.791   4.205 -0.3949  0.5868  1.6573
 3293SOL     OW21340   4.358   1.203   8.486 -0.0726  0.1448  0.1497
 3293SOL    HW121341   4.425   1.218   8.419  1.5863  0.6094  1.9240
 3293SOL    HW221342   4.360   1.293   8.517 -0.6396 -1.1735  3.9413
 3294SOL     OW21343   1.811   4.220   9.762 -0.5109  0.2571 -0.4643
 3294SOL    HW121344   1.728   4.198   9.804  0.1969 -2.6851 -0.6744
 3294SOL    HW221345   1.872   4.222   9.835 -1.6330 -0.9025  0.4978
 3295SOL     OW21346   3.966   4.195   6.950 -0.0065 -0.2971  0.5459
 3295SOL    HW121347   3.878   4.167   6.975  0.2263 -2.9373 -1.6439
 3295SOL    HW221348   4.023   4.137   7.001 -1.1175 -1.1105  0.8670
 3296SOL     OW21349   1.978   1.425   8.932  1.1332 -0.0328  0.3899
 3296SOL    HW121350   1.936   1.426   8.846  0.9844  0.9882  0.4709
 3296SOL    HW221351   1.955   1.339   8.965  0.2129  0.8293  1.9566
 3297SOL     OW21352   3.996   2.438   7.483 -0.4118 -0.4226 -0.4169
 3297SOL    HW121353   4.000   2.345   7.459  0.2933  0.2232 -2.8011
 3297SOL    HW221354   4.064   2.445   7.549 -0.6250 -1.4864 -0.0862
 3298SOL     OW21355   4.304   1.197  12.608 -0.0237 -0.5101  0.2636
 3298SOL    HW121356   4.275   1.234  12.525 -1.0646 -1.6721  0.1157
 3298SOL    HW221357   4.390   1.160  12.585  0.5425  1.0076 -0.0775
 3299SOL     OW21358   0.865   0.751  10.296  0.0929 -0.6344  0.5244
 3299SOL    HW121359   0.823   0.749  10.382 -1.2460  0.3087 -0.1064
 3299SOL    HW221360   0.862   0.847  10.288 -1.2472 -0.8520 -1.6281
 3300SOL     OW21361   0.033   3.321   5.146 -0.2792  0.0496  0.0939
 3300SOL    HW121362   0.018   3.257   5.077 -0.1358  1.1148 -0.9160
 3300SOL    HW221363   0.115   3.362   5.118 -0.1232  0.7247  1.5338
 3301SOL     OW21364   2.260   3.245   3.675 -0.0334 -0.1038 -1.1395
 3301SOL    HW121365   2.283   3.271   3.585  0.4236 -0.5490 -1.1560
 3301SOL    HW221366   2.342   3.269   3.718 -1.8951  3.8724  0.1626
 3302SOL     OW21367   0.288   3.618  10.465 -0.2129  0.0865  0.5453
 3302SOL    HW121368   0.199   3.647  10.484 -1.2799 -0.8595 -2.9895
 3302SOL    HW221369   0.297   3.651  10.375  0.8721 -1.5223  0.0399
 3303SOL     OW21370   4.525   0.003   9.087 -0.1417  0.6361 -0.1210
 3303SOL    HW121371   4.572   4.712   9.168  0.9646  0.3126 -0.8263
 3303SOL    HW221372   4.437   0.022   9.119 -0.2539  2.0378 -1.2311
 3304SOL     OW21373   0.194   3.684   1.063 -0.0864  0.2444 -0.0421
 3304SOL    HW121374   0.246   3.741   1.119 -1.5971  0.3800  1.2152
 3304SOL    HW221375   0.187   3.600   1.108  0.8780  0.8211  1.1789
 3305SOL     OW21376   0.697   3.780   7.460 -0.0057 -0.3749  0.2673
 3305SOL    HW121377   0.786   3.786   7.493  0.2521 -0.7391 -0.3663
 3305SOL    HW221378   0.655   3.836   7.526  0.7503  0.1247  0.3241
 3306SOL     OW21379   3.971   1.213  17.389  0.0978 -0.1142  0.1017
 3306SOL    HW121380   3.920   1.246  17.463 -0.9841  1.2908 -1.2924
 3306SOL    HW221381   3.924   1.236  17.310  0.7147 -1.3156 -0.6132
 3307SOL     OW21382   1.079   2.565   3.029  0.9231 -0.3176 -0.0860
 3307SOL    HW121383   1.106   2.521   2.948  2.4577 -0.7002  0.6424
 3307SOL    HW221384   1.029   2.499   3.077  1.8966 -0.5671  0.5716
 3308SOL     OW21385   2.370   2.028   8.223  0.6602  0.3828  0.2509
 3308SOL    HW121386   2.462   2.013   8.244  0.8093 -1.1881 -1.4884
 3308SOL    HW221387   2.322   1.976   8.287  1.8566 -0.6206  0.3360
 3309SOL     OW21388   0.276   0.819   4.306  0.1896 -0.6347  0.2821
 3309SOL    HW121389   0.193   0.777   4.325  0.0501  0.2484  1.5988
 3309SOL    HW221390   0.340   0.749   4.320 -0.7357 -1.5685 -0.2540
 3310SOL     OW21391   1.259   3.958   5.325  0.3247 -0.1794 -0.1831
 3310SOL    HW121392   1.235   3.959   5.232  1.7340 -0.6622 -0.5591
 3310SOL    HW221393   1.174   3.931   5.358 -0.7937 -0.3730 -3.2360
 3311SOL     OW21394   1.833   4.139   0.588  0.4770 -0.1814 -0.1826
 3311SOL    HW121395   1.872   4.052   0.584  1.0048 -0.0575  2.4330
 3311SOL    HW221396   1.819   4.156   0.495  0.2975  1.4964  0.1500
 3312SOL     OW21397   4.107   4.226   3.855  0.0681 -0.6323 -0.0603
 3312SOL    HW121398   4.183   4.177   3.887 -0.3439 -2.1113 -1.3177
 3312SOL    HW221399   4.028   4.190   3.897  0.1817 -2.2702 -1.2241
 3313SOL     OW21400   0.034   1.837   9.370 -0.2482  0.2143 -0.1793
 3313SOL    HW121401   0.107   1.791   9.328 -1.0709 -1.0019 -0.2824
 3313SOL    HW221402   0.019   1.788   9.451 -1.6914 -0.1225 -0.6581
 3314SOL     OW21403   1.161   3.463   7.805 -0.0489  0.3157  0.0803
 3314SOL    HW121404   1.103   3.463   7.881 -1.1223  1.7976 -0.7300
 3314SOL    HW221405   1.108   3.414   7.741  0.3568 -0.4492  0.3288
 3315SOL     OW21406   2.498   1.780   5.082 -0.1614  0.8769 -0.3731
 3315SOL    HW121407   2.473   1.841   5.012  2.2925 -1.3404 -3.1509
 3315SOL    HW221408   2.420   1.725   5.091 -1.5893  2.9920  0.2471
 3316SOL     OW21409   4.486   0.346   3.319 -0.3595 -0.2786 -0.2329
 3316SOL    HW121410   4.424   0.274   3.306 -0.1180 -0.7444  1.1441
 3316SOL    HW221411   4.466   0.409   3.251 -1.2363  0.1199  0.3894
 3317SOL     OW21412   0.411   2.824  14.981  0.3953  0.3652  0.5713
 3317SOL    HW121413   0.457   2.754  15.027  1.1432  0.0595 -0.6526
 3317SOL    HW221414   0.435   2.800  14.891  0.7773 -0.5202  0.9053
 3318SOL     OW21415   1.493   1.011   8.579  0.2402  0.1621 -0.3726
 3318SOL    HW121416   1.478   1.025   8.485  1.4800  0.9956 -0.4324
 3318SOL    HW221417   1.548   0.934   8.591 -1.4368 -0.9218  0.3164
 3319SOL     OW21418   4.270   2.794   3.234 -0.3274 -0.4535 -0.1282
 3319SOL    HW121419   4.217   2.867   3.203 -0.1439  0.1835  1.0666
 3319SOL    HW221420   4.283   2.803   3.329  1.6546 -2.5697 -0.1727
 3320SOL     OW21421   4.317   1.185   0.601 -0.6214 -0.6727  0.8480
 3320SOL    HW121422   4.392   1.244   0.604 -0.6337 -0.5641 -1.1676
 3320SOL    HW221423   4.239   1.240   0.600 -1.8008 -2.3629 -0.1759
 3321SOL     OW21424   4.411   0.291   2.326 -0.2080 -0.4741  0.4508
 3321SOL    HW121425   4.476   0.361   2.320 -1.3079  0.4735 -0.3793
 3321SOL    HW221426   4.444   0.244   2.403 -0.2615 -0.2220  0.6280
 3322SOL     OW21427   0.111   0.510   4.581 -0.2014 -0.8114  0.6956
 3322SOL    HW121428   0.018   0.527   4.597  0.2799 -0.3177  2.9829
 3322SOL    HW221429   0.149   0.593   4.554 -0.8840 -0.3773  1.0919
 3323SOL     OW21430   1.825   4.066   5.422  0.5950 -0.2984  0.1014
 3323SOL    HW121431   1.812   4.033   5.511 -1.1812 -0.1657 -0.1052
 3323SOL    HW221432   1.770   4.006   5.371 -2.3365  0.9012  1.8440
 3324SOL     OW21433   2.495   3.972   7.686  0.1536  0.3185  0.0361
 3324SOL    HW121434   2.510   4.043   7.749  0.7813 -0.0613  0.3201
 3324SOL    HW221435   2.491   4.025   7.607  0.1396 -0.8755 -0.7641
 3325SOL     OW21436   0.419   2.225   7.307  0.2164  0.4806  0.1647
 3325SOL    HW121437   0.411   2.236   7.402 -0.1921 -3.9227  0.6170
 3325SOL    HW221438   0.395   2.133   7.304  1.7494  0.0379  1.8646
 3326SOL     OW21439   1.025   0.520  13.682 -0.0395 -0.9209  0.7087
 3326SOL    HW121440   0.944   0.541  13.728  1.5295 -0.3077  3.1632
 3326SOL    HW221441   1.068   0.605  13.683 -0.9604 -0.4775  2.5389
 3327SOL     OW21442   2.837   3.939   5.734  0.1443 -1.0969  0.0755
 3327SOL    HW121443   2.843   3.978   5.647  2.9022  1.5249  1.4720
 3327SOL    HW221444   2.866   3.848   5.722  2.8263 -0.2186 -0.1211
 3328SOL     OW21445   2.240   4.450   1.127  0.4432 -0.0325  0.3726
 3328SOL    HW121446   2.166   4.470   1.070 -1.4186  0.6828  3.0646
 3328SOL    HW221447   2.249   4.356   1.137  0.7422 -0.1429 -0.9370
 3329SOL     OW21448   2.744   1.947   7.668  0.1862 -0.5239 -0.0377
 3329SOL    HW121449   2.682   1.975   7.736 -0.8243  3.5763 -2.6701
 3329SOL    HW221450   2.691   1.959   7.589 -2.4467 -1.0582  1.6201
 3330SOL     OW21451   4.194   1.638  17.308 -0.7775 -0.0474  0.5011
 3330SOL    HW121452   4.182   1.596  17.393 -0.1721  0.0954  0.6565
 3330SOL    HW221453   4.258   1.707  17.329 -1.6978  0.4334  1.7292
 3331SOL     OW21454   1.834   1.577  13.206 -0.4805 -0.8441 -0.0366
 3331SOL    HW121455   1.903   1.641  13.193  0.1939 -1.6629 -0.4758
 3331SOL    HW221456   1.875   1.493  13.227 -1.1630 -1.3611 -0.7574
 3332SOL     OW21457   3.622   4.191  16.302  0.0269 -0.4408 -0.4270
 3332SOL    HW121458   3.679   4.147  16.239 -0.8590 -1.7172 -0.3316
 3332SOL    HW221459   3.568   4.254  16.255  0.1243 -2.0569 -2.6961
 3333SOL     OW21460   1.434   1.825  12.227  0.2543 -0.2808  0.0923
 3333SOL    HW121461   1.385   1.882  12.286 -1.4276 -1.4682 -0.1582
 3333SOL    HW221462   1.518   1.867  12.208 -0.7053  0.4827 -2.5332
 3334SOL     OW21463   3.848   4.018  13.323  0.2994 -0.1447 -0.0859
 3334SOL    HW121464   3.830   4.021  13.229 -1.9370  0.7348  0.3719
 3334SOL    HW221465   3.782   3.949  13.337  0.9398 -0.1040  3.0509
 3335SOL     OW21466   3.694   0.721   5.138 -0.2266 -0.7698  0.0358
 3335SOL    HW121467   3.703   0.628   5.118  0.4815 -0.1973 -2.2641
 3335SOL    HW221468   3.780   0.743   5.101 -0.2808  0.3577  0.5826
 3336SOL     OW21469   3.494   2.481   0.043  0.0235 -0.9012  0.1055
 3336SOL    HW121470   3.551   2.557   0.032 -0.8832 -0.5555 -2.2957
 3336SOL    HW221471   3.558   2.434   0.097  0.9146  0.3412  0.1242
 3337SOL     OW21472   2.805   3.323  13.843 -0.2572 -0.1651 -0.0639
 3337SOL    HW121473   2.863   3.247  13.853  1.0976  1.1295  1.7440
 3337SOL    HW221474   2.831   3.349  13.755  0.5112 -0.4985  0.0619
 3338SOL     OW21475   4.669   4.283  14.987 -0.4254  0.6190  0.5801
 3338SOL    HW121476   4.704   4.262  15.074  0.7349  1.0933  0.2354
 3338SOL    HW221477   4.623   4.202  14.968 -0.4234  0.2293  2.1768
 3339SOL     OW21478   0.624   3.681  14.109  0.6597  0.6579 -0.4587
 3339SOL    HW121479   0.693   3.676  14.043  0.9295 -1.3609  0.0089
 3339SOL    HW221480   0.657   3.627  14.180 -4.4044 -0.6903  0.8965
 3340SOL     OW21481   0.637   1.803   4.873  0.1549 -0.2510  0.5808
 3340SOL    HW121482   0.731   1.804   4.893 -0.1609  0.4193  2.0031
 3340SOL    HW221483   0.625   1.895   4.896  0.8703 -0.1832  0.6975
 3341SOL     OW21484   4.582   0.853   8.023 -0.1176 -0.2232  0.4120
 3341SOL    HW121485   4.502   0.830   8.070  0.7381 -2.5495  0.7072
 3341SOL    HW221486   4.624   0.906   8.091 -0.7287  1.0330 -0.1957
 3342SOL     OW21487   3.115   0.238   2.271  0.7075 -0.2064 -0.4924
 3342SOL    HW121488   3.085   0.298   2.203 -0.8454  0.6294  0.9321
 3342SOL    HW221489   3.189   0.191   2.233  2.0078  2.1641 -0.9482
 3343SOL     OW21490   2.550   3.417  14.695  0.1962 -0.4054 -0.0788
 3343SOL    HW121491   2.505   3.352  14.640  0.6225  0.5989 -1.6141
 3343SOL    HW221492   2.507   3.501  14.682 -1.0391 -0.8276  1.3144
 3344SOL     OW21493   4.495   2.490   8.237 -0.2036  0.3649 -0.0183
 3344SOL    HW121494   4.470   2.534   8.318  0.2826  2.2650 -0.8853
 3344SOL    HW221495   4.522   2.404   8.267 -0.3536  0.8223  1.4387
 3345SOL     OW21496   1.916   3.803   8.799  0.0211 -0.0043  0.3825
 3345SOL    HW121497   1.826   3.774   8.782 -0.1832  0.0301  1.4414
 3345SOL    HW221498   1.964   3.764   8.725 -0.5476  0.9532 -0.4882
 3346SOL     OW21499   3.244   0.899   6.360 -0.0861  0.0927  0.4085
 3346SOL    HW121500   3.209   0.978   6.320 -0.6715 -0.5926 -0.4130
 3346SOL    HW221501   3.317   0.870   6.305 -0.6446  0.3867 -0.4787
 3347SOL     OW21502   1.240   4.298   1.220  0.0759  0.0418  0.2728
 3347SOL    HW121503   1.174   4.248   1.173  1.8758 -0.5428 -1.6503
 3347SOL    HW221504   1.221   4.388   1.192  1.2688  1.0666  2.7310
 3348SOL     OW21505   2.016   0.566   5.615 -0.0527 -0.1908  0.0858
 3348SOL    HW121506   2.003   0.586   5.707  0.6002  0.5786  0.0075
 3348SOL    HW221507   2.103   0.524   5.611  1.5436  2.9176  2.7061
 3349SOL     OW21508   1.916   1.238   4.139  0.2598 -0.2964  0.6766
 3349SOL    HW121509   2.010   1.256   4.143  0.0441  1.2433 -1.0067
 3349SOL    HW221510   1.910   1.145   4.116  2.4967 -0.4315  0.7172
 3350SOL     OW21511   3.069   0.529  14.170 -0.4908 -1.1907  0.4344
 3350SOL    HW121512   3.059   0.449  14.118 -1.2128 -0.2049 -0.9487
 3350SOL    HW221513   3.001   0.592  14.150  0.4762 -1.0789 -2.5080
 3351SOL     OW21514   3.266   1.961   9.047 -0.0662  0.3929 -0.2817
 3351SOL    HW121515   3.349   1.948   9.001 -0.8840 -2.8762 -0.8313
 3351SOL    HW221516   3.224   1.875   9.038  0.1973  0.0446  1.8871
 3352SOL     OW21517   0.667   3.719  11.133 -1.1363  0.1162 -0.4497
 3352SOL    HW121518   0.598   3.683  11.189  1.4283 -1.7287  1.5317
 3352SOL    HW221519   0.616   3.763  11.066 -1.7090 -1.4982 -1.0738
 3353SOL     OW21520   3.108   3.568   7.017 -0.5863  0.1038 -0.0390
 3353SOL    HW121521   3.019   3.603   7.007  0.4776  3.2716  1.8984
 3353SOL    HW221522   3.098   3.474   7.034 -2.3257  0.2751 -0.1154
 3354SOL     OW21523   0.627   0.265   4.694  0.5458  0.0601 -0.0782
 3354SOL    HW121524   0.651   0.346   4.648 -0.8506  0.3727 -0.2439
 3354SOL    HW221525   0.587   0.228   4.616 -1.4600  1.9422  0.0516
 3355SOL     OW21526   1.477   2.028   2.228 -0.6244  0.2675 -0.4038
 3355SOL    HW121527   1.418   2.102   2.218 -1.0984  0.2965  2.7052
 3355SOL    HW221528   1.520   2.067   2.304  0.6038  0.1321 -1.0185
 3356SOL     OW21529   4.589   0.379   6.733 -0.2375 -0.4051  0.2041
 3356SOL    HW121530   4.571   0.363   6.825  1.4660  2.0730  0.9715
 3356SOL    HW221531   4.674   0.421   6.740  1.6401 -3.9850 -1.0740
 3357SOL     OW21532   1.148   3.928   4.829 -0.4139  0.2402  0.0586
 3357SOL    HW121533   1.172   3.855   4.773  1.7879  1.4673 -0.5996
 3357SOL    HW221534   1.082   3.968   4.772 -1.6320 -1.4154  0.3132
 3358SOL     OW21535   4.058   0.838  10.111  0.2440  0.3657  0.2108
 3358SOL    HW121536   4.148   0.855  10.082  0.0027 -0.8974 -1.2810
 3358SOL    HW221537   4.013   0.918  10.083  0.4446  0.7531  0.9858
 3359SOL     OW21538   4.098   3.596   0.632  0.1088 -0.4992  0.4415
 3359SOL    HW121539   4.148   3.587   0.713 -0.2439  0.5099  0.7822
 3359SOL    HW221540   4.145   3.664   0.584  2.3394 -0.6226  2.4542
 3360SOL     OW21541   0.698   4.394   9.031  0.1429  0.6469  0.1949
 3360SOL    HW121542   0.612   4.351   9.030  1.2426 -1.5395 -0.6702
 3360SOL    HW221543   0.728   4.363   8.945 -2.6489 -0.9727 -0.2014
 3361SOL     OW21544   4.396   3.865   2.327  0.2455 -0.0183 -0.4372
 3361SOL    HW121545   4.345   3.945   2.341 -0.0085 -0.0344 -1.2918
 3361SOL    HW221546   4.469   3.893   2.384 -0.1125  0.2698 -0.1245
 3362SOL     OW21547   1.065   0.765   1.965 -0.0318 -0.4426  0.0244
 3362SOL    HW121548   1.091   0.849   2.005  0.5309 -1.1700  1.2024
 3362SOL    HW221549   1.066   0.790   1.873  0.8962 -0.1107  0.1231
 3363SOL     OW21550   3.365   0.705   4.304  0.2420 -0.4246 -0.0703
 3363SOL    HW121551   3.333   0.655   4.229  1.4369 -0.7097 -0.3940
 3363SOL    HW221552   3.291   0.760   4.328  1.6341  2.1752 -1.7448
 3364SOL     OW21553   3.716   2.594   2.572  0.1497 -0.5971  0.0833
 3364SOL    HW121554   3.694   2.669   2.627 -1.0898 -0.7233 -0.2443
 3364SOL    HW221555   3.800   2.559   2.603 -0.2751  0.3415  2.3247
 3365SOL     OW21556   4.133   2.748  17.380 -0.7343  0.3793  0.3222
 3365SOL    HW121557   4.129   2.726  17.473  1.1113 -4.2127 -0.6610
 3365SOL    HW221558   4.135   2.659  17.344  0.7310  0.9404 -0.9825
 3366SOL     OW21559   3.463   4.204   3.613 -0.0079 -0.2946  0.2404
 3366SOL    HW121560   3.507   4.120   3.626 -0.4788 -0.4288  1.0007
 3366SOL    HW221561   3.524   4.261   3.660  1.5502 -0.9270 -0.9919
 3367SOL     OW21562   2.675   3.400   9.414  0.0290  0.2225  0.6640
 3367SOL    HW121563   2.736   3.344   9.462  0.3151 -0.7398 -0.8220
 3367SOL    HW221564   2.638   3.332   9.358 -0.0663  0.0418  0.9477
 3368SOL     OW21565   3.601   2.804   9.262  0.6454 -0.3399 -0.2161
 3368SOL    HW121566   3.567   2.759   9.339  2.0279 -1.5498 -0.3119
 3368SOL    HW221567   3.531   2.800   9.197  1.2735 -1.2132 -0.8550
 3369SOL     OW21568   4.235   4.005   2.737  0.0107 -0.1936 -0.1067
 3369SOL    HW121569   4.178   3.966   2.671 -0.4182  0.5824 -0.1936
 3369SOL    HW221570   4.297   3.933   2.746  0.6349  0.0950 -1.9192
 3370SOL     OW21571   2.800   2.050   3.641 -0.3796 -0.8741  0.0015
 3370SOL    HW121572   2.878   2.071   3.590 -1.9967 -1.7239 -2.8166
 3370SOL    HW221573   2.734   2.050   3.571 -1.7770 -1.4651  1.3382
 3371SOL     OW21574   2.015   3.115  14.346  0.3055 -0.0963 -0.5389
 3371SOL    HW121575   1.963   3.187  14.310  2.3243  1.9415  0.6226
 3371SOL    HW221576   1.983   3.100  14.434  1.1534 -2.8452 -0.7055
 3372SOL     OW21577   0.377   1.907   3.661  0.0380 -0.4790  0.0992
 3372SOL    HW121578   0.309   1.956   3.617  0.8352  0.5682  0.0365
 3372SOL    HW221579   0.429   1.879   3.586  1.5213 -1.3162  1.4120
 3373SOL     OW21580   1.432   3.709  13.053  0.1331  0.2041  0.5875
 3373SOL    HW121581   1.389   3.710  12.967 -1.6621  1.4947  1.4995
 3373SOL    HW221582   1.391   3.635  13.098  0.6923 -0.9047 -0.6940
 3374SOL     OW21583   1.198   4.321   3.593  0.3756 -0.0737 -0.2169
 3374SOL    HW121584   1.256   4.326   3.669 -0.6647 -2.5243  0.7346
 3374SOL    HW221585   1.205   4.404   3.546  1.2288 -0.1288 -0.1860
 3375SOL     OW21586   2.923   4.291   2.241  0.0313 -0.7872 -0.5678
 3375SOL    HW121587   2.842   4.295   2.190  1.3096  2.8970 -2.2653
 3375SOL    HW221588   2.929   4.196   2.235  4.2497 -0.4730 -1.0591
 3376SOL     OW21589   0.070   3.275   4.251 -0.1051 -0.2466 -0.5156
 3376SOL    HW121590   0.061   3.302   4.159  3.5842 -0.0643 -0.8495
 3376SOL    HW221591   0.022   3.344   4.296  0.3112 -1.5853  1.9635
 3377SOL     OW21592   3.495   3.897   3.366  0.2782  0.1069 -0.3811
 3377SOL    HW121593   3.564   3.833   3.386  1.0929  0.0003 -3.6592
 3377SOL    HW221594   3.530   3.960   3.429 -0.0710 -0.8009  0.7216
 3378SOL     OW21595   1.888   1.763   4.473  0.6199 -0.7152  0.2289
 3378SOL    HW121596   1.799   1.741   4.445  1.0646  1.4787 -2.9141
 3378SOL    HW221597   1.941   1.684   4.480 -1.2394 -1.9073  0.8948
 3379SOL     OW21598   2.178   2.126   1.591 -0.0954 -0.4332 -0.4212
 3379SOL    HW121599   2.164   2.124   1.496 -2.9770  0.9027 -0.0305
 3379SOL    HW221600   2.088   2.122   1.621  0.5941 -1.3846  1.5175
 3380SOL     OW21601   3.634   1.100   6.150 -0.0977  0.2176 -0.7210
 3380SOL    HW121602   3.724   1.073   6.171 -0.8356  0.0963  2.3037
 3380SOL    HW221603   3.613   1.146   6.232 -0.1330 -2.0445  0.5416
 3381SOL     OW21604   4.323   2.760  11.928  0.1326  0.6100  0.7730
 3381SOL    HW121605   4.367   2.790  12.007  1.8712  2.1034 -0.7633
 3381SOL    HW221606   4.348   2.667  11.923  0.8930  0.8749 -0.3722
 3382SOL     OW21607   3.042   2.657   7.313 -0.4878 -0.1886  0.4858
 3382SOL    HW121608   3.026   2.736   7.364 -0.1960 -0.4072  0.9152
 3382SOL    HW221609   2.960   2.609   7.325 -0.2389 -1.4493 -2.7743
 3383SOL     OW21610   0.761   1.060   9.089 -0.1858 -0.3829  0.5763
 3383SOL    HW121611   0.669   1.074   9.068 -0.3832  0.4050  2.0168
 3383SOL    HW221612   0.790   0.996   9.024 -1.9526 -1.5761  0.9497
 3384SOL     OW21613   1.068   2.960  16.064 -0.3237 -0.4919  0.0592
 3384SOL    HW121614   1.093   2.917  16.146 -0.6724 -2.8243 -1.0399
 3384SOL    HW221615   1.149   2.940  16.017  0.1499  0.4376  0.4749
 3385SOL     OW21616   4.459   1.580   3.079 -0.7674  0.6040  0.3656
 3385SOL    HW121617   4.379   1.554   3.033 -0.2514  0.5939 -0.5067
 3385SOL    HW221618   4.468   1.671   3.050  2.2282  0.2887  0.2921
 3386SOL     OW21619   4.207   3.263  16.162 -0.5487 -0.4120  0.2106
 3386SOL    HW121620   4.269   3.190  16.164  0.6712  0.7043  2.6972
 3386SOL    HW221621   4.128   3.220  16.130 -0.6668 -0.6727  0.8606
 3387SOL     OW21622   2.397   4.326  11.716 -0.0684 -0.8226  0.3042
 3387SOL    HW121623   2.375   4.415  11.747 -0.0828 -0.8234  0.2960
 3387SOL    HW221624   2.387   4.273  11.795  0.0353  0.8972  1.4929
 3388SOL     OW21625   3.001   4.393  16.494 -0.1200  0.1289  0.5937
 3388SOL    HW121626   3.047   4.365  16.573 -0.7989 -2.4191  0.0888
 3388SOL    HW221627   2.971   4.305  16.474 -0.0737  0.2785 -0.1502
 3389SOL     OW21628   2.280   4.044  16.057  0.2653  0.4543 -0.0721
 3389SOL    HW121629   2.237   3.979  16.000 -0.2484 -1.5110  2.5394
 3389SOL    HW221630   2.211   4.063  16.121  0.8076 -0.8043  0.8984
 3390SOL     OW21631   0.575   3.995   6.951  0.4142 -0.1474  0.0953
 3390SOL    HW121632   0.658   3.978   6.906  0.2899 -1.1178  0.2390
 3390SOL    HW221633   0.589   3.953   7.036  0.7913  0.3843  0.2961
 3391SOL     OW21634   0.584   3.918  12.018  0.3659 -0.3985 -0.1812
 3391SOL    HW121635   0.493   3.896  12.038 -0.1811  1.4236 -0.6622
 3391SOL    HW221636   0.581   3.947  11.927  5.4624 -1.7733 -0.7508
 3392SOL     OW21637   0.303   0.038   4.867 -0.6115 -0.0034 -0.1216
 3392SOL    HW121638   0.340   0.126   4.880 -0.9636  0.0307  0.6772
 3392SOL    HW221639   0.337   4.716   4.943 -0.4428 -0.3426 -0.4153
 3393SOL     OW21640   3.973   2.803  12.907 -0.4012 -0.4214  0.0577
 3393SOL    HW121641   3.969   2.708  12.912  0.9592 -0.5733 -1.7694
 3393SOL    HW221642   3.973   2.826  13.000 -2.1964 -0.9210  0.1792
 3394SOL     OW21643   2.594   1.139  14.536  0.2435  0.1425 -0.2888
 3394SOL    HW121644   2.502   1.116  14.552  0.2780 -0.8836 -1.6360
 3394SOL    HW221645   2.625   1.150  14.626 -1.4647  4.4307 -0.2399
 3395SOL     OW21646   0.954   3.257   0.530 -0.2738  1.0495  0.4320
 3395SOL    HW121647   0.933   3.165   0.544  2.1135  0.2752 -1.1190
 3395SOL    HW221648   0.984   3.277   0.619 -1.9790  1.8069  0.8437
 3396SOL     OW21649   0.073   0.831   9.281 -0.2653  0.5163 -0.3537
 3396SOL    HW121650   0.155   0.801   9.242 -0.2116  0.1881  0.0042
 3396SOL    HW221651   0.030   0.745   9.282 -2.1251  1.4611  0.2431
 3397SOL     OW21652   4.268   1.099   2.551  0.3287  0.2779  0.0837
 3397SOL    HW121653   4.266   1.015   2.504  3.1591 -0.1388  0.7482
 3397SOL    HW221654   4.342   1.136   2.504 -0.3083 -1.1847 -2.0756
 3398SOL     OW21655   4.573   0.552   8.358 -0.2155 -0.4299 -0.2642
 3398SOL    HW121656   4.657   0.596   8.350 -1.8016  2.4602 -1.1011
 3398SOL    HW221657   4.598   0.476   8.410 -1.8051  0.0117  1.1564
 3399SOL     OW21658   2.232   0.504   5.838  0.1727 -0.4527  0.2281
 3399SOL    HW121659   2.191   0.558   5.906  0.4680  0.0154  0.0368
 3399SOL    HW221660   2.161   0.441   5.824  0.4354 -0.2336 -1.9726
 3400SOL     OW21661   4.294   0.482  11.085 -0.0441  0.0919  0.3871
 3400SOL    HW121662   4.264   0.407  11.137 -0.0940 -0.9249 -1.1303
 3400SOL    HW221663   4.354   0.517  11.151 -0.6917  0.3443  0.8371
 3401SOL     OW21664   4.075   0.151   2.830  0.0843 -0.0222 -0.0779
 3401SOL    HW121665   4.084   0.245   2.815 -0.7778 -0.1206 -1.1647
 3401SOL    HW221666   3.980   0.149   2.833  0.1455 -1.6125  0.7151
 3402SOL     OW21667   3.475   2.493   9.094  0.4701 -0.0084  0.2586
 3402SOL    HW121668   3.544   2.547   9.056  1.2480 -2.3365 -1.6108
 3402SOL    HW221669   3.477   2.419   9.033 -1.1765 -2.3671  3.0613
 3403SOL     OW21670   2.837   2.782  12.947 -0.4239 -0.8070 -0.0256
 3403SOL    HW121671   2.895   2.741  13.011  0.2677 -1.6471 -1.1691
 3403SOL    HW221672   2.752   2.749  12.973 -1.1155 -0.4877 -1.8487
 3404SOL     OW21673   0.263   2.392  16.173  0.6681 -0.6243 -0.5462
 3404SOL    HW121674   0.344   2.408  16.125  0.8350  2.9897  0.9326
 3404SOL    HW221675   0.200   2.383  16.101 -0.6470  0.5304  0.4613
 3405SOL     OW21676   3.529   0.795   9.758  0.0493 -0.2991  0.5435
 3405SOL    HW121677   3.576   0.712   9.767 -0.3502 -0.3428  2.4064
 3405SOL    HW221678   3.477   0.795   9.839  2.9455  0.8177  2.4464
 3406SOL     OW21679   0.181   0.678  13.286 -0.3296  0.3416 -0.4008
 3406SOL    HW121680   0.156   0.768  13.267 -0.2891  0.2158 -1.0831
 3406SOL    HW221681   0.224   0.669  13.200 -0.1923  3.3334 -0.6351
 3407SOL     OW21682   2.432   3.714   1.336  0.5468 -0.7806  0.5857
 3407SOL    HW121683   2.498   3.682   1.274  0.0658  1.3205 -1.0144
 3407SOL    HW221684   2.391   3.629   1.352 -1.0910 -0.0807  0.0766
 3408SOL     OW21685   1.761   1.874   4.977  0.3051  0.1635 -0.4323
 3408SOL    HW121686   1.673   1.898   5.005  0.2064 -1.1041  0.3239
 3408SOL    HW221687   1.748   1.883   4.883  0.9048 -1.9379 -0.6965
 3409SOL     OW21688   3.797   0.874   7.823 -0.4754  0.0143  0.1824
 3409SOL    HW121689   3.706   0.897   7.803 -0.3523  1.0752  0.8927
 3409SOL    HW221690   3.781   0.873   7.917 -0.3114 -1.0974  0.2042
 3410SOL     OW21691   2.945   3.863   0.823 -0.1476  0.3895  0.0003
 3410SOL    HW121692   2.934   3.770   0.841  0.4129  0.5245  1.0646
 3410SOL    HW221693   2.858   3.895   0.799 -0.3957  0.7874  1.3973
 3411SOL     OW21694   2.243   1.856   1.885  0.0761  0.4512 -0.1799
 3411SOL    HW121695   2.264   1.939   1.928 -2.6161  1.4449 -0.7779
 3411SOL    HW221696   2.185   1.811   1.947  0.8140  0.2470  0.3596
 3412SOL     OW21697   3.653   4.413   3.722 -0.1780  0.0762  0.0356
 3412SOL    HW121698   3.665   4.491   3.776  2.2934 -0.0394 -0.3232
 3412SOL    HW221699   3.691   4.343   3.776  1.0498 -0.0552 -0.9802
 3413SOL     OW21700   3.512   0.987  13.784  0.1740  0.4778 -0.5644
 3413SOL    HW121701   3.424   0.951  13.772  0.3488 -0.2457  0.3270
 3413SOL    HW221702   3.535   1.004  13.692  1.7596 -0.9628 -0.4279
 3414SOL     OW21703   0.397   2.966   6.865  0.2071 -0.6129  0.4531
 3414SOL    HW121704   0.368   3.045   6.819  2.0596 -0.5524 -0.5903
 3414SOL    HW221705   0.364   2.896   6.809  0.8633 -1.5716  1.2590
 3415SOL     OW21706   3.030   1.664   7.523 -0.6055  0.0938  0.6250
 3415SOL    HW121707   3.034   1.641   7.616 -0.6204 -0.5326  0.4702
 3415SOL    HW221708   3.069   1.751   7.524 -1.7200  0.5716  1.7125
 3416SOL     OW21709   0.953   2.456   1.616 -0.0189 -0.1405  0.3300
 3416SOL    HW121710   1.033   2.446   1.563  0.1139 -0.4359  0.5867
 3416SOL    HW221711   0.990   2.446   1.704  1.9537 -0.1733 -0.4991
 3417SOL     OW21712   3.358   3.462  14.356 -0.0511  0.9654 -0.2606
 3417SOL    HW121713   3.337   3.443  14.265 -0.5551  1.1321 -0.1807
 3417SOL    HW221714   3.385   3.554  14.351 -0.5609  1.0015 -2.3285
 3418SOL     OW21715   2.944   3.216  17.103 -0.2335  0.5367  0.9043
 3418SOL    HW121716   3.002   3.292  17.102 -0.0917  0.4864  3.7116
 3418SOL    HW221717   2.891   3.217  17.023 -2.2557 -1.5394  2.2039
 3419SOL     OW21718   2.705   3.244  14.099 -0.4823  0.3353 -0.0397
 3419SOL    HW121719   2.610   3.234  14.093 -0.6679  2.4285 -0.5380
 3419SOL    HW221720   2.723   3.290  14.017 -1.9793 -1.6915 -1.5227
 3420SOL     OW21721   3.678   1.859  17.657 -0.9267  0.2591  0.4767
 3420SOL    HW121722   3.754   1.892   0.001 -0.5606  0.7182 -0.4029
 3420SOL    HW221723   3.719   1.828  17.576  1.7926 -0.4931  2.1718
 3421SOL     OW21724   0.083   0.844  15.931  0.2491  0.7179 -0.6973
 3421SOL    HW121725   0.049   0.755  15.941  1.5036  0.4593  1.3308
 3421SOL    HW221726   0.095   0.848  15.836 -2.0016  2.3769 -0.9269
 3422SOL     OW21727   2.226   2.390   8.852  0.5286 -0.7027  0.2050
 3422SOL    HW121728   2.244   2.326   8.783  1.3340 -2.5348  2.1119
 3422SOL    HW221729   2.227   2.339   8.933  1.6684 -2.7508 -1.1091
 3423SOL     OW21730   4.246   2.558   5.642 -0.8170 -0.1965  0.5046
 3423SOL    HW121731   4.164   2.509   5.648 -1.1664  0.1633 -1.4627
 3423SOL    HW221732   4.273   2.572   5.733 -2.3346 -1.9696  1.2245
 3424SOL     OW21733   0.678   4.190   8.052 -0.0707  0.0020 -0.1606
 3424SOL    HW121734   0.672   4.172   8.146 -0.2529  0.1847 -0.1364
 3424SOL    HW221735   0.618   4.123   8.020  0.2145 -1.4079  2.2935
 3425SOL     OW21736   4.421   1.341   6.335 -0.4083  0.2033 -0.7205
 3425SOL    HW121737   4.487   1.346   6.266  0.1338 -3.0922 -0.4492
 3425SOL    HW221738   4.343   1.362   6.283  0.1084 -0.7799 -1.8893
 3426SOL     OW21739   0.563   3.149   6.091  0.1744 -0.1136 -0.6611
 3426SOL    HW121740   0.479   3.179   6.124 -1.5221 -2.2831 -2.9322
 3426SOL    HW221741   0.524   3.078   6.039  1.2471 -2.1445  1.2965
 3427SOL     OW21742   1.885   3.839   1.185 -0.3545  0.2153 -0.2745
 3427SOL    HW121743   1.959   3.894   1.157  0.5607 -0.9934 -0.2532
 3427SOL    HW221744   1.816   3.865   1.125 -1.2887 -1.9126 -0.1455
 3428SOL     OW21745   0.081   3.486   5.863 -0.1366  0.0496 -0.3327
 3428SOL    HW121746   0.028   3.432   5.805  1.2676  0.5868 -2.1357
 3428SOL    HW221747   0.017   3.537   5.911 -0.6964  1.1357 -2.2063
 3429SOL     OW21748   3.426   2.997   3.272 -0.7504  0.0799 -0.6334
 3429SOL    HW121749   3.375   2.918   3.289  2.6711 -1.3137  2.9068
 3429SOL    HW221750   3.460   3.008   3.360  0.1967  0.3901 -1.0413
 3430SOL     OW21751   4.590   4.199  10.744 -0.0172 -0.1902 -0.3186
 3430SOL    HW121752   4.568   4.171  10.655 -2.4805 -1.7801  0.7562
 3430SOL    HW221753   4.527   4.270  10.757  0.4848  0.3800 -1.0719
 3431SOL     OW21754   3.099   4.366   4.097  0.3595  0.5282 -0.2201
 3431SOL    HW121755   3.089   4.375   4.002 -0.7555 -1.0037 -0.2540
 3431SOL    HW221756   3.030   4.300   4.111 -0.6870  1.3054 -1.7171
 3432SOL     OW21757   0.902   1.276   8.963 -0.4665  0.1412  0.0961
 3432SOL    HW121758   0.821   1.294   8.917  0.6600  1.5827 -1.3417
 3432SOL    HW221759   0.870   1.305   9.048 -0.3856 -1.0251  0.5262
 3433SOL     OW21760   1.573   1.893   3.015  0.2669 -0.5768  0.4487
 3433SOL    HW121761   1.659   1.887   2.974 -1.4563  0.2640 -3.3011
 3433SOL    HW221762   1.532   1.811   2.989 -2.0090  0.6189  0.2015
 3434SOL     OW21763   4.264   3.345   8.145 -0.0919 -0.5601  0.4685
 3434SOL    HW121764   4.200   3.335   8.215  1.1028 -3.3520  1.1561
 3434SOL    HW221765   4.319   3.418   8.173 -0.3368 -0.8100  1.5911
 3435SOL     OW21766   2.518   4.512   2.096  0.7150 -0.1537  0.0030
 3435SOL    HW121767   2.526   4.503   2.191  2.4790 -2.8742 -0.3954
 3435SOL    HW221768   2.601   4.554   2.073  0.7642 -0.0370  0.3987
 3436SOL     OW21769   4.065   4.711  17.348  0.3271  0.3133  0.0723
 3436SOL    HW121770   4.158   4.723  17.328 -0.2208  0.2486 -2.5070
 3436SOL    HW221771   4.021   0.044  17.286  0.0026  0.3891  0.3723
 3437SOL     OW21772   2.263   3.963   5.435  0.1248  0.7032  0.3222
 3437SOL    HW121773   2.194   4.026   5.454 -0.2591  0.7278 -1.1590
 3437SOL    HW221774   2.215   3.895   5.388 -2.4272  2.0108  1.0799
 3438SOL     OW21775   1.648   4.611   3.055 -0.1253  0.1359 -0.1184
 3438SOL    HW121776   1.705   4.546   3.014  0.0960 -0.8285  1.7372
 3438SOL    HW221777   1.566   4.606   3.006  0.4392 -1.5325 -0.8797
 3439SOL     OW21778   4.103   1.240  13.413  0.0356  0.0431  0.1074
 3439SOL    HW121779   4.169   1.279  13.471  0.9519 -1.4575  0.0862
 3439SOL    HW221780   4.101   1.306  13.343 -0.9877  0.0336  0.1366
 3440SOL     OW21781   1.304   3.109   4.027  0.0534 -0.2861 -0.0975
 3440SOL    HW121782   1.261   3.174   4.083 -1.3235  0.0013 -1.4679
 3440SOL    HW221783   1.354   3.166   3.969  1.6276 -0.4724  1.0619
 3441SOL     OW21784   4.556   4.431   6.580  0.3511 -0.0869  0.3770
 3441SOL    HW121785   4.574   4.381   6.501 -1.4609  0.4891 -0.3924
 3441SOL    HW221786   4.632   4.415   6.636 -1.3687 -2.7607  1.9232
 3442SOL     OW21787   4.554   3.176   8.243 -0.6038  1.0884 -0.4800
 3442SOL    HW121788   4.605   3.257   8.232 -1.2788  1.8672  2.1787
 3442SOL    HW221789   4.465   3.203   8.266 -1.1662 -0.1476 -1.2397
 3443SOL     OW21790   3.593   0.277   4.537  0.4226 -0.0063  0.0219
 3443SOL    HW121791   3.685   0.252   4.524  0.7679  0.3152  1.8723
 3443SOL    HW221792   3.589   0.277   4.632 -1.3675 -0.3979 -0.0608
 3444SOL     OW21793   4.359   0.643  16.565  0.3748  0.3045  0.3667
 3444SOL    HW121794   4.435   0.597  16.601  0.9937  0.9276 -0.1314
 3444SOL    HW221795   4.331   0.579  16.500 -1.1273  0.3894  0.9527
 3445SOL     OW21796   0.159   3.547  12.251  0.1034 -0.4512 -0.0015
 3445SOL    HW121797   0.212   3.532  12.330  0.9779 -0.6286 -0.6303
 3445SOL    HW221798   0.124   3.635  12.264  0.5414 -0.2837  0.0617
 3446SOL     OW21799   2.676   0.351   8.217  0.3047  0.2599  0.2421
 3446SOL    HW121800   2.703   0.416   8.281  0.9366 -0.4122  0.6588
 3446SOL    HW221801   2.749   0.339   8.157 -0.8437 -1.7734 -0.7753
 3447SOL     OW21802   3.764   2.999   2.549  0.2114  0.3409 -0.0164
 3447SOL    HW121803   3.731   2.942   2.619  0.8677 -0.5091 -0.4038
 3447SOL    HW221804   3.771   3.079   2.600 -1.2456  0.4495  0.0249
 3448SOL     OW21805   2.111   3.109  11.795  0.0541  0.5372 -0.0907
 3448SOL    HW121806   2.076   3.195  11.818 -1.5412  0.4105 -1.9778
 3448SOL    HW221807   2.051   3.088  11.723 -2.4594  3.0641  1.2469
 3449SOL     OW21808   2.892   2.608   5.440  0.3989  0.0791  0.2069
 3449SOL    HW121809   2.956   2.588   5.372 -0.9176  0.2701 -1.1090
 3449SOL    HW221810   2.808   2.631   5.400  0.0908 -2.1179 -0.4065
 3450SOL     OW21811   3.314   0.232   9.957  0.0749 -0.0984 -0.2592
 3450SOL    HW121812   3.282   0.285   9.884 -0.1638 -2.4327 -1.8572
 3450SOL    HW221813   3.278   0.144   9.942 -1.1957  0.3817 -0.0906
 3451SOL     OW21814   4.312   2.738  15.297 -0.1121  0.0237  0.5725
 3451SOL    HW121815   4.288   2.654  15.257  1.6675 -0.7928  1.2209
 3451SOL    HW221816   4.276   2.716  15.383 -1.2978 -2.1902 -0.4831
 3452SOL     OW21817   0.783   2.294   3.348  0.2186  0.7009 -0.2648
 3452SOL    HW121818   0.849   2.357   3.320  0.4961 -0.1667 -1.5536
 3452SOL    HW221819   0.806   2.225   3.286  0.7843 -0.3822  1.1645
 3453SOL     OW21820   4.686   2.583   7.632  0.3716 -0.4992 -0.0666
 3453SOL    HW121821   4.595   2.554   7.623  0.2570  0.0170 -0.6374
 3453SOL    HW221822   0.013   2.527   7.576  0.4872  0.0071 -0.4731
 3454SOL     OW21823   0.811   1.157   0.803  0.2476 -0.3013  0.0895
 3454SOL    HW121824   0.748   1.196   0.743  1.1755  0.1201 -0.6121
 3454SOL    HW221825   0.770   1.168   0.889 -2.1691 -2.1029 -0.8509
 3455SOL     OW21826   1.137   4.191  10.050 -0.0320  0.6674 -0.3322
 3455SOL    HW121827   1.209   4.136  10.019 -0.4935  0.6679 -1.3993
 3455SOL    HW221828   1.131   4.249   9.974 -0.1894  0.0580 -0.7814
 3456SOL     OW21829   2.207   0.216  10.186  0.3388 -0.3545 -0.8379
 3456SOL    HW121830   2.172   0.265  10.112  0.9240 -2.4387 -2.5185
 3456SOL    HW221831   2.165   0.264  10.257  1.7002  0.5930 -0.6694
 3457SOL     OW21832   0.158   1.486   1.514 -0.0353 -0.3140  0.3023
 3457SOL    HW121833   0.077   1.537   1.517  0.1658  0.0881 -0.9431
 3457SOL    HW221834   0.144   1.430   1.438 -0.5512 -0.0154  0.1780
 3458SOL     OW21835   4.340   0.931   6.940  0.1060  0.4005  0.1504
 3458SOL    HW121836   4.392   0.909   6.862  0.4567 -0.1807  0.5485
 3458SOL    HW221837   4.282   1.001   6.910 -0.8517 -1.4050 -2.2903
 3459SOL     OW21838   3.100   1.372   2.308  0.0384  0.1705  0.6178
 3459SOL    HW121839   3.193   1.394   2.322 -0.0296  2.8522 -3.0668
 3459SOL    HW221840   3.071   1.335   2.391 -1.4677  1.5608  0.7109
 3460SOL     OW21841   1.458   3.772   5.950 -0.1747  0.2866 -0.8081
 3460SOL    HW121842   1.526   3.714   5.918  0.4544  1.8337 -2.3028
 3460SOL    HW221843   1.484   3.791   6.040 -0.3466 -1.3077 -0.4304
 3461SOL     OW21844   0.285   0.388   8.407  0.1165 -0.4029 -0.6195
 3461SOL    HW121845   0.348   0.418   8.341 -0.9582  0.6310 -1.1649
 3461SOL    HW221846   0.309   0.295   8.413 -0.4482 -0.6011 -1.5741
 3462SOL     OW21847   3.182   4.634   4.994  0.1381 -0.2458 -0.3239
 3462SOL    HW121848   3.194   4.598   4.906  1.8277  1.8255 -0.9403
 3462SOL    HW221849   3.271   4.627   5.030 -0.1948 -0.0997  0.5244
 3463SOL     OW21850   3.965   4.685   6.264 -0.4075  0.3475  0.4504
 3463SOL    HW121851   4.012   0.033   6.302  0.6157  0.0653 -0.2758
 3463SOL    HW221852   3.986   4.684   6.171  1.6690 -3.2241  0.9558
 3464SOL     OW21853   3.958   4.668   4.926 -0.6465  0.0206  0.1951
 3464SOL    HW121854   3.989   4.602   4.863  0.0604 -1.6072  2.2656
 3464SOL    HW221855   3.975   4.631   5.013 -0.0699  0.3173  0.2079
 3465SOL     OW21856   3.159   2.519   5.957 -0.3724 -0.2781 -0.2438
 3465SOL    HW121857   3.097   2.515   6.029 -0.0119  1.3764  0.1700
 3465SOL    HW221858   3.094   2.527   5.887 -0.2597 -0.9582 -0.4265
 3466SOL     OW21859   3.757   4.162   9.861 -0.6355 -0.3181 -0.6648
 3466SOL    HW121860   3.730   4.192   9.774 -1.4695 -0.9083 -0.6197
 3466SOL    HW221861   3.848   4.137   9.845 -0.2934  0.3076  0.3678
 3467SOL     OW21862   0.449   0.539   7.881  0.0329 -0.3502 -0.3374
 3467SOL    HW121863   0.362   0.567   7.852 -0.1403 -2.3511 -1.7452
 3467SOL    HW221864   0.453   0.590   7.962  0.2039 -0.0709 -0.5216
 3468SOL     OW21865   1.595   4.196   2.392  0.5587 -0.5566 -0.5323
 3468SOL    HW121866   1.504   4.165   2.396  0.5196  0.0360  2.7991
 3468SOL    HW221867   1.602   4.209   2.486 -0.1728 -0.1276 -0.5353
 3469SOL     OW21868   1.831   2.048   3.726  0.3593 -0.4191  0.6588
 3469SOL    HW121869   1.766   2.106   3.764  0.8083  0.8872 -0.5593
 3469SOL    HW221870   1.783   2.034   3.645 -1.1571  0.3527  1.4402
 3470SOL     OW21871   2.442   1.233   6.773  0.0998 -0.2538 -0.0695
 3470SOL    HW121872   2.527   1.194   6.793  0.2080  0.9375  1.7656
 3470SOL    HW221873   2.385   1.198   6.841 -0.8095  3.4290  1.0686
 3471SOL     OW21874   3.229   2.977  11.980 -0.2227 -0.2270 -0.1969
 3471SOL    HW121875   3.191   3.045  12.036 -0.6818  0.5678 -1.4801
 3471SOL    HW221876   3.183   2.900  12.012 -1.6549  0.4579 -0.6348
 3472SOL     OW21877   4.444   0.808   6.353  0.2679 -0.1609 -0.3547
 3472SOL    HW121878   4.450   0.724   6.307 -2.7352 -1.0474  0.9016
 3472SOL    HW221879   4.363   0.840   6.313  0.5667  1.9661  0.7671
 3473SOL     OW21880   1.037   3.811   6.357  0.3038 -0.1218  0.0823
 3473SOL    HW121881   1.086   3.871   6.301 -1.9645  1.6451  0.0189
 3473SOL    HW221882   0.989   3.762   6.291  2.4431 -1.0981 -0.7663
 3474SOL     OW21883   1.627   2.961  15.267 -0.2469 -0.0880 -0.2481
 3474SOL    HW121884   1.578   3.024  15.320  0.2867  1.3128 -1.4408
 3474SOL    HW221885   1.576   2.956  15.186 -3.2951  0.9431  1.6172
 3475SOL     OW21886   3.645   1.158  17.539 -0.1941  0.4815  1.0765
 3475SOL    HW121887   3.635   1.105  17.618 -2.2870  1.0739  1.2115
 3475SOL    HW221888   3.617   1.084  17.485 -0.0099  1.9535 -1.0411
 3476SOL     OW21889   4.707   4.482  12.302  0.5324  0.0626 -0.7854
 3476SOL    HW121890   4.669   4.557  12.347 -0.2708 -0.2754 -0.8970
 3476SOL    HW221891   0.016   4.421  12.366 -0.9847 -0.9516 -0.9183
 3477SOL     OW21892   0.165   4.021   7.474  0.4126 -0.6891  0.6528
 3477SOL    HW121893   0.100   4.087   7.501 -0.4845 -2.2251  2.2416
 3477SOL    HW221894   0.118   3.940   7.455  0.5253 -0.4786 -0.4949
 3478SOL     OW21895   2.629   1.197   1.975  0.0867 -0.7969  0.1920
 3478SOL    HW121896   2.705   1.255   1.967  0.1249 -1.1503 -1.9297
 3478SOL    HW221897   2.673   1.113   1.990 -0.9785 -1.3744  0.0646
 3479SOL     OW21898   1.340   0.612   7.766  0.4441 -0.0172  0.0032
 3479SOL    HW121899   1.250   0.644   7.757 -0.3126 -2.4111 -0.9130
 3479SOL    HW221900   1.344   0.568   7.681  0.1323 -2.8795  1.4612
 3480SOL     OW21901   1.104   0.785   2.584 -0.0605 -0.4410  0.1680
 3480SOL    HW121902   1.138   0.696   2.576  2.8228  0.6759 -0.0944
 3480SOL    HW221903   1.091   0.799   2.491 -0.6972 -1.5866  0.0900
 3481SOL     OW21904   3.331   4.718  12.646  0.1949 -0.2684 -0.5213
 3481SOL    HW121905   3.402   0.042  12.606  0.2238  0.1415  0.0413
 3481SOL    HW221906   3.370   4.678  12.724 -0.8385  1.6598  0.9902
 3482SOL     OW21907   0.281   3.546   5.062  0.3273 -0.4124 -0.5335
 3482SOL    HW121908   0.223   3.563   4.988  0.5596 -0.4536 -0.7272
 3482SOL    HW221909   0.279   3.635   5.098 -1.2486 -0.6077 -0.1731
 3483SOL     OW21910   1.963   4.035  17.035 -0.2559  0.0369  0.1093
 3483SOL    HW121911   1.901   3.966  17.010 -0.0908  0.1305 -0.5550
 3483SOL    HW221912   2.018   4.033  16.956  0.8610 -0.4018  0.8955
 3484SOL     OW21913   4.673   1.122   9.702 -0.2674  0.1732 -0.3576
 3484SOL    HW121914   4.686   1.058   9.632  1.5504  1.0093 -0.7844
 3484SOL    HW221915   4.693   1.086   9.788  0.8456 -0.7498 -1.0002
 3485SOL     OW21916   4.527   1.541   7.746  0.3257  0.4198  0.0831
 3485SOL    HW121917   4.605   1.504   7.788 -1.1779 -2.2047  0.5422
 3485SOL    HW221918   4.466   1.474   7.777  3.4893 -2.9859 -1.1025
 3486SOL     OW21919   1.419   2.038   9.032 -0.2353 -0.0016 -0.0079
 3486SOL    HW121920   1.351   2.106   9.034 -0.0266  0.1981  0.4518
 3486SOL    HW221921   1.373   1.954   9.035 -1.1723  0.4463 -2.2197
 3487SOL     OW21922   0.850   4.350   2.775 -0.0520 -0.0530 -0.1616
 3487SOL    HW121923   0.769   4.351   2.825 -0.4800  0.8405 -0.8681
 3487SOL    HW221924   0.817   4.356   2.685 -0.1608 -0.6605 -0.1601
 3488SOL     OW21925   1.696   4.335   5.677  0.1643  0.3530  0.3016
 3488SOL    HW121926   1.699   4.333   5.773 -1.5962 -0.5190  0.3483
 3488SOL    HW221927   1.648   4.258   5.648  1.3886 -0.5964  0.8122
 3489SOL     OW21928   0.065   4.333  13.393 -0.1248 -0.1570  0.0423
 3489SOL    HW121929   4.699   4.337  13.365  0.1108  0.7705 -0.5646
 3489SOL    HW221930   0.107   4.360  13.312 -0.6149 -1.1772 -0.5571
 3490SOL     OW21931   1.440   2.841   1.697 -0.4851  0.3045  0.0408
 3490SOL    HW121932   1.363   2.794   1.666  0.8479 -3.1454  1.9002
 3490SOL    HW221933   1.430   2.923   1.648  0.7532  0.2368 -0.3363
 3491SOL     OW21934   1.734   2.836  15.485  0.2946  0.1014  0.4287
 3491SOL    HW121935   1.704   2.873  15.403  1.3174  0.4903  0.2255
 3491SOL    HW221936   1.786   2.911  15.516 -0.0619  0.4444  0.1872
 3492SOL     OW21937   2.505   4.343   1.302  0.3013  0.8358 -0.6204
 3492SOL    HW121938   2.514   4.310   1.213 -2.5866 -3.6535  0.7011
 3492SOL    HW221939   2.596   4.358   1.330  0.4517 -1.6258  0.2839
 3493SOL     OW21940   1.502   3.959   5.430  0.0313 -0.5617 -0.1588
 3493SOL    HW121941   1.551   3.939   5.350  0.0734  0.6463 -0.4367
 3493SOL    HW221942   1.419   3.961   5.383 -1.3525  1.2475  2.4006
 3494SOL     OW21943   1.775   3.878   5.602  0.4039  0.2407 -0.2815
 3494SOL    HW121944   1.689   3.915   5.581  0.5057  1.3153  1.2340
 3494SOL    HW221945   1.750   3.794   5.641 -1.4403  0.2348 -1.4501
 3495SOL     OW21946   2.547   1.587   4.793  0.5323  0.4539  0.1555
 3495SOL    HW121947   2.482   1.640   4.747  0.9348  0.0101 -0.9030
 3495SOL    HW221948   2.626   1.606   4.743 -0.5289  1.4616 -1.1683
 3496SOL     OW21949   4.520   3.001  12.574 -0.0464 -0.3419 -0.3804
 3496SOL    HW121950   4.486   3.045  12.652  2.9570  2.3759 -0.6586
 3496SOL    HW221951   4.475   2.916  12.576  1.7284 -1.2121  1.6162
 3497SOL     OW21952   0.878   4.402   1.146 -0.1453 -0.0536 -0.4776
 3497SOL    HW121953   0.929   4.323   1.131 -1.5691 -0.7794 -1.4823
 3497SOL    HW221954   0.808   4.409   1.081 -0.4968  0.2434 -0.0674
 3498SOL     OW21955   3.741   0.781   0.278  0.1929  0.0223  0.6321
 3498SOL    HW121956   3.691   0.705   0.305  0.4035 -0.2013  0.3935
 3498SOL    HW221957   3.664   0.832   0.253 -1.6034 -2.2315  1.5909
 3499SOL     OW21958   4.245   3.835  11.571 -0.0379 -0.4962 -0.2270
 3499SOL    HW121959   4.273   3.881  11.492  0.5891 -0.6773 -0.1056
 3499SOL    HW221960   4.318   3.849  11.631 -0.8427 -3.5671  1.4654
 3500SOL     OW21961   2.874   4.656  15.743  0.3970 -0.2317  0.3601
 3500SOL    HW121962   2.964   4.675  15.771 -0.4350 -0.1921  2.9401
 3500SOL    HW221963   2.846   4.583  15.797  1.9832 -0.6394  0.6207
 3501SOL     OW21964   1.852   1.843  12.868 -0.4892  0.6313  0.2235
 3501SOL    HW121965   1.933   1.863  12.916  1.1115  0.2453 -2.3155
 3501SOL    HW221966   1.819   1.933  12.861 -2.0123  0.0950  0.5825
 3502SOL     OW21967   2.415   4.015   0.856 -0.1147 -0.5199  0.8338
 3502SOL    HW121968   2.364   3.935   0.868 -2.7209  1.0879  0.3866
 3502SOL    HW221969   2.406   4.022   0.761 -0.6689  1.1808  1.0137
 3503SOL     OW21970   1.725   3.862   0.916 -0.6681 -0.2802  0.2236
 3503SOL    HW121971   1.672   3.812   0.978  1.0347 -0.3304  1.6473
 3503SOL    HW221972   1.681   3.843   0.834  0.2179  0.4627 -0.4218
 3504SOL     OW21973   2.010   0.064  13.106  0.2078 -0.1034 -0.1719
 3504SOL    HW121974   1.949   0.138  13.102  1.2713  0.7171 -1.2117
 3504SOL    HW221975   2.076   0.098  13.167 -0.6154  2.1055 -0.5071
 3505SOL     OW21976   2.335   3.591   7.424  0.2088 -0.1286 -0.0411
 3505SOL    HW121977   2.245   3.582   7.454 -0.2781  0.2670 -1.3811
 3505SOL    HW221978   2.371   3.625   7.506  1.9941  0.3027 -0.9867
 3506SOL     OW21979   2.542   0.659   8.171  1.0583  0.2940 -0.5314
 3506SOL    HW121980   2.508   0.653   8.082 -1.6277 -2.6466  0.6922
 3506SOL    HW221981   2.623   0.709   8.164  0.6786  1.4865  3.5442
 3507SOL     OW21982   2.275   2.772   5.898  0.3204  0.9014  0.9693
 3507SOL    HW121983   2.309   2.694   5.853  0.3534 -0.5388  3.4957
 3507SOL    HW221984   2.235   2.733   5.976 -0.6817  2.2404  1.1226
 3508SOL     OW21985   4.503   3.495   5.641 -0.0119 -0.3578 -0.2069
 3508SOL    HW121986   4.556   3.416   5.636  1.7599  0.9351 -1.7774
 3508SOL    HW221987   4.425   3.464   5.688  0.5630 -1.1670  0.2197
 3509SOL     OW21988   2.555   1.868   6.809  0.3115 -0.0523 -0.3001
 3509SOL    HW121989   2.525   1.951   6.772  0.0828  0.3950  0.8699
 3509SOL    HW221990   2.474   1.822   6.833  0.3285  0.8086  1.4347
 3510SOL     OW21991   1.847   0.934  13.867 -0.0525 -0.1603  0.6096
 3510SOL    HW121992   1.810   1.022  13.864 -0.9992 -0.6411 -1.9805
 3510SOL    HW221993   1.788   0.893  13.804  0.3074 -0.5115  0.5056
 3511SOL     OW21994   3.912   2.798   6.460  0.0873  0.1958 -0.0835
 3511SOL    HW121995   3.950   2.883   6.482 -2.2048  1.9928 -3.1416
 3511SOL    HW221996   3.826   2.827   6.427 -1.0713 -0.4961  2.3635
 3512SOL     OW21997   0.015   3.631   8.020  0.0245 -0.0517 -0.2199
 3512SOL    HW121998   0.069   3.617   7.943  0.4430 -1.4985  0.3355
 3512SOL    HW221999   0.061   3.710   8.047  1.3799 -1.6334  2.1085
 3513SOL     OW22000   4.315   0.917  14.885  0.3772 -0.2490  0.3886
 3513SOL    HW122001   4.365   0.924  14.803  0.6383  4.1216  0.9152
 3513SOL    HW222002   4.386   0.936  14.947 -0.8059 -2.1373  2.3227
 3514SOL     OW22003   3.448   2.024   3.308  0.3217  0.0863 -0.3284
 3514SOL    HW122004   3.481   2.075   3.382 -2.5118 -1.2935  1.8633
 3514SOL    HW222005   3.353   2.027   3.323  0.4572  0.7688  0.3714
 3515SOL     OW22006   1.677   4.416   0.690  0.0009 -0.5486 -0.2759
 3515SOL    HW122007   1.663   4.391   0.781 -0.5300 -1.0474 -0.4937
 3515SOL    HW222008   1.656   4.329   0.655  1.1381 -0.3682 -1.4063
 3516SOL     OW22009   3.938   2.020   4.312 -0.5159  0.3223 -0.2621
 3516SOL    HW122010   3.959   2.097   4.259  2.9306  1.4278  2.6921
 3516SOL    HW222011   3.861   1.995   4.260  0.3515 -2.8972  0.0208
 3517SOL     OW22012   0.072   1.749   1.374 -0.1951 -0.2792  0.4170
 3517SOL    HW122013   0.072   1.838   1.409  2.7276 -0.9067  2.0637
 3517SOL    HW222014   0.004   1.757   1.307  0.2558  1.0654  0.1196
 3518SOL     OW22015   2.024   1.154  10.457 -0.2219  0.0032  0.5132
 3518SOL    HW122016   2.088   1.156  10.386 -0.6320  0.7849  0.1726
 3518SOL    HW222017   2.078   1.111  10.524 -0.5667  1.2077  1.5640
 3519SOL     OW22018   4.177   4.055   5.513  0.3382  0.1156  0.5326
 3519SOL    HW122019   4.169   4.057   5.418 -0.1858 -0.4055  0.5675
 3519SOL    HW222020   4.095   4.014   5.542 -0.1775  0.8622  0.1460
 3520SOL     OW22021   3.769   0.090   5.747 -0.6858  0.2964  0.3135
 3520SOL    HW122022   3.777   0.180   5.713 -2.4388  0.0931 -0.6755
 3520SOL    HW222023   3.678   0.083   5.776 -1.0770  1.0526 -0.7301
 3521SOL     OW22024   2.254   1.638   7.246  0.3206 -0.0463  0.1606
 3521SOL    HW122025   2.228   1.647   7.338  0.9666 -2.6159  0.5970
 3521SOL    HW222026   2.349   1.624   7.246  0.4439  0.7514  0.5313
 3522SOL     OW22027   1.367   0.809   3.852 -0.5211 -0.1447 -0.6169
 3522SOL    HW122028   1.440   0.857   3.814  0.5370 -0.7950  0.6265
 3522SOL    HW222029   1.290   0.852   3.813 -0.6507 -0.8606 -1.1485
 3523SOL     OW22030   3.661   1.450  12.141  0.1638  0.3236 -0.5309
 3523SOL    HW122031   3.671   1.357  12.164 -0.5503 -0.3610 -2.9972
 3523SOL    HW222032   3.749   1.481  12.163  0.0497  0.3749 -0.1508
 3524SOL     OW22033   2.423   0.394   2.938 -0.1217 -0.0595 -0.3751
 3524SOL    HW122034   2.339   0.351   2.954  0.4944 -1.4852 -0.9597
 3524SOL    HW222035   2.396   0.479   2.904  0.9083  0.7510  0.8168
 3525SOL     OW22036   0.685   1.741  17.333  0.0229  0.2932 -0.5417
 3525SOL    HW122037   0.738   1.715  17.257 -0.2892 -1.4133 -0.1766
 3525SOL    HW222038   0.704   1.834  17.339 -2.6194  0.9483 -2.2619
 3526SOL     OW22039   2.129   1.749   9.463  0.3478  0.7071 -0.0154
 3526SOL    HW122040   2.049   1.730   9.414  1.8367 -2.0732 -1.3939
 3526SOL    HW222041   2.123   1.844   9.472 -1.7290  0.5799  0.0002
 3527SOL     OW22042   1.488   0.269   5.470 -0.0016  0.3568  0.0172
 3527SOL    HW122043   1.526   0.357   5.457 -0.3422  0.6055  0.6873
 3527SOL    HW222044   1.524   0.255   5.558  0.5313  1.8299  0.0422
 3528SOL     OW22045   0.404   2.816   7.566 -0.3354 -0.2752 -0.2558
 3528SOL    HW122046   0.431   2.907   7.574 -0.3194 -0.4104  1.2413
 3528SOL    HW222047   0.412   2.789   7.658  2.7863 -2.2818 -1.1075
 3529SOL     OW22048   3.488   2.536  12.628 -0.1346  0.5650 -0.2343
 3529SOL    HW122049   3.569   2.546  12.678 -1.0439  1.4993  1.0495
 3529SOL    HW222050   3.438   2.495  12.699 -0.9054 -1.8647 -2.1760
 3530SOL     OW22051   3.062   3.967   3.431 -0.5787  0.6647  0.1819
 3530SOL    HW122052   3.094   3.982   3.520 -1.9649  2.4699  0.3781
 3530SOL    HW222053   3.127   4.009   3.375  0.9676 -1.4932  0.3944
 3531SOL     OW22054   3.111   0.843   3.277 -0.2850  0.9723  0.2764
 3531SOL    HW122055   3.138   0.786   3.204  3.0542 -0.6786  2.7929
 3531SOL    HW222056   3.029   0.875   3.237 -0.7646 -1.0703 -0.3776
 3532SOL     OW22057   3.312   4.686   1.852  0.6664 -0.0497  0.6721
 3532SOL    HW122058   3.344   4.694   1.762  0.3749 -2.2133  0.3751
 3532SOL    HW222059   3.261   4.605   1.847  1.7453 -0.7353  0.8064
 3533SOL     OW22060   3.740   1.488   0.537 -0.4398  0.1919 -0.5395
 3533SOL    HW122061   3.761   1.460   0.448 -0.9823  0.4076 -0.7363
 3533SOL    HW222062   3.752   1.406   0.585 -0.6492 -0.2526 -1.2504
 3534SOL     OW22063   3.581   3.833   6.382 -0.1149 -0.1985 -0.1379
 3534SOL    HW122064   3.566   3.901   6.448 -1.9505 -0.6816 -0.0355
 3534SOL    HW222065   3.674   3.845   6.364  0.3681 -0.6563  1.9867
 3535SOL     OW22066   2.387   0.332   8.116 -0.6450 -0.0422 -0.2275
 3535SOL    HW122067   2.406   0.374   8.200 -2.5713  0.5206 -0.0673
 3535SOL    HW222068   2.469   0.284   8.114 -1.4120 -1.2515 -2.7752
 3536SOL     OW22069   4.495   3.455   6.482  0.8290 -0.0587 -0.0978
 3536SOL    HW122070   4.431   3.421   6.545  0.9737 -1.3798 -0.6605
 3536SOL    HW222071   4.481   3.549   6.474 -1.5951 -0.4470 -0.6224
 3537SOL     OW22072   4.086   1.975   0.666 -0.2494 -0.1975  0.2535
 3537SOL    HW122073   4.089   1.879   0.668  1.9514 -0.1673 -1.1154
 3537SOL    HW222074   4.179   1.998   0.670 -0.0729 -0.7374 -0.6947
 3538SOL     OW22075   3.114   0.028  11.129  0.1150  0.4403 -0.3962
 3538SOL    HW122076   3.164   0.047  11.050  0.9206 -0.0995 -0.0132
 3538SOL    HW222077   3.150   0.092  11.191 -0.9680 -1.2226  1.9518
 3539SOL     OW22078   2.396   3.775   9.067  0.0714 -0.0861 -0.0410
 3539SOL    HW122079   2.456   3.747   9.137  0.6950  2.8607  0.5886
 3539SOL    HW222080   2.315   3.729   9.089 -0.5060  1.1746  0.4435
 3540SOL     OW22081   2.786   1.698   6.212  0.2513 -0.1836  0.4855
 3540SOL    HW122082   2.722   1.753   6.257 -0.4352 -0.1712 -0.5208
 3540SOL    HW222083   2.778   1.608   6.246  0.2719 -0.2223  0.3895
 3541SOL     OW22084   1.204   1.156   8.220 -0.1932 -0.1542 -0.1089
 3541SOL    HW122085   1.258   1.223   8.261  0.8550 -1.3561  0.4701
 3541SOL    HW222086   1.117   1.194   8.232  0.1069  0.3318  0.5153
 3542SOL     OW22087   0.375   0.335  15.205 -0.2958 -0.1320 -0.0983
 3542SOL    HW122088   0.438   0.308  15.272  0.0214 -2.4074 -1.3082
 3542SOL    HW222089   0.375   0.431  15.211 -1.2906 -0.0202 -1.6787
 3543SOL     OW22090   1.641   1.879   5.680  0.0900  1.0230 -0.5130
 3543SOL    HW122091   1.627   1.804   5.622  1.4692  0.7571 -0.5111
 3543SOL    HW222092   1.636   1.955   5.622 -2.0442  0.6220 -0.8590
 3544SOL     OW22093   2.221   0.534   4.548  0.1238  0.9705  0.6512
 3544SOL    HW122094   2.193   0.511   4.637  3.2499 -2.2018  0.8192
 3544SOL    HW222095   2.155   0.595   4.515 -1.1491  0.3009  1.9561
 3545SOL     OW22096   1.016   2.409  13.818 -0.2109  0.2229  0.1233
 3545SOL    HW122097   0.992   2.455  13.899  2.5697  0.1257  1.0045
 3545SOL    HW222098   1.109   2.419  13.837  0.1704 -0.2227 -1.5034
 3546SOL     OW22099   0.219   2.492   0.670  0.0838  0.0043 -0.1472
 3546SOL    HW122100   0.154   2.429   0.702 -0.2565 -0.6113 -2.0773
 3546SOL    HW222101   0.166   2.570   0.652  1.2113  0.2969 -2.1557
 3547SOL     OW22102   3.719   0.421   0.569  0.0105 -0.0869 -0.9216
 3547SOL    HW122103   3.679   0.334   0.571 -2.5431  1.0075 -3.3130
 3547SOL    HW222104   3.811   0.395   0.564  0.2684  0.9725 -1.6873
 3548SOL     OW22105   1.057   2.534   6.763  0.4703  0.1225  0.2420
 3548SOL    HW122106   1.022   2.578   6.841  0.7794 -0.5561  0.7692
 3548SOL    HW222107   1.081   2.447   6.796 -0.2329  0.6981  2.2647
 3549SOL     OW22108   3.560   1.760   3.303 -0.0285  0.2435 -0.1592
 3549SOL    HW122109   3.644   1.799   3.278  1.0262 -1.9575 -0.0522
 3549SOL    HW222110   3.506   1.838   3.292  1.2499  1.3406  1.2641
 3550SOL     OW22111   3.489   1.530   0.124  0.7778 -0.6651 -0.0075
 3550SOL    HW122112   3.435   1.526   0.045 -0.5810 -1.3641  0.9495
 3550SOL    HW222113   3.452   1.609   0.164  1.0785 -0.9315  0.8019
 3551SOL     OW22114   4.188   1.139  11.719  0.3424  0.4124  0.6160
 3551SOL    HW122115   4.225   1.116  11.805 -1.2504 -1.7686  0.7303
 3551SOL    HW222116   4.208   1.061  11.667 -2.1938  0.6159 -0.6396
 3552SOL     OW22117   3.424   2.660   6.493  0.4215  0.2266 -0.4434
 3552SOL    HW122118   3.393   2.748   6.472 -0.5142  0.3192  1.3536
 3552SOL    HW222119   3.363   2.609   6.439 -0.4549 -1.8885  2.4907
 3553SOL     OW22120   1.487   4.128  15.453  0.0553 -0.5511  0.4107
 3553SOL    HW122121   1.557   4.090  15.505 -0.9572 -2.1478  0.6142
 3553SOL    HW222122   1.418   4.099  15.513 -1.0725  1.2920  0.0107
 3554SOL     OW22123   3.239   2.587  17.596  0.0140  0.2340  0.0669
 3554SOL    HW122124   3.321   2.583  17.645  0.0361  1.9792  0.1932
 3554SOL    HW222125   3.235   2.680  17.574 -0.5327  0.5011  1.2584
 3555SOL     OW22126   4.136   2.255   0.830 -0.5976 -0.3655 -0.0366
 3555SOL    HW122127   4.074   2.197   0.874 -1.8878  0.2670 -1.0020
 3555SOL    HW222128   4.179   2.193   0.771  1.0136  0.1236  0.6309
 3556SOL     OW22129   2.226   0.595   7.631  0.1070 -0.1530  0.3854
 3556SOL    HW122130   2.172   0.645   7.570  1.5967  0.2073 -0.6363
 3556SOL    HW222131   2.234   0.512   7.585  0.8603  0.2644 -0.2398
 3557SOL     OW22132   4.273   3.332  11.681 -0.2534 -0.2663 -0.2739
 3557SOL    HW122133   4.287   3.348  11.588  0.2356  1.3441  0.0844
 3557SOL    HW222134   4.182   3.302  11.684  0.6308 -3.1361 -2.0441
 3558SOL     OW22135   3.824   1.967  11.760 -0.0989 -0.4526 -0.1392
 3558SOL    HW122136   3.846   1.952  11.852 -0.7929 -1.7483 -0.1840
 3558SOL    HW222137   3.735   1.999  11.768  0.6048  0.8238  2.3762
 3559SOL     OW22138   0.009   3.777   7.467  0.1432  0.0291  0.1143
 3559SOL    HW122139   4.721   3.683   7.455 -0.4394 -0.0775  1.6702
 3559SOL    HW222140   4.663   3.815   7.416 -0.7147  0.7770  1.8819
 3560SOL     OW22141   1.988   3.115   3.758  0.0495 -0.5583 -0.5177
 3560SOL    HW122142   2.083   3.118   3.747  0.0851 -1.9621 -0.5897
 3560SOL    HW222143   1.990   3.074   3.845 -3.5683  0.8434  0.2481
 3561SOL     OW22144   0.883   1.169   8.129  0.2968 -0.6859 -0.3016
 3561SOL    HW122145   0.826   1.130   8.195 -2.0256  1.4958 -1.0376
 3561SOL    HW222146   0.923   1.242   8.176  2.9156 -1.0133 -1.9869
 3562SOL     OW22147   3.439   2.056   4.785 -0.3481 -0.1717 -0.3159
 3562SOL    HW122148   3.496   2.006   4.727  1.0575 -0.7715  1.5679
 3562SOL    HW222149   3.503   2.104   4.838 -1.0637  1.7529 -1.1948
 3563SOL     OW22150   3.025   2.081  12.288  0.1432 -0.0151 -0.0810
 3563SOL    HW122151   3.004   2.173  12.303  0.1671 -0.6478  3.8992
 3563SOL    HW222152   2.975   2.048  12.362  0.2307  2.5628  1.1134
 3564SOL     OW22153   4.451   1.294   6.891 -0.1151 -0.2140 -0.4884
 3564SOL    HW122154   4.422   1.377   6.853 -1.1160  0.3543  1.5333
 3564SOL    HW222155   4.528   1.320   6.942 -0.6940 -0.6290  0.5822
 3565SOL     OW22156   3.443   2.450  14.099 -0.1673 -0.8260  0.4594
 3565SOL    HW122157   3.463   2.481  14.188 -0.2580 -1.2085  0.6115
 3565SOL    HW222158   3.515   2.387  14.090  0.0504 -0.6169  0.7141
 3566SOL     OW22159   2.343   3.289   9.478 -0.1874  0.3904  0.3704
 3566SOL    HW122160   2.311   3.376   9.454 -1.1682 -0.2983 -0.8175
 3566SOL    HW222161   2.355   3.291   9.573 -0.7506  1.3895  0.4237
 3567SOL     OW22162   4.110   2.708  10.644 -0.6969  0.0725 -0.1842
 3567SOL    HW122163   4.089   2.626  10.689  2.2761 -0.0212  0.9912
 3567SOL    HW222164   4.165   2.741  10.715 -2.2578  2.0535  0.1022
 3568SOL     OW22165   2.047   0.125   2.766 -0.3407 -0.1086 -0.6240
 3568SOL    HW122166   1.967   0.158   2.725 -0.9476 -2.1316 -1.0535
 3568SOL    HW222167   2.096   0.115   2.684  0.7119  0.4382 -0.0647
 3569SOL     OW22168   1.522   3.230   8.094  0.7712  0.1427 -0.3457
 3569SOL    HW122169   1.527   3.267   8.006 -1.3729 -2.4361 -1.5480
 3569SOL    HW222170   1.493   3.303   8.148  0.3622 -0.1016 -0.2373
 3570SOL     OW22171   1.846   4.378   6.608 -0.4669  0.3782 -0.8269
 3570SOL    HW122172   1.919   4.433   6.581 -1.5944  1.5157 -1.5097
 3570SOL    HW222173   1.777   4.424   6.560 -0.4402  1.1979 -0.0815
 3571SOL     OW22174   0.883   4.549   7.597 -0.4931 -0.2060  0.2748
 3571SOL    HW122175   0.877   4.507   7.511  3.0026 -0.7872  0.2891
 3571SOL    HW222176   0.935   4.488   7.649  1.2860 -0.1895 -1.4815
 3572SOL     OW22177   2.553   3.484  11.457 -0.1177  0.0887  0.3468
 3572SOL    HW122178   2.528   3.554  11.517  1.2432  0.2004  0.7629
 3572SOL    HW222179   2.546   3.517  11.368 -1.6828  1.2055  0.8764
 3573SOL     OW22180   3.239   0.887   3.926 -0.6382 -0.5277 -0.1958
 3573SOL    HW122181   3.288   0.957   3.970  1.0653 -1.7739 -0.1306
 3573SOL    HW222182   3.278   0.893   3.839 -0.1582 -0.6583  0.0109
 3574SOL     OW22183   0.037   3.452  15.799 -0.5708 -0.0202 -0.5691
 3574SOL    HW122184   0.001   3.523  15.746 -3.5313 -0.8270  0.3790
 3574SOL    HW222185   0.129   3.477  15.809 -0.0149 -2.4275  0.3048
 3575SOL     OW22186   2.095   2.329   6.758  0.1674  0.0327  0.5761
 3575SOL    HW122187   2.113   2.287   6.842 -0.4968  0.1701  0.7943
 3575SOL    HW222188   2.153   2.404   6.769  0.2733 -0.1429  1.2096
 3576SOL     OW22189   3.611   1.178   7.605  0.0749 -0.5294 -0.8187
 3576SOL    HW122190   3.611   1.117   7.679 -0.4887  0.2095 -0.2051
 3576SOL    HW222191   3.558   1.252   7.635 -0.1355 -1.4886  1.1582
 3577SOL     OW22192   1.266   3.711  12.851 -0.0979 -0.0049 -0.0578
 3577SOL    HW122193   1.173   3.707  12.876  0.1340  0.7096  0.9098
 3577SOL    HW222194   1.259   3.678  12.761  0.3390  0.8367 -0.3993
 3578SOL     OW22195   3.924   0.753   6.036 -0.4348  0.3495 -0.1599
 3578SOL    HW122196   3.860   0.746   6.107 -0.2332 -0.6113 -0.0746
 3578SOL    HW222197   3.866   0.736   5.961 -1.4554  0.4916  0.5964
 3579SOL     OW22198   2.751   3.716   2.718  0.3925  0.2687  0.2835
 3579SOL    HW122199   2.725   3.696   2.808  0.5238 -1.2398 -0.0197
 3579SOL    HW222200   2.766   3.810   2.713  2.0314 -0.0891 -1.8378
 3580SOL     OW22201   1.267   3.675   8.560 -0.4620 -0.2070  0.2912
 3580SOL    HW122202   1.178   3.697   8.587 -0.0067 -1.3752  2.7040
 3580SOL    HW222203   1.321   3.676   8.639  0.6504 -3.0186 -0.4462
 3581SOL     OW22204   1.396   3.888   8.478  0.3060 -0.4043  0.0917
 3581SOL    HW122205   1.425   3.863   8.391 -0.6049  0.6209 -0.5051
 3581SOL    HW222206   1.321   3.829   8.488 -1.0811  1.2071 -0.7660
 3582SOL     OW22207   3.384   2.410   5.568 -0.1558  0.5293 -0.1470
 3582SOL    HW122208   3.444   2.420   5.494 -2.1471 -1.0741 -1.9528
 3582SOL    HW222209   3.432   2.332   5.597  1.8901  1.6663 -0.4759
 3583SOL     OW22210   0.817   3.238  14.662  0.3035  0.1052  0.3731
 3583SOL    HW122211   0.800   3.166  14.601 -0.0469  1.0892 -0.6902
 3583SOL    HW222212   0.908   3.227  14.689  0.0386 -0.9219  0.8649
 3584SOL     OW22213   1.200   2.769   6.899 -0.5499 -0.3400  0.6617
 3584SOL    HW122214   1.118   2.802   6.863  1.6361  2.8424 -1.3537
 3584SOL    HW222215   1.201   2.800   6.990 -3.2236  1.0940  0.1964
 3585SOL     OW22216   0.032   2.217   8.311  0.3450  0.0949  0.3118
 3585SOL    HW122217   4.720   2.171   8.236  1.4488  1.5125 -1.1023
 3585SOL    HW222218   0.122   2.197   8.288 -0.0668 -2.1964  0.7140
 3586SOL     OW22219   1.173   0.210  17.122  0.4419  0.2080  0.2925
 3586SOL    HW122220   1.110   0.272  17.159 -0.9536 -1.5547  0.8520
 3586SOL    HW222221   1.223   0.191  17.202  0.8969  1.0856  0.2188
 3587SOL     OW22222   0.441   2.273  16.838 -1.0222 -0.3745 -0.4199
 3587SOL    HW122223   0.467   2.327  16.913  0.1270  1.0689 -1.8462
 3587SOL    HW222224   0.360   2.231  16.865 -0.7118 -2.0201 -2.0063
 3588SOL     OW22225   1.351   4.324   5.784  0.1810 -0.4163 -0.1290
 3588SOL    HW122226   1.397   4.268   5.846  0.2309  3.3035  3.1631
 3588SOL    HW222227   1.422   4.383   5.756  0.5484 -0.9075 -0.2376
 3589SOL     OW22228   2.384   0.627   6.489 -1.0456 -0.1067 -0.0069
 3589SOL    HW122229   2.420   0.550   6.444  1.3467  1.7137 -1.2621
 3589SOL    HW222230   2.380   0.600   6.580 -1.8485  0.0098 -0.0072
 3590SOL     OW22231   0.510   4.240   3.518  0.0063 -0.1649 -0.2753
 3590SOL    HW122232   0.524   4.304   3.448  0.4134  1.4927  1.3420
 3590SOL    HW222233   0.417   4.257   3.533 -0.1125 -1.4849  0.4751
 3591SOL     OW22234   1.128   1.987   8.357  0.1559  0.0390  0.0458
 3591SOL    HW122235   1.177   2.051   8.409  1.8632 -1.2931  0.0865
 3591SOL    HW222236   1.191   1.915   8.356  1.2677  1.0361 -3.5460
 3592SOL     OW22237   0.508   1.817   0.827  0.5141  0.2003  0.3667
 3592SOL    HW122238   0.478   1.820   0.918  0.4880 -0.5303  0.3833
 3592SOL    HW222239   0.525   1.723   0.824  0.5948  0.2848 -1.8188
 3593SOL     OW22240   4.080   1.998   4.618 -0.2532 -0.0687 -0.7229
 3593SOL    HW122241   4.121   2.078   4.586 -0.1671 -0.2257 -1.0030
 3593SOL    HW222242   4.162   1.954   4.640 -1.2161 -2.0929 -1.2141
 3594SOL     OW22243   4.419   2.382   4.299  0.5506  0.4211  0.0526
 3594SOL    HW122244   4.468   2.457   4.332  0.7818  0.2625  0.0642
 3594SOL    HW222245   4.490   2.324   4.271 -0.2172 -0.8006  0.6066
 3595SOL     OW22246   3.816   0.163   2.822  0.6998 -0.3076  0.2869
 3595SOL    HW122247   3.738   0.110   2.833 -0.5087  1.4659  0.2481
 3595SOL    HW222248   3.793   0.242   2.871  0.8754 -0.6180  0.8658
 3596SOL     OW22249   3.024   3.907  12.259 -0.0643  0.6217 -0.5215
 3596SOL    HW122250   3.050   3.826  12.303 -0.8491  0.6234 -0.0557
 3596SOL    HW222251   3.022   3.962  12.337 -2.2130 -1.3472  0.7969
 3597SOL     OW22252   1.956   0.847  15.945 -0.1814  0.2826 -0.2783
 3597SOL    HW122253   1.914   0.859  16.031  1.8110 -0.3050  0.7757
 3597SOL    HW222254   1.900   0.897  15.886  1.5073 -0.1838 -2.2734
 3598SOL     OW22255   1.877   3.028  13.880 -0.4145  0.2245  1.4247
 3598SOL    HW122256   1.961   2.995  13.910  0.4484  1.8854  0.8725
 3598SOL    HW222257   1.897   3.052  13.789 -1.2986 -2.0253  0.6361
 3599SOL     OW22258   2.271   1.440  11.995  0.1221 -0.6174 -0.4816
 3599SOL    HW122259   2.286   1.430  11.901 -0.1727 -1.8066 -0.4065
 3599SOL    HW222260   2.178   1.418  12.006 -0.2358  2.3513  2.3883
 3600SOL     OW22261   2.805   0.565  15.992 -0.3357  0.1725 -0.2830
 3600SOL    HW122262   2.848   0.504  16.052 -2.8428 -3.8068 -2.5509
 3600SOL    HW222263   2.714   0.541  16.005 -0.6094  0.9864 -0.6902
 3601SOL     OW22264   3.006   1.332   1.627 -0.0055  0.2603 -0.3959
 3601SOL    HW122265   3.036   1.245   1.603 -0.7880 -0.0131 -0.3740
 3601SOL    HW222266   2.939   1.318   1.694  0.6145 -3.8281 -0.6423
 3602SOL     OW22267   2.494   0.618   5.730 -0.1143  0.0639 -0.1631
 3602SOL    HW122268   2.422   0.595   5.790  1.3543 -1.0721  1.1518
 3602SOL    HW222269   2.524   0.533   5.699  2.7574  0.5926  1.1936
 3603SOL     OW22270   2.997   4.024   3.763  0.1618  0.1677  0.5223
 3603SOL    HW122271   3.056   3.953   3.790 -1.2932 -1.3449 -0.3015
 3603SOL    HW222272   3.056   4.091   3.728 -0.9996  0.7208 -0.3627
 3604SOL     OW22273   1.067   3.667   1.741  0.1126 -0.4497  0.3505
 3604SOL    HW122274   1.107   3.624   1.665 -1.8075 -1.6670  0.0179
 3604SOL    HW222275   1.125   3.638   1.812  0.8577  1.2499  0.4304
 3605SOL     OW22276   4.147   3.012   3.073  0.7553  0.7614  0.0507
 3605SOL    HW122277   4.159   3.105   3.092 -1.0189  1.6063 -2.9139
 3605SOL    HW222278   4.229   2.994   3.027  1.1021  2.1372  0.1288
 3606SOL     OW22279   0.821   2.568   2.742 -0.2873  0.2399  0.9966
 3606SOL    HW122280   0.787   2.483   2.771 -0.5513  0.2465  0.7000
 3606SOL    HW222281   0.914   2.551   2.757  0.0515  0.5956 -0.7498
 3607SOL     OW22282   1.108   2.139  11.635  0.0155 -0.2080  0.0516
 3607SOL    HW122283   1.107   2.087  11.715 -1.8803 -1.6957 -0.9375
 3607SOL    HW222284   1.036   2.199  11.656  0.8473  0.0072  2.3023
 3608SOL     OW22285   2.858   2.231   1.902  0.8779  0.3917 -0.0078
 3608SOL    HW122286   2.948   2.201   1.890  1.0647  0.7801  0.4198
 3608SOL    HW222287   2.883   2.305   1.957 -0.1097 -0.0092  0.9847
 3609SOL     OW22288   0.809   4.647  10.670 -0.1522  0.3570 -0.3690
 3609SOL    HW122289   0.738   4.694  10.713  1.5661  2.4564  0.1544
 3609SOL    HW222290   0.779   4.642  10.579  3.4704 -1.9523 -1.4258
 3610SOL     OW22291   2.558   1.310  10.350 -0.7328 -0.2530  0.3321
 3610SOL    HW122292   2.620   1.310  10.277 -1.1310 -0.6953 -0.0049
 3610SOL    HW222293   2.564   1.221  10.385 -0.2806 -0.8234 -1.1599
 3611SOL     OW22294   2.607   3.714   5.623  0.3322  0.8347 -0.6323
 3611SOL    HW122295   2.623   3.744   5.533 -1.7819  0.0162 -1.2642
 3611SOL    HW222296   2.571   3.798   5.652 -3.7275 -0.6957 -1.3208
 3612SOL     OW22297   2.542   4.333   3.790 -0.3712  0.0492 -0.3999
 3612SOL    HW122298   2.608   4.351   3.856  0.1833 -1.5908 -0.5080
 3612SOL    HW222299   2.527   4.239   3.788  0.5620 -0.1104  0.4116
 3613SOL     OW22300   1.971   2.810   6.238  0.8319 -0.0920  0.5690
 3613SOL    HW122301   2.049   2.799   6.292  0.2084 -4.2895  0.5717
 3613SOL    HW222302   1.899   2.783   6.295  0.6539  0.1299  0.4511
 3614SOL     OW22303   1.048   0.071   6.484 -0.5861  0.1187  0.6335
 3614SOL    HW122304   1.092   0.156   6.491 -0.0382 -0.2381  1.5500
 3614SOL    HW222305   1.058   0.040   6.574  1.9231  1.8818  0.9696
 3615SOL     OW22306   2.656   1.365   6.037 -0.1383 -0.2653  0.5163
 3615SOL    HW122307   2.629   1.456   6.021  1.6421 -0.1240 -1.6466
 3615SOL    HW222308   2.632   1.355   6.129  0.1553 -1.0598  0.5048
 3616SOL     OW22309   1.553   1.654   8.950  0.5464  0.2413  0.3241
 3616SOL    HW122310   1.530   1.638   8.859  1.7902 -2.4573  0.4742
 3616SOL    HW222311   1.486   1.715   8.981 -0.0576  0.0366 -0.5815
 3617SOL     OW22312   1.279   3.114   6.383 -0.3192  0.5971 -0.3457
 3617SOL    HW122313   1.318   3.038   6.426  1.5827  1.9804  0.3559
 3617SOL    HW222314   1.225   3.069   6.318  0.7585  1.6354 -1.9720
 3618SOL     OW22315   1.905   1.040   2.461  0.3208 -0.1267  0.5624
 3618SOL    HW122316   1.870   1.062   2.547 -0.0173  0.5838  0.2512
 3618SOL    HW222317   1.839   1.073   2.399  1.3497  2.8770  1.0587
 3619SOL     OW22318   4.428   2.014   1.168 -0.2799  0.6594 -0.4648
 3619SOL    HW122319   4.399   2.103   1.148 -1.4023  0.5133  0.5089
 3619SOL    HW222320   4.352   1.964   1.140 -1.4505  1.1499  1.8755
 3620SOL     OW22321   1.446   1.570   3.768 -0.5690  0.5761 -0.0433
 3620SOL    HW122322   1.492   1.549   3.687  0.5137 -0.6071  0.8860
 3620SOL    HW222323   1.498   1.637   3.812  1.0858  1.0047 -2.6502
 3621SOL     OW22324   0.831   4.014  12.106  0.3961 -0.1808 -0.6906
 3621SOL    HW122325   0.739   4.016  12.079  0.6043 -0.6667 -1.4417
 3621SOL    HW222326   0.833   3.943  12.170  0.9760 -0.8161 -1.4157
 3622SOL     OW22327   3.043   0.724  15.895  0.0091  0.0457 -0.3733
 3622SOL    HW122328   2.971   0.663  15.917 -0.7682  0.5388 -1.5753
 3622SOL    HW222329   2.993   0.792  15.850 -0.3520 -0.3526 -0.5762
 3623SOL     OW22330   2.699   3.622   9.679 -0.5279  0.0800  0.2940
 3623SOL    HW122331   2.718   3.697   9.735 -2.1704  0.8539 -0.1879
 3623SOL    HW222332   2.721   3.651   9.590  0.8125  1.3635  1.0637
 3624SOL     OW22333   4.296   3.299  12.985 -0.2673  0.4165 -0.1010
 3624SOL    HW122334   4.273   3.339  13.069 -0.6434 -1.6038  0.7340
 3624SOL    HW222335   4.252   3.358  12.923 -0.1427  1.8685  1.1888
 3625SOL     OW22336   2.195   4.357  11.493 -0.2592  0.5786  0.0574
 3625SOL    HW122337   2.183   4.452  11.496 -1.3666  0.3329  4.2555
 3625SOL    HW222338   2.170   4.339  11.584 -0.4730 -3.5194 -0.8217
 3626SOL     OW22339   3.631   3.772  11.015 -0.2441  0.0338  0.0665
 3626SOL    HW122340   3.613   3.823  10.936 -0.0508  2.2562  1.4542
 3626SOL    HW222341   3.652   3.843  11.076 -3.6620  0.7825  0.3460
 3627SOL     OW22342   4.210   1.869   7.144  0.1127 -0.3832 -0.0325
 3627SOL    HW122343   4.224   1.868   7.049 -0.5422 -0.0942 -0.1351
 3627SOL    HW222344   4.124   1.831   7.162 -1.2434  1.3993 -2.6188
 3628SOL     OW22345   3.044   3.275   4.676 -0.0446 -0.5047 -0.3611
 3628SOL    HW122346   3.070   3.191   4.638  3.2227 -0.4546  1.7084
 3628SOL    HW222347   3.132   3.311   4.687 -0.6855  0.8730  0.2541
 3629SOL     OW22348   0.912   2.870   3.970  0.5318  0.5432  0.0827
 3629SOL    HW122349   1.007   2.867   3.981  0.7024 -2.1087 -2.1077
 3629SOL    HW222350   0.892   2.817   4.047 -0.9509  2.8743  1.3131
 3630SOL     OW22351   1.180   4.457   4.009 -0.0733  0.1052  0.2918
 3630SOL    HW122352   1.253   4.430   4.065  0.4940  1.4864  0.2008
 3630SOL    HW222353   1.211   4.535   3.964 -0.6867 -0.1568 -0.5995
 3631SOL     OW22354   1.157   3.534   5.099 -0.4154  0.2174 -0.0049
 3631SOL    HW122355   1.061   3.530   5.106 -0.3673  0.7524  0.9154
 3631SOL    HW222356   1.171   3.465   5.034 -0.6620  0.1307  0.0324
 3632SOL     OW22357   2.865   0.589  10.092  0.3316 -0.1062  0.2394
 3632SOL    HW122358   2.913   0.533  10.152 -0.7322 -1.1958  0.0754
 3632SOL    HW222359   2.884   0.550  10.007 -0.5605  1.8006 -0.8637
 3633SOL     OW22360   4.017   1.449   6.049 -0.0077 -0.4825 -0.2138
 3633SOL    HW122361   3.929   1.412   6.054  0.4156 -1.7828 -2.6236
 3633SOL    HW222362   4.056   1.414   5.969  0.9966 -0.5114  0.2915
 3634SOL     OW22363   1.730   2.253   2.974 -0.3789 -0.2320  0.0796
 3634SOL    HW122364   1.726   2.224   2.883 -2.2687  0.8615 -0.1905
 3634SOL    HW222365   1.774   2.337   2.962  1.5118 -1.1517  0.6310
 3635SOL     OW22366   2.168   2.381   6.004 -0.0597  0.0061 -0.3883
 3635SOL    HW122367   2.166   2.476   6.018 -0.7412  0.0383 -0.7470
 3635SOL    HW222368   2.254   2.367   5.965 -0.1902  0.9426 -1.0001
 3636SOL     OW22369   0.096   0.828  16.203  0.0845 -0.1218 -0.1507
 3636SOL    HW122370   0.132   0.883  16.273 -3.1197  1.1328  0.5423
 3636SOL    HW222371   0.115   0.871  16.119  0.9446  4.1820  2.2071
 3637SOL     OW22372   1.992   4.029   5.788 -0.1505  0.2391 -0.0907
 3637SOL    HW122373   1.918   4.008   5.731 -0.7762  0.0690  0.7855
 3637SOL    HW222374   2.023   4.116   5.763 -1.0338  0.4316 -0.4900
 3638SOL     OW22375   3.202   2.929   7.643 -0.6059 -0.1219 -0.0650
 3638SOL    HW122376   3.282   2.877   7.641 -0.6552 -0.2258  0.7235
 3638SOL    HW222377   3.149   2.888   7.711  1.2048 -1.3191  0.6223
 3639SOL     OW22378   1.038   2.923  10.786  0.0168  0.4663  0.3003
 3639SOL    HW122379   0.992   3.007  10.775 -1.9983 -0.6959 -0.2375
 3639SOL    HW222380   1.126   2.953  10.807  0.2365  0.0965 -0.0956
 3640SOL     OW22381   4.389   1.817   0.948  0.3667 -0.6887 -0.2757
 3640SOL    HW122382   4.482   1.805   0.928  0.4630 -2.2300  1.0641
 3640SOL    HW222383   4.356   1.727   0.938  1.0217 -1.2648  2.7697
 3641SOL     OW22384   4.606   2.469  15.599 -0.7699 -0.0717 -0.3717
 3641SOL    HW122385   4.611   2.380  15.566  3.0874  0.0666 -0.2142
 3641SOL    HW222386   4.576   2.513  15.520 -0.2064 -0.1585 -0.6345
 3642SOL     OW22387   2.943   0.440   3.490  0.3481 -0.1156 -0.7541
 3642SOL    HW122388   2.882   0.514   3.491  0.0980 -0.3187 -1.1491
 3642SOL    HW222389   2.990   0.458   3.409  1.0393 -0.5903 -0.4571
 3643SOL     OW22390   0.980   4.199  15.921 -0.2439  0.4985  0.1014
 3643SOL    HW122391   1.005   4.172  15.833  0.6852 -1.6480  1.0442
 3643SOL    HW222392   0.916   4.269  15.904  1.0783  1.2893 -1.6438
 3644SOL     OW22393   0.977   3.513   0.849  0.0939  0.1799 -0.1090
 3644SOL    HW122394   1.015   3.539   0.932  0.5697 -1.8477  0.3014
 3644SOL    HW222395   0.890   3.486   0.879 -0.1798  0.2160 -0.8585
 3645SOL     OW22396   0.483   2.856  17.266  0.2825  0.2736 -0.3276
 3645SOL    HW122397   0.467   2.820  17.354 -0.3932  0.6824 -0.2821
 3645SOL    HW222398   0.472   2.776  17.215 -1.3061  1.4568 -1.8339
 3646SOL     OW22399   3.060   4.610   3.710 -0.0910  0.1070 -0.3145
 3646SOL    HW122400   2.973   4.578   3.687  0.4797 -0.6260 -1.4343
 3646SOL    HW222401   3.095   4.530   3.748  0.1508  0.5295  0.3663
 3647SOL     OW22402   1.659   1.794  10.677  0.2045  0.2584 -0.0824
 3647SOL    HW122403   1.646   1.772  10.585  0.0308  0.3706 -0.0850
 3647SOL    HW222404   1.753   1.802  10.691  0.2969  3.0275 -2.3638
 3648SOL     OW22405   0.636   4.334   9.447  0.0174  0.4538 -0.2958
 3648SOL    HW122406   0.683   4.263   9.405 -1.1660  0.6052 -1.8551
 3648SOL    HW222407   0.713   4.384   9.473  1.0639 -1.9150  1.1482
 3649SOL     OW22408   1.790   3.507   6.290 -0.0061  0.1773 -0.5037
 3649SOL    HW122409   1.752   3.584   6.247 -1.1765 -0.9322 -1.4587
 3649SOL    HW222410   1.874   3.502   6.245  0.0945  0.3846 -0.3424
 3650SOL     OW22411   0.965   1.301  14.212  0.1646  0.2891  0.3178
 3650SOL    HW122412   1.051   1.292  14.252  0.3062  0.5293  0.0658
 3650SOL    HW222413   0.908   1.328  14.284 -2.1209  2.3588 -2.2761
 3651SOL     OW22414   2.961   2.757  12.284 -0.0357 -0.0227 -0.3864
 3651SOL    HW122415   2.908   2.701  12.227 -0.1519 -0.5868  0.2820
 3651SOL    HW222416   2.903   2.832  12.294 -0.5842 -0.2671 -1.6653
 3652SOL     OW22417   0.074   0.820   7.287  0.6636  0.3074 -0.0739
 3652SOL    HW122418   0.061   0.795   7.379 -0.5935  2.1536  0.2682
 3652SOL    HW222419   4.724   0.876   7.267 -0.6666 -1.2915  0.4621
 3653SOL     OW22420   3.435   3.450   6.086 -0.1941 -0.0454 -0.3013
 3653SOL    HW122421   3.484   3.431   6.006  3.3393 -3.0985  2.5647
 3653SOL    HW222422   3.474   3.533   6.112 -0.8295 -0.2656  1.3411
 3654SOL     OW22423   2.462   3.781   8.786 -0.2286 -0.2625  0.3076
 3654SOL    HW122424   2.429   3.784   8.876 -0.3273 -0.8268  0.2926
 3654SOL    HW222425   2.504   3.865   8.768 -1.4811  0.1807 -0.5530
 3655SOL     OW22426   0.067   1.750  12.426 -0.1089  0.2639  0.8949
 3655SOL    HW122427   0.125   1.772  12.353  0.8345 -0.2834  1.4772
 3655SOL    HW222428   4.706   1.782  12.403 -0.3069  0.3194  1.7407
 3656SOL     OW22429   3.617   1.897   1.507 -0.4906  0.3876 -0.9305
 3656SOL    HW122430   3.693   1.941   1.547 -1.2651 -0.2617  1.2477
 3656SOL    HW222431   3.664   1.843   1.444  1.3420  0.5091  0.3338
 3657SOL     OW22432   1.557   3.412  11.082  0.0420 -0.1781  0.3079
 3657SOL    HW122433   1.539   3.322  11.107 -2.3959 -0.0541 -1.0411
 3657SOL    HW222434   1.472   3.456  11.079 -0.6825 -1.7860 -2.7364
 3658SOL     OW22435   2.414   0.887   6.683  0.5230  0.1223  0.3619
 3658SOL    HW122436   2.499   0.865   6.644  0.1637 -0.2656 -0.2081
 3658SOL    HW222437   2.419   0.850   6.771  1.5899 -0.9763 -0.1590
 3659SOL     OW22438   1.627   4.240   4.872  0.1679  0.2512 -0.5492
 3659SOL    HW122439   1.536   4.212   4.875 -0.2546  1.6879 -0.3018
 3659SOL    HW222440   1.618   4.301   4.798 -1.2721  1.2538  0.4660
 3660SOL     OW22441   3.090   4.053   7.621  0.2472  0.4104  0.3795
 3660SOL    HW122442   3.167   4.014   7.662  0.7683  0.7191 -0.3111
 3660SOL    HW222443   3.088   4.011   7.535  2.1479  2.0429 -0.4535
 3661SOL     OW22444   0.896   2.670   5.039  0.7128  0.6076  0.3605
 3661SOL    HW122445   0.908   2.764   5.030  1.4424  0.6040  1.3353
 3661SOL    HW222446   0.844   2.651   4.961 -1.2396 -0.8273  2.0047
 3662SOL     OW22447   3.116   4.531  14.038 -0.3253 -0.6468  0.2434
 3662SOL    HW122448   3.143   4.538  13.946 -1.1340  2.3273  0.2337
 3662SOL    HW222449   3.165   4.603  14.078 -2.0113  0.4105  0.4117
 3663SOL     OW22450   3.662   0.691  14.823  0.1517 -0.1520  0.0455
 3663SOL    HW122451   3.573   0.672  14.853 -0.1199 -2.0392 -1.9698
 3663SOL    HW222452   3.650   0.683  14.729  2.3784 -0.0934 -0.2308
 3664SOL     OW22453   4.148   3.040   5.308 -0.5865 -0.7116 -0.0284
 3664SOL    HW122454   4.145   3.028   5.213 -0.7771 -1.1088  0.0301
 3664SOL    HW222455   4.231   3.088   5.308 -1.1546  0.2798  0.2604
 3665SOL     OW22456   1.878   3.037  15.586  0.4072  0.0674 -0.0116
 3665SOL    HW122457   1.949   3.014  15.646  0.1834 -0.8698 -0.1044
 3665SOL    HW222458   1.863   3.127  15.616 -0.3926 -0.1363  0.1939
 3666SOL     OW22459   4.146   3.433   7.035  0.2906 -0.4126  0.0445
 3666SOL    HW122460   4.119   3.523   7.016 -0.4470 -0.2967  1.6928
 3666SOL    HW222461   4.209   3.438   7.106 -1.8453 -3.0961  2.1338
 3667SOL     OW22462   4.214   4.539   6.082  0.0691 -0.5618 -0.4764
 3667SOL    HW122463   4.206   4.634   6.086  0.3607 -0.5115 -1.0021
 3667SOL    HW222464   4.216   4.514   6.175 -2.3429  1.6558  0.1549
 3668SOL     OW22465   3.230   0.951  15.919 -0.0758 -0.6246  0.0069
 3668SOL    HW122466   3.311   0.899  15.918 -0.0692 -0.6012 -0.7105
 3668SOL    HW222467   3.159   0.893  15.892  0.3198 -1.6032  1.0644
 3669SOL     OW22468   1.906   2.838   3.471 -0.4893 -0.2796 -0.7301
 3669SOL    HW122469   1.998   2.861   3.456 -0.4240  1.2359  2.2733
 3669SOL    HW222470   1.879   2.821   3.380  0.7259  0.6123 -1.2645
 3670SOL     OW22471   1.012   4.087  16.825  0.1591  0.5127  0.3120
 3670SOL    HW122472   0.983   4.007  16.780  1.0489  1.2085 -1.5175
 3670SOL    HW222473   1.021   4.134  16.742  2.8845 -0.9579 -0.2440
 3671SOL     OW22474   2.763   3.205   7.160 -0.6681 -0.0490  0.0053
 3671SOL    HW122475   2.709   3.258   7.218 -0.6421  2.5191 -2.3177
 3671SOL    HW222476   2.787   3.128   7.211  0.6912  0.3898  0.0314
 3672SOL     OW22477   3.661   2.870   6.959 -0.7378 -0.0877 -0.7680
 3672SOL    HW122478   3.646   2.830   7.045  0.0420 -2.0427 -1.5426
 3672SOL    HW222479   3.687   2.792   6.910 -0.8076 -1.3818  1.2326
 3673SOL     OW22480   1.136   3.720   6.590  0.1657 -0.0035 -0.5158
 3673SOL    HW122481   1.184   3.803   6.595  0.3058 -0.1484  0.6228
 3673SOL    HW222482   1.088   3.738   6.509  0.0092 -0.8119 -0.6043
 3674SOL     OW22483   2.688   3.009   6.497  0.0022  0.1230 -0.2231
 3674SOL    HW122484   2.681   2.992   6.403 -0.1998  0.9686 -0.3628
 3674SOL    HW222485   2.624   2.945   6.527  1.5734 -0.3483  2.1102
 3675SOL     OW22486   0.503   2.735  16.410 -0.5334  0.5261  0.2814
 3675SOL    HW122487   0.424   2.784  16.433 -1.0072 -0.7254  1.2756
 3675SOL    HW222488   0.504   2.742  16.314 -2.3269 -4.5506 -0.1017
 3676SOL     OW22489   2.939   3.464  10.129  0.2794 -0.5552 -0.0361
 3676SOL    HW122490   2.913   3.431  10.043 -1.6084 -1.4573  0.8973
 3676SOL    HW222491   3.027   3.427  10.136  0.6097  0.5621  1.4924
 3677SOL     OW22492   1.711   4.017   2.819  0.2667  0.0176  0.3355
 3677SOL    HW122493   1.784   3.991   2.763 -0.5358  3.1386 -2.2075
 3677SOL    HW222494   1.758   4.058   2.892  0.9729 -2.0156  1.0102
 3678SOL     OW22495   1.718   1.490   0.522  0.1371 -0.0074  0.0617
 3678SOL    HW122496   1.686   1.551   0.454 -1.4344  0.2486  1.0295
 3678SOL    HW222497   1.669   1.513   0.601  1.6386 -2.3691  1.6870
 3679SOL     OW22498   1.263   2.128  16.227  0.6183  0.2173  0.2192
 3679SOL    HW122499   1.245   2.101  16.317  0.5705  1.4105  0.5610
 3679SOL    HW222500   1.197   2.195  16.214 -0.1220 -0.6752 -0.6298
 3680SOL     OW22501   4.684   2.210  17.301 -0.3099  0.3548  0.7339
 3680SOL    HW122502   0.041   2.164  17.285 -1.5117 -1.1355 -1.1977
 3680SOL    HW222503   4.627   2.186  17.229 -0.5626  1.8764  0.4368
 3681SOL     OW22504   0.852   2.685  11.422  0.6726  0.0660  0.1117
 3681SOL    HW122505   0.763   2.657  11.443  0.2580  0.9267 -0.4692
 3681SOL    HW222506   0.832   2.727  11.338  0.0314  0.6316  0.5478
 3682SOL     OW22507   0.302   3.647   2.197  0.3502 -0.2383 -0.0219
 3682SOL    HW122508   0.357   3.708   2.149 -0.5985  2.1592  1.9067
 3682SOL    HW222509   0.237   3.634   2.128 -0.9316  1.3509  0.8832
 3683SOL     OW22510   0.730   3.629   4.403 -0.1357 -0.2104  0.3476
 3683SOL    HW122511   0.672   3.700   4.428 -2.0278 -2.0462  1.1644
 3683SOL    HW222512   0.787   3.644   4.478  0.4849 -0.0219 -0.1668
 3684SOL     OW22513   2.555   2.399   4.222 -0.0086  0.4999  0.3004
 3684SOL    HW122514   2.609   2.356   4.156 -1.1569  3.1009 -2.3314
 3684SOL    HW222515   2.574   2.346   4.299  2.4719  1.9862  0.7242
 3685SOL     OW22516   0.654   1.760   4.490 -0.2485  0.0247 -0.4839
 3685SOL    HW122517   0.627   1.840   4.445 -0.9820  1.3859  2.3895
 3685SOL    HW222518   0.680   1.805   4.570 -0.1915 -3.4753  1.4671
 3686SOL     OW22519   2.490   0.117   2.162 -0.0065  0.4713 -0.3681
 3686SOL    HW122520   2.448   0.165   2.233  0.8896  1.1019 -0.2669
 3686SOL    HW222521   2.579   0.148   2.175  0.3289 -1.4422  1.9024
 3687SOL     OW22522   1.459   2.162  10.830 -0.2382 -0.1865 -0.4506
 3687SOL    HW122523   1.555   2.161  10.823 -0.1800  1.5402  0.1553
 3687SOL    HW222524   1.418   2.117  10.756  0.4977 -1.1766 -0.2641
 3688SOL     OW22525   1.143   1.675   4.213  0.2376 -0.1410  0.1271
 3688SOL    HW122526   1.058   1.651   4.176  0.3710  0.0026 -0.2690
 3688SOL    HW222527   1.192   1.608   4.166 -2.3054 -0.1304 -2.5411
 3689SOL     OW22528   4.309   3.062   6.343 -0.5999 -0.0994 -0.1974
 3689SOL    HW122529   4.347   3.055   6.430  0.1943  1.0885 -0.4490
 3689SOL    HW222530   4.255   2.983   6.347 -1.6216  0.7360  2.4317
 3690SOL     OW22531   4.280   4.525   2.974 -0.2890 -0.0916  0.0429
 3690SOL    HW122532   4.255   4.433   2.975  1.2572 -0.5085  2.3991
 3690SOL    HW222533   4.344   4.526   2.902 -1.0252  0.6251 -0.5961
 3691SOL     OW22534   0.609   3.782   3.447 -0.1928  0.1215  0.2627
 3691SOL    HW122535   0.536   3.759   3.505 -1.2181 -0.8826 -1.4086
 3691SOL    HW222536   0.653   3.846   3.502  2.5700 -0.8290 -0.8184
 3692SOL     OW22537   3.707   2.383   0.998  0.7376  0.9072  0.2540
 3692SOL    HW122538   3.698   2.384   0.902 -0.5270 -1.4396  0.3316
 3692SOL    HW222539   3.617   2.403   1.023  1.3402  3.4764  0.3789
 3693SOL     OW22540   4.562   4.380   5.963  0.5070 -1.0394  0.0869
 3693SOL    HW122541   4.585   4.408   5.874 -2.2483 -0.4768 -0.4587
 3693SOL    HW222542   4.626   4.310   5.966 -0.2285 -1.7017  0.1899
 3694SOL     OW22543   3.304   3.427   7.802 -0.6844 -0.1429 -0.3528
 3694SOL    HW122544   3.248   3.503   7.818 -0.3408 -0.6108  2.9191
 3694SOL    HW222545   3.292   3.426   7.707 -0.2937 -0.5438 -0.3964
 3695SOL     OW22546   3.393   4.669   1.605 -0.0082  0.1383  0.1546
 3695SOL    HW122547   3.374   4.603   1.538 -2.2180 -0.1038  1.0413
 3695SOL    HW222548   3.469   4.713   1.566  0.7079 -0.1998  1.1763
 3696SOL     OW22549   0.536   1.628   3.760 -0.4811 -0.0832 -0.1682
 3696SOL    HW122550   0.616   1.663   3.722  0.0611 -0.1950  0.8620
 3696SOL    HW222551   0.573   1.575   3.831 -0.9738  0.2163  0.3108
 3697SOL     OW22552   3.134   4.442  13.389 -0.1091 -0.4571  0.2070
 3697SOL    HW122553   3.044   4.474  13.392 -0.6803 -2.1707  1.1721
 3697SOL    HW222554   3.195   4.516  13.394 -0.6989  0.0802 -0.5278
 3698SOL     OW22555   2.425   3.151   7.142  0.1378  0.6616 -0.1338
 3698SOL    HW122556   2.460   3.159   7.053  0.2366 -0.9983 -0.2348
 3698SOL    HW222557   2.446   3.235   7.184  1.3029  0.2527  0.1067
 3699SOL     OW22558   4.097   1.105  16.127 -0.1771 -0.0117 -1.4135
 3699SOL    HW122559   4.015   1.055  16.128  1.7154 -3.0491 -0.6919
 3699SOL    HW222560   4.109   1.135  16.037 -0.1892  1.9330 -0.7629
 3700SOL     OW22561   0.265   4.271   0.350 -0.1706  0.2981  0.6566
 3700SOL    HW122562   0.237   4.183   0.374 -1.2359  0.0071 -1.5702
 3700SOL    HW222563   0.340   4.287   0.407  0.0735 -0.7670  0.6188
 3701SOL     OW22564   3.084   0.368   6.363 -0.1494 -0.3415 -0.0152
 3701SOL    HW122565   2.991   0.349   6.370  0.0675 -1.2975  0.3680
 3701SOL    HW222566   3.099   0.357   6.269 -0.7687 -0.4489 -0.0974
 3702SOL     OW22567   1.666   3.270   6.234 -0.1103  0.4739  0.4822
 3702SOL    HW122568   1.708   3.280   6.149  0.8708  1.1599  1.0505
 3702SOL    HW222569   1.712   3.346   6.269  1.1557  0.9227 -2.1505
 3703SOL     OW22570   3.107   3.435  17.082 -0.5660 -0.7649  0.1690
 3703SOL    HW122571   3.075   3.517  17.118 -1.2461 -0.4361 -1.1779
 3703SOL    HW222572   3.201   3.440  17.094 -0.7200 -0.3020  1.2169
 3704SOL     OW22573   3.477   2.186   8.491 -0.8029 -0.9898 -0.0949
 3704SOL    HW122574   3.496   2.092   8.492 -1.3578 -1.1037  0.0582
 3704SOL    HW222575   3.393   2.170   8.535  0.3325  0.4756  2.6344
 3705SOL     OW22576   1.844   4.553   4.634  0.5944  0.4704 -0.1997
 3705SOL    HW122577   1.848   4.624   4.698  0.9153  0.6484 -0.4130
 3705SOL    HW222578   1.936   4.526   4.625  0.4504 -0.2606  0.4587
 3706SOL     OW22579   2.257   0.153  11.327 -0.7432 -0.0095 -0.2169
 3706SOL    HW122580   2.213   0.235  11.351  2.0053  1.2076  0.6591
 3706SOL    HW222581   2.256   0.164  11.232 -0.4233 -2.6036 -0.5415
 3707SOL     OW22582   3.049   1.178   9.108 -0.5280 -0.2017  0.4569
 3707SOL    HW122583   2.957   1.169   9.084 -0.0922  0.9997 -1.6641
 3707SOL    HW222584   3.070   1.095   9.151  0.6860 -0.7247 -1.1525
 3708SOL     OW22585   4.050   3.276   3.242 -0.4644 -0.1481  0.1919
 3708SOL    HW122586   3.981   3.326   3.199 -0.6423  1.4606  2.3775
 3708SOL    HW222587   4.135   3.300   3.204 -0.1046 -0.4283  0.8170
 3709SOL     OW22588   3.138   4.493   8.110  0.6617 -0.1827  0.0209
 3709SOL    HW122589   3.066   4.483   8.172  0.7097 -1.8667 -0.2016
 3709SOL    HW222590   3.137   4.587   8.092 -0.1226  0.2584  2.2931
 3710SOL     OW22591   0.959   2.165   6.199  0.5696  0.3436  0.0846
 3710SOL    HW122592   0.979   2.256   6.174  1.6278  0.1619  0.2707
 3710SOL    HW222593   0.864   2.162   6.201  0.5863  1.1575  2.7954
 3711SOL     OW22594   2.737   1.227  10.170  0.2098  0.0745 -0.3854
 3711SOL    HW122595   2.804   1.269  10.115 -0.1828  1.0530 -0.1119
 3711SOL    HW222596   2.774   1.141  10.189  0.0333  0.3670  1.2327
 3712SOL     OW22597   0.429   2.140  16.606 -0.6430  0.2200  0.4586
 3712SOL    HW122598   0.431   2.193  16.686 -0.0180 -1.0925  1.3276
 3712SOL    HW222599   0.522   2.125  16.590 -0.4884  0.4222  1.1449
 3713SOL     OW22600   3.915   4.698   3.393 -0.4230  0.2885 -0.1364
 3713SOL    HW122601   3.830   4.695   3.438  0.4425  0.0933  1.4724
 3713SOL    HW222602   3.968   4.669   3.467 -1.0711  1.6031  0.8362
 3714SOL     OW22603   3.515   3.891   9.112  0.2743  0.7669 -0.5045
 3714SOL    HW122604   3.441   3.885   9.051 -0.0124  0.4681 -0.1267
 3714SOL    HW222605   3.492   3.968   9.164 -0.4657  1.6140 -2.0593
 3715SOL     OW22606   0.711   2.256  11.290 -0.9460 -0.0461 -0.0561
 3715SOL    HW122607   0.712   2.270  11.195 -0.1062 -3.0312 -0.4779
 3715SOL    HW222608   0.742   2.166  11.281 -2.7017 -0.6458 -0.2013
 3716SOL     OW22609   0.639   2.937  17.503  0.4444 -0.1801 -0.1894
 3716SOL    HW122610   0.548   2.921  17.530  0.0521  0.3058 -1.2158
 3716SOL    HW222611   0.623   2.955  17.410 -1.1252 -0.6579 -0.0157
 3717SOL     OW22612   0.721   0.585   9.112  0.7374 -0.4959 -0.2733
 3717SOL    HW122613   0.667   0.631   9.047  0.1007 -1.2919 -0.3063
 3717SOL    HW222614   0.774   0.659   9.142  0.6299 -0.7667  0.5931
 3718SOL     OW22615   4.178   3.814  11.965 -0.3185  0.0311 -0.6381
 3718SOL    HW122616   4.161   3.733  12.013  0.1057  1.0350  1.2175
 3718SOL    HW222617   4.103   3.832  11.909 -1.2718  1.6112  1.1485
 3719SOL     OW22618   1.225   1.238   6.498  0.8311 -0.2836 -0.4870
 3719SOL    HW122619   1.172   1.182   6.442 -0.5663 -0.4812  1.0263
 3719SOL    HW222620   1.214   1.327   6.463  0.4203 -0.3809 -0.6014
 3720SOL     OW22621   3.860   2.650   2.926 -0.2304  0.2301  0.4637
 3720SOL    HW122622   3.919   2.626   2.855  0.8961  0.1779  1.4093
 3720SOL    HW222623   3.872   2.745   2.924  1.0819  0.0685  0.4132
 3721SOL     OW22624   4.228   2.687   3.722  0.1396  0.2670  0.4664
 3721SOL    HW122625   4.296   2.741   3.763 -0.4817 -0.5334  2.5989
 3721SOL    HW222626   4.203   2.618   3.784 -0.6026  0.3196  0.2237
 3722SOL     OW22627   3.277   0.936   5.948 -0.3147  0.0325  0.1435
 3722SOL    HW122628   3.290   0.928   5.853  0.9266  0.8153  0.2436
 3722SOL    HW222629   3.239   0.850   5.965  0.5778 -0.5609 -0.8559
 3723SOL     OW22630   1.242   0.096   3.159 -0.7474  0.3245  0.2703
 3723SOL    HW122631   1.198   0.035   3.218 -0.2744 -1.0249 -0.7895
 3723SOL    HW222632   1.217   0.057   3.075  0.0336  1.7839 -0.6384
 3724SOL     OW22633   0.601   4.424   3.335  0.0070 -0.7444  0.3242
 3724SOL    HW122634   0.645   4.373   3.267  2.6048  0.1224  1.3584
 3724SOL    HW222635   0.680   4.460   3.375  1.3127 -2.2589 -0.8637
 3725SOL     OW22636   1.054   2.986   6.272  0.2396  0.6705  0.1959
 3725SOL    HW122637   1.049   2.976   6.368 -3.7128  2.5399  0.1714
 3725SOL    HW222638   1.002   2.916   6.233  0.9845 -0.2529  0.8403
 3726SOL     OW22639   1.698   1.916  16.226  0.0769 -0.2517 -0.0958
 3726SOL    HW122640   1.681   2.010  16.225 -3.2189 -0.8265  1.3917
 3726SOL    HW222641   1.758   1.908  16.152 -0.0156 -0.3857 -0.1576
 3727SOL     OW22642   3.248   3.718   1.860  0.2312  0.1781  0.1223
 3727SOL    HW122643   3.297   3.800   1.852  0.4497  0.0776  0.4000
 3727SOL    HW222644   3.289   3.677   1.936 -1.7449  0.8964  1.5777
 3728SOL     OW22645   1.783   3.996   8.975  0.0503 -0.3886  0.3060
 3728SOL    HW122646   1.696   4.004   8.936 -1.2816 -1.5842  3.0335
 3728SOL    HW222647   1.809   3.913   8.934 -0.0086  1.0150 -2.6035
 3729SOL     OW22648   1.903   3.007  15.040 -0.4419 -0.3805  0.0035
 3729SOL    HW122649   1.827   2.961  15.076 -0.6631 -0.3343 -0.4124
 3729SOL    HW222650   1.937   3.039  15.124 -0.4749 -3.1861  1.0766
 3730SOL     OW22651   4.707   3.106   5.835  0.5098 -0.5834  0.5585
 3730SOL    HW122652   4.719   3.051   5.913  1.1180 -3.4115 -1.5250
 3730SOL    HW222653   4.615   3.131   5.847  0.8729  1.9661 -2.1626
 3731SOL     OW22654   3.459   4.560   4.624 -0.5233  0.5060 -0.3023
 3731SOL    HW122655   3.402   4.497   4.580  0.8791 -0.2224 -1.0963
 3731SOL    HW222656   3.409   4.637   4.650  1.4112  1.8062 -0.3849
 3732SOL     OW22657   3.214   0.569  10.509 -0.6517  0.1936  0.5258
 3732SOL    HW122658   3.261   0.652  10.516  0.5045 -0.6248  2.4428
 3732SOL    HW222659   3.129   0.607  10.487 -1.0689 -1.1695 -0.1770
 3733SOL     OW22660   3.233   1.935   6.243 -0.0107  0.1731  0.3999
 3733SOL    HW122661   3.315   1.955   6.288  0.6631 -2.4908  0.3643
 3733SOL    HW222662   3.233   1.841   6.226 -3.3263  0.5044 -1.5219
 3734SOL     OW22663   0.924   0.144   8.659 -0.1961  0.1406 -0.4633
 3734SOL    HW122664   0.830   0.143   8.639 -0.6293  0.0999  1.5118
 3734SOL    HW222665   0.926   0.165   8.752 -1.3776  3.4984 -1.2066
 3735SOL     OW22666   0.748   1.658   3.582  0.3710 -0.5918  0.0473
 3735SOL    HW122667   0.734   1.570   3.548 -0.1724 -0.9318  1.1342
 3735SOL    HW222668   0.838   1.677   3.555  0.7479  1.2066  2.5069
 3736SOL     OW22669   0.800   0.638   5.392 -0.0848  0.7511 -0.0982
 3736SOL    HW122670   0.835   0.712   5.442 -0.4238  1.1054 -0.3795
 3736SOL    HW222671   0.749   0.693   5.332 -0.7127  0.4025  0.1141
 3737SOL     OW22672   3.348   0.418   4.981  0.0066 -0.0743  0.4248
 3737SOL    HW122673   3.438   0.445   4.962 -0.8920  1.5031 -1.6493
 3737SOL    HW222674   3.370   0.342   5.035 -0.0456 -1.6738 -1.8187
 3738SOL     OW22675   3.000   2.696   8.384  0.2417 -0.0504  0.4562
 3738SOL    HW122676   3.028   2.786   8.400 -0.5210  0.1044  0.9072
 3738SOL    HW222677   2.916   2.703   8.428  0.1988  0.4539  0.2959
 3739SOL     OW22678   2.626   4.067   9.844  0.3164 -0.5305 -0.0581
 3739SOL    HW122679   2.615   4.137   9.907 -2.2447 -0.4254 -0.6143
 3739SOL    HW222680   2.532   4.049   9.835  0.2382  0.2259 -0.7133
 3740SOL     OW22681   2.558   0.602   4.843  0.3106 -0.6627 -0.2966
 3740SOL    HW122682   2.574   0.508   4.850 -1.2612 -0.7808  2.1901
 3740SOL    HW222683   2.634   0.640   4.888 -1.1951  0.6494  1.1615
 3741SOL     OW22684   2.260   2.312   5.030 -0.3756  0.3724 -0.8917
 3741SOL    HW122685   2.340   2.354   5.064 -1.1370 -0.2900  1.7027
 3741SOL    HW222686   2.278   2.330   4.937  0.2699  2.8267 -0.2994
 3742SOL     OW22687   3.849   0.961   7.362  0.1659 -0.0341 -0.0241
 3742SOL    HW122688   3.933   0.942   7.319  1.7212 -0.4680  3.2664
 3742SOL    HW222689   3.791   0.894   7.325 -1.9173  1.2190  0.9441
 3743SOL     OW22690   1.979   1.546   2.550 -0.0257  0.0611  0.4057
 3743SOL    HW122691   1.930   1.595   2.484 -0.6304 -1.7348 -0.4884
 3743SOL    HW222692   2.054   1.604   2.541  1.2165 -1.3078  2.0242
 3744SOL     OW22693   3.584   0.749  10.497  0.4027 -0.1209  0.0135
 3744SOL    HW122694   3.506   0.781  10.543  0.2199  0.4690 -0.7022
 3744SOL    HW222695   3.623   0.833  10.470  1.9697 -0.7724  0.2204
 3745SOL     OW22696   3.473   4.216  10.987  0.2906 -0.5034 -0.1191
 3745SOL    HW122697   3.434   4.141  11.033 -0.1189 -0.2614 -0.0730
 3745SOL    HW222698   3.466   4.286  11.052  1.3140  0.0355 -0.5969
 3746SOL     OW22699   0.255   0.678   5.660  0.2095 -0.2431  0.1636
 3746SOL    HW122700   0.200   0.710   5.731  1.1279 -0.2395  0.8801
 3746SOL    HW222701   0.302   0.612   5.711 -0.0227 -0.9829 -0.5814
 3747SOL     OW22702   3.922   2.007   9.286  0.2047  0.2067  0.1377
 3747SOL    HW122703   3.845   1.984   9.339 -1.2113  0.0712 -1.9688
 3747SOL    HW222704   3.935   2.096   9.318 -0.9810  0.5725 -0.4088
 3748SOL     OW22705   3.291   4.223   2.398 -0.5400  0.1980 -0.6050
 3748SOL    HW122706   3.377   4.225   2.441 -1.3603 -0.8706  1.0881
 3748SOL    HW222707   3.253   4.310   2.409 -0.1820  0.2794 -0.0223
 3749SOL     OW22708   0.973   4.249   3.320  0.5673 -0.0348  0.0298
 3749SOL    HW122709   0.888   4.233   3.280  0.5159 -0.0878  0.1609
 3749SOL    HW222710   0.959   4.326   3.375 -0.6466 -1.0157  1.0614
 3750SOL     OW22711   0.550   2.735   8.917  0.1534 -0.1625  0.1490
 3750SOL    HW122712   0.583   2.697   8.836  1.1620  2.5877 -0.7499
 3750SOL    HW222713   0.461   2.763   8.895  0.5501  1.2825  0.3598
 3751SOL     OW22714   0.816   1.238  11.862  0.4270  0.1639 -0.1909
 3751SOL    HW122715   0.730   1.212  11.895  1.7568 -1.4479  1.9768
 3751SOL    HW222716   0.849   1.162  11.813  3.2418 -1.6540  4.5600
 3752SOL     OW22717   2.403   0.436  16.480  0.3136  0.0264 -0.2411
 3752SOL    HW122718   2.380   0.467  16.568 -2.9692 -2.5726 -0.2216
 3752SOL    HW222719   2.328   0.379  16.468  0.2478  0.0285  0.1622
 3753SOL     OW22720   1.175   2.868   3.953  0.5251 -0.0117  0.2510
 3753SOL    HW122721   1.252   2.810   3.955  1.0823  0.7613  0.9477
 3753SOL    HW222722   1.226   2.948   3.939  1.7705 -0.6260  1.2394
 3754SOL     OW22723   2.072   4.037   8.808 -0.1701  0.2231 -0.4721
 3754SOL    HW122724   2.027   3.954   8.798 -0.9067  0.3466  1.6672
 3754SOL    HW222725   2.010   4.093   8.762 -0.2151  0.4966 -0.0835
 3755SOL     OW22726   1.481   4.154   8.191  0.5236  0.0210  0.1151
 3755SOL    HW122727   1.487   4.061   8.215  1.5166  0.4693  1.5875
 3755SOL    HW222728   1.403   4.174   8.242  1.2023  0.9528  0.7870
 3756SOL     OW22729   1.882   4.603  13.811  0.2729 -0.5637  0.5791
 3756SOL    HW122730   1.804   4.551  13.831  1.5936 -2.5753  0.5148
 3756SOL    HW222731   1.858   4.672  13.872 -2.0449  0.1733 -1.1692
 3757SOL     OW22732   4.118   1.685  11.484 -0.2551 -0.2909  0.1918
 3757SOL    HW122733   4.211   1.663  11.483 -0.1998 -0.0986  0.8468
 3757SOL    HW222734   4.128   1.767  11.531 -0.6946  0.2182 -0.6115
 3758SOL     OW22735   1.497   1.300  11.996 -0.5017 -0.1924  0.6073
 3758SOL    HW122736   1.514   1.389  11.965 -0.2474 -0.9611 -1.4401
 3758SOL    HW222737   1.403   1.309  12.012 -0.1385  0.7354  2.2658
 3759SOL     OW22738   1.922   4.590   5.783  0.1596 -0.0219  0.0448
 3759SOL    HW122739   1.854   4.577   5.848  1.0796 -0.7426  0.8608
 3759SOL    HW222740   1.987   4.526   5.810  1.7849  2.1865  1.3488
 3760SOL     OW22741   0.514   1.107   4.074  0.2844 -0.0014 -0.1802
 3760SOL    HW122742   0.438   1.139   4.123  2.0596  1.8951  1.3747
 3760SOL    HW222743   0.502   1.145   3.987 -1.5683  2.4482  1.1436
 3761SOL     OW22744   0.904   0.698   3.906  0.1493  0.7458  0.3542
 3761SOL    HW122745   0.941   0.656   3.983 -1.5651  0.3324  0.9348
 3761SOL    HW222746   0.976   0.761   3.898 -0.2849  1.3318  1.0443
 3762SOL     OW22747   0.218   2.191   7.846 -0.4782 -0.5775 -0.0720
 3762SOL    HW122748   0.236   2.108   7.891 -1.0958 -0.1315  0.9655
 3762SOL    HW222749   0.257   2.162   7.763  0.6094 -3.3284  1.3970
 3763SOL     OW22750   4.644   0.227  14.356  0.3789  0.0767 -0.7372
 3763SOL    HW122751   4.652   0.274  14.273  0.2791  0.2329 -0.6590
 3763SOL    HW222752   4.650   0.133  14.342  0.6277 -0.2149  1.2523
 3764SOL     OW22753   0.642   2.847   8.499  0.1625  0.1886 -0.2915
 3764SOL    HW122754   0.554   2.813   8.487  0.7102 -0.5225 -2.2642
 3764SOL    HW222755   0.667   2.876   8.411 -0.5732  1.3677 -0.1091
 3765SOL     OW22756   0.144   2.294  10.657 -0.5614 -0.4046 -0.1321
 3765SOL    HW122757   0.138   2.212  10.607  1.1040 -0.0419 -0.9181
 3765SOL    HW222758   0.228   2.328  10.626  0.4234 -2.7939 -0.1289
 3766SOL     OW22759   4.713   2.079   3.042 -0.2663  0.6465 -0.1601
 3766SOL    HW122760   0.048   2.153   3.044  0.1964  0.2516  0.4929
 3766SOL    HW222761   0.045   2.004   3.060 -0.5040 -0.2569 -3.1307
 3767SOL     OW22762   1.466   4.228   2.896  0.2511  0.4772  0.0972
 3767SOL    HW122763   1.491   4.222   2.804 -1.0334 -1.8402 -0.1104
 3767SOL    HW222764   1.389   4.171   2.898  0.2105  0.5553  0.6097
 3768SOL     OW22765   1.335   4.653   3.861  0.1060 -0.1582  0.3943
 3768SOL    HW122766   1.270   4.686   3.800 -2.6211 -2.2056  2.2191
 3768SOL    HW222767   1.421   4.683   3.831  0.5389  0.9480  2.7259
 3769SOL     OW22768   4.226   1.154  17.608 -0.4358 -0.0743  0.3094
 3769SOL    HW122769   4.153   1.201  17.647 -0.1655 -0.0863  0.8330
 3769SOL    HW222770   4.295   1.143  17.674 -2.0109  1.0962  2.1416
 3770SOL     OW22771   2.933   3.571   0.895 -0.4396  0.1879  0.2878
 3770SOL    HW122772   2.918   3.505   0.827  0.3807 -1.3512  1.6021
 3770SOL    HW222773   2.865   3.539   0.955 -2.0613 -1.6284 -2.4858
 3771SOL     OW22774   3.850   3.860   6.300  0.3357 -0.0585 -0.1178
 3771SOL    HW122775   3.874   3.918   6.227 -0.9070 -0.0612 -0.5408
 3771SOL    HW222776   3.904   3.905   6.365 -1.4425  0.6213  0.8927
 3772SOL     OW22777   3.167   4.668   4.012 -0.0799 -0.1645 -0.2935
 3772SOL    HW122778   3.089   4.634   4.056  0.4441 -0.1088  0.6504
 3772SOL    HW222779   3.186   4.590   3.961 -0.9930  0.0197 -0.9319
 3773SOL     OW22780   1.792   0.269   5.045  0.0149  0.2951  0.4452
 3773SOL    HW122781   1.712   0.269   5.097 -0.0481 -1.1696  0.3521
 3773SOL    HW222782   1.759   0.210   4.976  0.3897  0.1805  0.3653
 3774SOL     OW22783   1.127   0.770   7.384 -0.4470 -0.7402 -0.4149
 3774SOL    HW122784   1.208   0.723   7.366  0.4870  0.3804  0.7674
 3774SOL    HW222785   1.068   0.696   7.382 -1.1454 -0.1643 -1.0202
 3775SOL     OW22786   1.588   4.681   4.030  0.2746  0.5752 -0.3073
 3775SOL    HW122787   1.645   0.002   3.969 -1.6479  2.8872 -0.3220
 3775SOL    HW222788   1.591   0.015   4.105 -1.2143 -0.5189  0.6328
 3776SOL     OW22789   0.716   4.588  15.973 -0.1496 -0.0664 -0.7230
 3776SOL    HW122790   0.795   4.631  15.942  1.2744 -0.2992  2.6045
 3776SOL    HW222791   0.731   4.616  16.063 -0.3483  2.6571 -1.5428
 3777SOL     OW22792   2.237   4.281   0.599 -0.6777 -0.0009  0.3507
 3777SOL    HW122793   2.191   4.319   0.674 -1.0714  0.1847  0.0147
 3777SOL    HW222794   2.159   4.270   0.545 -0.8408 -0.1028  0.6047
 3778SOL     OW22795   1.716   3.268   3.073 -0.5630  0.6110 -0.0691
 3778SOL    HW122796   1.795   3.303   3.032 -1.1627  1.4622 -0.4985
 3778SOL    HW222797   1.755   3.235   3.154 -1.6780 -1.1420 -0.2341
 3779SOL     OW22798   0.387   3.457   8.376 -0.2240  0.1470 -0.4469
 3779SOL    HW122799   0.466   3.448   8.428  0.1091  1.4993 -0.7294
 3779SOL    HW222800   0.409   3.392   8.309  0.5352  0.5110 -0.5436
 3780SOL     OW22801   0.760   2.423   6.366  0.1088  0.0676 -0.1127
 3780SOL    HW122802   0.840   2.429   6.417  0.7428 -0.4056 -1.0503
 3780SOL    HW222803   0.776   2.485   6.295  1.4161  0.2215  0.3306
 3781SOL     OW22804   4.339   2.547   0.423 -0.0323 -0.1813 -0.3017
 3781SOL    HW122805   4.268   2.566   0.484  0.5397 -1.8818  0.8932
 3781SOL    HW222806   4.407   2.609   0.449 -0.2098  0.4712 -1.3858
 3782SOL     OW22807   1.284   4.053   8.710  0.1689 -0.6381  0.0467
 3782SOL    HW122808   1.318   4.027   8.624 -1.7943  2.1740 -1.5876
 3782SOL    HW222809   1.242   4.135   8.684 -1.4635 -0.7680  2.2400
 3783SOL     OW22810   4.183   4.126   7.963 -0.5272 -0.4097  0.4508
 3783SOL    HW122811   4.138   4.202   7.927 -1.5695 -0.6877  1.1531
 3783SOL    HW222812   4.212   4.177   8.039 -1.3307 -1.0584  1.1877
 3784SOL     OW22813   3.160   0.557   1.888 -0.3315 -0.8643  0.6460
 3784SOL    HW122814   3.082   0.502   1.885 -0.3473 -0.8613  1.0446
 3784SOL    HW222815   3.195   0.540   1.801  1.3938 -0.3983  1.2468
 3785SOL     OW22816   2.503   3.481  12.111  0.2069 -0.5926 -0.5103
 3785SOL    HW122817   2.469   3.437  12.033 -0.1797  0.4122 -0.9114
 3785SOL    HW222818   2.474   3.572  12.103 -0.5226 -0.8734 -1.0337
 3786SOL     OW22819   0.663   1.544   9.990  0.0882  0.4217  0.4636
 3786SOL    HW122820   0.610   1.613   9.950 -0.4982  0.8550  1.9740
 3786SOL    HW222821   0.583   1.493   9.994 -0.6460  1.3729 -2.0295
 3787SOL     OW22822   3.952   1.528   9.593 -0.4443 -0.5708  0.0374
 3787SOL    HW122823   3.896   1.503   9.666  0.9814 -2.2084  0.5838
 3787SOL    HW222824   3.892   1.510   9.520 -0.3322  1.0709 -0.4684
 3788SOL     OW22825   4.626   1.708   7.332  0.5239  0.0772 -0.3566
 3788SOL    HW122826   4.598   1.744   7.248  4.0709  0.8356 -1.2093
 3788SOL    HW222827   4.559   1.640   7.340  1.3092 -0.7294 -0.5687
 3789SOL     OW22828   3.837   1.716   1.991  0.4202  0.2182 -0.2225
 3789SOL    HW122829   3.885   1.724   2.073 -0.8624  1.5285  0.4082
 3789SOL    HW222830   3.829   1.811   1.976  2.2684  0.5773  1.0332
 3790SOL     OW22831   3.505   2.270   1.651  0.0065 -0.4450 -0.3859
 3790SOL    HW122832   3.445   2.335   1.687 -0.1375  0.0267 -1.4998
 3790SOL    HW222833   3.490   2.193   1.706  0.0717  0.8954  1.5026
 3791SOL     OW22834   1.205   3.829   7.946 -0.1321 -0.2757  0.1969
 3791SOL    HW122835   1.173   3.905   7.897 -3.1949 -1.7103 -0.0535
 3791SOL    HW222836   1.243   3.877   8.020  0.6616 -1.8984  0.8373
 3792SOL     OW22837   1.703   1.150   7.925  0.1155  0.0696 -0.2435
 3792SOL    HW122838   1.718   1.070   7.875  1.0217  0.8933 -1.2942
 3792SOL    HW222839   1.641   1.202   7.875 -1.2927  0.4929  1.9187
 3793SOL     OW22840   4.721   2.893   3.435 -0.4510 -0.2331  0.3560
 3793SOL    HW122841   0.055   2.841   3.488 -1.0664 -0.6192  0.6670
 3793SOL    HW222842   4.718   2.845   3.352  1.0927 -0.2994  0.3309
 3794SOL     OW22843   2.434   3.468   5.652  0.0190 -0.0538 -0.1008
 3794SOL    HW122844   2.479   3.550   5.671 -0.9174  0.8068 -1.5921
 3794SOL    HW222845   2.348   3.498   5.622 -0.2567 -1.2453 -0.5146
 3795SOL     OW22846   3.588   2.860   5.108  0.0116 -0.0867 -0.3101
 3795SOL    HW122847   3.648   2.793   5.142 -0.2656  0.6764  1.7152
 3795SOL    HW222848   3.637   2.936   5.138 -0.1916  0.3935 -1.2181
 3796SOL     OW22849   4.598   2.952   4.202 -0.3082  1.2468 -0.2233
 3796SOL    HW122850   4.517   2.999   4.185 -1.9616 -0.4034  3.0668
 3796SOL    HW222851   4.575   2.906   4.283  1.5805 -1.6678 -1.3304
 3797SOL     OW22852   0.781   4.395   5.992 -0.3448 -1.2683  0.1309
 3797SOL    HW122853   0.798   4.301   5.996  1.6128 -0.9153  0.2849
 3797SOL    HW222854   0.791   4.404   5.897  0.1886  0.7981  0.3936
 3798SOL     OW22855   0.120   0.184   3.402 -0.3809  0.4459  0.3404
 3798SOL    HW122856   0.077   0.241   3.466 -2.3042 -0.5744 -0.0293
 3798SOL    HW222857   0.123   0.241   3.325  0.4103  2.2765  1.7414
 3799SOL     OW22858   1.625   0.521   5.382  0.2011 -0.8820 -0.5108
 3799SOL    HW122859   1.696   0.541   5.321 -0.7540 -0.6522 -1.5597
 3799SOL    HW222860   1.563   0.594   5.371  0.9246 -0.5670 -2.5236
 3800SOL     OW22861   0.583   1.872   3.211 -0.3707 -0.5046 -0.0303
 3800SOL    HW122862   0.599   1.872   3.305 -1.7576 -2.3037  0.2061
 3800SOL    HW222863   0.517   1.942   3.213  2.2391  1.9656  0.2123
 3801SOL     OW22864   3.132   2.137   2.019  0.4649  0.3348 -0.1098
 3801SOL    HW122865   3.209   2.158   2.072  0.9760 -2.3007  0.1873
 3801SOL    HW222866   3.082   2.081   2.078 -1.1474  0.1471 -1.6721
 3802SOL     OW22867   4.060   0.439  15.014  0.3418 -0.3735 -0.1125
 3802SOL    HW122868   4.106   0.512  14.972  3.3152 -2.6411 -0.8118
 3802SOL    HW222869   4.069   0.378  14.940  0.2989 -0.3782 -0.1139
 3803SOL     OW22870   2.946   3.410   4.311  0.2642  0.8196 -0.4304
 3803SOL    HW122871   2.991   3.457   4.381 -4.1835  2.1494  1.5428
 3803SOL    HW222872   2.916   3.329   4.351 -0.2530  1.6011  0.7356
 3804SOL     OW22873   2.883   4.712   3.431 -0.3365 -0.0880  0.1773
 3804SOL    HW122874   2.893   4.679   3.341 -0.5973  2.4348 -0.7864
 3804SOL    HW222875   2.873   4.636   3.488 -1.0048  0.0055  0.1863
 3805SOL     OW22876   2.989   1.060   8.254  0.4212  0.4946 -0.0502
 3805SOL    HW122877   2.984   1.031   8.163 -2.1383 -0.0809  0.2871
 3805SOL    HW222878   2.971   1.154   8.247  0.5113  0.6057  1.1907
 3806SOL     OW22879   2.481   3.065  10.512  0.4405  0.7166  0.3206
 3806SOL    HW122880   2.390   3.075  10.540 -0.8623  0.2296 -3.7075
 3806SOL    HW222881   2.478   3.007  10.436  1.4553 -0.0464  0.8549
 3807SOL     OW22882   0.375   4.608  16.952  0.8112  0.5234 -0.0159
 3807SOL    HW122883   0.449   4.548  16.959 -0.0086 -0.6917 -2.0728
 3807SOL    HW222884   0.426   4.688  16.940  2.2774 -0.0514  2.4119
 3808SOL     OW22885   4.515   1.000   4.494 -0.2405  0.3415 -0.0678
 3808SOL    HW122886   4.469   0.959   4.421 -1.5486 -0.5634  1.2745
 3808SOL    HW222887   4.440   1.038   4.539 -0.1806  0.3572  0.0182
 3809SOL     OW22888   3.694   2.804   7.471  0.2809 -0.4157 -0.7430
 3809SOL    HW122889   3.653   2.781   7.388 -1.3758  2.7387 -0.8115
 3809SOL    HW222890   3.633   2.874   7.496 -0.5585 -1.1317 -0.7926
 3810SOL     OW22891   2.145   0.297   2.952 -0.1194 -0.7804  0.0485
 3810SOL    HW122892   2.069   0.355   2.962 -0.0802 -0.4466 -1.4889
 3810SOL    HW222893   2.123   0.240   2.878 -0.2701  1.1298 -1.3771
 3811SOL     OW22894   2.598   0.083   2.575 -0.9678 -0.0508 -0.3607
 3811SOL    HW122895   2.550   0.008   2.607  0.1339 -1.3593 -1.7590
 3811SOL    HW222896   2.552   0.108   2.494 -0.0298  0.1808 -0.8234
 3812SOL     OW22897   2.458   2.315  15.152 -0.3198 -0.4830 -0.1953
 3812SOL    HW122898   2.433   2.388  15.096 -0.6469 -0.6232 -0.2321
 3812SOL    HW222899   2.371   2.276  15.154 -2.0989  3.4408 -0.9490
 3813SOL     OW22900   0.239   4.089   5.542 -0.2927 -0.1359 -0.3835
 3813SOL    HW122901   0.333   4.084   5.521  0.1459  0.6542  1.3782
 3813SOL    HW222902   0.214   4.153   5.475  1.0641  0.5851 -0.2014
 3814SOL     OW22903   3.695   0.607   3.143  0.0254  0.0059  0.2897
 3814SOL    HW122904   3.791   0.602   3.137  0.0055 -1.0917  0.9456
 3814SOL    HW222905   3.682   0.576   3.232  0.1358 -0.1343  0.2584
 3815SOL     OW22906   3.857   1.619   0.136 -0.1858  0.0265  0.0233
 3815SOL    HW122907   3.815   1.701   0.160 -0.5516  0.1118 -0.9073
 3815SOL    HW222908   3.871   1.638   0.043  1.2766 -1.2089 -0.0013
 3816SOL     OW22909   0.606   0.001  12.025 -0.1539 -0.3599 -0.2728
 3816SOL    HW122910   0.634   0.091  12.044  1.7058 -1.2112  0.9854
 3816SOL    HW222911   0.680   4.695  11.974  0.8160  0.6666  0.5083
 3817SOL     OW22912   2.811   3.983   6.113  0.0012 -0.3053 -0.2761
 3817SOL    HW122913   2.802   4.061   6.167 -1.1730 -2.0598  2.0631
 3817SOL    HW222914   2.791   3.924   6.185  0.8565 -1.3828 -0.9127
 3818SOL     OW22915   4.201   4.681   4.603  0.3047 -0.0209 -0.5773
 3818SOL    HW122916   4.267   4.697   4.536  0.3413 -2.7640 -1.2245
 3818SOL    HW222917   4.194   0.043   4.640 -1.2319 -0.8194  1.0039
 3819SOL     OW22918   3.345   1.773   3.019  0.5284  0.2823  0.2136
 3819SOL    HW122919   3.382   1.742   2.936  1.8244  0.9208  0.5394
 3819SOL    HW222920   3.345   1.686   3.058  1.2561  0.5601  0.8415
 3820SOL     OW22921   3.133   1.579   3.921 -0.6153  0.3818 -0.2703
 3820SOL    HW122922   3.228   1.569   3.911 -0.3689  0.6903  1.8487
 3820SOL    HW222923   3.105   1.495   3.884 -0.3879  0.0960  0.2048
 3821SOL     OW22924   0.898   3.729   2.724 -0.0164  0.0932 -0.4778
 3821SOL    HW122925   0.941   3.667   2.665 -0.6560 -2.0059  1.2597
 3821SOL    HW222926   0.807   3.710   2.705 -0.3916 -1.7228  3.0581
 3822SOL     OW22927   1.373   4.484  16.259  0.4486  0.1393  0.2044
 3822SOL    HW122928   1.310   4.495  16.189  0.4040 -0.0888  0.2061
 3822SOL    HW222929   1.432   4.550  16.224  3.4621 -3.3847 -1.4279
 3823SOL     OW22930   1.175   4.163   7.950 -0.0742 -0.0752  0.2106
 3823SOL    HW122931   1.086   4.199   7.949 -0.1812 -0.3552 -0.2099
 3823SOL    HW222932   1.185   4.133   7.860 -0.6955  2.6565 -0.7655
 3824SOL     OW22933   3.239   0.912  13.446  0.6242  0.7296  0.3002
 3824SOL    HW122934   3.252   1.000  13.482 -0.1095  1.2558 -0.7012
 3824SOL    HW222935   3.244   0.936  13.353 -2.3884  2.7391  0.6592
 3825SOL     OW22936   3.528   0.358   8.770  0.2504  0.2295 -0.3459
 3825SOL    HW122937   3.560   0.413   8.698  0.7237  0.9624  0.4242
 3825SOL    HW222938   3.610   0.332   8.812 -1.0012  0.4578  2.2159
 3826SOL     OW22939   0.744   3.399   6.956  0.1916 -0.0457  0.4567
 3826SOL    HW122940   0.673   3.429   7.013 -1.1409 -1.7825 -0.2764
 3826SOL    HW222941   0.772   3.324   7.010  1.2866 -1.3129 -1.8766
 3827SOL     OW22942   3.212   4.484   5.880 -0.1270  0.0641  0.5925
 3827SOL    HW122943   3.263   4.413   5.918  2.4515 -0.9194 -4.6957
 3827SOL    HW222944   3.131   4.483   5.930 -0.9347 -0.5102 -0.7175
 3828SOL     OW22945   2.410   1.655   9.451  0.1474 -0.3616 -0.1931
 3828SOL    HW122946   2.439   1.713   9.522 -4.7479  0.6757  0.9282
 3828SOL    HW222947   2.328   1.698   9.428  1.9669  2.9203 -0.4481
 3829SOL     OW22948   3.427   0.837  10.030  0.2733 -0.3004  0.0970
 3829SOL    HW122949   3.473   0.809  10.109 -0.0603  0.0681  0.4279
 3829SOL    HW222950   3.371   0.759  10.025 -0.8594  0.4792  0.5260
 3830SOL     OW22951   2.592   2.183  11.331 -0.3123 -0.7115 -0.5105
 3830SOL    HW122952   2.505   2.211  11.304  0.4469 -0.0749 -2.2876
 3830SOL    HW222953   2.647   2.262  11.324  0.6602 -1.2269  1.1146
 3831SOL     OW22954   0.482   0.421   0.539 -0.0750  0.2356  0.0231
 3831SOL    HW122955   0.450   0.366   0.469  0.6212 -0.1989  0.0454
 3831SOL    HW222956   0.444   0.382   0.618 -0.3579  2.1771  0.8592
 3832SOL     OW22957   0.674   2.273  11.024 -0.5246  0.3950  0.5903
 3832SOL    HW122958   0.650   2.199  10.967 -0.7149  1.4481 -0.7035
 3832SOL    HW222959   0.606   2.335  10.997 -0.5109  0.5516  0.9143
 3833SOL     OW22960   1.423   1.081   8.059  0.1382 -0.0725 -0.3898
 3833SOL    HW122961   1.373   1.118   8.132  2.4260  1.2073  0.5255
 3833SOL    HW222962   1.434   1.160   8.006  0.3797 -0.7723 -1.3776
 3834SOL     OW22963   0.083   3.479   7.246  0.2139  0.6039 -0.2563
 3834SOL    HW122964   0.169   3.457   7.282 -0.2519 -0.3264  0.2996
 3834SOL    HW222965   0.033   3.462   7.326  1.5795 -0.1589  0.4368
 3835SOL     OW22966   3.692   0.098   8.942 -0.0651  0.4122  0.0974
 3835SOL    HW122967   3.724   0.187   8.927  1.0571 -0.2025 -1.1574
 3835SOL    HW222968   3.611   0.119   8.988 -0.1683 -1.3301  0.7164
 3836SOL     OW22969   3.394   0.969   9.593 -0.0468 -0.4372 -0.2216
 3836SOL    HW122970   3.446   0.913   9.652 -1.1542  0.2477  1.4120
 3836SOL    HW222971   3.449   1.046   9.609 -2.7572  1.3484  0.3502
 3837SOL     OW22972   1.560   0.367   1.001 -0.6884  0.3143 -0.1816
 3837SOL    HW122973   1.504   0.295   0.971  0.6866 -0.3473 -1.2118
 3837SOL    HW222974   1.524   0.446   0.960 -0.7585  0.5939  0.4274
 3838SOL     OW22975   3.363   2.299   8.170 -0.7291  0.3925  0.6952
 3838SOL    HW122976   3.312   2.355   8.112  2.8422  1.0914 -1.7509
 3838SOL    HW222977   3.403   2.368   8.222 -1.1916 -0.9704  2.8602
 3839SOL     OW22978   3.292   1.126   4.040  0.9820  0.1902  0.0302
 3839SOL    HW122979   3.378   1.143   4.079  0.6336  0.2243  0.7831
 3839SOL    HW222980   3.236   1.179   4.096  0.5828 -0.3133  0.1082
 3840SOL     OW22981   1.864   0.922   4.683 -0.4971  0.3085  0.0513
 3840SOL    HW122982   1.866   0.947   4.591 -1.4088 -0.1608 -0.0902
 3840SOL    HW222983   1.956   0.939   4.707 -0.7468  0.3684  0.9517
 3841SOL     OW22984   0.094   0.233   7.841 -0.3364  0.4791  0.6087
 3841SOL    HW122985   0.128   0.303   7.785  0.4542  1.1789  1.9815
 3841SOL    HW222986   0.153   0.246   7.915  1.1691  1.1396 -0.7095
 3842SOL     OW22987   3.818   0.801  15.041  0.1380 -0.3600 -0.1177
 3842SOL    HW122988   3.906   0.825  15.012 -0.1309 -0.6007 -1.1194
 3842SOL    HW222989   3.788   0.787  14.951 -1.9294 -0.5390  0.6173
 3843SOL     OW22990   0.501   0.300  11.370  0.5545 -0.2832 -0.3815
 3843SOL    HW122991   0.435   0.233  11.350 -1.9009  1.4062  2.0834
 3843SOL    HW222992   0.456   0.364  11.425  1.5262  1.0753 -1.1697
 3844SOL     OW22993   3.757   2.705  17.027 -0.4465  0.5381  0.1215
 3844SOL    HW122994   3.760   2.609  17.032 -0.7820  0.4961 -0.4894
 3844SOL    HW222995   3.668   2.727  17.056 -0.7626  1.0881 -1.2829
 3845SOL     OW22996   3.361   4.100   2.143  0.7753 -0.1235  0.0410
 3845SOL    HW122997   3.358   4.134   2.232  0.7690  2.9651 -1.1421
 3845SOL    HW222998   3.438   4.047   2.164  2.2656  1.4925 -1.3165
 3846SOL     OW22999   3.625   4.029   1.291  0.4099  0.1949  0.0899
 3846SOL    HW123000   3.625   3.962   1.223 -0.0750 -0.3888  0.6729
 3846SOL    HW223001   3.678   3.987   1.359 -1.1068 -0.7756  0.6501
 3847SOL     OW23002   2.079   0.000   5.044  0.0830  0.1467 -0.5513
 3847SOL    HW123003   2.171   4.715   5.068 -0.3888 -2.1835  0.1630
 3847SOL    HW223004   2.045   0.058   5.112  2.9651 -0.6048  1.5313
 3848SOL     OW23005   0.809   0.029   8.080 -0.4757 -0.0885 -0.3176
 3848SOL    HW123006   0.812   4.670   8.036 -0.6226 -0.8612  1.1481
 3848SOL    HW223007   0.828   4.723   8.169 -0.3387 -0.3767 -0.4510
 3849SOL     OW23008   2.143   3.979   4.170 -0.5801 -0.3467  0.1655
 3849SOL    HW123009   2.072   3.956   4.230  0.9304  0.5514  2.2889
 3849SOL    HW223010   2.098   3.970   4.086 -1.4435 -1.0905  0.7058
 3850SOL     OW23011   0.739   3.282   9.148  0.0386  0.1476  0.1840
 3850SOL    HW123012   0.794   3.359   9.135  0.5290 -0.2356  0.0003
 3850SOL    HW223013   0.771   3.219   9.082 -2.3396 -0.1381 -0.7245
 3851SOL     OW23014   3.261   2.852   1.032  0.3410  0.2736 -0.8649
 3851SOL    HW123015   3.296   2.786   1.092  0.9486  2.8451  1.6164
 3851SOL    HW223016   3.253   2.927   1.092  0.8064 -0.8189  0.5612
 3852SOL     OW23017   2.866   0.638   0.591  0.2334  0.1966  0.1373
 3852SOL    HW123018   2.805   0.683   0.533  0.2739 -1.8906 -1.5521
 3852SOL    HW223019   2.869   0.544   0.570 -0.6878  0.3932 -0.8444
 3853SOL     OW23020   2.883   1.550   9.056 -0.1438  0.4159 -0.2455
 3853SOL    HW123021   2.839   1.478   9.102  3.1874 -1.4720 -0.0193
 3853SOL    HW223022   2.975   1.531   9.076 -0.3350 -0.0822  0.1971
 3854SOL     OW23023   4.334   1.184   2.169 -0.4838  0.7265 -0.3652
 3854SOL    HW123024   4.244   1.162   2.194 -0.4264 -1.4550 -2.1426
 3854SOL    HW223025   4.351   1.240   2.245 -1.5034 -0.8369  1.0104
 3855SOL     OW23026   2.201   3.525   2.136 -0.0050 -0.0013  0.1521
 3855SOL    HW123027   2.187   3.451   2.196 -2.4849 -0.6551 -1.2409
 3855SOL    HW223028   2.207   3.476   2.054 -1.2598  0.3952 -0.1703
 3856SOL     OW23029   4.721   4.353   4.146 -0.2733 -0.4082  0.0720
 3856SOL    HW123030   4.681   4.413   4.083  0.4175  1.8161  1.7454
 3856SOL    HW223031   0.059   4.411   4.188 -0.6647  0.0196  0.0713
 3857SOL     OW23032   2.532   2.949   2.690  0.3445  0.0082  0.1973
 3857SOL    HW123033   2.605   2.904   2.647  0.5559 -0.5225  1.1025
 3857SOL    HW223034   2.480   2.977   2.615 -0.1408 -0.4296  0.3721
 3858SOL     OW23035   1.896   3.638   2.361  0.5416  0.0215  0.3246
 3858SOL    HW123036   1.953   3.668   2.291  0.5880 -1.1005 -0.1244
 3858SOL    HW223037   1.823   3.614   2.305 -0.6105 -1.5781  2.4882
 3859SOL     OW23038   2.232   1.733   9.125  0.6748 -0.3299 -0.2197
 3859SOL    HW123039   2.226   1.816   9.171  1.0634  0.8872 -2.3738
 3859SOL    HW223040   2.327   1.727   9.119  0.7451  0.5143  0.1900
 3860SOL     OW23041   4.356   4.163   8.593  0.0396 -0.2979 -0.7409
 3860SOL    HW123042   4.289   4.230   8.589 -0.2083 -0.6399 -2.4865
 3860SOL    HW223043   4.345   4.133   8.683  1.2121 -0.1582 -0.5588
 3861SOL     OW23044   1.545   0.205   5.163 -0.6795 -0.3007 -0.1746
 3861SOL    HW123045   1.489   0.223   5.239 -0.7635  1.2609 -0.6107
 3861SOL    HW223046   1.604   0.137   5.195 -0.1515  0.0125 -0.4935
 3862SOL     OW23047   1.494   4.233   4.565  0.1449  0.2863  0.4366
 3862SOL    HW123048   1.588   4.238   4.545  0.0924  2.2359  0.6404
 3862SOL    HW223049   1.457   4.145   4.557  0.9877  0.0363 -0.8416
 3863SOL     OW23050   3.895   4.584   7.227 -0.0932  0.4755 -0.6131
 3863SOL    HW123051   3.952   4.584   7.150 -0.7174 -0.9276 -1.0678
 3863SOL    HW223052   3.853   4.669   7.210  0.3360  0.7988 -0.0506
 3864SOL     OW23053   2.413   0.802   6.921 -0.0490 -0.5247 -0.4529
 3864SOL    HW123054   2.427   0.715   6.956  1.9444  0.7975  2.0216
 3864SOL    HW223055   2.433   0.858   6.996 -0.8058 -2.0315  0.8711
 3865SOL     OW23056   4.289   2.437   8.013  0.4181 -0.3998 -0.5210
 3865SOL    HW123057   4.315   2.483   8.092  1.9010 -2.1593  0.0116
 3865SOL    HW223058   4.365   2.433   7.955  1.9639 -1.0900  1.5363
 3866SOL     OW23059   2.307   2.869   7.778  0.1691  0.4407  0.4688
 3866SOL    HW123060   2.218   2.834   7.788 -0.3314  1.5545 -0.1538
 3866SOL    HW223061   2.322   2.878   7.684 -1.7039 -2.6141 -0.1434
 3867SOL     OW23062   3.834   1.687   2.344  0.5897  0.2383 -0.1332
 3867SOL    HW123063   3.905   1.742   2.312  1.4200 -0.8263 -0.1389
 3867SOL    HW223064   3.889   1.631   2.399  1.2127  2.7870  1.8236
 3868SOL     OW23065   4.590   4.708   9.349 -0.0930  0.4090  0.4657
 3868SOL    HW123066   4.678   4.678   9.374  0.7948  0.4954 -2.5887
 3868SOL    HW223067   4.582   0.031   9.431 -0.1788 -0.6634  1.1054
 3869SOL     OW23068   2.044   0.019  14.118  0.0560 -0.1487 -0.1021
 3869SOL    HW123069   1.956   0.001  14.085  0.4094  0.9932 -1.7030
 3869SOL    HW223070   2.065   0.099  14.070  0.2784  1.2502  2.3267
 3870SOL     OW23071   3.942   2.614   4.983 -0.3477 -0.0415 -0.5417
 3870SOL    HW123072   3.910   2.622   4.893  2.3344  0.4291 -1.4879
 3870SOL    HW223073   3.865   2.572   5.019  0.2015 -0.0579  0.6223
 3871SOL     OW23074   2.031   3.513   2.708 -0.1374 -0.3135  0.4954
 3871SOL    HW123075   2.029   3.473   2.795  2.9273 -0.0924  0.6530
 3871SOL    HW223076   2.025   3.435   2.652 -1.1026 -0.5538  0.9306
 3872SOL     OW23077   4.318   1.274   7.136  0.8675  0.1787 -0.1975
 3872SOL    HW123078   4.340   1.262   7.044 -0.2417 -1.7549 -0.2056
 3872SOL    HW223079   4.239   1.329   7.141  0.9502  0.1798  1.2001
 3873SOL     OW23080   4.379   1.158   3.723 -0.1433  0.0171 -0.0861
 3873SOL    HW123081   4.423   1.136   3.640 -1.6690  2.3512 -1.5094
 3873SOL    HW223082   4.292   1.140   3.686 -1.4762  0.8750  2.6704
 3874SOL     OW23083   3.195   1.905  13.935  0.1377 -0.0067 -0.2721
 3874SOL    HW123084   3.263   1.952  13.885 -1.6517  2.7569 -0.1071
 3874SOL    HW223085   3.181   1.819  13.895 -0.3080 -0.3170  0.5588
 3875SOL     OW23086   2.352   3.808   4.811 -0.6803  0.8631 -0.3488
 3875SOL    HW123087   2.356   3.816   4.716  0.5378 -0.9121 -0.4553
 3875SOL    HW223088   2.300   3.728   4.815  1.9173 -0.8451 -0.4243
 3876SOL     OW23089   2.321   2.703  15.385  0.3360 -0.2952  0.1061
 3876SOL    HW123090   2.269   2.623  15.387  0.4272 -0.3033  1.8003
 3876SOL    HW223091   2.391   2.664  15.438 -1.0674 -1.5828  1.0044
 3877SOL     OW23092   1.359   4.163   4.133 -0.4000 -0.0816  0.1550
 3877SOL    HW123093   1.392   4.222   4.201 -2.8326 -0.6358  1.8306
 3877SOL    HW223094   1.367   4.216   4.054  3.6218  1.6047  1.6898
 3878SOL     OW23095   3.101   2.220   7.708 -0.2828 -0.1106 -0.2318
 3878SOL    HW123096   3.166   2.264   7.653 -0.5330 -1.1550 -1.3841
 3878SOL    HW223097   3.152   2.174   7.775  1.3432  0.7231 -0.8722
 3879SOL     OW23098   2.637   2.403   3.562  0.0950 -0.0753 -0.5733
 3879SOL    HW123099   2.724   2.368   3.583  0.2574  0.5851 -0.1408
 3879SOL    HW223100   2.592   2.426   3.643  1.7786 -0.5392  0.5147
 3880SOL     OW23101   1.498   0.387   7.128 -0.1787  0.0941 -0.3643
 3880SOL    HW123102   1.505   0.421   7.039 -0.1804 -0.2072 -0.4773
 3880SOL    HW223103   1.426   0.324   7.118 -0.6227  0.5837 -0.2645
 3881SOL     OW23104   3.469   0.882   6.219  0.1790  0.0590 -0.3461
 3881SOL    HW123105   3.519   0.950   6.173  0.3449 -1.2920 -2.1460
 3881SOL    HW223106   3.483   0.813   6.155 -0.2009  0.5816 -0.9877
 3882SOL     OW23107   4.534   3.329   3.637  0.0279  0.1769  0.1703
 3882SOL    HW123108   4.616   3.352   3.594  1.1555  1.6156  3.1185
 3882SOL    HW223109   4.480   3.313   3.559  1.1423  1.4563 -0.8581
 3883SOL     OW23110   0.709   3.279   2.523  0.2134  0.5114 -0.1933
 3883SOL    HW123111   0.790   3.279   2.574  0.5023  1.2222 -0.6497
 3883SOL    HW223112   0.653   3.331   2.581  1.1710  0.2546  0.9721
 3884SOL     OW23113   2.455   0.440  10.405  0.3231  0.1322  0.1952
 3884SOL    HW123114   2.485   0.350  10.416 -0.3886 -0.1070  0.1668
 3884SOL    HW223115   2.535   0.485  10.431 -0.0440 -0.1727  1.9072
 3885SOL     OW23116   3.151   0.795   9.636 -0.1931 -0.5643  0.3220
 3885SOL    HW123117   3.242   0.811   9.611  0.0586  2.1479  3.0381
 3885SOL    HW223118   3.119   0.874   9.678 -1.4073 -1.0479  0.3050
 3886SOL     OW23119   4.142   0.099   2.004  0.4835 -0.1378  0.2295
 3886SOL    HW123120   4.143   0.003   2.011 -1.4515 -0.1523  0.1849
 3886SOL    HW223121   4.229   0.125   2.035 -0.2387  5.0713 -2.1510
 3887SOL     OW23122   3.384   1.676  10.637 -0.3135 -0.4251  0.0623
 3887SOL    HW123123   3.346   1.758  10.669  0.4464 -0.3969  0.8752
 3887SOL    HW223124   3.438   1.652  10.712 -0.8015  0.2574  0.6251
 3888SOL     OW23125   0.608   4.464   8.741 -0.0311 -0.0847 -0.2801
 3888SOL    HW123126   0.524   4.431   8.708 -0.4251 -1.8616  2.5507
 3888SOL    HW223127   0.651   4.386   8.777  0.0438  0.8816  1.6898
 3889SOL     OW23128   0.235   1.654   5.111  0.0361  0.4068 -0.5521
 3889SOL    HW123129   0.259   1.740   5.075  0.2846  0.0001 -1.3562
 3889SOL    HW223130   0.288   1.599   5.054  0.7656  0.5801 -0.0383
 3890SOL     OW23131   2.151   2.645   8.861  0.2313 -0.3171  0.0386
 3890SOL    HW123132   2.075   2.611   8.814 -0.7877 -1.3819  2.4316
 3890SOL    HW223133   2.208   2.567   8.863  0.7784  0.1492  2.5567
 3891SOL     OW23134   3.647   3.036   9.105 -0.0010 -0.1725 -0.2417
 3891SOL    HW123135   3.719   3.080   9.151  0.0107 -1.6250  1.1238
 3891SOL    HW223136   3.621   2.962   9.159 -1.9485 -0.0207 -0.9524
 3892SOL     OW23137   2.345   2.073   2.612  0.3391  0.0733 -0.3022
 3892SOL    HW123138   2.324   2.115   2.528  5.6939  1.2000 -1.0979
 3892SOL    HW223139   2.436   2.102   2.615  0.4955 -0.1668 -2.3605
 3893SOL     OW23140   3.302   2.475   1.677 -0.0193 -0.5411  0.2769
 3893SOL    HW123141   3.224   2.420   1.687  0.3609 -1.4828 -2.0945
 3893SOL    HW223142   3.278   2.568   1.685  1.9092  0.0118 -0.3201
 3894SOL     OW23143   0.355   3.919   7.739  0.1782  0.3641  0.2068
 3894SOL    HW123144   0.374   3.902   7.647  3.2820 -0.5440  1.0027
 3894SOL    HW223145   0.301   3.841   7.749  1.1993 -0.4495 -0.7064
 3895SOL     OW23146   2.154   2.778   1.997 -0.1661  0.0931  0.4118
 3895SOL    HW123147   2.208   2.823   2.062 -0.6376  2.1613 -0.6262
 3895SOL    HW223148   2.197   2.695   1.981 -1.7173 -0.4800 -0.7001
 3896SOL     OW23149   1.867   2.908   1.994 -0.1485  0.2125  0.4536
 3896SOL    HW123150   1.817   2.837   1.953 -0.0642 -0.8856  2.2248
 3896SOL    HW223151   1.799   2.971   2.016 -2.2000 -2.0058  0.4594
 3897SOL     OW23152   1.683   0.108   0.117 -0.2099  0.2028 -0.2923
 3897SOL    HW123153   1.664   0.039   0.181  1.2163 -2.7617 -3.0304
 3897SOL    HW223154   1.644   0.065   0.041  1.0083 -1.0922 -0.1855
 3898SOL     OW23155   2.872   3.709   3.629 -0.5293  0.1765 -0.7300
 3898SOL    HW123156   2.826   3.787   3.597  2.5986  2.0409 -0.7061
 3898SOL    HW223157   2.797   3.652   3.645  0.7794 -1.2954  0.1228
 3899SOL     OW23158   0.808   2.179  17.023  0.1111  0.4131  0.0230
 3899SOL    HW123159   0.744   2.114  16.993  1.5472 -0.1652 -1.7916
 3899SOL    HW223160   0.775   2.211  17.107  1.2286  0.8707  0.2854
 3900SOL     OW23161   0.453   0.090   1.449 -0.0456 -0.2127  0.2143
 3900SOL    HW123162   0.408   0.171   1.424  0.6816  0.3077  0.5997
 3900SOL    HW223163   0.539   0.096   1.408 -1.0991 -2.9319 -2.3988
 3901SOL     OW23164   4.631   3.052   2.503 -0.2986  0.3176 -0.0214
 3901SOL    HW123165   4.633   3.059   2.408 -1.2565 -0.8633 -0.1262
 3901SOL    HW223166   4.718   3.089   2.519 -0.0372 -0.3702  0.1529
 3902SOL     OW23167   4.559   2.200   2.282  0.1443  0.2564 -0.5155
 3902SOL    HW123168   4.653   2.182   2.279 -0.2917 -2.0224 -0.3531
 3902SOL    HW223169   4.530   2.178   2.193  2.3959  1.3684 -1.5575
 3903SOL     OW23170   4.420   3.001   5.619  0.2496 -0.1086 -0.0215
 3903SOL    HW123171   4.424   3.063   5.692  2.8636 -1.9186  1.3579
 3903SOL    HW223172   4.459   3.055   5.550  0.6532  0.1791  0.4330
 3904SOL     OW23173   3.311   2.669   1.229  0.5910  0.2284  0.1222
 3904SOL    HW123174   3.292   2.575   1.232  0.4351  0.2409 -0.4326
 3904SOL    HW223175   3.371   2.677   1.303 -0.0628  0.8521  0.5864
 3905SOL     OW23176   2.560   4.540   6.116 -0.3824  0.4212 -0.3536
 3905SOL    HW123177   2.597   4.498   6.193  0.1884  0.8393 -0.3998
 3905SOL    HW223178   2.533   4.621   6.159 -0.7188 -0.7703  1.7082
 3906SOL     OW23179   2.333   0.691  14.733 -0.2685 -0.2173 -0.1829
 3906SOL    HW123180   2.424   0.687  14.761 -0.5949 -0.1631  0.8954
 3906SOL    HW223181   2.353   0.701  14.640  1.2176  1.4903  0.3131
 3907SOL     OW23182   1.812   1.967   3.445 -0.0883 -0.0747  0.0187
 3907SOL    HW123183   1.852   1.922   3.371 -1.1734 -1.0409  0.0242
 3907SOL    HW223184   1.728   1.996   3.409 -0.8849  0.9642  2.6697
 3908SOL     OW23185   3.411   4.098   4.672  0.0460 -0.2018 -0.2396
 3908SOL    HW123186   3.496   4.114   4.712 -0.3431  0.0892  0.4581
 3908SOL    HW223187   3.434   4.033   4.605 -2.1194 -2.2844  1.0146
 3909SOL     OW23188   0.383   2.762   8.468  1.0965  0.0315  0.1527
 3909SOL    HW123189   0.313   2.824   8.452 -1.6858 -3.1397  0.0514
 3909SOL    HW223190   0.364   2.709   8.391  1.8595 -0.6183  0.4033
 3910SOL     OW23191   3.046   2.107  17.321  0.1212 -0.2505 -0.3664
 3910SOL    HW123192   3.034   2.201  17.332  0.5175 -0.2076 -0.2978
 3910SOL    HW223193   3.129   2.088  17.366  0.0966  1.1544  0.2730
 3911SOL     OW23194   4.638   4.011   0.404 -0.3195  0.0367  0.1886
 3911SOL    HW123195   4.645   3.947   0.475  0.4949 -2.7415 -2.3945
 3911SOL    HW223196   4.542   4.016   0.401 -0.3964 -0.1903  2.4370
 3912SOL     OW23197   1.382   4.392   8.648  0.4505  0.5795 -0.0478
 3912SOL    HW123198   1.354   4.474   8.689 -0.7797 -1.2411  2.7526
 3912SOL    HW223199   1.306   4.375   8.592  1.8787 -0.5619 -1.6554
 3913SOL     OW23200   3.746   3.750   4.514 -0.2226  0.5017  0.4914
 3913SOL    HW123201   3.718   3.661   4.494 -0.0747  1.2549 -3.0374
 3913SOL    HW223202   3.841   3.743   4.520 -0.2624 -0.3540  0.1779
 3914SOL     OW23203   3.284   3.994  17.438 -0.1637 -0.0533  0.2733
 3914SOL    HW123204   3.353   3.954  17.491  0.6162 -0.7826 -1.3310
 3914SOL    HW223205   3.206   3.946  17.466 -0.1933 -0.4243 -0.4592
 3915SOL     OW23206   4.313   3.321   6.657  0.1990 -0.4896 -0.2876
 3915SOL    HW123207   4.261   3.280   6.726 -0.8671  0.6270 -0.4170
 3915SOL    HW223208   4.285   3.413   6.654 -0.3984 -0.6846 -0.6911
 3916SOL     OW23209   3.339   3.299   8.272  1.0531  0.5840 -0.6772
 3916SOL    HW123210   3.290   3.279   8.192 -0.0508  0.4926  0.0156
 3916SOL    HW223211   3.392   3.378   8.260  0.1482  0.8536 -2.9061
 3917SOL     OW23212   1.926   4.703   3.084 -0.1775  0.0863  0.3724
 3917SOL    HW123213   1.996   4.675   3.025  1.3182  0.5961  1.9392
 3917SOL    HW223214   1.884   0.052   3.042  1.4660  1.8628  1.9332
 3918SOL     OW23215   3.598   1.068   5.837 -0.3291  0.3244  0.1010
 3918SOL    HW123216   3.685   1.028   5.840 -0.4943  0.0622  1.5243
 3918SOL    HW223217   3.599   1.117   5.919  2.4703  1.1884 -0.4653
 3919SOL     OW23218   2.443   0.315   9.601  0.2176 -0.1738  0.4730
 3919SOL    HW123219   2.494   0.243   9.639 -0.5674 -1.3007 -0.6159
 3919SOL    HW223220   2.363   0.321   9.652  0.3650 -2.8748  0.9934
 3920SOL     OW23221   0.953   0.358   5.007 -0.3741  0.1375  0.3715
 3920SOL    HW123222   1.040   0.388   5.035  0.8091 -0.7178 -2.3694
 3920SOL    HW223223   0.957   0.351   4.912 -0.3013  1.5105  0.2781
 3921SOL     OW23224   3.045   4.556   7.066  0.1774 -0.5474 -0.6329
 3921SOL    HW123225   3.004   4.487   7.015 -0.3259  0.3244 -1.4119
 3921SOL    HW223226   3.122   4.515   7.106  1.6736  2.5217 -0.3494
 3922SOL     OW23227   1.974   3.474  12.901 -0.2857  0.1730 -0.7839
 3922SOL    HW123228   2.052   3.506  12.855 -0.3393  1.2448 -0.1194
 3922SOL    HW223229   2.000   3.382  12.909 -1.0055  0.0196 -0.2562
 3923SOL     OW23230   4.039   4.478   6.997  0.1795  0.9229 -0.3344
 3923SOL    HW123231   3.995   4.400   6.962 -0.3448  1.0182  0.1134
 3923SOL    HW223232   4.132   4.456   6.995 -0.1487 -0.4656 -0.8783
 3924SOL     OW23233   1.205   3.912   9.196  0.1282  0.2127 -0.7794
 3924SOL    HW123234   1.233   3.822   9.215 -0.1075  0.5325  1.0768
 3924SOL    HW223235   1.204   3.903   9.101  0.8383  1.5847 -0.9131
 3925SOL     OW23236   3.723   1.404   8.627  0.5487 -0.0841  0.0230
 3925SOL    HW123237   3.675   1.424   8.707 -0.4831 -0.3665 -0.5184
 3925SOL    HW223238   3.656   1.368   8.569 -1.0931  1.0192  1.2316
 3926SOL     OW23239   1.591   0.459   7.985  0.3836  0.0829  0.4700
 3926SOL    HW123240   1.604   0.364   7.987 -1.0346 -0.0557  2.3397
 3926SOL    HW223241   1.681   0.490   7.976 -0.2894  2.3225  1.4571
 3927SOL     OW23242   0.519   0.821   3.284  0.1079  0.3193  0.4340
 3927SOL    HW123243   0.453   0.766   3.243  0.3411 -0.5129  1.1689
 3927SOL    HW223244   0.557   0.766   3.353  1.3397 -1.1572 -1.4074
 3928SOL     OW23245   4.683   3.135  13.159  0.7194 -1.1188 -0.8525
 3928SOL    HW123246   4.609   3.156  13.216  1.3439  0.0919 -0.4839
 3928SOL    HW223247   4.718   3.060  13.208  0.3767 -1.3661 -0.9894
 3929SOL     OW23248   1.285   2.805  17.229 -0.2263 -0.2650 -0.3713
 3929SOL    HW123249   1.320   2.720  17.204 -0.0888  0.1706 -1.6696
 3929SOL    HW223250   1.329   2.864  17.168 -0.7422  1.2633  0.7183
 3930SOL     OW23251   1.331   3.299   9.359 -0.5632  0.4598  0.3924
 3930SOL    HW123252   1.250   3.297   9.410  0.6010  2.1185  2.3360
 3930SOL    HW223253   1.398   3.309   9.427  1.2040  0.1144 -1.3125
 3931SOL     OW23254   4.379   2.639   8.431 -0.0952 -0.1931  0.5770
 3931SOL    HW123255   4.450   2.697   8.458 -0.0458  0.3437 -0.7115
 3931SOL    HW223256   4.380   2.588   8.512 -0.7002  1.6540  1.7444
 3932SOL     OW23257   0.861   4.144  14.408  0.6473 -0.3543 -0.1593
 3932SOL    HW123258   0.865   4.092  14.328  0.6537 -1.1015  0.3277
 3932SOL    HW223259   0.768   4.127  14.424  0.9109 -0.2576  1.4004
 3933SOL     OW23260   1.602   2.151   3.459  0.4562 -0.2827 -0.4900
 3933SOL    HW123261   1.572   2.236   3.427 -0.8043 -0.5313  0.0263
 3933SOL    HW223262   1.555   2.126   3.539  1.2402 -2.2388 -0.6346
 3934SOL     OW23263   4.373   2.396  12.644 -0.1431 -0.0141  0.4603
 3934SOL    HW123264   4.420   2.400  12.560  0.4912 -0.4597  0.8031
 3934SOL    HW223265   4.415   2.468  12.692  0.0645  0.5326 -0.5347
 3935SOL     OW23266   1.254   4.177   9.046 -0.2480  1.0182  0.1266
 3935SOL    HW123267   1.211   4.137   9.122 -1.1104  0.3485 -0.7091
 3935SOL    HW223268   1.344   4.170   9.076 -0.6720  0.8942  1.3759
 3936SOL     OW23269   2.698   3.559  10.219  0.0396 -0.2583  0.1125
 3936SOL    HW123270   2.702   3.587  10.311  2.9761  0.5835 -0.2789
 3936SOL    HW223271   2.786   3.526  10.202  0.4732  1.5341 -1.1285
 3937SOL     OW23272   2.178   2.368   9.327 -0.5402  0.3100  0.9945
 3937SOL    HW123273   2.225   2.388   9.408 -1.4797  1.4877  1.2456
 3937SOL    HW223274   2.106   2.323   9.371  0.5104 -1.2416  1.1388
 3938SOL     OW23275   4.110   4.487  17.544  0.5312  0.6261 -0.5545
 3938SOL    HW123276   4.092   4.546  17.470 -1.7974 -0.9137 -1.2128
 3938SOL    HW223277   4.060   4.520  17.619  0.0330 -0.3561 -0.4610
 3939SOL     OW23278   1.681   0.789   0.912  0.3167  0.5735  0.0493
 3939SOL    HW123279   1.703   0.790   1.005  1.4257 -1.9764 -0.1904
 3939SOL    HW223280   1.740   0.727   0.870  0.1244  0.1199  0.4445
 3940SOL     OW23281   0.763   0.870  10.947 -0.5201  0.5466 -0.6893
 3940SOL    HW123282   0.844   0.837  10.985  0.5445  1.7030 -1.9542
 3940SOL    HW223283   0.714   0.883  11.028  0.3245 -1.8042  0.1999
 3941SOL     OW23284   3.990   0.703   2.147  0.2330 -0.0680  0.2309
 3941SOL    HW123285   4.020   0.615   2.126 -0.1506 -0.3216  0.7641
 3941SOL    HW223286   4.070   0.749   2.120 -0.2740 -0.6558 -2.2527
 3942SOL     OW23287   4.238   0.117   3.557 -0.0279  0.7655  0.3885
 3942SOL    HW123288   4.294   0.175   3.608  1.8591 -1.6162  1.0329
 3942SOL    HW223289   4.290   0.037   3.548 -0.5218  0.3052  1.5475
 3943SOL     OW23290   4.488   2.857   2.603  0.1487 -0.1647  0.0459
 3943SOL    HW123291   4.562   2.797   2.612 -1.0190 -1.5233  0.6100
 3943SOL    HW223292   4.528   2.937   2.569  1.2516 -0.7075  0.0886
 3944SOL     OW23293   1.804   1.621   7.332 -0.0740  0.2206 -0.2871
 3944SOL    HW123294   1.841   1.633   7.419 -1.6751 -0.3909  0.4772
 3944SOL    HW223295   1.710   1.617   7.352  0.0001  0.3252  0.0703
 3945SOL     OW23296   4.209   2.046  17.262 -0.4840 -0.0846 -0.4193
 3945SOL    HW123297   4.262   2.116  17.300 -1.4831  0.1787  0.4852
 3945SOL    HW223298   4.217   1.982  17.333 -2.5427 -0.8658 -0.8846
 3946SOL     OW23299   2.777   0.289   5.879 -0.2035  0.2506  0.4125
 3946SOL    HW123300   2.697   0.250   5.844  1.3493 -0.9114 -1.8801
 3946SOL    HW223301   2.769   0.382   5.857 -1.0248 -0.1927 -1.1261
 3947SOL     OW23302   1.131   1.488   9.570  0.3523 -0.3375  0.3817
 3947SOL    HW123303   1.100   1.438   9.646 -1.0954  0.3388  0.2461
 3947SOL    HW223304   1.136   1.421   9.502  2.5163  0.3070 -0.0812
 3948SOL     OW23305   1.449   0.110   6.521 -0.5910  0.2964 -0.1388
 3948SOL    HW123306   1.522   0.124   6.460 -0.4630 -2.0560 -0.5004
 3948SOL    HW223307   1.399   0.192   6.522 -1.8807 -0.4935 -0.2901
 3949SOL     OW23308   3.639   0.837   2.991 -0.4558  0.5039  0.9761
 3949SOL    HW123309   3.543   0.837   2.991 -0.4554  0.4027  1.2444
 3949SOL    HW223310   3.650   0.749   3.027  1.1592  0.2813 -0.0506
 3950SOL     OW23311   3.627   3.610   5.148 -0.0798  0.1941  0.1683
 3950SOL    HW123312   3.639   3.595   5.242 -1.0261 -1.3476  0.0433
 3950SOL    HW223313   3.545   3.561   5.144  0.3171 -0.3671 -1.1591
 3951SOL     OW23314   3.028   1.044   2.138 -0.6296  0.3775  0.0102
 3951SOL    HW123315   2.968   1.118   2.140 -2.2427 -0.9461  0.4218
 3951SOL    HW223316   3.066   1.051   2.226 -2.3094 -0.8253  0.8425
 3952SOL     OW23317   2.250   1.940   7.311 -0.2280 -0.3670 -0.0592
 3952SOL    HW123318   2.331   1.918   7.358  0.0835  1.4339  0.2255
 3952SOL    HW223319   2.192   1.950   7.387 -1.0040  0.2039 -0.7318
 3953SOL     OW23320   3.008   0.933  16.169 -0.0485 -0.2119  0.0648
 3953SOL    HW123321   2.967   0.947  16.083 -1.1369 -1.3632  0.4025
 3953SOL    HW223322   2.937   0.967  16.223  0.0952  1.2568 -0.6552
 3954SOL     OW23323   4.345   3.792  15.301  0.4020 -0.1356 -0.1744
 3954SOL    HW123324   4.309   3.712  15.340  1.1028 -0.5351 -0.3561
 3954SOL    HW223325   4.436   3.772  15.279  0.5358  1.4757 -1.1104
 3955SOL     OW23326   1.790   0.257  12.832 -0.0781 -0.2627  0.0939
 3955SOL    HW123327   1.867   0.201  12.825 -1.8786 -2.2711 -3.7147
 3955SOL    HW223328   1.749   0.223  12.754  0.4214  2.7684 -1.5011
 3956SOL     OW23329   0.046   4.473  17.651 -0.0298  0.3671 -0.0887
 3956SOL    HW123330   0.080   4.459  17.562 -1.8389 -2.2295 -0.3432
 3956SOL    HW223331   0.094   4.409  17.703  0.4536 -0.2622 -1.3090
 3957SOL     OW23332   3.303   2.651   9.209  0.2351 -0.3194  0.0384
 3957SOL    HW123333   3.365   2.597   9.159 -1.2177 -2.0397  0.1068
 3957SOL    HW223334   3.347   2.660   9.294 -0.6647  0.1801  0.4458
 3958SOL     OW23335   3.909   0.166  12.195 -0.5266  0.1636  0.4433
 3958SOL    HW123336   3.831   0.120  12.226  0.4708 -0.3142  2.2013
 3958SOL    HW223337   3.870   0.232  12.137 -1.4557 -0.2487  0.5952
 3959SOL     OW23338   3.175   4.043   4.063  0.5436  0.3150  0.5814
 3959SOL    HW123339   3.156   3.961   4.018 -0.3227 -0.8794  3.1065
 3959SOL    HW223340   3.268   4.031   4.085  0.2872  0.6047  1.8568
 3960SOL     OW23341   3.078   2.760   2.578  0.1117  0.5210 -0.3949
 3960SOL    HW123342   3.090   2.667   2.595 -0.7665  0.5270  0.2481
 3960SOL    HW223343   2.999   2.761   2.524  0.1995 -2.5399 -0.5887
 3961SOL     OW23344   3.787   2.969   3.570 -0.2131 -0.1865 -0.0615
 3961SOL    HW123345   3.809   2.986   3.479  0.9590  1.1884  0.4643
 3961SOL    HW223346   3.837   2.888   3.582  1.2411  0.5288 -1.2646
 3962SOL     OW23347   2.718   0.250   9.533  0.2731 -0.3472  0.1011
 3962SOL    HW123348   2.804   0.213   9.514  0.9909  0.6972  1.3432
 3962SOL    HW223349   2.658   0.184   9.567  1.5665 -0.9846  1.0882
 3963SOL     OW23350   3.901   0.741   8.471 -0.3056 -0.0842 -0.4164
 3963SOL    HW123351   3.908   0.755   8.377  0.1831 -1.3061 -0.5707
 3963SOL    HW223352   3.959   0.812   8.496  1.0000 -1.0980 -0.5974
 3964SOL     OW23353   4.675   2.754   3.175  0.4495  0.5851  0.3792
 3964SOL    HW123354   4.643   2.665   3.191  1.0168  0.2620 -0.3328
 3964SOL    HW223355   4.656   2.756   3.081 -0.5901 -1.1792  0.5535
 3965SOL     OW23356   0.350   2.139  15.644  0.2975  0.7659 -0.1520
 3965SOL    HW123357   0.404   2.179  15.576 -0.9104  1.1952 -0.8512
 3965SOL    HW223358   0.264   2.163  15.609  0.5213  2.3665  0.3772
 3966SOL     OW23359   4.617   1.458   7.457 -0.1830  0.7362  0.2935
 3966SOL    HW123360   4.627   1.385   7.519 -1.0531 -0.7937 -1.3595
 3966SOL    HW223361   4.711   1.473   7.442 -0.1961 -0.8169 -1.3389
 3967SOL     OW23362   3.725   3.954  15.486 -0.8048 -0.7148  0.2852
 3967SOL    HW123363   3.652   3.996  15.531  0.5539  2.3935 -0.4274
 3967SOL    HW223364   3.740   4.015  15.414  0.9514 -2.3289 -0.7304
 3968SOL     OW23365   0.868   1.707  17.123  0.2335 -0.0143 -0.2001
 3968SOL    HW123366   0.900   1.617  17.112 -0.3580 -0.2105 -0.2901
 3968SOL    HW223367   0.900   1.752  17.045  1.3193  2.4554  1.6533
 3969SOL     OW23368   3.459   0.523  10.734  0.5449 -0.1546  0.0879
 3969SOL    HW123369   3.384   0.559  10.780  0.7574  0.4011 -0.0054
 3969SOL    HW223370   3.525   0.579  10.773  0.3529  0.3662 -0.3358
 3970SOL     OW23371   2.350   4.614   5.914  0.0416 -0.7596 -0.2260
 3970SOL    HW123372   2.391   4.630   5.829  0.9097 -0.7488  0.2017
 3970SOL    HW223373   2.426   4.589   5.966  0.7025  3.0954  0.6219
 3971SOL     OW23374   3.705   1.899   3.728  0.6371 -0.4553  0.3061
 3971SOL    HW123375   3.638   1.858   3.673  1.1566 -3.3380  1.8447
 3971SOL    HW223376   3.769   1.914   3.658  0.6867 -2.6156 -0.1095
 3972SOL     OW23377   2.710   1.787  11.149  0.5783  0.1943  0.1187
 3972SOL    HW123378   2.744   1.827  11.229  0.3403  1.6162 -0.4891
 3972SOL    HW223379   2.784   1.781  11.087 -0.1888  3.4356 -1.0955
 3973SOL     OW23380   4.117   0.027   7.917 -0.2954  0.3152  0.0276
 3973SOL    HW123381   4.180   0.026   7.989  0.3295  1.2582 -0.5117
 3973SOL    HW223382   4.179   0.020   7.844 -1.7738  0.5196 -1.2356
 3974SOL     OW23383   2.211   4.356   5.742  0.1506 -0.0756  0.1874
 3974SOL    HW123384   2.182   4.406   5.819 -1.2062  4.5551 -3.3056
 3974SOL    HW223385   2.134   4.348   5.686 -0.3753 -1.2074  1.0727
 3975SOL     OW23386   1.700   4.355   3.909  0.2204 -1.0947  0.0988
 3975SOL    HW123387   1.788   4.356   3.948  0.8680  1.6028 -1.4411
 3975SOL    HW223388   1.682   4.444   3.879  1.0223 -0.8385  0.3828
 3976SOL     OW23389   4.588   2.115  17.573  0.2857 -1.0412  0.7748
 3976SOL    HW123390   4.628   2.171  17.506  0.0361 -2.6594 -0.7269
 3976SOL    HW223391   4.587   2.029  17.531 -2.4041 -0.5048 -0.2432
 3977SOL     OW23392   0.527   2.015  10.798  0.3786  0.3669  0.3974
 3977SOL    HW123393   0.489   1.995  10.884 -1.2880 -0.9673 -0.6451
 3977SOL    HW223394   0.619   2.030  10.819 -0.0205  0.1502  2.3131
 3978SOL     OW23395   3.933   3.428  16.376 -0.1771  0.5782  0.2765
 3978SOL    HW123396   3.945   3.341  16.414  0.6774  0.4277 -0.3573
 3978SOL    HW223397   4.017   3.449  16.336  0.2817 -1.2715  0.2809
 3979SOL     OW23398   1.841   2.130   4.514  0.1314 -0.7970 -0.0401
 3979SOL    HW123399   1.923   2.160   4.476 -1.2377  2.9358 -0.0769
 3979SOL    HW223400   1.866   2.119   4.606 -0.3709 -0.9798  0.0755
 3980SOL     OW23401   2.035   0.050  17.109 -0.5789 -0.0883  0.6575
 3980SOL    HW123402   1.995   4.711  17.166  0.6769  0.7180  2.4672
 3980SOL    HW223403   2.052   4.718  17.035 -1.5487 -1.1186  1.2563
 3981SOL     OW23404   2.168   1.023  10.645  0.4154  0.5856 -0.6502
 3981SOL    HW123405   2.242   1.018  10.586 -0.2509  1.9464 -1.5864
 3981SOL    HW223406   2.197   1.030  10.736 -0.3250  2.0384 -0.5350
 3982SOL     OW23407   0.566   4.045   4.299  0.0454 -0.2730  0.2636
 3982SOL    HW123408   0.581   3.977   4.364  0.2271 -0.5184 -0.0335
 3982SOL    HW223409   0.655   4.053   4.266  0.0136  2.7299  0.8307
 3983SOL     OW23410   3.329   1.457   3.056  0.4702  0.4887  0.0100
 3983SOL    HW123411   3.269   1.431   3.126  0.6733 -1.1397 -0.4247
 3983SOL    HW223412   3.418   1.436   3.085  0.6661  0.7384 -0.3959
 3984SOL     OW23413   2.976   1.917  15.493 -0.2137  0.2717 -0.3776
 3984SOL    HW123414   2.891   1.871  15.493 -1.8363  3.2950  1.0478
 3984SOL    HW223415   3.043   1.849  15.496 -0.3421  0.1146 -1.1044
 3985SOL     OW23416   1.429   3.353   6.345 -0.0962  0.0580  0.3121
 3985SOL    HW123417   1.501   3.319   6.291  1.6360  1.7960  1.5043
 3985SOL    HW223418   1.366   3.285   6.323 -0.6310  0.2812  1.1402
 3986SOL     OW23419   3.345   4.646   6.136  0.3029 -0.0960 -0.4494
 3986SOL    HW123420   3.255   4.674   6.115  0.0562 -1.7560 -1.6394
 3986SOL    HW223421   3.351   4.668   6.229 -1.0384 -2.6381  0.2301
 3987SOL     OW23422   0.853   3.709   2.413  0.2165  0.1894 -0.0673
 3987SOL    HW123423   0.798   3.675   2.483 -0.7363  0.3962 -0.7122
 3987SOL    HW223424   0.936   3.671   2.441  0.4512 -0.3941 -1.5457
 3988SOL     OW23425   4.138   3.737   4.065  0.4578  0.1543  0.1916
 3988SOL    HW123426   4.121   3.804   4.131  1.1230  2.3413 -1.8761
 3988SOL    HW223427   4.140   3.794   3.988  0.7725  0.3696  0.3590
 3989SOL     OW23428   2.485   0.306   7.739  0.3146 -0.5217 -0.5522
 3989SOL    HW123429   2.562   0.250   7.744  1.1995  0.8566  1.5948
 3989SOL    HW223430   2.504   0.344   7.653 -0.8704  1.2319 -0.0389
 3990SOL     OW23431   4.642   0.005   2.255 -0.1187 -0.4165  0.3257
 3990SOL    HW123432   4.645   0.058   2.335 -1.4889  0.8520 -0.4696
 3990SOL    HW223433   4.570   4.671   2.270  0.1219 -0.7358  0.2085
 3991SOL     OW23434   0.512   3.791   1.231  0.1972 -0.7201  0.4231
 3991SOL    HW123435   0.424   3.825   1.243 -0.0337 -0.7079 -1.2800
 3991SOL    HW223436   0.552   3.871   1.265  1.0820 -0.4198 -1.3470
 3992SOL     OW23437   1.297   4.624  13.174 -0.3757 -0.3701 -0.6053
 3992SOL    HW123438   1.372   4.630  13.116  0.2875 -1.1512  0.1785
 3992SOL    HW223439   1.285   4.529  13.183 -0.4737 -0.1554  1.6907
 3993SOL     OW23440   3.369   2.714  12.889 -0.0267 -0.7229  0.1600
 3993SOL    HW123441   3.296   2.700  12.949 -0.3067 -0.1214 -0.0418
 3993SOL    HW223442   3.410   2.628  12.901  1.0745 -0.0587  1.1508
 3994SOL     OW23443   1.888   0.351   8.827  0.2986  0.2467 -0.3818
 3994SOL    HW123444   1.811   0.317   8.872  0.2177  0.3168 -0.4676
 3994SOL    HW223445   1.904   0.433   8.874  2.7759 -0.1569 -0.4754
 3995SOL     OW23446   1.730   3.839   3.806 -0.2367  0.1548 -0.7459
 3995SOL    HW123447   1.635   3.841   3.813 -0.1920 -0.1976  0.0196
 3995SOL    HW223448   1.739   3.893   3.727 -0.2325  0.4781 -0.5243
 3996SOL     OW23449   3.650   3.315   0.360  0.3366 -0.2533  0.3906
 3996SOL    HW123450   3.729   3.292   0.310  1.3628  0.7554  1.5552
 3996SOL    HW223451   3.622   3.234   0.402  0.6231 -1.8259 -2.4352
 3997SOL     OW23452   0.803   1.267   6.616  0.2675  0.1263  0.3785
 3997SOL    HW123453   0.823   1.213   6.692 -0.7395 -0.3443  0.3036
 3997SOL    HW223454   0.809   1.353   6.658 -0.0500 -0.1190  0.9165
 3998SOL     OW23455   2.254   2.952   0.325  0.1392 -0.2553 -0.3273
 3998SOL    HW123456   2.300   2.981   0.404  0.4416  2.1890 -1.4072
 3998SOL    HW223457   2.320   2.925   0.262 -1.5219 -1.2354 -1.6489
 3999SOL     OW23458   0.479   1.592   4.991  0.3037 -0.2114 -0.3880
 3999SOL    HW123459   0.552   1.538   5.022  1.0931  0.3945 -1.1900
 3999SOL    HW223460   0.535   1.649   4.939  2.2048 -1.9440 -0.2541
 4000SOL     OW23461   3.324   0.076  10.944  0.4645 -0.4159  0.2143
 4000SOL    HW123462   3.373   0.146  10.987 -0.2031 -1.8809  3.4022
 4000SOL    HW223463   3.390   0.009  10.926  2.4246  1.2849  1.0268
 4001SOL     OW23464   2.068   0.276   0.618  0.2406 -0.4094 -0.0491
 4001SOL    HW123465   2.081   0.256   0.526 -1.1735 -1.1932 -0.0849
 4001SOL    HW223466   1.976   0.303   0.612  0.2510  0.0782  1.7464
 4002SOL     OW23467   2.754   2.817   7.654 -0.2086  0.0947 -0.3727
 4002SOL    HW123468   2.706   2.772   7.585  1.7835 -1.0824 -0.9781
 4002SOL    HW223469   2.740   2.910   7.635 -1.9864 -0.1322 -0.2446
 4003SOL     OW23470   2.830   0.136  10.953 -0.0659 -0.2232 -0.1786
 4003SOL    HW123471   2.883   0.099  11.023 -0.0498 -0.3686 -0.2689
 4003SOL    HW223472   2.902   0.154  10.893 -0.1561  1.8569  0.3400
 4004SOL     OW23473   4.121   2.615   6.878 -0.4159 -0.2788  0.3312
 4004SOL    HW123474   4.132   2.707   6.853 -0.6243  0.0542  1.4523
 4004SOL    HW223475   4.034   2.597   6.843  0.3370 -0.1012 -1.6259
 4005SOL     OW23476   1.576   1.334  16.718  0.2119 -0.3453  0.2703
 4005SOL    HW123477   1.593   1.376  16.634  0.3393  1.9199  1.4185
 4005SOL    HW223478   1.507   1.390  16.755 -0.5784 -0.9683 -0.2590
 4006SOL     OW23479   4.324   0.981   8.623 -0.4831 -0.0218  0.2415
 4006SOL    HW123480   4.348   1.062   8.577 -2.2225 -0.7788 -1.9935
 4006SOL    HW223481   4.409   0.940   8.639  0.0524  0.3353 -1.6430
 4007SOL     OW23482   3.889   3.409   1.389 -0.1998 -0.3099  0.6323
 4007SOL    HW123483   3.803   3.432   1.352  0.9471 -0.0031 -1.8721
 4007SOL    HW223484   3.868   3.386   1.479 -0.8429  1.4020  0.9248
 4008SOL     OW23485   3.367   0.175   2.701  0.1186 -0.2874 -0.2573
 4008SOL    HW123486   3.284   0.193   2.744 -1.0131 -2.9440 -1.3202
 4008SOL    HW223487   3.415   0.137   2.775 -1.1769 -0.8444  0.2886
 4009SOL     OW23488   4.205   2.710  15.564  0.1378 -0.3747  0.1242
 4009SOL    HW123489   4.165   2.763  15.495  0.4804 -0.6379 -0.2809
 4009SOL    HW223490   4.140   2.641  15.580  1.3274 -1.9347 -1.7719
 4010SOL     OW23491   2.413   2.042   1.986  0.3080 -0.1285 -0.2853
 4010SOL    HW123492   2.506   2.037   1.967  0.4231 -2.9150  0.8894
 4010SOL    HW223493   2.420   2.112   2.051 -1.1252  0.6647 -0.9922
 4011SOL     OW23494   3.307   0.340   8.955  0.1798 -0.5700 -0.1214
 4011SOL    HW123495   3.338   0.275   9.019 -1.7582  0.7534  2.1779
 4011SOL    HW223496   3.384   0.349   8.900 -1.0437  0.8807 -1.5957
 4012SOL     OW23497   0.844   4.015   4.226 -0.7704  0.6993 -0.1596
 4012SOL    HW123498   0.936   4.041   4.234 -1.6451  3.2691  1.6819
 4012SOL    HW223499   0.847   3.920   4.215 -1.1407  0.7847 -0.9763
 4013SOL     OW23500   1.832   0.511  15.466  0.3327  0.0928  0.6209
 4013SOL    HW123501   1.883   0.557  15.532 -4.7412  3.0324  2.4540
 4013SOL    HW223502   1.856   0.547  15.381 -0.9817  1.6817  0.9324
 4014SOL     OW23503   2.542   2.848   7.329 -0.3384 -0.5060  0.2516
 4014SOL    HW123504   2.589   2.775   7.370  1.5346  0.4323 -0.1957
 4014SOL    HW223505   2.561   2.839   7.235  0.7387 -0.6675  0.4817
 4015SOL     OW23506   0.142   1.297   5.188 -0.0811  0.4038 -0.0356
 4015SOL    HW123507   0.236   1.312   5.182  0.1561 -0.0336  2.8615
 4015SOL    HW223508   0.149   1.213   5.232 -0.2769  0.9924  1.1163
 4016SOL     OW23509   0.652   0.746   2.878 -0.3138 -0.0510 -0.0754
 4016SOL    HW123510   0.591   0.710   2.943 -0.2173 -0.3277 -0.1395
 4016SOL    HW223511   0.655   0.677   2.812  0.3382 -1.6483  1.6186
 4017SOL     OW23512   0.784   0.006   5.283  0.4067 -0.1539  0.6689
 4017SOL    HW123513   0.866   0.025   5.329  0.1847 -1.5423  1.6207
 4017SOL    HW223514   0.800   0.051   5.200  0.4144  0.0269  0.7668
 4018SOL     OW23515   3.461   2.579   0.681  0.2622 -0.1724  0.2745
 4018SOL    HW123516   3.426   2.645   0.742 -1.8417 -0.8435 -0.1896
 4018SOL    HW223517   3.386   2.521   0.689 -0.6077  0.8922 -0.0414
 4019SOL     OW23518   1.813   0.504  12.939 -0.0508  0.4039  0.1676
 4019SOL    HW123519   1.826   0.561  12.864  0.0435 -2.3144 -1.8931
 4019SOL    HW223520   1.777   0.427  12.894 -0.0501 -0.6500  1.9481
 4020SOL     OW23521   3.322   1.759  10.312 -0.3351  0.0666  0.1005
 4020SOL    HW123522   3.352   1.722  10.229  0.1551 -0.5894  0.5652
 4020SOL    HW223523   3.406   1.762  10.357  0.6549  0.8712 -1.8496
 4021SOL     OW23524   4.496   0.562   6.205 -0.1151  0.7573 -0.2980
 4021SOL    HW123525   4.490   0.563   6.109 -1.7137 -0.1836 -0.1984
 4021SOL    HW223526   4.585   0.528   6.211 -0.3639  0.3093  0.7614
 4022SOL     OW23527   0.854   1.759  16.528  0.2018 -0.5906 -0.6016
 4022SOL    HW123528   0.836   1.759  16.434 -1.3632  1.9453 -0.2968
 4022SOL    HW223529   0.768   1.736  16.564  0.9172 -1.5780  0.5068
 4023SOL     OW23530   1.780   2.408  16.875  0.6506 -0.2520 -0.4673
 4023SOL    HW123531   1.870   2.439  16.875  2.0294 -4.2286  1.0335
 4023SOL    HW223532   1.727   2.483  16.848  0.8305  0.1955  0.4300
 4024SOL     OW23533   0.122   0.243   4.673 -0.1702 -0.3724  0.2252
 4024SOL    HW123534   0.193   0.198   4.628 -0.0987  0.2374 -0.2818
 4024SOL    HW223535   0.124   0.331   4.634  1.5737  0.6658  2.6625
 4025SOL     OW23536   0.339   2.507   3.208  0.4449 -0.0961  0.0193
 4025SOL    HW123537   0.316   2.496   3.301  3.3525  0.1064  0.7629
 4025SOL    HW223538   0.331   2.417   3.176  1.1815 -0.1408 -0.0214
 4026SOL     OW23539   4.604   4.393   4.423  0.5508 -0.7460 -0.1476
 4026SOL    HW123540   4.652   4.371   4.343  0.4879  0.3997 -0.5047
 4026SOL    HW223541   4.515   4.376   4.390  0.2986  0.4056 -0.0636
 4027SOL     OW23542   3.276   1.671   5.784 -0.4774 -0.0949  0.4987
 4027SOL    HW123543   3.271   1.579   5.760  2.9304 -0.2164  0.2820
 4027SOL    HW223544   3.187   1.686   5.816 -0.9074 -3.4208  0.8273
 4028SOL     OW23545   2.070   3.957   7.260 -0.0639  0.1080 -0.1853
 4028SOL    HW123546   2.050   3.916   7.176 -1.6828 -1.1351  0.7914
 4028SOL    HW223547   2.013   4.034   7.266  0.9652  0.8035  0.7234
 4029SOL     OW23548   1.979   3.789   8.291 -0.8140  0.0832  0.4328
 4029SOL    HW123549   2.058   3.844   8.288 -1.5167  1.1582  1.5604
 4029SOL    HW223550   2.001   3.738   8.213 -1.3518 -1.1847  1.1156
 4030SOL     OW23551   2.286   1.274   7.059  0.0179  0.1066  0.2472
 4030SOL    HW123552   2.339   1.345   7.025  0.3986  0.3688  1.3708
 4030SOL    HW223553   2.287   1.287   7.154  2.0734  2.7083 -0.1216
 4031SOL     OW23554   3.620   0.893   6.468 -0.0864 -0.0653  0.6299
 4031SOL    HW123555   3.676   0.965   6.439  0.1413 -0.7357 -0.5700
 4031SOL    HW223556   3.561   0.881   6.394 -0.1722 -1.1044  0.8559
 4032SOL     OW23557   4.631   4.221   3.746  0.0627  0.5488 -0.4646
 4032SOL    HW123558   4.649   4.305   3.705  0.5481  0.8893  0.4573
 4032SOL    HW223559   4.578   4.178   3.678  0.7195 -0.7105 -0.1942
 4033SOL     OW23560   0.007   0.759   4.359  0.1248 -0.1716  0.4493
 4033SOL    HW123561   0.001   0.854   4.350  1.1579 -0.0875  0.6499
 4033SOL    HW223562   4.651   0.728   4.319 -0.7780  3.3465 -0.4643
 4034SOL     OW23563   4.430   0.646   7.322  0.0772 -0.0099 -0.3672
 4034SOL    HW123564   4.430   0.736   7.353 -1.5319 -0.7891  1.9198
 4034SOL    HW223565   4.338   0.628   7.305 -0.2919  1.1569  0.3947
 4035SOL     OW23566   3.273   3.640  10.920 -0.0410 -0.3740 -0.3335
 4035SOL    HW123567   3.328   3.587  10.977 -0.6069 -1.3166 -0.6717
 4035SOL    HW223568   3.183   3.632  10.952  0.5272  0.5863  1.5314
 4036SOL     OW23569   0.141   2.630   1.323  0.0349  0.4538  0.1814
 4036SOL    HW123570   0.121   2.542   1.292 -0.8419  0.6824  0.1004
 4036SOL    HW223571   0.078   2.684   1.275  0.1383 -0.8215 -1.4087
 4037SOL     OW23572   3.099   4.636   0.780  0.3962 -0.4732  0.2437
 4037SOL    HW123573   3.063   4.674   0.860  1.7530  1.6927 -0.1806
 4037SOL    HW223574   3.088   4.700   0.710  0.5228 -1.4382 -0.6618
 4038SOL     OW23575   1.603   1.632  17.247 -0.5674  0.1868 -0.5353
 4038SOL    HW123576   1.594   1.551  17.196 -1.7181  0.3109 -0.5315
 4038SOL    HW223577   1.690   1.654  17.215  0.3707  0.3408  2.1030
 4039SOL     OW23578   0.879   1.445  13.227  0.2739  0.5415  0.5506
 4039SOL    HW123579   0.880   1.365  13.280  0.2901 -1.8660 -3.0810
 4039SOL    HW223580   0.952   1.424  13.170  0.9782  0.1430  1.5968
 4040SOL     OW23581   1.316   2.349   4.771 -0.5126 -0.0428 -0.0651
 4040SOL    HW123582   1.390   2.407   4.789  1.1931 -2.0225 -0.7526
 4040SOL    HW223583   1.276   2.399   4.699 -0.1396 -0.3033 -0.4534
 4041SOL     OW23584   3.820   1.757   7.905  0.2586  0.3358  0.4151
 4041SOL    HW123585   3.737   1.800   7.925 -0.3566 -0.5179 -0.2579
 4041SOL    HW223586   3.854   1.829   7.852  0.0687  0.2389  0.1587
 4042SOL     OW23587   4.221   1.359   0.300 -0.2592 -0.0770  0.1809
 4042SOL    HW123588   4.309   1.324   0.284  0.3563  0.5812  2.2274
 4042SOL    HW223589   4.224   1.424   0.370  1.3016 -0.3279  0.3502
 4043SOL     OW23590   0.983   1.129   9.236  0.4402  0.6985 -0.1087
 4043SOL    HW123591   0.919   1.115   9.306  0.6445 -2.5649 -0.5722
 4043SOL    HW223592   0.925   1.105   9.164 -0.3609  0.2195  0.6883
 4044SOL     OW23593   3.916   2.973  10.381 -0.0138  0.2789  0.6305
 4044SOL    HW123594   3.987   2.929  10.427  2.6269  3.0187 -0.8410
 4044SOL    HW223595   3.855   2.908  10.416 -0.9214  1.1110  0.5925
 4045SOL     OW23596   2.008   0.557   9.656  0.0364  0.0759 -0.1946
 4045SOL    HW123597   2.097   0.591   9.646  0.7244 -1.7150 -0.0995
 4045SOL    HW223598   1.953   0.626   9.619 -0.4944 -1.1606 -1.7254
 4046SOL     OW23599   1.159   4.572   8.659  0.2384  0.4964  0.2310
 4046SOL    HW123600   1.186   4.662   8.642  1.6186  0.1509  0.5819
 4046SOL    HW223601   1.097   4.579   8.732  0.5030  0.5006  0.4527
 4047SOL     OW23602   2.656   2.529  13.730 -0.1909 -0.8172  0.1378
 4047SOL    HW123603   2.686   2.592  13.796  0.3984 -0.2127 -0.7044
 4047SOL    HW223604   2.700   2.448  13.758  0.2894 -1.3289 -2.1301
 4048SOL     OW23605   1.101   4.339   9.815 -0.2045 -0.2073 -0.2243
 4048SOL    HW123606   1.086   4.402   9.746  0.6879  1.3054  0.9688
 4048SOL    HW223607   1.052   4.270   9.770 -1.7862  1.6608 -1.3087
 4049SOL     OW23608   4.162   0.533   9.058 -0.1580 -0.4647 -0.1367
 4049SOL    HW123609   4.135   0.468   8.993  0.0625  0.3954 -1.0777
 4049SOL    HW223610   4.077   0.546   9.101  0.0091 -0.5430  0.2194
 4050SOL     OW23611   4.546   4.053   1.664  0.4817  0.0502  0.4875
 4050SOL    HW123612   4.582   4.116   1.727  2.0910 -0.8318  0.4510
 4050SOL    HW223613   4.470   4.101   1.631 -1.3605 -2.2209  1.4464
 4051SOL     OW23614   2.421   4.142   6.737  0.0076 -0.2337  0.8862
 4051SOL    HW123615   2.468   4.204   6.681  0.6854 -0.4895  1.1582
 4051SOL    HW223616   2.356   4.111   6.675  0.9607 -1.9388  0.7235
 4052SOL     OW23617   2.491   2.966  10.904  0.2252  0.0798 -0.8848
 4052SOL    HW123618   2.507   2.942  10.996 -2.9742 -3.4665 -1.2626
 4052SOL    HW223619   2.398   2.945  10.900  0.1970 -0.3384  1.6899
 4053SOL     OW23620   3.214   1.242   3.789 -0.3532  0.0678  0.0473
 4053SOL    HW123621   3.260   1.225   3.872 -0.4933  0.3104  0.1760
 4053SOL    HW223622   3.219   1.166   3.731 -1.7106  0.0495 -0.0461
 4054SOL     OW23623   3.369   1.486  17.564  0.5736  0.8247  0.9704
 4054SOL    HW123624   3.352   1.398  17.598  0.3791  0.9051  1.0805
 4054SOL    HW223625   3.287   1.531  17.584  0.9760  2.3767 -0.7950
 4055SOL     OW23626   1.592   0.348   6.054 -0.0921 -0.1455 -0.0747
 4055SOL    HW123627   1.530   0.334   6.125 -1.8765  2.7056 -1.0649
 4055SOL    HW223628   1.626   0.437   6.067  2.4389 -0.8631 -1.8221
 4056SOL     OW23629   2.219   4.644   8.124  0.0559  0.3422  0.1055
 4056SOL    HW123630   2.174   4.678   8.047 -0.0151 -0.0855 -0.0439
 4056SOL    HW223631   2.198   4.551   8.115  5.0134 -0.7645 -0.0303
 4057SOL     OW23632   2.642   0.455   7.898 -0.3029  0.1079 -0.0520
 4057SOL    HW123633   2.567   0.400   7.875 -0.3500  1.1767 -2.4129
 4057SOL    HW223634   2.596   0.539   7.909  0.8138  0.9658 -1.9943
 4058SOL     OW23635   3.179   2.430   0.408  0.1108 -0.1396  0.2735
 4058SOL    HW123636   3.214   2.396   0.326  0.4012  2.1985 -0.5648
 4058SOL    HW223637   3.214   2.368   0.472  0.9400  0.0813  0.0337
 4059SOL     OW23638   0.777   4.575   2.942  0.2987 -0.3106  0.8381
 4059SOL    HW123639   0.819   4.565   2.856  0.4817 -0.6455  0.9698
 4059SOL    HW223640   0.723   4.653   2.928  0.7111  0.3720  3.0430
 4060SOL     OW23641   3.815   4.326   5.426 -0.0809 -0.0086  0.2193
 4060SOL    HW123642   3.808   4.272   5.348 -0.1272 -2.9041  2.2057
 4060SOL    HW223643   3.811   4.257   5.492  1.7854 -1.7719 -1.5189
 4061SOL     OW23644   2.914   2.153   2.610  0.6275 -0.3662  0.2672
 4061SOL    HW123645   3.007   2.138   2.625  0.1058 -3.0545  0.7614
 4061SOL    HW223646   2.883   2.150   2.700  1.5004  0.4858  0.5956
 4062SOL     OW23647   2.063   1.061   5.083  0.0293 -0.4420 -0.2118
 4062SOL    HW123648   2.067   1.103   4.997 -1.5111 -0.2259 -0.1754
 4062SOL    HW223649   2.154   1.031   5.084 -0.0991 -0.8092  0.7019
 4063SOL     OW23650   0.471   0.111   7.078  0.0105 -0.3439  0.2243
 4063SOL    HW123651   0.420   0.167   7.137  1.8899  1.0737  0.4882
 4063SOL    HW223652   0.489   0.166   7.002  2.2084 -1.0799  0.2260
 4064SOL     OW23653   3.177   2.447   8.947 -0.4173 -0.3940  0.4595
 4064SOL    HW123654   3.145   2.421   8.860 -0.6739  0.4374  0.3028
 4064SOL    HW223655   3.167   2.366   8.997  1.3562  0.8847  2.8544
 4065SOL     OW23656   3.315   2.326   1.202  0.6105 -0.1075 -0.0531
 4065SOL    HW123657   3.230   2.299   1.236  0.2541  0.0616 -0.8206
 4065SOL    HW223658   3.362   2.301   1.282 -1.2920 -1.9467  0.5118
 4066SOL     OW23659   4.224   2.439  15.933 -0.6151  0.1813  0.1383
 4066SOL    HW123660   4.218   2.530  15.960 -0.0678 -0.6850  3.1910
 4066SOL    HW223661   4.304   2.409  15.977 -1.3237  2.1223  2.7460
 4067SOL     OW23662   0.641   4.675   3.452 -0.4233 -0.0223  0.3320
 4067SOL    HW123663   0.552   4.700   3.477 -0.9258 -0.6058 -0.8564
 4067SOL    HW223664   0.690   0.026   3.479 -0.5368  0.3767 -0.6055
 4068SOL     OW23665   2.263   0.257   6.512  0.6437 -0.1379 -0.0241
 4068SOL    HW123666   2.169   0.270   6.503  0.6078  0.5060  1.3208
 4068SOL    HW223667   2.289   0.295   6.595 -1.8312 -1.4492  1.3642
 4069SOL     OW23668   3.156   0.908   6.958  0.0734  0.4995 -0.5335
 4069SOL    HW123669   3.109   0.956   7.026  0.4813 -0.7065  0.6151
 4069SOL    HW223670   3.240   0.883   6.995  0.2684  3.0382  0.7107
 4070SOL     OW23671   4.662   0.610   3.308  0.4607 -0.1330 -0.1719
 4070SOL    HW123672   4.688   0.702   3.304  0.1167 -0.0854 -1.2396
 4070SOL    HW223673   4.569   0.613   3.333 -0.1712 -0.4840 -2.5236
 4071SOL     OW23674   0.018   3.811   6.843 -0.1796  0.3009 -0.6474
 4071SOL    HW123675   0.036   3.858   6.761  1.1920  1.8573  0.5330
 4071SOL    HW223676   4.671   3.752   6.825 -0.8922  0.8808  0.2857
 4072SOL     OW23677   2.612   1.767   5.465  0.2588  0.0500  0.1939
 4072SOL    HW123678   2.619   1.847   5.414 -0.5579  0.3194  0.4983
 4072SOL    HW223679   2.517   1.757   5.461  0.1837  1.0742 -0.4297
 4073SOL     OW23680   2.639   0.647  10.222 -0.2834  0.7367 -0.5424
 4073SOL    HW123681   2.707   0.598  10.177  0.9720  2.2429 -0.2756
 4073SOL    HW223682   2.647   0.612  10.311 -0.4726  0.0034 -0.8089
 4074SOL     OW23683   0.595   1.724   5.298 -1.1638  0.2030  0.6387
 4074SOL    HW123684   0.550   1.644   5.270  0.2896 -0.2984 -0.2456
 4074SOL    HW223685   0.675   1.680   5.328 -0.6662  0.5595 -0.1551
 4075SOL     OW23686   2.030   2.592   5.065 -0.5910  0.0264  0.2890
 4075SOL    HW123687   2.119   2.563   5.084 -1.2119  0.5693  3.9241
 4075SOL    HW223688   1.989   2.598   5.151 -1.1043 -2.5752  0.2284
 4076SOL     OW23689   1.114   1.647   1.906  0.1911 -0.0724  0.1118
 4076SOL    HW123690   1.140   1.574   1.850  0.3936  0.0495  0.0429
 4076SOL    HW223691   1.131   1.613   1.994  0.7446  0.5587  0.2493
 4077SOL     OW23692   3.819   2.216   4.569 -0.3126 -0.0453 -0.5287
 4077SOL    HW123693   3.774   2.245   4.490 -0.2284  1.8981  0.1289
 4077SOL    HW223694   3.878   2.152   4.528  0.5069  0.1559  0.3354
 4078SOL     OW23695   1.411   2.156   8.240 -0.0440  0.5029 -0.2035
 4078SOL    HW123696   1.367   2.133   8.323 -0.8301  1.6316 -0.2985
 4078SOL    HW223697   1.500   2.126   8.259  0.2412  0.5396 -1.5136
 4079SOL     OW23698   2.975   0.347  17.563  0.6178  0.1314  0.0736
 4079SOL    HW123699   2.945   0.322  17.476  0.2862  4.2285 -0.9998
 4079SOL    HW223700   3.060   0.385  17.541  0.9623 -0.8149 -0.2183
 4080SOL     OW23701   1.943   0.446   3.120  0.2759  0.0269 -0.1980
 4080SOL    HW123702   1.865   0.396   3.144  0.9549 -0.8269  0.2229
 4080SOL    HW223703   1.921   0.477   3.032  0.2499  1.0382  0.1596
 4081SOL     OW23704   1.728   1.658   6.304 -0.0744 -0.1546  0.4418
 4081SOL    HW123705   1.787   1.727   6.337  0.7539 -1.0606  0.8666
 4081SOL    HW223706   1.643   1.695   6.328 -0.1604 -0.4730  0.6250
 4082SOL     OW23707   1.104   2.410   2.820 -0.0233 -0.0754  0.4285
 4082SOL    HW123708   1.133   2.435   2.732 -1.4602  0.1760  0.0318
 4082SOL    HW223709   1.128   2.317   2.823  2.0154  0.3925 -1.3362
 4083SOL     OW23710   2.706   2.316   2.186 -0.0980  0.5065  0.0060
 4083SOL    HW123711   2.713   2.332   2.280 -0.5807 -0.8711  0.2792
 4083SOL    HW223712   2.766   2.381   2.150 -1.2907  0.5997 -1.7979
 4084SOL     OW23713   2.176   4.711   8.905 -0.2567 -0.0408  0.4598
 4084SOL    HW123714   2.154   0.005   8.995  0.1833  0.3678  0.4745
 4084SOL    HW223715   2.101   0.019   8.857  0.1051  0.6176  0.3531
 4085SOL     OW23716   1.218   3.609   1.974 -0.4891 -0.2774 -0.4116
 4085SOL    HW123717   1.232   3.583   2.065  0.1659 -0.7254 -0.6412
 4085SOL    HW223718   1.309   3.635   1.958 -0.5545 -0.9030 -1.7369
 4086SOL     OW23719   3.108   0.477  12.091 -0.2680  0.1394 -0.5575
 4086SOL    HW123720   3.064   0.397  12.119 -1.0071  1.1525  1.2035
 4086SOL    HW223721   3.159   0.500  12.169  0.7583  2.1040 -1.8094
 4087SOL     OW23722   2.351   0.872  13.484  0.2475 -0.3479  0.4291
 4087SOL    HW123723   2.258   0.868  13.461 -0.3107  1.9701  2.2920
 4087SOL    HW223724   2.381   0.876  13.394 -0.3066  2.0538  0.3405
 4088SOL     OW23725   1.042   1.823   6.463  0.2737  0.1874 -0.0128
 4088SOL    HW123726   0.969   1.810   6.524 -0.0370 -0.1563 -0.4557
 4088SOL    HW223727   1.118   1.798   6.514 -0.6948 -0.2359  1.2156
 4089SOL     OW23728   1.997   4.667   3.865  0.2508 -0.3047 -0.0016
 4089SOL    HW123729   2.070   4.716   3.902  0.4283  0.7337 -1.7402
 4089SOL    HW223730   1.938   0.014   3.845  1.7524  1.2510  1.2654
 4090SOL     OW23731   0.485   3.782   4.087 -0.2433 -0.5163  0.3208
 4090SOL    HW123732   0.471   3.854   4.148  3.4670 -0.0581  0.6047
 4090SOL    HW223733   0.532   3.818   4.012 -1.4201  2.7236  1.1422
 4091SOL     OW23734   3.538   0.834   2.304 -0.2658 -0.3390 -0.5711
 4091SOL    HW123735   3.557   0.924   2.328  0.0382 -0.8118  0.9444
 4091SOL    HW223736   3.475   0.834   2.232  0.9865 -2.3122 -1.6910
 4092SOL     OW23737   3.427   2.912   5.803  0.4488 -0.3075  0.4253
 4092SOL    HW123738   3.508   2.904   5.854 -0.5451 -1.1824  1.8681
 4092SOL    HW223739   3.452   2.860   5.727  1.1716 -1.7947  1.6756
 4093SOL     OW23740   1.422   2.765   6.742  0.3212 -0.1753  0.5137
 4093SOL    HW123741   1.486   2.694   6.743 -0.3446 -0.7372  2.7343
 4093SOL    HW223742   1.366   2.733   6.813  0.6034  0.7532  1.1410
 4094SOL     OW23743   0.505   1.065   9.016 -0.0863 -0.2834  0.1955
 4094SOL    HW123744   0.482   1.127   8.947 -1.5187 -1.8678 -0.7446
 4094SOL    HW223745   0.427   1.070   9.070  0.2831  0.0651  0.6962
 4095SOL     OW23746   0.703   2.164   9.096 -0.0687 -0.1347 -0.0443
 4095SOL    HW123747   0.731   2.081   9.136 -4.1648 -1.4781  0.0449
 4095SOL    HW223748   0.645   2.131   9.027  1.0629  0.2990 -1.1952
 4096SOL     OW23749   2.406   3.636   3.819 -0.2099 -0.3815  0.6102
 4096SOL    HW123750   2.473   3.700   3.845 -1.9401  1.8848 -0.4659
 4096SOL    HW223751   2.335   3.662   3.878 -1.2472  1.3153 -1.3897
 4097SOL     OW23752   3.449   0.508   8.129 -0.2243  0.2323 -0.5786
 4097SOL    HW123753   3.509   0.549   8.191  1.3127 -1.6482 -0.8059
 4097SOL    HW223754   3.395   0.587   8.136  1.9735  1.3691  3.3383
 4098SOL     OW23755   1.666   4.654   0.818  0.3826 -0.4955 -0.2824
 4098SOL    HW123756   1.650   4.581   0.758  1.7917 -1.4734  0.5345
 4098SOL    HW223757   1.721   4.710   0.763 -0.4547 -1.9271 -2.5961
 4099SOL     OW23758   0.599   4.554  15.665 -0.1045  0.5336 -0.0211
 4099SOL    HW123759   0.566   4.614  15.732  2.8122  3.4162 -1.1565
 4099SOL    HW223760   0.587   4.606  15.585  0.9325  0.8035  0.0041
 4100SOL     OW23761   0.013   4.177   5.925 -0.0446  0.2746 -0.3203
 4100SOL    HW123762   0.063   4.150   5.848  2.4566 -1.0746  1.7316
 4100SOL    HW223763   4.688   4.107   5.966  1.2209  0.5375  1.7040
 4101SOL     OW23764   1.160   1.364   5.120  0.5230 -0.7776 -0.2100
 4101SOL    HW123765   1.233   1.323   5.165  0.7932  1.4219  1.3643
 4101SOL    HW223766   1.189   1.451   5.093 -2.2467  0.0940 -0.3866
 4102SOL     OW23767   2.274   3.659   5.513 -0.2040 -0.2211  0.1711
 4102SOL    HW123768   2.328   3.644   5.436  0.2199  1.4309  0.1529
 4102SOL    HW223769   2.328   3.718   5.565  0.5794  0.0906 -1.0122
 4103SOL     OW23770   2.873   0.123  16.229 -0.4010  0.2764 -0.1525
 4103SOL    HW123771   2.815   0.152  16.299  0.2954  1.4545 -0.0622
 4103SOL    HW223772   2.911   0.048  16.275 -1.2864  0.9921  1.7037
 4104SOL     OW23773   1.958   1.762   3.594 -0.1751  0.3774 -0.0973
 4104SOL    HW123774   1.918   1.702   3.532 -0.4663  0.6253 -0.1457
 4104SOL    HW223775   1.907   1.839   3.571  0.3632  0.8376  0.2241
 4105SOL     OW23776   0.079   2.794   5.532  0.6173  0.4827 -0.2300
 4105SOL    HW123777   4.721   2.778   5.577  1.6795  0.1856  1.6235
 4105SOL    HW223778   0.116   2.877   5.561 -1.5181  2.2669 -2.6139
 4106SOL     OW23779   0.098   1.119   7.077 -0.0740  0.3307 -0.1698
 4106SOL    HW123780   0.070   1.206   7.049  2.4578  2.1958  3.1797
 4106SOL    HW223781   0.019   1.074   7.108  0.3747 -2.2362 -2.6696
 4107SOL     OW23782   2.494   4.082   4.517 -0.1272  0.1421  1.2129
 4107SOL    HW123783   2.480   4.004   4.464  0.7618 -0.2211  1.5168
 4107SOL    HW223784   2.408   4.095   4.557 -0.4839  0.3102  0.3996
 4108SOL     OW23785   2.451   1.279   5.206 -0.5367 -0.7182  0.6524
 4108SOL    HW123786   2.365   1.290   5.246  0.2025 -0.5098  2.2109
 4108SOL    HW223787   2.504   1.341   5.256  0.3130 -0.1900 -0.9314
 4109SOL     OW23788   1.777   1.111   7.550  0.4074  0.3754 -0.1731
 4109SOL    HW123789   1.867   1.099   7.579  0.3384 -1.3582 -0.6837
 4109SOL    HW223790   1.749   1.020   7.539 -1.8439  1.3441 -2.4576
 4110SOL     OW23791   4.004   1.503   6.472  0.5042  0.0915  0.9261
 4110SOL    HW123792   3.971   1.545   6.392  0.0415 -0.7813  0.6566
 4110SOL    HW223793   4.079   1.562   6.478  0.5494  0.4421 -2.8576
 4111SOL     OW23794   3.957   0.521  11.355  0.2336 -0.0339 -0.4591
 4111SOL    HW123795   3.946   0.439  11.403  1.6146  0.1480  0.1574
 4111SOL    HW223796   3.900   0.510  11.279 -1.0258  0.2709  0.4388
 4112SOL     OW23797   4.096   2.774   1.117 -0.3488 -0.1339 -0.4083
 4112SOL    HW123798   4.123   2.817   1.198  0.4268 -2.0450  0.3430
 4112SOL    HW223799   4.015   2.825   1.108 -0.3012  0.1630  0.7749
 4113SOL     OW23800   4.406   0.679   8.169  0.3456  0.1225  0.4433
 4113SOL    HW123801   4.333   0.617   8.176 -1.1571  1.8007 -0.1386
 4113SOL    HW223802   4.457   0.649   8.244  1.4324  1.1775  0.1379
 4114SOL     OW23803   1.071   0.795   5.254  0.1890  0.0185  0.1950
 4114SOL    HW123804   1.074   0.868   5.193 -2.3594 -0.4799 -0.5361
 4114SOL    HW223805   1.003   0.748   5.207  0.9628 -0.6783 -0.2320
 4115SOL     OW23806   4.586   2.062   6.754  0.7048 -0.2104  0.2362
 4115SOL    HW123807   4.512   2.121   6.765 -0.3050 -1.9593  2.6592
 4115SOL    HW223808   4.665   2.116   6.752  0.7525 -0.3211 -0.9657
 4116SOL     OW23809   0.110   3.387   1.648  0.0732  0.3809 -0.1910
 4116SOL    HW123810   0.056   3.461   1.619  1.2041 -0.1081 -3.6067
 4116SOL    HW223811   0.038   3.343   1.692 -2.1329  2.0426 -2.1061
 4117SOL     OW23812   2.169   2.126   6.581  0.0192 -0.0161 -0.5246
 4117SOL    HW123813   2.137   2.203   6.627 -2.0933 -1.9859  1.3219
 4117SOL    HW223814   2.093   2.068   6.590  0.1385 -0.3127 -1.4994
 4118SOL     OW23815   0.128   2.301   4.011 -0.7251  0.5651  0.1722
 4118SOL    HW123816   0.218   2.274   3.998 -0.5593  0.4157  1.7086
 4118SOL    HW223817   0.079   2.254   3.944  0.5501 -0.2261 -0.1983
 4119SOL     OW23818   1.017   2.075  10.900  0.4122  0.2143  0.4325
 4119SOL    HW123819   1.007   2.083  10.994 -0.1979 -0.1891  0.4012
 4119SOL    HW223820   1.105   2.038  10.892  1.0669  2.1010 -1.2665
 4120SOL     OW23821   2.137   3.129   4.258  0.0402  0.4183  0.2163
 4120SOL    HW123822   2.197   3.203   4.264  0.1095  0.6727 -3.5526
 4120SOL    HW223823   2.162   3.076   4.333 -1.9457  0.3618  0.8337
 4121SOL     OW23824   4.229   0.882  16.528 -0.1980  0.1991 -0.5823
 4121SOL    HW123825   4.274   0.799  16.542 -0.0137  0.3941 -0.0154
 4121SOL    HW223826   4.256   0.913  16.442 -1.0666  1.6837 -0.3102
 4122SOL     OW23827   3.042   3.442   7.396 -0.1625 -0.1749 -0.1498
 4122SOL    HW123828   3.037   3.349   7.420  1.7083  0.0488  1.1110
 4122SOL    HW223829   3.136   3.456   7.400  0.2767 -2.5848 -2.2185
 4123SOL     OW23830   2.400   0.278   8.771 -0.1192 -0.0491 -0.1823
 4123SOL    HW123831   2.391   0.272   8.676 -0.5838  1.1013 -0.2080
 4123SOL    HW223832   2.350   0.201   8.800 -0.2502  0.7992  1.8751
 4124SOL     OW23833   3.834   2.583   4.739 -0.3149 -0.0880  0.5661
 4124SOL    HW123834   3.813   2.494   4.765 -0.1378 -0.0574  0.8089
 4124SOL    HW223835   3.744   2.605   4.713 -0.4599  1.7928  2.6566
 4125SOL     OW23836   0.884   0.224   1.362  0.2236 -0.5445  0.0505
 4125SOL    HW123837   0.827   0.149   1.351 -0.9145  0.6931 -2.4790
 4125SOL    HW223838   0.949   0.200   1.428  0.4081 -0.9314 -0.2742
 4126SOL     OW23839   1.991   0.529   2.840 -0.2845  0.3799  0.9742
 4126SOL    HW123840   1.953   0.617   2.836  0.8377  0.8780  1.3528
 4126SOL    HW223841   2.021   0.517   2.750  0.0240  1.4686  0.9348
 4127SOL     OW23842   3.388   3.102   4.240  0.1716 -0.2957  0.7006
 4127SOL    HW123843   3.383   3.128   4.332  0.4996 -1.1211  0.9497
 4127SOL    HW223844   3.302   3.125   4.206 -0.2801  0.3835  2.2984
 4128SOL     OW23845   2.197   3.557   9.076  0.3577  0.5361 -0.0339
 4128SOL    HW123846   2.188   3.511   8.992  2.8848  1.1196 -0.6344
 4128SOL    HW223847   2.163   3.487   9.131 -0.4463  1.5189  0.7073
 4129SOL     OW23848   0.819   3.316  15.713 -0.2079 -0.4687 -0.0378
 4129SOL    HW123849   0.852   3.260  15.642  0.7315 -1.9807  1.6123
 4129SOL    HW223850   0.850   3.271  15.792  1.8500  1.8872  0.4708
 4130SOL     OW23851   2.873   0.204   2.403  0.3867 -0.0722 -0.0853
 4130SOL    HW123852   2.831   0.241   2.326 -0.6828 -0.7563  0.1732
 4130SOL    HW223853   2.962   0.218   2.370  0.4593  0.2721  0.2522
 4131SOL     OW23854   2.464   1.220   4.263 -0.0648  0.2794 -0.0543
 4131SOL    HW123855   2.419   1.295   4.226  1.8861  1.6488  0.3439
 4131SOL    HW223856   2.510   1.197   4.183  3.8274  0.6886  2.0311
 4132SOL     OW23857   0.621   4.601   4.142 -0.2634 -0.1963 -0.2484
 4132SOL    HW123858   0.677   4.539   4.096  1.7024  1.3409  0.0845
 4132SOL    HW223859   0.667   4.683   4.126 -1.4120  0.5753  0.3542
 4133SOL     OW23860   4.385   2.785   2.135  0.1745 -0.6209 -0.7123
 4133SOL    HW123861   4.327   2.790   2.211  0.4120 -0.6570 -0.5286
 4133SOL    HW223862   4.329   2.737   2.074  2.0164 -2.5628 -0.8870
 4134SOL     OW23863   1.305   1.339  11.131 -0.4812 -0.0600  0.1439
 4134SOL    HW123864   1.314   1.432  11.112  1.2222 -0.9731 -3.4157
 4134SOL    HW223865   1.288   1.349  11.225 -1.4116  1.6170 -0.1968
 4135SOL     OW23866   4.433   0.537   7.650  0.3631 -0.0842  0.1022
 4135SOL    HW123867   4.416   0.497   7.564 -1.5047  1.7225 -0.3787
 4135SOL    HW223868   4.527   0.521   7.661  0.0225  0.4067  3.6589
 4136SOL     OW23869   4.345   0.926   2.855 -0.0562 -0.1174 -0.2041
 4136SOL    HW123870   4.265   0.954   2.899  1.4464  2.3739  0.9216
 4136SOL    HW223871   4.369   1.012   2.822 -1.3149  0.6739  0.9218
 4137SOL     OW23872   4.686   1.903   8.329  0.3061  1.0169  0.1419
 4137SOL    HW123873   4.691   1.817   8.287  0.8137  0.5228  1.2015
 4137SOL    HW223874   4.647   1.955   8.259  0.4480  0.0501 -0.6568
 4138SOL     OW23875   1.947   2.857   4.112  0.2145 -0.6313  0.3087
 4138SOL    HW123876   1.853   2.838   4.105  0.0940  0.1344 -0.1243
 4138SOL    HW223877   1.965   2.854   4.206 -1.1981  0.9678  0.6274
 4139SOL     OW23878   0.860   0.343   7.731 -0.2282  0.3041 -0.5315
 4139SOL    HW123879   0.878   0.269   7.673 -1.2918 -1.3670  1.3028
 4139SOL    HW223880   0.922   0.411   7.702 -0.4502  0.9518  0.5138
 4140SOL     OW23881   2.375   3.421   8.146  0.4248 -0.3393 -0.0608
 4140SOL    HW123882   2.406   3.499   8.191  1.0670 -1.3933  1.3069
 4140SOL    HW223883   2.456   3.370   8.152  1.1243  1.0799  2.6075
 4141SOL     OW23884   1.468   1.786   5.143 -0.3023 -0.3426 -0.1863
 4141SOL    HW123885   1.550   1.800   5.191 -0.0374  0.2681 -0.8208
 4141SOL    HW223886   1.414   1.853   5.184  1.4943  1.0759 -0.1047
 4142SOL     OW23887   1.481   3.628   7.571 -0.1971 -0.3691  0.1812
 4142SOL    HW123888   1.456   3.546   7.614 -2.2174  0.4822  0.6011
 4142SOL    HW223889   1.575   3.621   7.554 -0.4727 -0.0828 -1.4283
 4143SOL     OW23890   3.319   2.204  16.371 -0.1456  0.1140 -0.1910
 4143SOL    HW123891   3.264   2.274  16.335 -1.0821 -0.0041  1.0110
 4143SOL    HW223892   3.311   2.136  16.304 -4.0919 -1.0800  1.4629
 4144SOL     OW23893   0.808   0.779   2.367  0.1986  0.2106  0.3401
 4144SOL    HW123894   0.851   0.700   2.335  0.6073  1.6592 -2.6247
 4144SOL    HW223895   0.717   0.749   2.363  0.0351  0.9770 -1.5968
 4145SOL     OW23896   3.200   3.362  10.117 -0.0655  0.5193  0.3604
 4145SOL    HW123897   3.213   3.345  10.210  0.4927 -1.6086 -0.1131
 4145SOL    HW223898   3.247   3.289  10.078  2.6717  1.7335  1.3779
 4146SOL     OW23899   0.857   4.613   4.381  0.3895 -0.0171  0.0153
 4146SOL    HW123900   0.947   4.614   4.414  0.8118 -2.6893 -1.1348
 4146SOL    HW223901   0.870   4.626   4.287 -0.1663 -0.4184 -0.1145
 4147SOL     OW23902   1.494   4.132   9.232 -0.1505 -0.0525 -0.2374
 4147SOL    HW123903   1.494   4.159   9.324 -1.8748 -0.4235 -0.1257
 4147SOL    HW223904   1.561   4.185   9.189 -0.9966  2.2624  1.3131
 4148SOL     OW23905   4.379   1.315  11.658 -0.4187  0.2107  0.1892
 4148SOL    HW123906   4.311   1.257  11.692 -0.5378 -1.6099 -3.2098
 4148SOL    HW223907   4.437   1.253  11.613  0.6122 -0.2075  2.0987
 4149SOL     OW23908   0.307   0.675   0.929  0.3851  0.5971 -0.8066
 4149SOL    HW123909   0.232   0.673   0.988  0.3920  0.7728 -0.7921
 4149SOL    HW223910   0.364   0.744   0.964 -0.1606  0.7792 -0.2661
 4150SOL     OW23911   1.204   2.282   5.569 -0.5003 -1.0151  0.0389
 4150SOL    HW123912   1.247   2.228   5.502 -0.2578 -0.9533  0.1421
 4150SOL    HW223913   1.198   2.365   5.521  0.6521  0.1054  1.8233
 4151SOL     OW23914   3.159   2.314  13.169  0.0809 -0.4027  0.6640
 4151SOL    HW123915   3.066   2.292  13.162  0.8409 -3.8235  1.4038
 4151SOL    HW223916   3.207   2.246  13.123 -1.6341 -0.4831 -0.9935
 4152SOL     OW23917   3.592   1.906   4.621 -0.1002  0.5282 -0.0797
 4152SOL    HW123918   3.685   1.891   4.639  0.2101  2.1265 -0.3742
 4152SOL    HW223919   3.566   1.814   4.610 -0.3266  0.3450  2.0439
 4153SOL     OW23920   2.389   4.200  12.869 -0.3070 -0.1053 -0.3141
 4153SOL    HW123921   2.298   4.202  12.839  0.2466 -1.1230 -2.0793
 4153SOL    HW223922   2.407   4.293  12.881  1.9057 -0.9727  2.8925
 4154SOL     OW23923   0.199   1.211  13.380  0.0464 -0.1865  0.3468
 4154SOL    HW123924   0.226   1.187  13.468  0.0940  0.9315  0.6467
 4154SOL    HW223925   0.254   1.288  13.362 -3.2219  1.5715 -2.1058
 4155SOL     OW23926   2.173   1.434   4.974  0.5420  0.4881  0.1309
 4155SOL    HW123927   2.127   1.439   5.058  0.2250  0.7990 -0.0640
 4155SOL    HW223928   2.160   1.519   4.933 -2.2736 -0.7120 -1.4359
 4156SOL     OW23929   3.733   3.129   6.240  0.7768 -0.2454 -0.0433
 4156SOL    HW123930   3.751   3.149   6.332  3.4985 -1.1523 -0.3709
 4156SOL    HW223931   3.721   3.212   6.194  2.3456 -1.7479 -3.1198
 4157SOL     OW23932   2.394   0.324   3.438  0.7412 -0.2526  0.1340
 4157SOL    HW123933   2.325   0.329   3.373  1.4857  3.0565 -0.4115
 4157SOL    HW223934   2.466   0.306   3.377 -0.4083 -0.2954 -1.1812
 4158SOL     OW23935   2.109   2.909  13.959 -0.3730 -0.6883 -0.0766
 4158SOL    HW123936   2.135   2.847  13.891 -1.3285  1.0340 -2.0148
 4158SOL    HW223937   2.195   2.921  14.000 -0.0907  0.4437 -1.0050
 4159SOL     OW23938   3.191   1.105   1.929 -0.0064  0.3184  0.1576
 4159SOL    HW123939   3.212   1.192   1.962  0.3474  1.0574 -2.0289
 4159SOL    HW223940   3.116   1.087   1.986 -0.4324  1.6653  0.0252
 4160SOL     OW23941   0.194   3.369   8.104  0.1479  0.2821  0.2219
 4160SOL    HW123942   0.224   3.331   8.187 -1.6966 -0.3550  0.5895
 4160SOL    HW223943   0.101   3.377   8.125 -0.0491 -2.2502  0.2833
 4161SOL     OW23944   2.405   3.766   3.015 -0.3106  0.4896 -0.3624
 4161SOL    HW123945   2.414   3.844   2.960  1.3528 -0.2159 -1.0749
 4161SOL    HW223946   2.323   3.737   2.973 -1.0309 -0.0357  1.4104
 4162SOL     OW23947   3.307   4.254   4.943 -0.1071  0.2364  0.9065
 4162SOL    HW123948   3.253   4.275   4.867  0.9003 -1.0013 -0.1399
 4162SOL    HW223949   3.389   4.303   4.931  0.5392 -1.3015 -0.8302
 4163SOL     OW23950   3.162   3.322  10.842 -0.4258  0.2310  0.0733
 4163SOL    HW123951   3.067   3.310  10.844 -0.4338  0.5742  2.0450
 4163SOL    HW223952   3.176   3.234  10.877  0.7600  0.3456 -0.1077
 4164SOL     OW23953   2.778   3.022   9.841  0.4307  0.7555  0.4034
 4164SOL    HW123954   2.767   2.990   9.930  0.4352 -0.7605 -0.1444
 4164SOL    HW223955   2.691   3.059   9.826 -0.6665 -1.3974  1.5015
 4165SOL     OW23956   0.599   1.401   4.364  0.9183  0.0905 -0.3142
 4165SOL    HW123957   0.608   1.314   4.324  0.1721 -1.1634  2.2037
 4165SOL    HW223958   0.680   1.414   4.413  0.3886 -1.3363  0.9534
 4166SOL     OW23959   0.426   1.592   8.654  0.4807  0.4228  0.1916
 4166SOL    HW123960   0.409   1.648   8.579  1.4533 -1.8838 -1.7380
 4166SOL    HW223961   0.497   1.647   8.688  0.1380  1.6912 -1.1647
 4167SOL     OW23962   3.438   2.537   8.277  0.9578 -0.4968 -0.2592
 4167SOL    HW123963   3.394   2.599   8.335  0.7662  1.1366 -2.1606
 4167SOL    HW223964   3.498   2.603   8.242  0.7122  1.1000  2.3435
 4168SOL     OW23965   0.590   4.073   4.751  0.1692  0.6924  0.7075
 4168SOL    HW123966   0.513   4.056   4.697 -0.2629  0.6105  1.3559
 4168SOL    HW223967   0.581   4.167   4.765 -1.1698  0.7925 -0.8603
 4169SOL     OW23968   0.434   4.512   8.375  0.3683  0.3054  0.0392
 4169SOL    HW123969   0.417   4.606   8.384  1.9921  0.6637 -0.7108
 4169SOL    HW223970   0.425   4.481   8.466  0.9773 -2.1032 -0.7070
 4170SOL     OW23971   4.517   2.425   4.984  0.4224  0.6736  0.1179
 4170SOL    HW123972   4.475   2.473   4.913 -0.3854  0.4822  0.4683
 4170SOL    HW223973   4.604   2.414   4.946  0.0400 -0.9579 -0.2867
 4171SOL     OW23974   2.993   1.891  11.567 -0.0763 -0.7727  0.0864
 4171SOL    HW123975   2.986   1.888  11.662  1.9646  0.9652  0.2816
 4171SOL    HW223976   2.994   1.984  11.543 -1.5741 -1.1595 -1.4884
 4172SOL     OW23977   3.940   0.898   3.653 -0.1062  0.1978  0.1081
 4172SOL    HW123978   3.894   0.817   3.633 -0.2621  0.7016 -1.5726
 4172SOL    HW223979   3.903   0.927   3.737  1.0446  2.0595 -0.0171
 4173SOL     OW23980   4.411   0.962   5.779  0.0710 -0.0169 -0.4510
 4173SOL    HW123981   4.380   1.036   5.728  1.0010  0.5866 -0.1493
 4173SOL    HW223982   4.365   0.972   5.863  0.1127 -2.1052 -0.1792
 4174SOL     OW23983   0.496   3.322   9.270  0.3255  0.2919  0.1144
 4174SOL    HW123984   0.520   3.281   9.353 -0.1348  1.6006  0.8907
 4174SOL    HW223985   0.571   3.298   9.215 -0.4964 -1.3939 -0.2877
 4175SOL     OW23986   0.224   0.929  13.191  0.3768  0.3976 -0.4955
 4175SOL    HW123987   0.314   0.924  13.160  1.2763 -2.3694  2.6399
 4175SOL    HW223988   0.214   1.021  13.213  3.6004  0.3555  1.0448
 4176SOL     OW23989   3.721   1.039   2.735  0.1359  0.3907 -0.1799
 4176SOL    HW123990   3.716   1.133   2.718  0.9165  0.6537  1.0512
 4176SOL    HW223991   3.657   1.022   2.804 -0.5460 -0.9132 -1.1336
 4177SOL     OW23992   0.885   0.167  16.799 -0.0194  0.1366 -0.6391
 4177SOL    HW123993   0.865   0.146  16.708  1.5267 -2.3699 -0.4038
 4177SOL    HW223994   0.814   0.228  16.818 -0.8408 -0.7852 -0.7284
 4178SOL     OW23995   2.035   1.852   4.765 -0.0593 -0.2007  0.1387
 4178SOL    HW123996   2.024   1.760   4.739  0.4635  0.2104 -1.5684
 4178SOL    HW223997   2.068   1.892   4.685  1.2732 -1.8048 -0.1121
 4179SOL     OW23998   3.982   0.611   3.641 -0.4182 -0.4135 -0.0236
 4179SOL    HW123999   3.986   0.517   3.622 -1.1890 -0.2048 -1.2473
 4179SOL    HW224000   3.898   0.642   3.608 -0.5474  1.1327  1.7073
 4180SOL     OW24001   4.640   1.995   9.762  0.0625  0.4894  0.1222
 4180SOL    HW124002   4.588   2.039   9.694  2.4138  0.3092 -1.7952
 4180SOL    HW224003   4.567   1.964   9.816 -1.1455  1.9316 -0.6564
 4181SOL     OW24004   1.548   2.504   5.593  0.0378  0.1587  0.4971
 4181SOL    HW124005   1.636   2.499   5.632  1.3262  0.8403 -2.3544
 4181SOL    HW224006   1.546   2.597   5.573  3.1854  0.1339  0.1238
 4182SOL     OW24007   2.505   3.917   1.882  0.2557 -0.2391 -0.4446
 4182SOL    HW124008   2.521   3.967   1.802  0.9569  1.9462  1.0714
 4182SOL    HW224009   2.477   3.987   1.941 -0.6906  1.8481 -3.3553
 4183SOL     OW24010   0.120   0.408   5.929 -0.7008  0.1186 -0.5596
 4183SOL    HW124011   0.131   0.333   5.987  3.1528  0.2930 -1.0468
 4183SOL    HW224012   0.210   0.426   5.901  0.2534 -0.5105  2.1308
 4184SOL     OW24013   1.696   0.186   1.317 -0.7740 -0.1949 -0.2215
 4184SOL    HW124014   1.705   0.128   1.242 -0.3197 -2.8608  1.9242
 4184SOL    HW224015   1.614   0.154   1.353 -0.9230 -1.3306 -1.5737
 4185SOL     OW24016   2.148   3.215   8.441 -0.2755  0.1023 -0.3487
 4185SOL    HW124017   2.081   3.253   8.497  0.9148  1.5479  0.1077
 4185SOL    HW224018   2.158   3.291   8.383  3.9545  0.4048  0.7395
 4186SOL     OW24019   0.626   0.821   5.758 -0.0036 -0.1984 -0.2697
 4186SOL    HW124020   0.617   0.864   5.843 -0.7373  0.6272 -0.7618
 4186SOL    HW224021   0.624   0.733   5.796  2.4384 -0.0990  0.0774
 4187SOL     OW24022   3.892   0.101  17.146  0.1824 -0.3048  0.3140
 4187SOL    HW124023   3.853   0.152  17.075  1.5438 -0.3008 -0.4378
 4187SOL    HW224024   3.814   0.054  17.175 -0.4192 -0.7322 -1.9738
 4188SOL     OW24025   0.547   0.373   4.427  0.6067 -0.0879  0.1050
 4188SOL    HW124026   0.638   0.348   4.411  1.1935  1.3354  1.1813
 4188SOL    HW224027   0.493   0.304   4.388  0.9561 -1.4771  2.0607
 4189SOL     OW24028   2.184   0.140   3.599 -0.8132  0.6741  0.2733
 4189SOL    HW124029   2.155   0.230   3.586 -0.4417  0.6234 -0.9467
 4189SOL    HW224030   2.176   0.133   3.694  0.6129  2.8210  0.5537
 4190SOL     OW24031   4.515   0.236   8.795  0.2064  0.5597  0.2618
 4190SOL    HW124032   4.593   0.217   8.848  0.7430  1.6303 -0.1341
 4190SOL    HW224033   4.449   0.260   8.860  0.1771  1.1450  0.0114
 4191SOL     OW24034   3.352   0.476   6.929 -0.1911  0.0877 -0.3416
 4191SOL    HW124035   3.406   0.413   6.978  0.6065 -1.5294 -3.3064
 4191SOL    HW224036   3.324   0.540   6.994  0.6521 -0.6934  0.8115
 4192SOL     OW24037   1.107   0.528   4.418  0.0709  0.8271  0.4474
 4192SOL    HW124038   1.014   0.547   4.407 -0.2012 -0.4621  0.5359
 4192SOL    HW224039   1.106   0.482   4.502  0.9043  0.4942  0.2757
 4193SOL     OW24040   1.620   2.397   5.348 -0.0350  0.3082 -0.0936
 4193SOL    HW124041   1.715   2.385   5.354  0.0240  0.7698 -0.1157
 4193SOL    HW224042   1.594   2.436   5.431 -3.9550 -0.9695 -0.7225
 4194SOL     OW24043   4.288   0.803  14.508  0.8189 -0.6178 -0.5398
 4194SOL    HW124044   4.294   0.841  14.596 -2.9531 -0.3498 -0.4083
 4194SOL    HW224045   4.375   0.816  14.472  0.0584  1.4704 -1.6442
 4195SOL     OW24046   2.414   4.557  12.062 -0.8185 -0.3828  0.3668
 4195SOL    HW124047   2.325   4.528  12.040 -1.6827  2.0535  0.6742
 4195SOL    HW224048   2.460   4.525  11.984 -0.7649 -0.5721  0.4754
 4196SOL     OW24049   1.341   0.191  16.891 -0.0501  0.1575 -0.2060
 4196SOL    HW124050   1.280   0.228  16.955  0.3763  2.0432 -0.8944
 4196SOL    HW224051   1.287   0.183  16.813 -1.0350 -0.3377  0.5325
 4197SOL     OW24052   4.102   3.594   1.271 -0.1046 -0.1169 -0.3181
 4197SOL    HW124053   4.020   3.585   1.318 -1.1399  2.8732 -1.5292
 4197SOL    HW224054   4.087   3.547   1.189 -1.7374  2.0150 -1.2363
 4198SOL     OW24055   4.087   2.373   5.512  0.6303  0.0790 -0.3089
 4198SOL    HW124056   4.086   2.351   5.606 -0.2966 -3.1231 -1.0581
 4198SOL    HW224057   4.057   2.288   5.481  0.7841  0.4702 -1.5219
 4199SOL     OW24058   2.424   0.029   1.882  0.4848  0.5332 -0.5560
 4199SOL    HW124059   2.398   0.015   1.973  1.1571 -1.9256 -0.7493
 4199SOL    HW224060   2.503   0.082   1.891 -0.4463  2.1156 -1.4975
 4200SOL     OW24061   3.492   2.631   9.429  0.6299 -0.1065 -0.1554
 4200SOL    HW124062   3.504   2.537   9.442  1.5172  0.0219 -0.0287
 4200SOL    HW224063   3.485   2.656   9.521 -0.0327 -1.7275  0.2317
 4201SOL     OW24064   0.178   0.940  15.657 -0.1430 -0.2184 -0.3430
 4201SOL    HW124065   0.264   0.954  15.618  0.4199 -3.3344 -0.2044
 4201SOL    HW224066   0.146   0.875  15.595 -1.4423  1.3791 -1.3503
 4202SOL     OW24067   4.526   0.610  14.408 -0.0890  0.6646 -0.2677
 4202SOL    HW124068   4.592   0.575  14.467 -1.8815 -0.3909  1.1244
 4202SOL    HW224069   4.534   0.706  14.414 -0.3431  0.7378 -1.1014
 4203SOL     OW24070   0.812   3.378   7.364  0.0703  0.3084 -0.0129
 4203SOL    HW124071   0.808   3.329   7.281 -2.6854 -2.3299  1.6647
 4203SOL    HW224072   0.727   3.422   7.374  1.0622  2.2830 -0.3379
 4204SOL     OW24073   3.138   2.147   9.380 -0.2760 -0.3064 -0.1444
 4204SOL    HW124074   3.154   2.225   9.434  1.4549 -0.6175 -0.2187
 4204SOL    HW224075   3.139   2.189   9.294  0.0280  1.7323  0.8436
 4205SOL     OW24076   2.329   0.003   6.468 -0.3394  0.1288 -0.2769
 4205SOL    HW124077   2.317   0.098   6.461 -0.1102  0.2388  0.9843
 4205SOL    HW224078   2.397   4.712   6.402 -1.4626 -0.3062 -1.3281
 4206SOL     OW24079   4.072   2.443   4.364 -0.3361 -0.0097 -0.0662
 4206SOL    HW124080   4.050   2.521   4.415 -1.2967 -1.8266  2.2941
 4206SOL    HW224081   4.018   2.451   4.286 -0.9355  1.9916  0.5673
 4207SOL     OW24082   0.929   3.033   1.548 -0.2853  0.3038  0.4044
 4207SOL    HW124083   0.903   3.074   1.630 -2.4268  0.6612 -0.4606
 4207SOL    HW224084   1.000   3.089   1.514  1.2112 -1.2129  1.0136
 4208SOL     OW24085   0.326   2.875   3.923 -0.4788  0.1065 -0.0263
 4208SOL    HW124086   0.240   2.910   3.946 -1.1722 -1.7479  0.1604
 4208SOL    HW224087   0.323   2.792   3.970  1.6428 -1.1573 -2.1342
 4209SOL     OW24088   3.908   4.589   7.854  0.0268  0.2882 -0.0605
 4209SOL    HW124089   3.890   4.610   7.946 -0.6652  1.7131 -0.5257
 4209SOL    HW224090   3.992   4.633   7.843  0.7258 -1.4208 -1.5765
 4210SOL     OW24091   2.483   3.407  12.835  0.5113  0.2254  0.2583
 4210SOL    HW124092   2.538   3.371  12.765 -3.5777 -0.6579 -2.5233
 4210SOL    HW224093   2.537   3.462  12.892 -0.5597  2.0876 -0.5548
 4211SOL     OW24094   1.539   1.611   2.946 -0.6814 -0.0038 -0.1521
 4211SOL    HW124095   1.465   1.653   2.901 -2.5862 -2.3297  0.7816
 4211SOL    HW224096   1.602   1.598   2.876 -1.4202  0.3141 -0.8799
 4212SOL     OW24097   3.581   3.994   7.778 -0.4240 -0.2691  0.5374
 4212SOL    HW124098   3.620   3.926   7.723 -0.2592 -0.1605  0.5173
 4212SOL    HW224099   3.661   4.044   7.797 -0.0480 -1.0868  1.1175
 4213SOL     OW24100   3.640   3.843   8.305  0.6638  0.1246  0.6396
 4213SOL    HW124101   3.569   3.903   8.285  1.6300  1.2214  0.4867
 4213SOL    HW224102   3.665   3.857   8.397  0.2259 -0.9444  0.9287
 4214SOL     OW24103   2.235   2.720   4.266 -0.1014  0.1051 -0.2186
 4214SOL    HW124104   2.146   2.753   4.278  1.3815  3.5597  1.1334
 4214SOL    HW224105   2.284   2.796   4.234  3.8616 -1.9031  1.0588
 4215SOL     OW24106   2.130   3.614   4.245  0.6078 -0.6689  0.5246
 4215SOL    HW124107   2.040   3.581   4.250 -0.2778  1.6055 -0.5439
 4215SOL    HW224108   2.112   3.706   4.263 -1.8694 -0.8984 -0.8432
 4216SOL     OW24109   0.423   0.771  14.900 -0.1813 -0.1704 -0.3572
 4216SOL    HW124110   0.390   0.788  14.989 -0.3484  1.1790 -0.6804
 4216SOL    HW224111   0.471   0.690  14.918  0.1407  0.1022  0.0129
 4217SOL     OW24112   1.788   1.696   2.408  0.4049  0.3633  0.4957
 4217SOL    HW124113   1.814   1.786   2.394 -0.0463  0.3027 -0.7504
 4217SOL    HW224114   1.693   1.692   2.393  0.9106  0.2013 -2.6032
 4218SOL     OW24115   2.811   2.328   3.120 -0.9378  0.0264  0.4754
 4218SOL    HW124116   2.768   2.412   3.100  1.0134  1.0479  0.5775
 4218SOL    HW224117   2.743   2.264   3.142 -0.4274 -0.9171 -0.7017
 4219SOL     OW24118   4.683   1.257  16.009  0.2836 -0.2284 -1.0053
 4219SOL    HW124119   4.680   1.211  15.925 -0.0112 -0.2709 -0.9706
 4219SOL    HW224120   4.664   1.346  15.979 -3.4878  0.2549  2.8975
 4220SOL     OW24121   1.916   3.934   2.690 -0.6860 -0.3948  0.6178
 4220SOL    HW124122   1.874   3.855   2.654  1.1759 -0.3414 -1.6634
 4220SOL    HW224123   1.976   3.890   2.749  0.7878  2.1906  1.0222
 4221SOL     OW24124   0.494   1.694   5.549  0.3346  0.5089  0.2376
 4221SOL    HW124125   0.566   1.696   5.612 -0.1823 -0.8488  0.8609
 4221SOL    HW224126   0.539   1.710   5.466  1.7686  0.3589  0.9848
 4222SOL     OW24127   1.848   2.278   7.025 -0.4984  0.6917  0.1170
 4222SOL    HW124128   1.874   2.189   7.048  1.8114  1.0342 -1.2325
 4222SOL    HW224129   1.752   2.273   7.027 -0.5678  0.3630 -2.9730
 4223SOL     OW24130   0.386   2.460   8.012  0.6286  0.4899 -0.3354
 4223SOL    HW124131   0.329   2.418   7.947 -1.2333 -0.0453  1.6283
 4223SOL    HW224132   0.446   2.510   7.957 -0.9788  2.9041  0.1357
 4224SOL     OW24133   3.755   0.702  10.066  0.6132 -0.0590  0.2619
 4224SOL    HW124134   3.682   0.725  10.123 -0.6381 -0.3132 -1.2411
 4224SOL    HW224135   3.793   0.790  10.061 -2.1240  1.1733  1.0869
 4225SOL     OW24136   4.361   1.535   6.768  0.4465 -0.1426 -0.2541
 4225SOL    HW124137   4.414   1.608   6.799  1.8670 -1.1237 -0.3482
 4225SOL    HW224138   4.424   1.517   6.698  2.0302  0.7555  0.9328
 4226SOL     OW24139   3.292   0.760   4.888  0.3164 -0.0948 -0.1463
 4226SOL    HW124140   3.358   0.778   4.954  0.5339 -0.7882 -0.1755
 4226SOL    HW224141   3.303   0.834   4.828 -0.0050 -2.0197 -2.6030
 4227SOL     OW24142   3.468   1.801   8.896  0.3588  0.6854  0.0310
 4227SOL    HW124143   3.438   1.744   8.967  1.1804  1.5379  1.0581
 4227SOL    HW224144   3.542   1.741   8.888 -0.7224 -0.8094  1.2599
 4228SOL     OW24145   0.032   3.652   5.507 -0.1889 -0.0565 -0.7094
 4228SOL    HW124146   4.692   3.595   5.546  2.2155 -2.1005  0.3305
 4228SOL    HW224147   0.103   3.588   5.502 -0.6125 -0.6282  0.9148
 4229SOL     OW24148   2.296   1.663   5.249 -0.4303  0.2841  0.3813
 4229SOL    HW124149   2.243   1.591   5.216  0.7935 -0.5522  0.2080
 4229SOL    HW224150   2.316   1.643   5.341 -0.3078 -0.6156  0.1644
 4230SOL     OW24151   0.574   1.169  15.454 -0.0947  0.2385  0.3955
 4230SOL    HW124152   0.656   1.195  15.414  0.7715 -0.2819  1.8148
 4230SOL    HW224153   0.512   1.218  15.399 -0.8537  2.9372  3.6101
 4231SOL     OW24154   2.341   4.514   2.613 -0.3888 -0.2431 -0.8824
 4231SOL    HW124155   2.317   4.435   2.565  2.2544 -1.0500 -0.8786
 4231SOL    HW224156   2.409   4.479   2.671 -0.5339  1.1690  0.1425
 4232SOL     OW24157   3.374   4.170   7.503  0.0165  0.3565 -0.1598
 4232SOL    HW124158   3.327   4.093   7.470  0.5412 -0.8731  1.9224
 4232SOL    HW224159   3.430   4.186   7.426 -1.2546 -0.9869 -1.3633
 4233SOL     OW24160   2.176   4.571   4.576  0.3999  0.1737  0.0944
 4233SOL    HW124161   2.189   4.494   4.520  1.3324  0.8437 -0.6151
 4233SOL    HW224162   2.233   4.637   4.538  1.4366 -1.3843 -1.0770
 4234SOL     OW24163   1.932   3.193  14.850  0.0406  0.7588  0.7341
 4234SOL    HW124164   1.930   3.137  14.928  0.6820  0.6787  0.6930
 4234SOL    HW224165   1.990   3.261  14.883  1.0721  0.6398 -0.8423
 4235SOL     OW24166   4.692   4.662   8.620 -0.4596 -0.2111 -0.8556
 4235SOL    HW124167   0.036   4.721   8.647 -0.9154  0.5403 -1.2977
 4235SOL    HW224168   0.007   4.584   8.658  0.3715  0.3258 -0.6449
 4236SOL     OW24169   1.412   0.358  16.509 -0.6537  0.0620  0.2712
 4236SOL    HW124170   1.470   0.285  16.527  0.2598  0.3073 -1.6462
 4236SOL    HW224171   1.350   0.358  16.582 -0.4080 -1.2019  0.4676
 4237SOL     OW24172   0.203   0.429   4.017 -0.3269 -0.0383  0.6490
 4237SOL    HW124173   0.208   0.480   4.098  1.0128  0.4182  0.2880
 4237SOL    HW224174   0.112   0.404   4.029  0.0268 -1.1394  1.0704
 4238SOL     OW24175   4.596   0.996   5.134 -0.6959 -0.2357  0.0299
 4238SOL    HW124176   4.640   1.009   5.050 -0.3574  1.4291  0.4601
 4238SOL    HW224177   4.660   0.932   5.166 -1.1109 -0.3822  0.5643
 4239SOL     OW24178   3.909   3.866   1.095 -0.0316 -0.4087  0.2438
 4239SOL    HW124179   3.916   3.893   1.003 -1.6055  0.2579  0.3249
 4239SOL    HW224180   3.897   3.771   1.094 -0.7563 -0.3040 -0.6092
 4240SOL     OW24181   2.035   4.277   7.725 -0.0361 -0.0591  0.1088
 4240SOL    HW124182   1.965   4.212   7.727 -0.3883  0.3145 -0.2507
 4240SOL    HW224183   2.006   4.340   7.791  1.9877  1.0982 -0.1176
 4241SOL     OW24184   0.077   3.267  15.584  0.0011 -0.0751  0.2043
 4241SOL    HW124185   0.052   3.307  15.667  0.4326 -0.0736  0.3328
 4241SOL    HW224186   0.154   3.319  15.564  0.5193 -0.8287  0.2264
 4242SOL     OW24187   0.872   0.112   6.902  0.8398 -0.2609 -0.0414
 4242SOL    HW124188   0.828   0.055   6.966 -1.1285  0.3469 -0.8343
 4242SOL    HW224189   0.813   0.101   6.828  0.2079  0.8824  0.2808
 4243SOL     OW24190   2.505   4.152   7.899 -0.1861  0.5930  0.0778
 4243SOL    HW124191   2.518   4.167   7.993  0.6678  1.6030 -0.2074
 4243SOL    HW224192   2.418   4.191   7.887  0.3955  1.2056 -2.0781
 4244SOL     OW24193   3.242   0.667   7.936  0.6097 -0.7959  0.5837
 4244SOL    HW124194   3.291   0.747   7.918 -0.5146  0.7041  4.1585
 4244SOL    HW224195   3.307   0.603   7.905 -0.7794 -1.5104 -0.8544
 4245SOL     OW24196   1.260   4.558   9.641  0.5400 -0.3356  0.2214
 4245SOL    HW124197   1.342   4.571   9.689  0.8552 -0.1993 -0.3587
 4245SOL    HW224198   1.201   4.624   9.677  2.2314  0.4776  1.5003
 4246SOL     OW24199   4.319   3.789   3.140  0.2911 -0.6188  0.3023
 4246SOL    HW124200   4.378   3.761   3.210  0.4801  2.0588  1.2081
 4246SOL    HW224201   4.381   3.820   3.074  0.8591 -0.7902  0.7626
 4247SOL     OW24202   2.313   2.912   3.643  0.3827  0.1475 -0.3891
 4247SOL    HW124203   2.317   2.905   3.738  4.5147  0.6726 -0.5663
 4247SOL    HW224204   2.312   3.007   3.632 -2.4541  0.1590 -0.2647
 4248SOL     OW24205   1.938   0.092   1.446  0.0380  0.1426  0.0002
 4248SOL    HW124206   1.876   0.039   1.496  0.3116  0.6416  0.8643
 4248SOL    HW224207   1.869   0.151   1.417  0.6604  0.2094 -1.3461
 4249SOL     OW24208   2.192   3.916  11.081 -0.4055 -0.1355  0.2787
 4249SOL    HW124209   2.250   3.967  11.137 -1.9552 -0.3578  2.1254
 4249SOL    HW224210   2.249   3.843  11.057 -2.2928 -1.9474  1.2323
 4250SOL     OW24211   1.838   0.367   2.294 -0.0472 -0.2716 -0.4118
 4250SOL    HW124212   1.871   0.407   2.213  1.5048 -1.3468 -0.3081
 4250SOL    HW224213   1.752   0.411   2.296 -0.3582 -0.7671 -2.4495
 4251SOL     OW24214   4.565   3.090   7.785  0.2213 -0.3074 -0.6855
 4251SOL    HW124215   4.496   3.032   7.753  0.3786  0.2112 -1.9802
 4251SOL    HW224216   4.518   3.129   7.859 -0.9148  0.5314 -1.8503
 4252SOL     OW24217   4.384   0.771   5.042 -0.0205 -0.2825  0.2571
 4252SOL    HW124218   4.327   0.841   5.074  3.8884  2.1070  1.9874
 4252SOL    HW224219   4.436   0.821   4.980  1.5882  0.2316  2.0351
 4253SOL     OW24220   2.543   3.183   4.233  0.0727  0.5267 -0.0177
 4253SOL    HW124221   2.575   3.269   4.208  0.1721 -0.2561 -2.5638
 4253SOL    HW224222   2.505   3.191   4.320 -2.4220  0.3032 -1.0990
 4254SOL     OW24223   0.211   2.580  16.976  0.3546  0.6723  0.0801
 4254SOL    HW124224   0.193   2.557  16.885 -1.2285 -2.7989  1.2622
 4254SOL    HW224225   0.217   2.493  17.016 -1.5655  0.1915 -0.6646
 4255SOL     OW24226   3.308   3.544   0.855 -0.0303  0.4887  0.4674
 4255SOL    HW124227   3.334   3.452   0.843 -0.1148  0.5587 -0.2715
 4255SOL    HW224228   3.359   3.578   0.782 -1.3043 -0.5628 -0.9087
 4256SOL     OW24229   3.378   4.718   6.402  0.0720  0.1449 -0.2832
 4256SOL    HW124230   3.352   4.655   6.469 -2.8756 -0.8096 -2.3280
 4256SOL    HW224231   3.298   0.044   6.407  1.1917  1.7603  1.1512
 4257SOL     OW24232   4.398   4.551   6.805  0.1532  0.2156 -0.0127
 4257SOL    HW124233   4.415   4.639   6.840 -0.8171  0.1270  0.6802
 4257SOL    HW224234   4.469   4.546   6.742 -0.0252 -1.1465 -0.1100
 4258SOL     OW24235   4.378   1.857   7.765  0.1411 -0.1368 -0.2578
 4258SOL    HW124236   4.381   1.807   7.683  0.4466 -1.7406  0.7449
 4258SOL    HW224237   4.303   1.916   7.757  0.9304  0.7144 -1.4486
 4259SOL     OW24238   2.030   1.538   4.368  0.0456 -0.9245  0.1368
 4259SOL    HW124239   2.102   1.595   4.342  1.0725 -1.7607  1.1258
 4259SOL    HW224240   2.013   1.497   4.283 -1.6963  1.6255 -0.7174
 4260SOL     OW24241   3.172   3.040   5.836  0.4567 -0.6517 -0.1224
 4260SOL    HW124242   3.143   2.965   5.784 -0.5711  0.1949 -0.7707
 4260SOL    HW224243   3.257   3.004   5.861  0.8078 -0.4098 -0.9577
 4261SOL     OW24244   3.723   0.319  10.379 -0.3908 -0.7877  0.4879
 4261SOL    HW124245   3.633   0.312  10.412  0.2980  1.2171  2.7557
 4261SOL    HW224246   3.705   0.357  10.293  0.3386 -2.4822 -0.4128
 4262SOL     OW24247   4.602   3.899   9.588 -0.4093  0.2740 -0.2474
 4262SOL    HW124248   4.538   3.912   9.658 -0.0298 -0.8904  0.3046
 4262SOL    HW224249   4.546   3.905   9.511 -1.9067  1.1900  0.9211
 4263SOL     OW24250   3.916   2.484   1.312 -0.2105 -0.6750 -0.0050
 4263SOL    HW124251   3.915   2.410   1.251  1.4670 -0.7671  0.0790
 4263SOL    HW224252   3.877   2.551   1.256  0.8803  1.6125  2.0197
 4264SOL     OW24253   4.148   2.592  14.313  0.7048 -0.2748 -0.4052
 4264SOL    HW124254   4.160   2.542  14.394 -1.3195 -2.0314 -1.2011
 4264SOL    HW224255   4.232   2.571  14.270  0.3305 -0.8961 -0.8407
 4265SOL     OW24256   1.439   3.003   6.047 -0.4515 -0.0294  0.2798
 4265SOL    HW124257   1.393   3.055   5.981  0.8021 -1.7914 -1.9779
 4265SOL    HW224258   1.520   2.983   6.000 -0.1226 -0.0672  0.8606
 4266SOL     OW24259   3.006   0.254   5.395  0.2121 -0.0600  0.3113
 4266SOL    HW124260   3.020   0.335   5.443  1.4748 -0.2031  0.1829
 4266SOL    HW224261   2.956   0.195   5.453  0.7432  0.3736  1.1995
 4267SOL     OW24262   3.405   4.725  15.741  0.1837  0.0328 -0.1639
 4267SOL    HW124263   3.390   4.642  15.785  0.7188  0.6891  1.2446
 4267SOL    HW224264   3.353   0.062  15.791 -2.3344 -1.8970 -0.3427
 4268SOL     OW24265   1.964   1.392   0.440 -0.9057 -0.3247 -0.1501
 4268SOL    HW124266   1.878   1.429   0.463 -0.3759  0.9060 -0.1323
 4268SOL    HW224267   1.994   1.354   0.523  0.3968 -0.9653 -0.9316
 4269SOL     OW24268   0.830   3.198   7.126 -0.4698  0.3429  0.7816
 4269SOL    HW124269   0.789   3.118   7.158 -0.5464  0.1093  0.1028
 4269SOL    HW224270   0.917   3.164   7.109 -0.6174  0.3006  0.1156
 4270SOL     OW24271   4.675   1.057   0.881  0.3237  0.3654 -0.2599
 4270SOL    HW124272   0.035   1.031   0.849  0.3373  1.0406 -0.7809
 4270SOL    HW224273   4.699   1.136   0.930  1.3195  0.8652 -1.5527
 4271SOL     OW24274   1.779   4.340   7.559  0.3595 -0.6678 -0.1735
 4271SOL    HW124275   1.739   4.267   7.510  4.2342 -2.6635 -0.3549
 4271SOL    HW224276   1.703   4.359   7.614 -0.0770 -0.9379 -0.6745
 4272SOL     OW24277   0.981   0.599   2.885 -0.1804  0.1559 -0.1121
 4272SOL    HW124278   0.904   0.652   2.864  0.4697  1.0601 -0.2178
 4272SOL    HW224279   0.958   0.535   2.953  2.1493  0.9826  1.4403
 4273SOL     OW24280   0.411   0.059   1.718  0.2096  0.4480  0.4929
 4273SOL    HW124281   0.326   0.102   1.729  0.0816  0.2472  0.2999
 4273SOL    HW224282   0.430   0.055   1.625  1.5998  0.3810  0.7763
 4274SOL     OW24283   2.172   3.699   7.839 -0.1749 -0.0409  0.7484
 4274SOL    HW124284   2.236   3.632   7.814  1.0348  1.3285  0.2000
 4274SOL    HW224285   2.203   3.785   7.808  0.1722 -0.1169  0.8818
 4275SOL     OW24286   0.048   2.310   9.683 -0.2453  0.1625 -0.4826
 4275SOL    HW124287   4.689   2.330   9.644  0.3745  1.4669 -1.1579
 4275SOL    HW224288   0.077   2.232   9.637  1.1886 -0.1759  0.9934
 4276SOL     OW24289   3.183   4.222  16.907 -0.0280 -0.0071 -0.2747
 4276SOL    HW124290   3.136   4.159  16.962 -0.9173  1.0628  0.2069
 4276SOL    HW224291   3.246   4.162  16.869  0.4623 -0.7291  1.6629
 4277SOL     OW24292   4.568   0.807   3.594  0.3786 -0.5358 -0.6072
 4277SOL    HW124293   4.652   0.779   3.631 -0.2159 -0.6004  0.7243
 4277SOL    HW224294   4.511   0.762   3.656  2.0284 -0.9846  0.6118
 4278SOL     OW24295   4.704   3.317   5.632  0.6669 -0.5781 -0.6341
 4278SOL    HW124296   4.704   3.233   5.678 -0.1542 -1.1447 -1.6587
 4278SOL    HW224297   0.068   3.331   5.603  0.4948  0.7223 -0.5703
 4279SOL     OW24298   3.421   3.004   9.574  0.0998 -0.8446  0.0748
 4279SOL    HW124299   3.510   2.996   9.607  1.1231 -1.9782 -2.9988
 4279SOL    HW224300   3.374   3.030   9.654  0.1288  0.6408 -0.3896
 4280SOL     OW24301   0.121   2.570   4.031  0.0515  0.1158  0.1862
 4280SOL    HW124302   0.122   2.474   4.029  1.6537  0.1597 -0.9715
 4280SOL    HW224303   0.164   2.587   3.948 -1.4996  0.4992 -0.5440
 4281SOL     OW24304   0.394   0.932  11.260  0.0977  0.1611  0.2881
 4281SOL    HW124305   0.371   0.983  11.182  0.6669  0.1790  0.1322
 4281SOL    HW224306   0.486   0.909  11.242  0.6637  1.7458  1.1581
 4282SOL     OW24307   3.237   2.131   3.590 -0.2172  0.5760 -0.2794
 4282SOL    HW124308   3.228   2.087   3.674  0.9461 -1.6239 -1.2874
 4282SOL    HW224309   3.213   2.057   3.534  1.8168  0.5803 -1.1613
 4283SOL     OW24310   0.518   0.657  13.898 -0.5520  0.0067 -0.0562
 4283SOL    HW124311   0.432   0.698  13.905  0.1440  1.6445 -1.0517
 4283SOL    HW224312   0.559   0.668  13.983 -1.8260 -1.3111  0.7273
 4284SOL     OW24313   0.948   1.062  12.911 -0.0110 -0.1580  0.2414
 4284SOL    HW124314   0.896   1.121  12.856  0.0679 -0.1774  0.1478
 4284SOL    HW224315   0.879   1.005  12.946 -0.4533 -0.0059 -0.3878
 4285SOL     OW24316   1.966   0.899   9.628  0.0453 -0.2475  0.1294
 4285SOL    HW124317   1.932   0.960   9.693 -0.5793 -0.7468  0.2748
 4285SOL    HW224318   2.061   0.908   9.635  0.1837 -0.8719 -0.8322
 4286SOL     OW24319   4.119   4.374   7.368  0.3879 -0.4586 -0.3406
 4286SOL    HW124320   4.152   4.337   7.287  0.0641  0.7763 -1.0255
 4286SOL    HW224321   4.023   4.369   7.365  0.2844  1.1188  0.4437
 4287SOL     OW24322   1.601   0.323  16.776 -0.4717 -0.1742 -0.7662
 4287SOL    HW124323   1.606   0.418  16.782  2.7178 -0.4254  0.6606
 4287SOL    HW224324   1.510   0.302  16.798 -0.7577 -0.3339 -2.1306
 4288SOL     OW24325   1.695   1.698   6.641  0.5951 -0.1225  0.2828
 4288SOL    HW124326   1.634   1.771   6.629  0.5049 -0.2368  0.0374
 4288SOL    HW224327   1.747   1.732   6.713  0.3385 -1.2359  0.9939
 4289SOL     OW24328   2.100   1.437   5.273  0.3758  0.4541  0.1785
 4289SOL    HW124329   2.070   1.409   5.359 -0.3638  1.6905  0.3197
 4289SOL    HW224330   2.027   1.496   5.255  0.7594  1.0400  0.5319
 4290SOL     OW24331   3.856   3.403   3.084 -0.3998 -0.5612 -0.6207
 4290SOL    HW124332   3.916   3.477   3.067 -1.2212  1.1395  3.8598
 4290SOL    HW224333   3.805   3.391   3.004 -0.8604 -1.3008 -0.2121
 4291SOL     OW24334   3.768   3.458   9.722  0.0694 -0.2162  0.0350
 4291SOL    HW124335   3.698   3.522   9.718  0.6786  0.3242 -2.2573
 4291SOL    HW224336   3.739   3.397   9.654 -2.1115  1.5210 -0.5881
 4292SOL     OW24337   1.966   2.376  17.615 -0.3223  0.0618 -0.7950
 4292SOL    HW124338   2.001   2.312  17.677 -0.7061  0.4489 -0.1821
 4292SOL    HW224339   1.973   2.457  17.666  1.2790  0.4012 -1.5497
 4293SOL     OW24340   3.295   0.308   7.588 -0.4955  0.1997  0.5944
 4293SOL    HW124341   3.301   0.238   7.654  2.5641  0.2666  0.3909
 4293SOL    HW224342   3.376   0.282   7.545  0.0720 -1.3504  2.5918
 4294SOL     OW24343   3.106   1.659  11.466  0.7285  0.1989 -0.3642
 4294SOL    HW124344   3.067   1.741  11.496 -1.4643 -0.2901 -1.8532
 4294SOL    HW224345   3.186   1.698  11.431  0.3988  1.5609  0.3945
 4295SOL     OW24346   2.176   3.370   7.195  0.2627 -0.2370  0.6013
 4295SOL    HW124347   2.264   3.362   7.158  0.8348 -1.6017  2.2497
 4295SOL    HW224348   2.188   3.357   7.289 -2.4375 -1.1686  0.8258
 4296SOL     OW24349   4.480   0.923   1.015  0.2319  0.5582 -0.4405
 4296SOL    HW124350   4.435   0.907   0.932  0.1275 -1.7906  0.0873
 4296SOL    HW224351   4.570   0.937   0.985  0.9799 -0.8282  1.1878
 4297SOL     OW24352   1.695   3.147   7.785 -0.2968 -0.3581  0.0975
 4297SOL    HW124353   1.640   3.225   7.784 -0.3772 -0.4290 -1.3096
 4297SOL    HW224354   1.740   3.165   7.868 -0.5024 -1.1690  0.3890
 4298SOL     OW24355   4.588   0.204   8.336 -0.2202  0.3913 -0.0294
 4298SOL    HW124356   4.517   0.145   8.360  0.3666 -0.5798 -0.6460
 4298SOL    HW224357   4.564   0.261   8.409  2.0272 -1.2140  1.9637
 4299SOL     OW24358   1.224   0.104   0.198  0.3693 -0.2429 -0.2326
 4299SOL    HW124359   1.274   0.028   0.226 -0.5752 -0.9246 -0.4160
 4299SOL    HW224360   1.135   0.081   0.226  0.0908  2.1820  0.9143
 4300SOL     OW24361   2.640   2.536   5.781 -0.3007  0.2375  0.7290
 4300SOL    HW124362   2.726   2.575   5.796  0.2882 -1.5291  1.9534
 4300SOL    HW224363   2.671   2.467   5.722  0.8863  2.0980 -0.8153
 4301SOL     OW24364   2.176   3.141   6.696 -0.3107  0.1183 -0.6591
 4301SOL    HW124365   2.271   3.138   6.707 -0.5145 -1.0310  0.7304
 4301SOL    HW224366   2.149   3.079   6.763  1.0149  0.5712  0.3143
 4302SOL     OW24367   3.381   3.333  17.410  0.1400 -0.2464 -0.3969
 4302SOL    HW124368   3.423   3.388  17.476  0.3552  0.2328 -0.9284
 4302SOL    HW224369   3.383   3.393  17.335 -0.1030 -1.3026 -1.2419
 4303SOL     OW24370   0.101   0.318   7.572 -0.4374  0.4563  0.4436
 4303SOL    HW124371   0.025   0.357   7.529 -0.9067 -2.2396 -1.1264
 4303SOL    HW224372   0.078   0.226   7.564  1.3668  0.2626 -2.1835
 4304SOL     OW24373   2.788   1.829   6.938 -0.0876 -0.6186  0.2381
 4304SOL    HW124374   2.708   1.846   6.889 -0.6700 -3.4384  0.1657
 4304SOL    HW224375   2.761   1.823   7.030 -2.8636  2.0233 -0.4388
 4305SOL     OW24376   3.705   4.461   9.350 -0.0865  0.6535  0.1803
 4305SOL    HW124377   3.756   4.488   9.274 -1.3702  1.6522 -0.3378
 4305SOL    HW224378   3.782   4.448   9.405  1.0079 -2.0377 -1.9894
 4306SOL     OW24379   1.344   4.517   3.441  0.0753  0.1864  0.1879
 4306SOL    HW124380   1.379   4.584   3.501 -1.6419  0.8823  0.3971
 4306SOL    HW224381   1.403   4.443   3.457 -1.8640 -1.6684 -1.2270
 4307SOL     OW24382   4.453   0.619   3.114  0.4338  0.1409 -0.6993
 4307SOL    HW124383   4.418   0.630   3.203 -0.1146 -1.9421 -0.6514
 4307SOL    HW224384   4.516   0.691   3.117 -0.7132  1.2540 -3.6841
 4308SOL     OW24385   2.926   2.390   4.285  0.3867 -0.2891 -0.3691
 4308SOL    HW124386   2.908   2.296   4.285 -1.5198  0.0729 -1.1954
 4308SOL    HW224387   3.021   2.400   4.296 -0.0282  2.0315  1.0486
 4309SOL     OW24388   2.208   3.380   4.357  0.4374  0.3401 -0.1991
 4309SOL    HW124389   2.140   3.377   4.424 -0.1912 -1.4033 -0.9075
 4309SOL    HW224390   2.188   3.463   4.313 -0.8326  1.6592  2.8529
 4310SOL     OW24391   2.205   3.337  11.580  0.8364 -0.5657 -0.5449
 4310SOL    HW124392   2.222   3.311  11.490 -0.7563  3.0186 -1.8953
 4310SOL    HW224393   2.190   3.252  11.622  2.9960  0.3613  2.0632
 4311SOL     OW24394   3.243   0.740   3.484  0.1854 -0.0153 -0.1915
 4311SOL    HW124395   3.187   0.750   3.561 -0.0572 -0.1269 -0.3526
 4311SOL    HW224396   3.187   0.779   3.417  0.0759 -1.9717 -1.2112
 4312SOL     OW24397   2.501   0.917   7.176 -1.0100  0.3979  0.1249
 4312SOL    HW124398   2.594   0.939   7.162 -1.3842  0.7187 -1.9174
 4312SOL    HW224399   2.513   0.826   7.203  0.5320  1.0857  1.7404
 4313SOL     OW24400   0.092   1.359   1.260 -0.0049 -0.0088  0.6591
 4313SOL    HW124401   0.017   1.304   1.282  0.6576 -0.9802  0.5156
 4313SOL    HW224402   0.127   1.312   1.184  0.4504  1.2018  0.1164
 4314SOL     OW24403   4.525   1.039  11.699  0.0232  0.8709  0.2177
 4314SOL    HW124404   4.574   1.095  11.759 -1.0648  0.9346  1.0464
 4314SOL    HW224405   4.587   0.968  11.684  0.9448  1.7035  0.0959
 4315SOL     OW24406   4.475   2.336  14.791 -0.3231  1.0427  0.0370
 4315SOL    HW124407   4.485   2.388  14.871 -1.8154  1.5202 -0.0978
 4315SOL    HW224408   4.497   2.401  14.724  4.1901  0.0317  0.5197
 4316SOL     OW24409   4.687   1.155  15.741 -0.5561  0.2364  0.5699
 4316SOL    HW124410   0.048   1.122  15.717 -0.1019 -0.2156  2.9038
 4316SOL    HW224411   4.648   1.069  15.753  0.6449 -0.4077 -0.0189
 4317SOL     OW24412   2.842   1.066   9.364  0.0732 -0.4209 -0.5000
 4317SOL    HW124413   2.810   1.142   9.314  0.7890 -0.7129 -1.4155
 4317SOL    HW224414   2.761   1.056   9.414  0.1400 -2.1423 -0.7400
 4318SOL     OW24415   4.280   2.757   4.156 -0.1027 -0.6349 -0.1424
 4318SOL    HW124416   4.313   2.846   4.143  1.0062 -1.1106 -0.6089
 4318SOL    HW224417   4.210   2.760   4.091  0.1335 -0.8971 -0.4067
 4319SOL     OW24418   1.987   3.450  16.091 -0.3456  0.2311  0.1537
 4319SOL    HW124419   2.048   3.382  16.120 -1.0541 -0.5425 -0.1709
 4319SOL    HW224420   2.043   3.511  16.042  1.8343 -0.9155  1.2153
 4320SOL     OW24421   3.002   3.283   6.418  0.4490  0.0026  0.2245
 4320SOL    HW124422   2.970   3.349   6.356 -0.6653 -0.1467  0.6402
 4320SOL    HW224423   3.018   3.340   6.492  0.2762 -1.1718  1.1696
 4321SOL     OW24424   1.606   0.183   4.561 -0.0576  0.4549  0.0234
 4321SOL    HW124425   1.569   0.248   4.619  1.3884  3.1800 -2.1150
 4321SOL    HW224426   1.693   0.183   4.600 -0.5410 -2.1924  1.1299
 4322SOL     OW24427   3.348   3.624  17.664 -0.4556 -0.3975  0.3427
 4322SOL    HW124428   3.414   3.570   0.003  1.0070 -0.5652 -2.0374
 4322SOL    HW224429   3.288   3.551  17.648 -1.6151  0.8951 -1.3344
 4323SOL     OW24430   4.533   2.490  17.051  0.0006  0.5001  0.7532
 4323SOL    HW124431   4.609   2.486  17.109  0.3788 -1.4509  0.1523
 4323SOL    HW224432   4.571   2.477  16.964  1.2833  0.2823  1.3459
 4324SOL     OW24433   1.516   2.719   8.339  0.4572  0.7219  0.4636
 4324SOL    HW124434   1.599   2.677   8.362  1.0610  0.4789 -2.1687
 4324SOL    HW224435   1.540   2.778   8.267  1.0830 -1.3608 -1.0397
 4325SOL     OW24436   3.842   0.933   3.125  0.0613  0.4507  0.2867
 4325SOL    HW124437   3.781   0.995   3.164  0.7838  0.2209  1.8060
 4325SOL    HW224438   3.789   0.909   3.049 -0.9954 -1.5893  1.6571
 4326SOL     OW24439   3.120   1.361   4.150  0.3557 -0.2477  0.0695
 4326SOL    HW124440   3.069   1.422   4.097  0.4808  0.7160  1.0568
 4326SOL    HW224441   3.212   1.377   4.128  0.1309 -1.1646 -1.5305
 4327SOL     OW24442   3.097   3.330  12.294 -0.1136 -0.1163  0.0474
 4327SOL    HW124443   3.028   3.353  12.356 -0.0943  0.7925 -0.2642
 4327SOL    HW224444   3.087   3.400  12.229 -0.4485  0.4661  0.7267
 4328SOL     OW24445   3.177   0.475   4.758  0.5522  0.5042  1.1382
 4328SOL    HW124446   3.227   0.436   4.829 -0.1227  0.9103  1.8420
 4328SOL    HW224447   3.218   0.561   4.747  0.1122  0.7009  1.0157
 4329SOL     OW24448   2.980   1.384   3.585 -0.5068 -0.0203 -0.0916
 4329SOL    HW124449   2.925   1.443   3.637 -1.0166 -1.6216  1.1775
 4329SOL    HW224450   2.940   1.301   3.612 -0.2823  0.5573  1.9715
 4330SOL     OW24451   4.616   3.334  12.690 -0.1464 -0.0349  0.1176
 4330SOL    HW124452   4.542   3.297  12.738 -0.1276  0.7122  0.7173
 4330SOL    HW224453   4.682   3.275  12.727  1.2953  1.5087  0.0175
 4331SOL     OW24454   2.674   0.824   5.847  0.3511 -0.2693  0.6167
 4331SOL    HW124455   2.610   0.758   5.822  2.8449 -1.9005 -1.4612
 4331SOL    HW224456   2.706   0.802   5.935 -0.8253  0.5910  1.2563
 4332SOL     OW24457   3.352   0.292  11.118  0.0893  0.5459  0.1758
 4332SOL    HW124458   3.297   0.292  11.196  2.2211 -0.2553  1.6832
 4332SOL    HW224459   3.282   0.326  11.063 -0.1695  0.3347  0.3726
 4333SOL     OW24460   0.756   0.328  14.304 -0.5700  0.0125  0.0997
 4333SOL    HW124461   0.837   0.289  14.337 -0.4228 -1.3686 -1.9215
 4333SOL    HW224462   0.732   0.396  14.367 -1.8564  0.1136 -0.4904
 4334SOL     OW24463   1.024   4.244  15.622 -0.2919 -0.1359 -0.3154
 4334SOL    HW124464   0.965   4.308  15.582 -0.8826 -0.2698  0.3348
 4334SOL    HW224465   1.104   4.270  15.578  1.1393 -2.1948  1.0801
 4335SOL     OW24466   3.867   1.390   0.271 -0.1981  0.1169  0.3387
 4335SOL    HW124467   3.870   1.485   0.261 -1.9955  0.0126 -1.1025
 4335SOL    HW224468   3.773   1.381   0.254  0.1391 -0.6981 -1.1183
 4336SOL     OW24469   2.783   1.436   9.671  0.0305  0.4937  0.2242
 4336SOL    HW124470   2.766   1.456   9.763  0.0008 -0.7266  0.4787
 4336SOL    HW224471   2.697   1.418   9.632 -0.6783  2.2296  1.0212
 4337SOL     OW24472   0.580   3.631   2.885  0.3096 -0.1616  0.3169
 4337SOL    HW124473   0.648   3.624   2.953  2.5725  1.0492 -1.8111
 4337SOL    HW224474   0.559   3.723   2.900  1.4700  0.0716  0.5377
 4338SOL     OW24475   1.568   4.168  11.933  0.3776  0.0412 -0.1066
 4338SOL    HW124476   1.506   4.117  11.882  0.9060  0.8592 -1.5707
 4338SOL    HW224477   1.537   4.154  12.022  0.5942  1.7926  0.2430
 4339SOL     OW24478   3.051   1.651   5.494  0.7080 -0.3096  0.1756
 4339SOL    HW124479   3.080   1.565   5.524 -1.7366 -0.6339  1.6542
 4339SOL    HW224480   2.958   1.633   5.479  0.1974  0.2833  2.6848
 4340SOL     OW24481   4.649   0.601   7.955  0.6873  0.0583 -0.1417
 4340SOL    HW124482   4.561   0.608   7.991  0.5087 -0.1357 -0.5410
 4340SOL    HW224483   4.678   0.690   7.973 -0.7649  0.0500  2.1855
 4341SOL     OW24484   3.921   1.448   3.326 -0.4578  0.4691  0.1434
 4341SOL    HW124485   3.915   1.476   3.234 -1.0386  0.2652  0.1200
 4341SOL    HW224486   4.013   1.466   3.349  0.3632  0.1796 -2.9134
 4342SOL     OW24487   2.874   3.160  12.499  0.0671  0.3458 -0.3843
 4342SOL    HW124488   2.882   3.256  12.491  0.4368  0.2670 -0.9668
 4342SOL    HW224489   2.900   3.142  12.589  1.8863 -0.7955 -1.1290
 4343SOL     OW24490   4.022   4.366   9.105  0.0250  0.1533 -0.1755
 4343SOL    HW124491   4.012   4.451   9.062 -0.2538  0.1826 -0.0532
 4343SOL    HW224492   4.103   4.387   9.151 -1.5643 -1.3852  3.4140
 4344SOL     OW24493   0.674   0.730   4.192  0.3827  0.2452  0.4163
 4344SOL    HW124494   0.673   0.725   4.096  0.3056 -1.0259  0.4912
 4344SOL    HW224495   0.581   0.708   4.201  0.1386  1.2681  0.4562
 4345SOL     OW24496   0.722   2.076   5.770  0.1863 -0.5278 -0.0213
 4345SOL    HW124497   0.696   1.994   5.729  1.2855 -0.2629 -1.2225
 4345SOL    HW224498   0.812   2.052   5.793 -0.1563 -1.2168  0.6110
 4346SOL     OW24499   0.760   1.844   7.831 -0.3227  0.4281  0.7643
 4346SOL    HW124500   0.801   1.873   7.912  0.8253 -0.3843  0.4672
 4346SOL    HW224501   0.681   1.898   7.838  0.5718  1.6592  1.2076
 4347SOL     OW24502   1.202   0.060   1.286 -0.1039 -0.2234 -0.1844
 4347SOL    HW124503   1.291   0.058   1.321 -0.1178  1.2529 -0.0754
 4347SOL    HW224504   1.146   0.056   1.364 -0.5218  2.1218 -0.3647
 4348SOL     OW24505   0.142   0.766  10.362  0.1702 -0.0623 -0.0564
 4348SOL    HW124506   0.156   0.749  10.269  0.7172 -1.1178  0.2161
 4348SOL    HW224507   0.225   0.755  10.408  1.0419  1.4616 -1.2745
 4349SOL     OW24508   3.789   2.634   8.937 -0.5138  0.0809 -0.3264
 4349SOL    HW124509   3.805   2.577   8.861  1.1143  0.6193 -0.3944
 4349SOL    HW224510   3.707   2.678   8.917 -1.6933 -2.0635 -0.2206
 4350SOL     OW24511   0.414   2.172   2.320  0.3757 -0.8071  0.1284
 4350SOL    HW124512   0.360   2.251   2.313 -0.2860 -1.3014 -0.4336
 4350SOL    HW224513   0.345   2.108   2.340  1.6345 -1.6638  1.6942
 4351SOL     OW24514   1.027   4.132   1.158  0.2171 -0.6017 -0.0222
 4351SOL    HW124515   1.053   4.079   1.082  0.2085  1.0666 -1.1956
 4351SOL    HW224516   1.049   4.076   1.232 -1.2176  2.1248  2.4545
 4352SOL     OW24517   2.844   3.634   6.724 -0.0648 -0.0552  0.0020
 4352SOL    HW124518   2.932   3.602   6.705 -1.0559 -2.7796 -0.0361
 4352SOL    HW224519   2.857   3.705   6.787 -0.5323  1.7192 -1.9227
 4353SOL     OW24520   1.885   3.130   6.819 -0.1957  0.5503 -0.6248
 4353SOL    HW124521   1.929   3.147   6.903  0.6797 -1.6569 -0.6458
 4353SOL    HW224522   1.802   3.093   6.848  0.8393 -0.3850  1.2034
 4354SOL     OW24523   0.844   0.462   8.331 -1.0616 -0.0566  0.0060
 4354SOL    HW124524   0.887   0.378   8.319  0.5023  0.5856  1.2221
 4354SOL    HW224525   0.855   0.473   8.425  0.0926  3.1663 -0.4883
 4355SOL     OW24526   2.346   1.042  12.910  0.2902  0.5324 -0.4346
 4355SOL    HW124527   2.436   1.055  12.939  0.0551  1.5138 -0.1516
 4355SOL    HW224528   2.329   1.116  12.851 -0.1805 -1.5730 -2.9553
 4356SOL     OW24529   4.192   1.111   5.622  0.6023  0.0796 -0.0417
 4356SOL    HW124530   4.204   1.174   5.551 -1.0736 -0.0297 -0.4088
 4356SOL    HW224531   4.099   1.101   5.605  0.6318 -2.9688  1.6851
 4357SOL     OW24532   0.535   0.080  16.957 -0.7858  0.0384  0.2269
 4357SOL    HW124533   0.597   0.105  17.026 -0.8593  2.7776 -0.6723
 4357SOL    HW224534   0.530   0.159  16.903  1.6618  0.0774  0.0471
 4358SOL     OW24535   3.336   0.134   8.748  0.0963  0.2314  0.1046
 4358SOL    HW124536   3.266   0.199   8.736 -0.2349 -0.4920 -1.9140
 4358SOL    HW224537   3.412   0.192   8.751  1.4294 -1.4438 -0.9608
 4359SOL     OW24538   3.703   0.794   5.391 -0.0536 -0.4823 -0.1453
 4359SOL    HW124539   3.677   0.783   5.299 -2.0571 -0.8393  0.4556
 4359SOL    HW224540   3.617   0.795   5.433 -0.0246  3.7358 -0.1055
 4360SOL     OW24541   2.199   2.492   3.296 -0.1925 -0.1311  0.2044
 4360SOL    HW124542   2.285   2.518   3.327 -0.0203 -0.5482  0.0846
 4360SOL    HW224543   2.205   2.397   3.308 -0.7873 -0.0256  1.3400
 4361SOL     OW24544   4.276   0.084   9.175  0.0963 -0.7096  1.0041
 4361SOL    HW124545   4.182   0.102   9.164  0.3224 -0.7644 -1.0161
 4361SOL    HW224546   4.272   0.066   9.269  0.8518  0.6649  1.3097
 4362SOL     OW24547   4.107   2.041   6.435  0.0686  0.2940 -0.6298
 4362SOL    HW124548   4.028   2.094   6.443  0.4088  0.6602  0.2615
 4362SOL    HW224549   4.078   1.974   6.373  3.7649 -1.6380 -0.2603
 4363SOL     OW24550   1.286   2.411  13.553  0.9245  0.4254 -0.1031
 4363SOL    HW124551   1.370   2.401  13.598  0.6578 -0.6360  0.1716
 4363SOL    HW224552   1.323   2.383  13.469 -0.4552 -1.3153 -0.1393
 4364SOL     OW24553   0.255   4.249   5.756  0.2749  0.5712 -0.1610
 4364SOL    HW124554   0.240   4.194   5.679  1.4817  1.4874 -1.0395
 4364SOL    HW224555   0.181   4.309   5.765 -2.0366 -2.2716 -0.2546
 4365SOL     OW24556   2.191   3.234  16.940 -0.2920  0.2730  0.2932
 4365SOL    HW124557   2.176   3.199  17.028  0.7775 -1.3680 -0.1826
 4365SOL    HW224558   2.227   3.162  16.888 -2.4475  0.3136 -1.2466
 4366SOL     OW24559   3.088   4.723   6.040 -0.5869 -0.1550  0.2144
 4366SOL    HW124560   3.019   4.665   6.074 -0.4185 -0.0367  0.7615
 4366SOL    HW224561   3.059   0.012   5.950 -0.8248  1.5112  0.5649
 4367SOL     OW24562   1.626   4.478   7.903 -0.0720  0.0823  0.5530
 4367SOL    HW124563   1.669   4.408   7.951 -1.5122 -0.2678  1.3382
 4367SOL    HW224564   1.534   4.451   7.900 -0.7161  2.3601 -0.1093
 4368SOL     OW24565   2.945   4.463   1.702 -0.2305 -0.4039  0.4631
 4368SOL    HW124566   3.021   4.434   1.752  0.5205 -0.6955 -0.8562
 4368SOL    HW224567   2.930   4.384   1.650  0.5137  1.5226 -2.6515
 4369SOL     OW24568   3.843   2.056   2.636  0.0357  0.5776  0.3762
 4369SOL    HW124569   3.785   2.077   2.709 -0.4375 -1.4168  0.5677
 4369SOL    HW224570   3.926   2.099   2.657  1.3948 -1.8338 -0.0235
 4370SOL     OW24571   0.104   0.804   6.274 -0.1759 -0.7044 -0.0792
 4370SOL    HW124572   0.047   0.828   6.347  1.5483  0.0999  0.9957
 4370SOL    HW224573   0.095   0.709   6.264 -0.2360 -0.7464  0.3821
 4371SOL     OW24574   1.059   1.365   3.277 -0.2905  0.5541  0.4384
 4371SOL    HW124575   1.069   1.274   3.249 -1.1353  0.9400 -1.1036
 4371SOL    HW224576   1.073   1.362   3.372 -2.2437 -0.5591  0.6885
 4372SOL     OW24577   1.357   3.661   5.534  0.5954  0.1030  0.3117
 4372SOL    HW124578   1.395   3.748   5.521 -1.5295  0.9951  0.0504
 4372SOL    HW224579   1.438   3.612   5.519  2.4831  2.5759  2.5981
 4373SOL     OW24580   1.525   1.914   6.662 -0.4701 -0.0977 -0.4478
 4373SOL    HW124581   1.481   1.982   6.611  0.0891  1.2109  0.8173
 4373SOL    HW224582   1.464   1.885   6.730  1.9940 -0.2466  1.7250
 4374SOL     OW24583   0.265   4.516   6.346  0.0898  0.3604 -0.3136
 4374SOL    HW124584   0.236   4.520   6.255 -1.9234  0.8463  0.3712
 4374SOL    HW224585   0.353   4.478   6.335 -0.1300 -0.5614  1.1994
 4375SOL     OW24586   3.426   1.376   8.548 -0.1068  0.1242 -0.3862
 4375SOL    HW124587   3.461   1.441   8.487 -0.9675  0.5713 -0.4003
 4375SOL    HW224588   3.411   1.310   8.480  0.6380 -2.1474  1.6178
 4376SOL     OW24589   3.321   2.300   0.601 -0.0237 -0.2505 -0.2185
 4376SOL    HW124590   3.412   2.269   0.603 -0.1558 -0.5763  0.7883
 4376SOL    HW224591   3.294   2.270   0.688  0.5883  1.6547  0.6347
 4377SOL     OW24592   2.596   3.608   6.123 -0.1201 -0.0487  0.2695
 4377SOL    HW124593   2.507   3.620   6.091 -0.1758 -0.4319  0.2801
 4377SOL    HW224594   2.648   3.648   6.053  0.3062 -0.4433  0.3562
 4378SOL     OW24595   3.850   2.601   6.808  0.6755 -0.4604 -0.2580
 4378SOL    HW124596   3.805   2.574   6.888  0.5882 -0.0049 -0.1534
 4378SOL    HW224597   3.772   2.602   6.753  0.4286  0.7365  0.1159
 4379SOL     OW24598   2.409   1.739   8.591 -0.0334 -0.2031 -0.2655
 4379SOL    HW124599   2.475   1.794   8.550  0.1676  0.2117  0.6138
 4379SOL    HW224600   2.333   1.788   8.560  2.0532  1.7186 -2.2887
 4380SOL     OW24601   3.206   1.436   2.824  0.1286  0.2032 -0.6870
 4380SOL    HW124602   3.268   1.506   2.846 -0.6925  1.0841 -1.1852
 4380SOL    HW224603   3.212   1.384   2.904 -0.4173  1.6222  0.2992
 4381SOL     OW24604   0.399   3.654  11.821 -0.1349  0.5129  0.0904
 4381SOL    HW124605   0.372   3.740  11.853  1.1364  0.6925  0.6583
 4381SOL    HW224606   0.368   3.654  11.730  0.7280 -0.5520 -0.2147
 4382SOL     OW24607   0.359   1.943   7.300 -0.4485 -0.4904  0.5580
 4382SOL    HW124608   0.281   1.915   7.347 -2.0508  0.6441 -1.4505
 4382SOL    HW224609   0.433   1.914   7.354 -0.4303  1.3059  1.5098
 4383SOL     OW24610   0.343   0.988   4.694  0.1375  0.4136 -0.1120
 4383SOL    HW124611   0.427   1.028   4.715 -1.3453  4.4248 -1.7781
 4383SOL    HW224612   0.344   0.916   4.757 -0.7458  0.5681  0.0859
 4384SOL     OW24613   1.606   4.676  17.626 -0.1140  0.0777 -0.0081
 4384SOL    HW124614   1.594   4.582  17.639  1.2167 -0.0427  0.3781
 4384SOL    HW224615   1.585   4.690  17.534  0.3884  0.2079 -0.1043
 4385SOL     OW24616   1.523   1.143   1.972 -0.4366  0.1550 -0.3381
 4385SOL    HW124617   1.515   1.137   1.877  1.0330 -0.4560 -0.4122
 4385SOL    HW224618   1.609   1.185   1.981 -0.2073 -0.2052 -0.9029
 4386SOL     OW24619   3.141   4.494   4.755  0.5808  0.0622  0.2670
 4386SOL    HW124620   3.098   4.575   4.727  0.2522 -0.5243 -0.9245
 4386SOL    HW224621   3.205   4.488   4.685 -0.0390  0.5195 -0.3325
 4387SOL     OW24622   3.861   3.013  12.093 -0.0970  0.8094  0.3824
 4387SOL    HW124623   3.818   3.020  12.007  0.6906  1.2865  0.0318
 4387SOL    HW224624   3.922   2.941  12.079 -1.0527  0.0731 -0.0724
 4388SOL     OW24625   1.032   2.423   6.155 -0.6075 -0.4012  0.6154
 4388SOL    HW124626   1.041   2.486   6.226 -2.4755 -0.8287  1.2163
 4388SOL    HW224627   1.123   2.393   6.154  0.4234  2.6950 -0.6977
 4389SOL     OW24628   1.078   0.303   3.839 -0.0731 -0.3733  0.2699
 4389SOL    HW124629   1.078   0.225   3.783 -1.1978 -0.4428  0.3628
 4389SOL    HW224630   1.163   0.287   3.880 -0.3620 -2.1100  0.1656
 4390SOL     OW24631   2.933   1.444   6.784  0.1416  0.0775  0.1150
 4390SOL    HW124632   2.995   1.380   6.822  0.3959  0.2365 -0.0336
 4390SOL    HW224633   2.971   1.466   6.700 -0.9521 -1.8761 -0.9027
 4391SOL     OW24634   4.664   2.074   5.189 -0.2388  0.0156 -0.2717
 4391SOL    HW124635   4.710   2.043   5.267  0.6036  2.0764  0.0316
 4391SOL    HW224636   4.643   2.156   5.232  1.4779 -0.0991  0.7836
 4392SOL     OW24637   2.805   1.634   2.302  0.7445  0.0377  0.3301
 4392SOL    HW124638   2.862   1.584   2.243  1.4897  1.4653 -0.1626
 4392SOL    HW224639   2.737   1.669   2.244 -0.8501  0.7454  2.6182
 4393SOL     OW24640   3.188   1.684   9.102 -0.0722  0.0690 -0.0031
 4393SOL    HW124641   3.280   1.687   9.128 -0.1907  0.0579  0.4213
 4393SOL    HW224642   3.167   1.592   9.119 -1.9976  0.6215  0.6360
 4394SOL     OW24643   2.148   0.378  15.703  0.1881 -0.5333 -0.3023
 4394SOL    HW124644   2.115   0.356  15.790 -1.3765  0.0946 -0.7475
 4394SOL    HW224645   2.234   0.410  15.730  0.3306 -0.7491 -0.4946
 4395SOL     OW24646   4.221   0.221  12.451  0.3291 -0.1466  0.0442
 4395SOL    HW124647   4.260   0.304  12.425 -0.6004 -0.0476 -1.0241
 4395SOL    HW224648   4.206   0.180  12.366 -1.8796 -2.2978  1.4779
 4396SOL     OW24649   2.417   2.846   8.300  0.8581 -0.0878 -0.3131
 4396SOL    HW124650   2.409   2.909   8.372 -0.6970 -3.1385  2.1630
 4396SOL    HW224651   2.438   2.758   8.333 -2.7860 -1.0013 -0.4505
 4397SOL     OW24652   1.543   1.588   7.358 -0.1639  0.1261  0.0149
 4397SOL    HW124653   1.505   1.564   7.443 -0.0774 -1.0763 -0.2936
 4397SOL    HW224654   1.544   1.509   7.305  3.4868  0.2405 -0.1334
 4398SOL     OW24655   2.174   0.473   8.676  0.1991 -0.2466  0.5521
 4398SOL    HW124656   2.238   0.478   8.605  0.7901 -1.9434  0.9822
 4398SOL    HW224657   2.229   0.437   8.745 -0.1923  0.9493  1.4885
 4399SOL     OW24658   2.308   2.137   0.449 -0.8118 -0.8554 -0.7780
 4399SOL    HW124659   2.287   2.197   0.520  0.9602 -3.3095  1.7974
 4399SOL    HW224660   2.320   2.196   0.374 -0.7092  0.2939  0.1392
 4400SOL     OW24661   0.271   0.569   6.427  0.1652 -0.1403  0.2062
 4400SOL    HW124662   0.270   0.481   6.465  0.2119 -0.4521 -0.5040
 4400SOL    HW224663   0.262   0.551   6.333  1.8611 -0.5358  0.1206
 4401SOL     OW24664   1.445   4.022  13.074  0.1083  0.5156  0.1868
 4401SOL    HW124665   1.449   3.926  13.083 -0.8820  0.3057 -1.4909
 4401SOL    HW224666   1.456   4.047  13.165 -2.7161  0.6494  0.4613
 4402SOL     OW24667   2.543   4.504   0.973  0.4804 -0.1140  0.8018
 4402SOL    HW124668   2.482   4.450   1.023  0.4696  0.4902  1.4383
 4402SOL    HW224669   2.481   4.571   0.947  1.2431  1.2707  2.5405
 4403SOL     OW24670   3.860   0.790  13.063  0.2169  0.1815 -0.5027
 4403SOL    HW124671   3.950   0.822  13.064  0.4656 -0.4569 -1.5253
 4403SOL    HW224672   3.837   0.786  13.155  0.4340  4.2438 -0.2596
 4404SOL     OW24673   2.913   2.407  11.307  0.1715 -0.4273 -0.4990
 4404SOL    HW124674   2.840   2.428  11.249 -2.4504  0.2794  3.0034
 4404SOL    HW224675   2.992   2.437  11.262  0.7341 -0.4523  0.4669
 4405SOL     OW24676   1.240   1.672   8.040 -0.0190 -0.2160  0.2178
 4405SOL    HW124677   1.219   1.758   8.003  0.4952 -0.0363  0.3366
 4405SOL    HW224678   1.160   1.619   8.038  0.8944 -1.5047 -1.9697
 4406SOL     OW24679   1.684   0.610   2.718  0.0530 -0.6755  0.5444
 4406SOL    HW124680   1.749   0.543   2.743  1.4884  0.3761 -0.3552
 4406SOL    HW224681   1.737   0.662   2.657  0.4700 -1.9046 -0.1500
 4407SOL     OW24682   2.691   1.077  15.315  0.4749  0.2656 -0.1019
 4407SOL    HW124683   2.730   0.990  15.320  1.0997  0.3758 -2.7066
 4407SOL    HW224684   2.597   1.057  15.308  0.1640  2.4232 -2.0989
 4408SOL     OW24685   2.472   2.798  16.324 -0.4818 -0.5330  0.2268
 4408SOL    HW124686   2.503   2.865  16.385  2.7019 -0.9594 -0.9247
 4408SOL    HW224687   2.378   2.813  16.320 -0.2701  0.9747  0.6557
 4409SOL     OW24688   0.314   1.575  11.798 -0.1322 -0.2019 -0.0987
 4409SOL    HW124689   0.315   1.665  11.766  0.0297 -0.6511 -1.3644
 4409SOL    HW224690   0.406   1.563  11.819 -0.0198  0.8447 -0.0313
 4410SOL     OW24691   4.366   4.457   9.383 -1.3894  0.3678  0.6377
 4410SOL    HW124692   4.427   4.531   9.387 -1.4659  0.6095 -2.5148
 4410SOL    HW224693   4.280   4.494   9.360 -1.2049  0.9031  0.8083
 4411SOL     OW24694   0.293   3.496   6.859 -0.1283  0.0907  0.5582
 4411SOL    HW124695   0.206   3.460   6.877 -0.4036  0.5366  0.1409
 4411SOL    HW224696   0.279   3.545   6.777 -2.2253 -0.8677  0.3338
 4412SOL     OW24697   0.203   4.005  14.829  0.2168  0.3849 -0.0709
 4412SOL    HW124698   0.139   4.029  14.762 -0.5840 -0.2653  0.4789
 4412SOL    HW224699   0.244   3.932  14.782 -0.1166  0.5768 -0.6598
 4413SOL     OW24700   1.995   0.845   1.266  0.0041  0.1823  0.0548
 4413SOL    HW124701   2.001   0.857   1.360  1.2631 -0.8245  0.0893
 4413SOL    HW224702   2.031   0.757   1.256 -0.2945  0.3365 -2.5666
 4414SOL     OW24703   0.730   3.412   7.650 -0.0185 -0.0943  0.1881
 4414SOL    HW124704   0.817   3.439   7.620  0.2169 -1.3149 -0.2188
 4414SOL    HW224705   0.686   3.495   7.632  1.1136  0.2591 -0.9271
 4415SOL     OW24706   3.526   4.547  12.227  0.0581  0.2636  0.3225
 4415SOL    HW124707   3.552   4.637  12.245 -0.2304  0.5181 -0.5280
 4415SOL    HW224708   3.531   4.506  12.313  0.0449  2.0997  1.1850
 4416SOL     OW24709   3.722   2.519   7.994  0.2580 -0.2085  0.0103
 4416SOL    HW124710   3.774   2.458   8.046  1.9416  1.7161  0.5896
 4416SOL    HW224711   3.672   2.557   8.065  0.1505  0.5061 -0.4495
 4417SOL     OW24712   0.846   0.128   3.441 -0.1164  0.5563  0.2496
 4417SOL    HW124713   0.926   0.121   3.492 -0.0894 -1.9890 -0.1273
 4417SOL    HW224714   0.872   0.140   3.350 -1.3761 -2.2442 -0.4913
 4418SOL     OW24715   2.257   4.018   9.158 -0.1916 -0.5143 -0.1609
 4418SOL    HW124716   2.313   3.949   9.122  1.2624  0.0611  0.9906
 4418SOL    HW224717   2.172   3.975   9.164 -0.8603  1.2230  3.3065
 4419SOL     OW24718   4.714   1.802   3.498 -0.5210 -0.7798 -0.1749
 4419SOL    HW124719   0.023   1.820   3.411  0.4568 -1.3915  0.0905
 4419SOL    HW224720   4.622   1.790   3.475 -0.9315  2.3184 -0.1164
 4420SOL     OW24721   2.478   2.540   0.532 -0.2822 -0.1327  0.2074
 4420SOL    HW124722   2.522   2.455   0.528 -0.1155 -0.1435  2.0987
 4420SOL    HW224723   2.497   2.566   0.622 -1.3232 -1.9641  0.9686
 4421SOL     OW24724   3.282   3.492  12.644 -0.3808 -0.2120  0.0497
 4421SOL    HW124725   3.230   3.420  12.680 -2.6026  0.3371 -2.0618
 4421SOL    HW224726   3.366   3.454  12.667 -0.8528 -0.5430  1.2384
 4422SOL     OW24727   0.457   0.907   5.567 -0.2341 -0.2432  0.0893
 4422SOL    HW124728   0.523   0.866   5.623  1.2386  3.2063  0.9391
 4422SOL    HW224729   0.383   0.854   5.594  0.4087 -1.9519 -1.5613
 4423SOL     OW24730   1.176   1.469   6.273  0.3719 -0.2392  0.5515
 4423SOL    HW124731   1.160   1.560   6.246  1.1068 -0.9275 -2.1437
 4423SOL    HW224732   1.086   1.434   6.275 -0.3086  1.4226 -1.2821
 4424SOL     OW24733   3.782   4.661   3.778  0.4373 -0.0694 -0.0868
 4424SOL    HW124734   3.818   4.655   3.867  0.4332 -0.9405 -0.1451
 4424SOL    HW224735   3.853   4.714   3.740  2.8943 -2.3001  1.3642
 4425SOL     OW24736   1.523   3.844   9.818 -0.0037  0.6041 -0.0924
 4425SOL    HW124737   1.577   3.844   9.898 -1.5022  0.6421  0.9247
 4425SOL    HW224738   1.435   3.830   9.853 -0.1650  1.6464 -0.0634
 4426SOL     OW24739   0.343   0.053   7.373  0.6549  0.4544  0.0256
 4426SOL    HW124740   0.412   0.065   7.438 -1.4213  2.9766  1.7499
 4426SOL    HW224741   0.276   0.039   7.440  1.2563 -3.3622 -0.1422
 4427SOL     OW24742   0.014   4.614   6.978  0.2854 -0.3407  0.3593
 4427SOL    HW124743   4.726   4.707   6.962  0.8826 -0.0596  1.4504
 4427SOL    HW224744   0.099   4.620   7.021 -0.8704 -1.3681  2.8488
 4428SOL     OW24745   3.531   1.674   6.028 -0.0078 -0.1970 -0.0203
 4428SOL    HW124746   3.525   1.670   5.932 -0.2790  0.0639 -0.0137
 4428SOL    HW224747   3.568   1.761   6.041  0.0161 -0.2828  0.4715
 4429SOL     OW24748   2.619   2.363  15.358  1.1142 -0.7729  0.4832
 4429SOL    HW124749   2.568   2.345  15.279 -1.7962  0.2634  2.1608
 4429SOL    HW224750   2.671   2.435  15.322 -1.0242 -0.8888 -2.8450
 4430SOL     OW24751   1.733   3.015   4.713 -0.7425 -0.3725 -0.0044
 4430SOL    HW124752   1.799   3.056   4.658  0.6772 -1.4378  0.9092
 4430SOL    HW224753   1.681   2.974   4.644 -0.1620  3.1374 -2.5642
 4431SOL     OW24754   0.901   2.516   5.265 -0.4687  0.4464 -0.3816
 4431SOL    HW124755   0.910   2.577   5.191 -3.5526  1.0237 -0.2674
 4431SOL    HW224756   0.841   2.452   5.227  0.8694 -1.1013  0.1339
 4432SOL     OW24757   1.655   3.061   8.346 -0.6785  0.0897  0.0967
 4432SOL    HW124758   1.721   3.128   8.331 -0.2974 -0.6683 -1.5948
 4432SOL    HW224759   1.677   3.015   8.265 -1.3880  1.7497 -1.0416
 4433SOL     OW24760   4.186   0.451   5.886 -0.3849  0.0004  0.4334
 4433SOL    HW124761   4.166   0.513   5.815 -1.6501  0.8481  1.5242
 4433SOL    HW224762   4.280   0.440   5.877 -0.4422 -0.4071  0.3424
 4434SOL     OW24763   1.670   3.188   7.061 -0.4302  0.0240  0.0088
 4434SOL    HW124764   1.599   3.173   7.123  0.5857  0.5849  1.2924
 4434SOL    HW224765   1.654   3.111   7.006  0.6534  1.1076 -1.8114
 4435SOL     OW24766   0.968   3.202   8.689  0.3088  0.2696  0.8067
 4435SOL    HW124767   0.928   3.139   8.629  0.1450 -0.0455  1.2455
 4435SOL    HW224768   1.057   3.173   8.673 -0.4615 -1.8757  0.3767
 4436SOL     OW24769   3.817   1.551   4.785 -0.0286 -0.5809  0.5098
 4436SOL    HW124770   3.763   1.475   4.807 -1.7014  0.4795  0.0691
 4436SOL    HW224771   3.754   1.619   4.809 -1.7072 -1.6499 -0.8451
 4437SOL     OW24772   1.293   1.778  16.541 -0.3439  0.0798 -0.1303
 4437SOL    HW124773   1.336   1.729  16.472  2.8726  3.0474 -0.2731
 4437SOL    HW224774   1.320   1.868  16.522  3.4438 -0.4922  2.4394
 4438SOL     OW24775   0.975   1.966   0.437 -0.0081 -0.1258  0.1691
 4438SOL    HW124776   0.886   1.942   0.409 -0.1403  0.8857 -0.2832
 4438SOL    HW224777   0.945   2.024   0.507 -0.4955  0.7027 -0.7261
 4439SOL     OW24778   4.460   3.788   4.759 -0.3533  0.6625 -0.2093
 4439SOL    HW124779   4.473   3.775   4.853 -0.0870 -2.0392 -0.6178
 4439SOL    HW224780   4.514   3.723   4.712 -0.1537 -0.3873  1.4816
 4440SOL     OW24781   2.756   4.190  11.495  0.2586 -0.3502 -0.2654
 4440SOL    HW124782   2.723   4.167  11.582  0.1437  0.8901  0.0196
 4440SOL    HW224783   2.758   4.285  11.503  1.4651 -0.3040 -1.0764
 4441SOL     OW24784   3.287   1.837   8.531  0.7523 -0.0892 -0.1411
 4441SOL    HW124785   3.260   1.778   8.601 -1.4739  1.3654  0.2439
 4441SOL    HW224786   3.381   1.838   8.546  1.2396 -0.2905 -3.1388
 4442SOL     OW24787   2.112   0.376  11.344 -0.2487  0.1664  0.2178
 4442SOL    HW124788   2.102   0.438  11.416 -1.7709  1.3650 -1.0007
 4442SOL    HW224789   2.035   0.320  11.348  0.2743 -0.6574 -1.2562
 4443SOL     OW24790   1.713   4.271   8.056  0.5346 -0.2644  0.4451
 4443SOL    HW124791   1.630   4.231   8.084 -0.2466 -0.0566 -1.5630
 4443SOL    HW224792   1.753   4.293   8.140 -1.1116  1.5033  0.7986
 4444SOL     OW24793   0.035   1.364   4.947 -0.3433 -0.3890  0.4020
 4444SOL    HW124794   0.059   1.344   5.037 -0.5412  1.0000  0.7629
 4444SOL    HW224795   0.091   1.300   4.903  0.3831 -1.4199  2.8800
 4445SOL     OW24796   2.066   2.424   2.877 -0.3840 -0.0443 -0.0226
 4445SOL    HW124797   2.076   2.519   2.872  0.4544 -0.1621 -0.5550
 4445SOL    HW224798   1.981   2.416   2.920 -0.1427  0.0035  0.4773
 4446SOL     OW24799   0.280   2.802   7.330  0.3925  0.4868 -0.1657
 4446SOL    HW124800   0.331   2.821   7.409  0.0815 -0.9760  0.3991
 4446SOL    HW224801   0.190   2.810   7.363  0.0026  0.5313 -1.2473
 4447SOL     OW24802   3.830   3.352   4.015  0.1552  0.4986  0.5364
 4447SOL    HW124803   3.912   3.344   4.063 -0.8142 -2.7028  1.6778
 4447SOL    HW224804   3.769   3.333   4.086 -1.4252  1.6915 -0.4866
 4448SOL     OW24805   2.503   1.021   6.195 -0.0500  0.7101 -0.3787
 4448SOL    HW124806   2.504   0.978   6.281  0.3632  1.0017 -0.2413
 4448SOL    HW224807   2.419   0.991   6.159  0.0522 -3.9752  3.2460
 4449SOL     OW24808   2.478   3.401   1.182 -0.4247  0.0709  0.2386
 4449SOL    HW124809   2.446   3.405   1.272  0.3053  1.1511  0.4566
 4449SOL    HW224810   2.511   3.312   1.173  0.7481  0.4704  0.6283
 4450SOL     OW24811   2.553   1.115  13.068  0.0978  0.2445  0.1587
 4450SOL    HW124812   2.616   1.098  12.999  0.7018 -0.8956  0.9863
 4450SOL    HW224813   2.559   1.042  13.129  0.4768 -1.7153 -2.2391
 4451SOL     OW24814   1.825   2.463   3.718 -0.0606 -0.2552  0.4250
 4451SOL    HW124815   1.893   2.530   3.727  0.5552 -0.8814  0.4531
 4451SOL    HW224816   1.801   2.470   3.625 -0.4682 -0.3357  0.5263
 4452SOL     OW24817   1.707   0.486   7.327 -0.0627  0.2214  0.0159
 4452SOL    HW124818   1.668   0.411   7.282 -2.0637 -0.4506  2.8857
 4452SOL    HW224819   1.778   0.444   7.376 -0.6135 -1.0495 -0.2952
 4453SOL     OW24820   4.486   0.913   2.375 -0.1683 -0.9159  0.5442
 4453SOL    HW124821   4.553   0.865   2.327  0.9738  1.0832  0.1359
 4453SOL    HW224822   4.420   0.844   2.362  0.1312 -1.2225  0.6433
 4454SOL     OW24823   1.311   1.200   2.316  0.1324  0.1982  0.3408
 4454SOL    HW124824   1.238   1.253   2.348  0.2339 -0.0059  0.9085
 4454SOL    HW224825   1.303   1.230   2.226 -0.3026 -0.6266  0.1030
 4455SOL     OW24826   2.944   0.997  11.508  1.6272 -0.5505 -0.6824
 4455SOL    HW124827   2.985   1.053  11.574  0.2527  2.8259 -2.6965
 4455SOL    HW224828   2.937   1.060  11.436  1.4660  1.5378  1.1354
 4456SOL     OW24829   2.743   1.460  16.549 -0.4867 -0.5475  0.2084
 4456SOL    HW124830   2.815   1.404  16.579 -0.8471 -0.4071  1.3521
 4456SOL    HW224831   2.691   1.468  16.629 -0.4767  0.0738  0.1507
 4457SOL     OW24832   0.281   1.460   4.379 -0.3397 -0.1244  0.0068
 4457SOL    HW124833   0.352   1.451   4.443  0.7421 -0.6598 -1.2878
 4457SOL    HW224834   0.247   1.548   4.394  1.1754  0.2559  1.2144
 4458SOL     OW24835   3.840   2.112   8.847 -0.4033  0.6080 -0.0961
 4458SOL    HW124836   3.936   2.113   8.857 -0.3171 -1.4919 -0.7241
 4458SOL    HW224837   3.818   2.137   8.936 -1.0760  1.2804 -0.4574
 4459SOL     OW24838   0.429   0.230   3.724 -0.9420  0.2634 -0.3495
 4459SOL    HW124839   0.454   0.321   3.738  1.1075 -0.1973 -0.9479
 4459SOL    HW224840   0.398   0.206   3.811  1.2763 -0.6437  0.1836
 4460SOL     OW24841   1.322   2.670   7.196 -0.0163  0.6126  0.5094
 4460SOL    HW124842   1.282   2.741   7.146 -0.0877  0.1820 -0.0480
 4460SOL    HW224843   1.403   2.709   7.231 -0.6203 -0.1014  2.7130
 4461SOL     OW24844   2.443   3.222   3.275  0.4787  0.3708 -0.0908
 4461SOL    HW124845   2.454   3.211   3.181  0.6716  0.0406 -0.0301
 4461SOL    HW224846   2.349   3.203   3.272  1.0498 -2.7919  1.5126
 4462SOL     OW24847   3.381   2.884   0.327 -0.8108 -0.8042  0.3209
 4462SOL    HW124848   3.417   2.799   0.355  0.6473 -0.5582 -0.8118
 4462SOL    HW224849   3.303   2.858   0.277 -1.1266 -1.4192  1.1246
 4463SOL     OW24850   3.930   3.146  11.503  0.1638 -0.6470 -0.3443
 4463SOL    HW124851   3.963   3.132  11.592  0.0479  3.4047  0.3686
 4463SOL    HW224852   3.863   3.212  11.519 -0.4760 -1.3090 -0.3204
 4464SOL     OW24853   0.792   4.701  16.204  0.5770  0.0236  0.1886
 4464SOL    HW124854   0.777   4.724  16.296 -1.0723 -0.6195  0.0748
 4464SOL    HW224855   0.825   0.053  16.160 -0.8972  1.6127  1.8723
 4465SOL     OW24856   1.481   4.596   6.295  0.4477 -0.4188  0.3935
 4465SOL    HW124857   1.393   4.617   6.325  0.0314 -0.6672 -0.6577
 4465SOL    HW224858   1.464   4.561   6.208 -0.3852 -0.1256  0.4419
 4466SOL     OW24859   0.758   3.005  13.772 -0.2612 -0.3583  0.1808
 4466SOL    HW124860   0.738   3.049  13.854 -0.1229  0.7165 -0.3556
 4466SOL    HW224861   0.728   3.068  13.706 -0.1889  3.0170  3.3752
 4467SOL     OW24862   1.215   1.680   1.337 -0.3816 -0.3438 -0.1588
 4467SOL    HW124863   1.251   1.657   1.423 -0.7682 -0.0265  0.0888
 4467SOL    HW224864   1.125   1.647   1.341 -1.5275  2.5933 -1.4102
 4468SOL     OW24865   0.988   1.728   5.529  0.5629 -0.1529  0.3151
 4468SOL    HW124866   1.009   1.724   5.623 -0.5429  0.4930  0.5887
 4468SOL    HW224867   1.071   1.772   5.511  2.3639 -3.0284  1.5765
 4469SOL     OW24868   3.423   2.411   6.790 -0.3524 -0.1967  0.5681
 4469SOL    HW124869   3.478   2.339   6.821 -0.8869 -0.7678  0.1831
 4469SOL    HW224870   3.371   2.366   6.724  0.6393  0.0013 -0.3479
 4470SOL     OW24871   1.228   3.332  11.854  0.1515  0.9183 -0.0810
 4470SOL    HW124872   1.239   3.295  11.941  1.3613  0.1454 -0.5691
 4470SOL    HW224873   1.313   3.375  11.843  0.3700  0.5467  0.1839
 4471SOL     OW24874   2.551   4.721   4.673  0.1265  0.3821 -0.0199
 4471SOL    HW124875   2.486   0.019   4.607 -2.3727 -1.1579  1.8488
 4471SOL    HW224876   2.534   4.626   4.673  1.4842  0.1498 -2.2756
 4472SOL     OW24877   4.434   4.009   5.949 -0.2048 -0.3635  0.2201
 4472SOL    HW124878   4.385   4.002   5.867  1.4985  0.2433 -0.8415
 4472SOL    HW224879   4.389   4.089   5.977 -1.1106 -0.6562 -0.3813
 4473SOL     OW24880   0.154   0.059   9.143 -0.0426 -0.9404 -0.6825
 4473SOL    HW124881   0.247   0.062   9.121  0.1119 -2.7873 -0.2633
 4473SOL    HW224882   0.139   4.691   9.154 -0.4540 -0.5608  1.9603
 4474SOL     OW24883   3.978   2.985   7.885  0.5367  0.4180  0.2855
 4474SOL    HW124884   3.940   2.897   7.885 -1.6564  1.3517  1.0168
 4474SOL    HW224885   4.003   3.004   7.975  0.3720  2.2447 -0.0489
 4475SOL     OW24886   1.519   3.351   3.314  0.3279 -0.1370  0.4075
 4475SOL    HW124887   1.529   3.318   3.225  2.2283 -1.1187  0.9684
 4475SOL    HW224888   1.533   3.444   3.299 -0.0529  0.2228  2.1883
 4476SOL     OW24889   2.718   0.673   2.984 -0.0353  0.1018 -0.0423
 4476SOL    HW124890   2.674   0.604   3.034  0.1175  0.4347  0.5602
 4476SOL    HW224891   2.743   0.625   2.905  1.2417  0.1628  0.3168
 4477SOL     OW24892   0.196   4.555   3.217 -0.0229  0.4699  0.3750
 4477SOL    HW124893   0.266   4.619   3.211 -1.1670  1.9011  2.1176
 4477SOL    HW224894   0.151   4.595   3.291 -0.5277 -1.2503  1.0081
 4478SOL     OW24895   3.047   0.900   8.462  0.5565  0.2630 -0.0783
 4478SOL    HW124896   3.029   0.958   8.387 -2.5423  0.3207  0.7158
 4478SOL    HW224897   3.103   0.952   8.520  1.1431 -0.2255 -0.2126
 4479SOL     OW24898   1.505   3.727   2.074 -0.5128 -0.0512  0.2005
 4479SOL    HW124899   1.535   3.788   2.007 -1.6680  1.1563  0.7803
 4479SOL    HW224900   1.499   3.797   2.140 -2.2364  2.0400 -2.1737
 4480SOL     OW24901   3.897   2.066   1.927  0.1304  0.2742 -0.3919
 4480SOL    HW124902   3.811   2.081   1.967  0.6247  0.4891  0.5819
 4480SOL    HW224903   3.895   2.150   1.882  0.0477 -0.4165 -1.6879
 4481SOL     OW24904   3.816   0.450  16.604 -0.1372 -0.1897 -0.2411
 4481SOL    HW124905   3.775   0.403  16.677  1.2930 -1.4497 -0.2327
 4481SOL    HW224906   3.738   0.481  16.559  0.6787  0.9492 -0.8778
 4482SOL     OW24907   3.821   0.448   6.812 -0.0657  0.0859 -0.1649
 4482SOL    HW124908   3.830   0.368   6.864  0.4900  0.8088  0.8448
 4482SOL    HW224909   3.806   0.406   6.728 -3.4380 -0.2244  0.5518
 4483SOL     OW24910   2.932   3.044  11.779 -0.2063  0.5880  0.2106
 4483SOL    HW124911   2.952   2.967  11.832 -0.6620  0.3225 -0.0098
 4483SOL    HW224912   2.859   3.009  11.729 -0.6006 -1.4566  2.1885
 4484SOL     OW24913   2.089   1.353  10.956 -0.3824  0.5833  0.0714
 4484SOL    HW124914   2.109   1.395  11.039 -1.0282  1.9753 -0.4743
 4484SOL    HW224915   2.125   1.269  10.982  0.0854  0.1655 -1.9166
 4485SOL     OW24916   1.170   0.499   8.291  0.2812 -0.0801  0.0768
 4485SOL    HW124917   1.206   0.520   8.204 -1.2505  0.9112 -0.3232
 4485SOL    HW224918   1.078   0.491   8.262  0.8302 -0.3231 -1.6362
 4486SOL     OW24919   0.053   3.068   7.590 -0.2695  0.4463 -0.2769
 4486SOL    HW124920   0.021   2.985   7.553  0.8076  0.1552 -0.5528
 4486SOL    HW224921   4.709   3.078   7.654 -0.4129  2.3033 -0.7161
 4487SOL     OW24922   0.027   2.453   1.039 -0.0290  0.1510  0.3381
 4487SOL    HW124923   0.109   2.469   0.993  2.5624  1.4768  5.4706
 4487SOL    HW224924   0.054   2.428   1.127  1.2315 -1.6417 -0.5639
 4488SOL     OW24925   2.862   0.597   7.739  0.6380 -0.3135 -0.1084
 4488SOL    HW124926   2.794   0.568   7.799 -1.1997  1.9114 -1.1469
 4488SOL    HW224927   2.875   0.517   7.688 -2.6606 -0.4252 -0.7336
 4489SOL     OW24928   3.723   1.210  12.227 -0.2874 -0.2907  0.2074
 4489SOL    HW124929   3.779   1.167  12.162  0.0640 -0.9687  0.9688
 4489SOL    HW224930   3.778   1.193  12.303  0.4673  0.9128 -0.0687
 4490SOL     OW24931   2.861   0.974   1.910  0.1188  0.3129  0.6727
 4490SOL    HW124932   2.884   1.005   1.997 -0.1648 -1.2534  1.3054
 4490SOL    HW224933   2.946   0.933   1.896  0.2032  1.3765 -1.9921
 4491SOL     OW24934   0.927   0.796   9.138  0.1198 -0.5814 -0.2200
 4491SOL    HW124935   0.953   0.857   9.207  0.3095 -0.9313  0.0179
 4491SOL    HW224936   1.002   0.738   9.144 -0.3152 -1.2339 -1.0373
 4492SOL     OW24937   1.125   1.987   7.413 -0.6248 -0.1454  0.2390
 4492SOL    HW124938   1.082   2.029   7.487  1.1801 -2.3102  2.5416
 4492SOL    HW224939   1.163   1.904   7.441 -0.6607 -1.2972 -3.2265
 4493SOL     OW24940   2.901   2.789  13.370  0.0087  0.3099  0.0968
 4493SOL    HW124941   2.927   2.732  13.298  1.9364  1.8236 -0.4015
 4493SOL    HW224942   2.831   2.742  13.415  0.6579  0.9509  1.7666
 4494SOL     OW24943   3.680   2.383   7.750 -0.0200 -0.2158 -0.0011
 4494SOL    HW124944   3.675   2.408   7.843  1.4247 -0.0108  0.0279
 4494SOL    HW224945   3.731   2.456   7.714 -0.6051  0.5825  0.7854
 4495SOL     OW24946   0.052   2.840  15.124  0.2561  0.6860  0.4999
 4495SOL    HW124947   0.094   2.891  15.193 -1.9270 -0.2952  2.5737
 4495SOL    HW224948   4.685   2.854  15.144  0.3666  0.3247  1.2361
 4496SOL     OW24949   0.615   3.784   1.489  0.2552 -0.2752 -0.5390
 4496SOL    HW124950   0.610   3.735   1.407 -1.6880 -0.2327 -0.4330
 4496SOL    HW224951   0.560   3.726   1.542  2.1866  1.2439  3.1495
 4497SOL     OW24952   2.269   4.556  13.900 -0.3203  0.2377 -0.2407
 4497SOL    HW124953   2.328   4.490  13.863 -1.1076 -0.9648  0.6405
 4497SOL    HW224954   2.188   4.548  13.849 -0.8138 -0.7349  0.6912
 4498SOL     OW24955   4.251   0.072   8.880  0.6555  0.0244  0.0072
 4498SOL    HW124956   4.313   4.725   8.874  1.8311  0.8925  1.4207
 4498SOL    HW224957   4.274   0.137   8.813 -0.1506 -0.3017 -0.5807
 4499SOL     OW24958   3.396   2.951   1.422  0.2391 -0.0306  0.5924
 4499SOL    HW124959   3.457   2.933   1.494 -1.5059 -3.1369  1.3344
 4499SOL    HW224960   3.335   3.006   1.472  0.1060  0.5195 -0.1799
 4500SOL     OW24961   0.610   3.159   9.479  0.4840  0.2545  0.5938
 4500SOL    HW124962   0.646   3.087   9.428  0.4112  1.4132 -1.0809
 4500SOL    HW224963   0.548   3.113   9.536  0.9990  0.2449  1.1389
 4501SOL     OW24964   2.783   4.624   8.064 -0.0790  1.0788 -0.6399
 4501SOL    HW124965   2.701   4.639   8.111 -1.2827 -2.7902 -1.5024
 4501SOL    HW224966   2.821   4.547   8.106  0.4993  1.7285  0.0269
 4502SOL     OW24967   0.544   0.643  12.076 -0.3548 -0.2052 -0.2271
 4502SOL    HW124968   0.510   0.688  12.153 -0.1664 -2.6652  1.3007
 4502SOL    HW224969   0.624   0.602  12.111 -0.6282 -2.0380 -1.7798
 4503SOL     OW24970   0.896   1.352   0.037  0.0356 -0.0823 -0.0851
 4503SOL    HW124971   0.810   1.318   0.062  1.1373 -2.7589  0.0721
 4503SOL    HW224972   0.954   1.277   0.050  0.0621  0.1761  1.2339
 4504SOL     OW24973   0.455   2.650  17.112  0.5846  0.2147  0.2360
 4504SOL    HW124974   0.377   2.601  17.087  1.3144 -0.2790 -1.0935
 4504SOL    HW224975   0.486   2.689  17.030  0.1507 -1.8628 -0.9272
 4505SOL     OW24976   3.777   3.223   7.865  0.8494 -0.2109 -0.6006
 4505SOL    HW124977   3.831   3.207   7.942  1.7546 -2.2533 -1.6362
 4505SOL    HW224978   3.689   3.249   7.891  0.9720 -1.6914  1.3557
 4506SOL     OW24979   3.932   1.410   2.542 -0.2551 -0.0120 -0.0337
 4506SOL    HW124980   3.967   1.323   2.558  2.6336  0.9785 -0.9581
 4506SOL    HW224981   3.935   1.453   2.627  0.6515 -0.2284  0.0408
 4507SOL     OW24982   2.925   0.038   6.921 -0.0047  0.7597  0.5420
 4507SOL    HW124983   2.959   4.679   6.950  0.3080  0.0498 -1.9306
 4507SOL    HW224984   2.992   0.043   6.853 -3.0204 -0.1454 -2.4616
 4508SOL     OW24985   0.407   4.404  17.602 -0.2648  0.1019 -0.3005
 4508SOL    HW124986   0.398   4.355  17.520  1.1427  0.1761 -0.4921
 4508SOL    HW224987   0.429   4.489  17.564  0.7514 -0.8791 -1.9263
 4509SOL     OW24988   0.571   0.542  12.895  0.5370  0.2508 -0.3847
 4509SOL    HW124989   0.570   0.482  12.820  0.3290 -0.0072 -0.1748
 4509SOL    HW224990   0.663   0.563  12.913 -0.3798  3.2494  0.6176
 4510SOL     OW24991   1.186   2.861   7.410  0.1431 -0.8229 -0.3013
 4510SOL    HW124992   1.243   2.933   7.381 -0.7350 -0.0414 -0.0882
 4510SOL    HW224993   1.186   2.893   7.501  1.0932 -0.2017 -0.5182
 4511SOL     OW24994   3.087   3.852  17.546  0.6979  0.1812 -0.1486
 4511SOL    HW124995   2.997   3.826  17.526  1.0443 -0.4673 -0.8583
 4511SOL    HW224996   3.114   3.780  17.603 -0.7485  1.0925  1.7011
 4512SOL     OW24997   0.899   1.976   7.600 -0.0535  0.4142  1.0306
 4512SOL    HW124998   0.861   1.922   7.531  1.3059  1.3265 -0.4212
 4512SOL    HW224999   0.904   1.913   7.671 -0.6827  1.9804  2.4793
 4513SOL     OW25000   2.482   3.804  12.751  0.1214  0.2981  0.2887
 4513SOL    HW125001   2.519   3.888  12.779  0.5591  0.5452 -1.0304
 4513SOL    HW225002   2.399   3.798  12.798  0.3129 -0.1066  0.5843
 4514SOL     OW25003   2.413   0.416   6.319 -0.2158 -0.3357  0.3269
 4514SOL    HW125004   2.359   0.365   6.379  0.3224  0.5888  1.6019
 4514SOL    HW225005   2.341   0.436   6.259  1.4418 -1.0840 -1.8854
 4515SOL     OW25006   3.591   4.371   7.760 -0.3863  0.2130 -0.3514
 4515SOL    HW125007   3.654   4.428   7.715  0.1211 -0.1665 -0.1318
 4515SOL    HW225008   3.538   4.435   7.808 -1.1192 -0.3799 -0.3738
 4516SOL     OW25009   1.653   2.654   4.687  0.0471 -0.1272  0.0131
 4516SOL    HW125010   1.626   2.685   4.600 -0.5419  1.9282  0.9335
 4516SOL    HW225011   1.572   2.653   4.738 -0.0037  0.8043 -0.0486
 4517SOL     OW25012   1.326   3.073   8.244  0.1668 -0.6191 -0.1908
 4517SOL    HW125013   1.390   3.125   8.196 -1.1797 -0.2468 -1.5933
 4517SOL    HW225014   1.304   3.003   8.183 -1.8008  1.4737 -1.8762
 4518SOL     OW25015   1.322   0.494   3.555 -0.0005 -0.2702  0.3567
 4518SOL    HW125016   1.290   0.404   3.552 -0.3298 -0.0896 -1.6475
 4518SOL    HW225017   1.300   0.539   3.473 -0.8872  0.7101  1.1368
 4519SOL     OW25018   0.981   3.747   7.634 -0.1654 -0.1078 -0.1204
 4519SOL    HW125019   1.005   3.657   7.611 -1.2042 -0.1222 -1.1654
 4519SOL    HW225020   1.046   3.794   7.582  0.4219 -2.5182 -1.5960
 4520SOL     OW25021   0.868   2.934   4.397  0.2532  0.2022  0.4303
 4520SOL    HW125022   0.783   2.900   4.370  1.4147 -2.4490  0.0999
 4520SOL    HW225023   0.844   2.978   4.478  0.0126 -1.5015  1.2825
 4521SOL     OW25024   1.484   3.954   5.110  0.0507  0.0935  0.0574
 4521SOL    HW125025   1.444   4.024   5.058  0.0378  1.0753  1.3996
 4521SOL    HW225026   1.408   3.897   5.110  2.3115 -2.9070 -0.4040
 4522SOL     OW25027   0.445   0.020   9.076  0.0617 -0.0613  0.0299
 4522SOL    HW125028   0.422   4.660   9.111  1.0377 -0.0127  0.7841
 4522SOL    HW225029   0.536   0.022   9.107  0.1370  1.6705 -0.2959
 4523SOL     OW25030   4.054   3.901   4.274  0.2554  0.0882  0.2516
 4523SOL    HW125031   4.010   3.931   4.353 -0.7176 -0.0157 -0.2534
 4523SOL    HW225032   4.144   3.931   4.289  0.0784  1.1924 -0.8637
 4524SOL     OW25033   2.332   2.339   7.214  0.1932  0.0286 -0.6202
 4524SOL    HW125034   2.252   2.287   7.222 -0.1832  0.7654  0.4506
 4524SOL    HW225035   2.350   2.360   7.305  0.4945 -2.1331 -0.1800
 4525SOL     OW25036   2.077   1.299   2.466  0.0235 -0.4721 -0.0287
 4525SOL    HW125037   2.029   1.218   2.484 -0.2708 -0.1653  0.5659
 4525SOL    HW225038   2.015   1.368   2.489  2.8551  1.9341  0.3799
 4526SOL     OW25039   3.328   4.577   4.274  0.4084  0.0921  0.1083
 4526SOL    HW125040   3.333   4.665   4.237 -1.3414  0.1260 -0.0564
 4526SOL    HW225041   3.265   4.598   4.344 -1.1540 -1.2219 -0.8942
 4527SOL     OW25042   0.409   1.438   1.387  0.0445  0.0516  0.0271
 4527SOL    HW125043   0.354   1.443   1.309 -0.2584  1.2787  0.3224
 4527SOL    HW225044   0.347   1.457   1.458 -0.2183 -2.2817  0.4043
 4528SOL     OW25045   0.708   3.512   6.464  0.0431  0.3345 -0.9315
 4528SOL    HW125046   0.719   3.435   6.409 -2.1418 -0.4548 -0.2197
 4528SOL    HW225047   0.748   3.490   6.548 -1.9527  1.2322  0.2584
 4529SOL     OW25048   4.008   3.488   8.023  0.2339 -0.1638 -0.0007
 4529SOL    HW125049   4.090   3.537   8.030 -0.6136  1.0879  1.1902
 4529SOL    HW225050   3.948   3.553   8.061  1.7263 -0.0979  2.2270
 4530SOL     OW25051   3.582   0.027   1.435 -0.1285 -0.0242 -0.0969
 4530SOL    HW125052   3.676   0.016   1.453  0.4973  1.4444 -2.4415
 4530SOL    HW225053   3.578   4.725   1.344  0.5938 -0.7551  0.0941
 4531SOL     OW25054   0.894   1.436  16.299 -0.0101 -0.3285  0.9714
 4531SOL    HW125055   0.920   1.463  16.211 -2.5078 -0.8140  0.0793
 4531SOL    HW225056   0.798   1.446  16.300 -0.3318 -3.2518 -0.4655
 4532SOL     OW25057   2.369   3.115  16.284 -0.2048 -0.4869  0.3381
 4532SOL    HW125058   2.436   3.173  16.248 -2.6912  2.0199 -0.2592
 4532SOL    HW225059   2.421   3.087  16.360 -0.7148 -0.1031  0.8350
 4533SOL     OW25060   2.729   3.722   9.029 -0.0367 -0.2026  0.3491
 4533SOL    HW125061   2.639   3.696   9.049 -0.4709  0.8491 -0.2500
 4533SOL    HW225062   2.719   3.758   8.941  2.3241 -0.7717 -0.1541
 4534SOL     OW25063   3.614   3.673   2.240 -0.3062 -0.0824 -0.4163
 4534SOL    HW125064   3.611   3.766   2.263 -2.2934  0.0579 -1.3370
 4534SOL    HW225065   3.633   3.668   2.146  0.4490 -1.8921 -0.1844
 4535SOL     OW25066   2.293   2.151   5.476  0.0007 -0.2261 -0.2040
 4535SOL    HW125067   2.307   2.229   5.530 -0.0659 -0.7604  0.5889
 4535SOL    HW225068   2.379   2.112   5.495  0.7453  1.0278 -0.9842
 4536SOL     OW25069   3.740   0.646   7.010 -0.2234 -0.1896  0.1115
 4536SOL    HW125070   3.671   0.669   6.948 -0.0983  0.4096  0.1894
 4536SOL    HW225071   3.778   0.577   6.956  0.6031  0.5542 -0.2505
 4537SOL     OW25072   1.556   4.470   7.288 -0.0143 -0.2169  0.5597
 4537SOL    HW125073   1.516   4.447   7.372  0.7987  0.0742  1.0248
 4537SOL    HW225074   1.573   4.386   7.245 -0.5572 -0.0627  0.0428
 4538SOL     OW25075   2.344   0.880   8.189 -0.4196 -0.0076 -0.4499
 4538SOL    HW125076   2.344   0.938   8.113 -0.5836  0.2024 -0.2912
 4538SOL    HW225077   2.390   0.936   8.251 -0.6492 -0.1777 -0.1268
 4539SOL     OW25078   1.587   2.564   3.212 -0.0809  0.2710 -0.3191
 4539SOL    HW125079   1.491   2.565   3.215 -0.1230 -0.1545 -1.5249
 4539SOL    HW225080   1.600   2.544   3.120 -1.8417  0.9593 -0.7179
 4540SOL     OW25081   0.936   4.184   9.678 -0.0810 -0.3644 -0.1003
 4540SOL    HW125082   0.853   4.200   9.634 -1.5718 -1.4503  2.2784
 4540SOL    HW225083   0.913   4.108   9.733  1.5760  0.9641  2.4372
 4541SOL     OW25084   0.077   2.448   2.131  0.0040  0.4545  0.3385
 4541SOL    HW125085   4.711   2.446   2.157 -0.1211 -0.7177 -0.2072
 4541SOL    HW225086   0.079   2.404   2.045 -0.0829  1.0631  0.0222
 4542SOL     OW25087   0.039   2.550  10.418  0.4313  0.6612 -0.4275
 4542SOL    HW125088   0.016   2.568  10.326 -2.4214 -2.6851 -0.3608
 4542SOL    HW225089   0.064   2.457  10.419  1.5008  0.9601  0.1120
 4543SOL     OW25090   3.307   0.642   7.152 -0.9777 -0.1708 -0.0065
 4543SOL    HW125091   3.219   0.642   7.189 -0.8319  1.0469  0.3366
 4543SOL    HW225092   3.358   0.694   7.214  0.7444 -0.7133 -0.9646
 4544SOL     OW25093   3.443   4.377   6.183 -0.3446  0.4645  0.3722
 4544SOL    HW125094   3.486   4.362   6.267 -2.0193 -3.9195  0.4563
 4544SOL    HW225095   3.453   4.472   6.176 -0.8887  0.4582 -0.4826
 4545SOL     OW25096   3.684   1.276   5.129  0.2578  0.2738  0.2582
 4545SOL    HW125097   3.687   1.262   5.224  0.8192 -2.4217 -0.1533
 4545SOL    HW225098   3.599   1.319   5.122 -0.4176 -1.2907 -1.0459
 4546SOL     OW25099   2.698   3.610   8.347 -0.1625 -0.1110 -0.3347
 4546SOL    HW125100   2.767   3.647   8.403 -0.2617 -2.2307  1.1868
 4546SOL    HW225101   2.623   3.598   8.405  0.1551 -1.3744 -0.1961
 4547SOL     OW25102   3.949   2.524   0.903  0.3652  0.1904  0.0810
 4547SOL    HW125103   3.863   2.496   0.935 -0.4030  0.8560 -1.4109
 4547SOL    HW225104   3.971   2.597   0.960  2.6497 -0.7669  0.4278
 4548SOL     OW25105   4.351   1.547   0.880  0.2529  0.8725  0.2157
 4548SOL    HW125106   4.264   1.514   0.906  0.6379 -0.9520 -0.7748
 4548SOL    HW225107   4.360   1.532   0.786 -0.9076  0.6184  0.1434
 4549SOL     OW25108   4.312   0.142   9.441  0.1975 -0.5427  0.9857
 4549SOL    HW125109   4.406   0.155   9.456  0.3021 -3.0618  2.4428
 4549SOL    HW225110   4.291   0.102   9.525 -0.6760  1.4625  1.7238
 4550SOL     OW25111   2.991   1.806   3.566  0.3171 -0.4049 -0.3831
 4550SOL    HW125112   2.899   1.788   3.584  0.2415 -0.1202 -0.4720
 4550SOL    HW225113   3.026   1.840   3.648 -1.7666 -0.5032  0.5526
 4551SOL     OW25114   1.744   0.062   1.073  0.5687 -0.6353  0.3654
 4551SOL    HW125115   1.653   0.090   1.062  0.8073  0.3824  0.9818
 4551SOL    HW225116   1.739   4.719   1.007  0.2173 -0.0535 -0.2145
 4552SOL     OW25117   0.352   0.776   2.092 -0.1195  0.3127  0.1367
 4552SOL    HW125118   0.313   0.798   2.007  0.2500 -1.0864 -0.4015
 4552SOL    HW225119   0.342   0.681   2.086 -0.0974  0.3551 -0.5659
 4553SOL     OW25120   0.422   0.369   2.024  0.4785 -0.3841 -0.3986
 4553SOL    HW125121   0.354   0.436   2.018  0.9829  0.1588 -0.0088
 4553SOL    HW225122   0.455   0.350   1.936 -1.0099 -0.0059 -1.0362
 4554SOL     OW25123   0.869   3.901  11.793 -0.2399  0.2060 -0.2594
 4554SOL    HW125124   0.908   3.973  11.744  1.0587 -0.4737 -0.2498
 4554SOL    HW225125   0.776   3.920  11.798 -0.1966  0.8608 -2.2625
 4555SOL     OW25126   2.264   3.596   5.982 -0.3547  0.2207 -0.1041
 4555SOL    HW125127   2.242   3.507   5.953 -1.9572  0.4015  0.5221
 4555SOL    HW225128   2.227   3.660   5.921  0.3311 -0.6720 -1.4461
 4556SOL     OW25129   3.772   1.468   9.392 -0.6612  0.4274 -0.4280
 4556SOL    HW125130   3.771   1.373   9.377 -0.2505  0.5134 -1.0382
 4556SOL    HW225131   3.776   1.491   9.299  1.4796  1.3704 -0.1060
 4557SOL     OW25132   0.658   2.148   0.415  0.1985  0.0822 -0.0970
 4557SOL    HW125133   0.583   2.149   0.474  0.0577  0.9364 -0.2874
 4557SOL    HW225134   0.728   2.133   0.479  1.6579 -1.9713 -2.1942
 4558SOL     OW25135   1.303   3.843   3.282  0.0571  0.3535 -0.2286
 4558SOL    HW125136   1.256   3.877   3.358 -0.8404 -3.4082  0.9039
 4558SOL    HW225137   1.390   3.874   3.307  0.0129 -1.3290  1.9917
 4559SOL     OW25138   1.226   2.354   3.396 -0.1902  0.0236  0.0535
 4559SOL    HW125139   1.280   2.426   3.428  0.1702 -0.3405  0.2592
 4559SOL    HW225140   1.228   2.373   3.302 -1.4984 -2.5524 -0.4897
 4560SOL     OW25141   4.698   2.199   5.600  0.4238 -0.3411 -0.1783
 4560SOL    HW125142   0.043   2.162   5.547  0.4941  1.9017 -1.6833
 4560SOL    HW225143   4.700   2.148   5.681  1.7979  0.0658  0.0507
 4561SOL     OW25144   4.212   2.250   2.391 -0.2202 -0.3155 -0.0079
 4561SOL    HW125145   4.181   2.305   2.463 -0.2256 -1.4555  0.8564
 4561SOL    HW225146   4.279   2.306   2.351 -0.0072 -0.2441  0.4470
 4562SOL     OW25147   2.693   3.253  11.352 -0.1447  0.3931 -0.1550
 4562SOL    HW125148   2.751   3.259  11.428 -1.1447  2.2395  0.4565
 4562SOL    HW225149   2.621   3.315  11.366 -1.7297 -1.3140 -0.7011
 4563SOL     OW25150   3.049   3.852   1.972 -0.6767 -0.0193  0.0022
 4563SOL    HW125151   3.108   3.803   1.916  1.7404  2.8880  0.0284
 4563SOL    HW225152   3.012   3.909   1.905 -1.1308  0.2021  0.4345
 4564SOL     OW25153   1.700   3.638   2.884 -0.2117 -0.5621  0.5840
 4564SOL    HW125154   1.663   3.568   2.830  0.0728 -0.1791 -0.1083
 4564SOL    HW225155   1.787   3.661   2.851 -0.0116  0.5808  1.8757
 4565SOL     OW25156   3.641   4.143  12.358  0.2181  0.6839 -0.1545
 4565SOL    HW125157   3.639   4.200  12.281 -0.4835  1.1574  0.2115
 4565SOL    HW225158   3.722   4.096  12.343 -0.6814 -0.3635 -1.7001
 4566SOL     OW25159   0.906   3.912   8.749  0.6351 -0.0153  0.3491
 4566SOL    HW125160   0.945   3.989   8.791 -2.1397  1.1469  0.8274
 4566SOL    HW225161   0.812   3.922   8.765  0.3377 -1.3887 -0.5636
 4567SOL     OW25162   0.832   2.009   5.326  0.9174  0.3128 -0.4425
 4567SOL    HW125163   0.892   2.009   5.400  0.2957  1.4775  0.0689
 4567SOL    HW225164   0.848   1.921   5.292 -0.5056  0.4577 -1.4826
 4568SOL     OW25165   4.555   4.267  16.599 -0.1695 -0.0388 -0.0687
 4568SOL    HW125166   4.567   4.320  16.520 -0.7806 -0.6402 -0.5614
 4568SOL    HW225167   4.557   4.344  16.657  0.4799 -0.4808  0.4951
 4569SOL     OW25168   0.710   2.913   0.059  0.1548  0.1051 -0.2871
 4569SOL    HW125169   0.648   2.842   0.074  2.7722 -2.2899 -0.9697
 4569SOL    HW225170   0.692   2.913  17.670  1.9840 -1.1410 -0.6290
 4570SOL     OW25171   2.144   0.557   5.155 -0.1593 -0.3556 -0.1093
 4570SOL    HW125172   2.099   0.636   5.185  0.4199 -0.1007  0.1036
 4570SOL    HW225173   2.205   0.592   5.089  0.5653 -0.3909  0.5383
 4571SOL     OW25174   4.719   2.306   6.742  0.0900  0.2177  0.0958
 4571SOL    HW125175   4.686   2.395   6.734 -1.4020 -0.2890  0.6371
 4571SOL    HW225176   0.073   2.306   6.796  0.2868  0.8603 -0.1990
 4572SOL     OW25177   3.250   1.952   3.847 -0.1128 -0.0110  0.6535
 4572SOL    HW125178   3.270   1.875   3.794  0.3886 -0.5214  1.5927
 4572SOL    HW225179   3.158   1.932   3.860 -0.2102 -0.4319 -0.6687
 4573SOL     OW25180   2.168   4.672   9.577  0.0655 -0.4131  0.1103
 4573SOL    HW125181   2.188   4.594   9.526 -1.6438 -0.2794 -0.7383
 4573SOL    HW225182   2.243   4.671   9.637  0.2260 -0.5245 -0.0929
 4574SOL     OW25183   0.205   3.454   3.876  0.8055  0.1238  0.1767
 4574SOL    HW125184   0.138   3.405   3.923 -0.1231  1.6891  0.4770
 4574SOL    HW225185   0.191   3.542   3.910 -1.8123  0.2987 -1.3491
 4575SOL     OW25186   2.220   1.388  13.895 -0.1463 -0.4601  0.5485
 4575SOL    HW125187   2.260   1.466  13.935  1.7566 -0.9129 -0.5048
 4575SOL    HW225188   2.248   1.401  13.805 -0.1148  0.7947  0.7404
 4576SOL     OW25189   0.017   2.605  11.204 -0.7312  0.3607  0.3723
 4576SOL    HW125190   0.057   2.655  11.132 -1.2785 -0.4334 -0.4898
 4576SOL    HW225191   0.094   2.551  11.225 -1.2966  0.0574  1.6431
 4577SOL     OW25192   2.847   4.536   7.827 -0.4917  0.0599  0.0655
 4577SOL    HW125193   2.786   4.568   7.894 -2.7675 -0.3825 -1.7919
 4577SOL    HW225194   2.817   4.446   7.814 -2.6683  0.5737  1.4559
 4578SOL     OW25195   1.609   4.598   4.927 -0.0456 -0.3058  0.7511
 4578SOL    HW125196   1.532   4.584   4.872  0.2073  0.4593  0.1887
 4578SOL    HW225197   1.590   4.547   5.005 -0.4794  1.6063  1.9043
 4579SOL     OW25198   3.228   3.649   4.196 -0.4136 -0.2337 -0.5540
 4579SOL    HW125199   3.219   3.673   4.288 -0.6155  0.7986 -0.8446
 4579SOL    HW225200   3.138   3.653   4.165 -0.4710  0.0551 -0.3491
 4580SOL     OW25201   1.912   0.220  11.445 -0.2163  0.1921  0.4456
 4580SOL    HW125202   1.923   0.171  11.527  1.0964 -0.1050  0.0916
 4580SOL    HW225203   1.831   0.269  11.460  0.2223  0.9045  0.4894
 4581SOL     OW25204   3.859   3.533  17.702 -0.1622  0.2613 -0.1299
 4581SOL    HW125205   3.907   3.455  17.675 -2.2841 -0.6723 -1.2495
 4581SOL    HW225206   3.899   3.556   0.081  0.6710 -1.5730 -0.0250
 4582SOL     OW25207   3.356   4.030  16.051  0.1928  0.2495  0.1830
 4582SOL    HW125208   3.385   4.109  16.005 -2.1793  2.0863  1.8927
 4582SOL    HW225209   3.325   4.065  16.135  1.5125 -1.6350  1.4576
 4583SOL     OW25210   3.913   1.167   9.376  0.2831 -0.1592  0.2182
 4583SOL    HW125211   3.899   1.161   9.471 -0.8759  3.0509  0.2556
 4583SOL    HW225212   3.971   1.092   9.365  1.5091  0.2962  3.2926
 4584SOL     OW25213   4.651   0.588   5.500  0.0038 -0.4710  0.2147
 4584SOL    HW125214   4.640   0.631   5.585  0.0525  0.4231 -0.2267
 4584SOL    HW225215   4.563   0.555   5.484 -0.1845  0.0889  0.1052
 4585SOL     OW25216   1.937   1.679   0.584  0.3485 -0.5604 -0.7133
 4585SOL    HW125217   1.865   1.742   0.578  2.8576  2.2862 -0.7216
 4585SOL    HW225218   2.013   1.736   0.574  2.1841 -3.0438 -0.9347
 4586SOL     OW25219   3.862   1.880   2.974 -0.4064  0.7217  0.0184
 4586SOL    HW125220   3.857   1.975   2.972  1.2418  0.8156  1.0734
 4586SOL    HW225221   3.927   1.852   2.909 -1.3543 -1.3583 -0.0615
 4587SOL     OW25222   4.202   4.400   6.664 -0.5432  0.1822 -0.1781
 4587SOL    HW125223   4.157   4.469   6.617 -0.8708 -0.3211 -0.6050
 4587SOL    HW225224   4.272   4.445   6.712  2.1447 -1.3153 -2.6904
 4588SOL     OW25225   1.174   2.481   5.363 -0.7118  0.3664 -0.3065
 4588SOL    HW125226   1.191   2.453   5.273 -0.1331 -2.2794  0.6174
 4588SOL    HW225227   1.078   2.483   5.355 -0.8703 -1.4262  1.0767
 4589SOL     OW25228   4.251   1.770   6.030  0.0699 -0.0865 -0.1807
 4589SOL    HW125229   4.261   1.853   6.077 -2.2278 -0.6131  1.2584
 4589SOL    HW225230   4.243   1.807   5.943  2.1997 -0.4704 -0.5269
 4590SOL     OW25231   0.618   4.589   2.445  0.2148 -0.2441  0.1940
 4590SOL    HW125232   0.547   4.578   2.382  0.5375  2.5979 -0.6662
 4590SOL    HW225233   0.561   4.603   2.521  0.2936 -0.5449  0.3109
 4591SOL     OW25234   0.566   0.216   8.093  0.5186 -0.3816 -0.1133
 4591SOL    HW125235   0.613   0.211   8.010  2.2525  0.5168  0.8121
 4591SOL    HW225236   0.640   0.195   8.151 -0.8126 -3.0358  0.6271
 4592SOL     OW25237   1.704   0.004   7.276 -0.3243  0.0914  0.8914
 4592SOL    HW125238   1.632   0.064   7.256 -0.2320  0.2390  0.9987
 4592SOL    HW225239   1.662   4.644   7.281  1.6329 -0.8557  0.9679
 4593SOL     OW25240   1.714   1.822   4.704  0.1308  0.5759  0.5179
 4593SOL    HW125241   1.780   1.795   4.640 -1.0921 -0.4044 -0.3462
 4593SOL    HW225242   1.639   1.767   4.681  0.6443  0.6574 -1.3376
 4594SOL     OW25243   4.606   3.260   5.383  0.2223  0.1964 -0.4582
 4594SOL    HW125244   4.681   3.256   5.323  0.4671  0.7919 -0.1929
 4594SOL    HW225245   4.649   3.277   5.467  1.4131 -1.8507 -0.6685
 4595SOL     OW25246   1.767   2.703   6.394  0.0963  0.0829  0.2681
 4595SOL    HW125247   1.680   2.675   6.368 -0.3473  3.4113 -1.9030
 4595SOL    HW225248   1.819   2.624   6.381 -1.8188 -1.1696  0.3732
 4596SOL     OW25249   0.743   0.384   7.287  0.2284 -0.1217 -0.4809
 4596SOL    HW125250   0.698   0.444   7.347 -1.4420 -2.5893  0.7252
 4596SOL    HW225251   0.836   0.399   7.304  0.5369 -0.8637 -1.5118
 4597SOL     OW25252   2.563   1.291   1.529 -0.5716  0.1682 -0.5326
 4597SOL    HW125253   2.492   1.347   1.558 -0.1084  1.7781 -2.5038
 4597SOL    HW225254   2.507   1.229   1.482 -1.3714 -1.2630  2.3197
 4598SOL     OW25255   4.221   3.951  12.253 -0.2744  0.2036 -0.2997
 4598SOL    HW125256   4.237   3.991  12.339 -1.8358 -2.7532  1.3772
 4598SOL    HW225257   4.212   3.858  12.275 -0.1930  0.4020  0.6014
 4599SOL     OW25258   1.370   3.090  14.855  0.5237  0.4900 -0.2000
 4599SOL    HW125259   1.407   3.178  14.864  1.0385  0.6087 -3.7309
 4599SOL    HW225260   1.370   3.086  14.760  2.1291  0.6430 -0.2101
 4600SOL     OW25261   0.701   1.335   7.398 -0.3942  0.2585  0.1972
 4600SOL    HW125262   0.711   1.248   7.435  1.0754  0.2325 -0.2378
 4600SOL    HW225263   0.664   1.377   7.475  1.8792  0.0539  1.4030
 4601SOL     OW25264   1.443   3.463   0.520 -0.2589  0.0012  0.4161
 4601SOL    HW125265   1.509   3.452   0.451 -0.6017  1.5519 -0.1453
 4601SOL    HW225266   1.360   3.439   0.479 -0.1307 -0.7121  0.5701
 4602SOL     OW25267   4.025   2.989   8.165  0.2083  0.1563 -0.4552
 4602SOL    HW125268   4.075   2.986   8.246  0.8101 -0.8453 -0.8625
 4602SOL    HW225269   3.998   3.081   8.166 -0.3852 -0.0301  0.4356
 4603SOL     OW25270   3.778   0.978  10.123  0.5909 -0.1814 -0.2334
 4603SOL    HW125271   3.863   1.015  10.099 -0.1179  1.0328 -0.8900
 4603SOL    HW225272   3.759   1.010  10.211 -0.3444 -1.3657 -0.0126
 4604SOL     OW25273   4.104   2.067   9.000  0.1384 -0.2322 -0.3704
 4604SOL    HW125274   4.079   2.064   9.092  0.6322 -1.9800 -0.2873
 4604SOL    HW225275   4.199   2.078   9.010  0.1633 -0.7320 -0.0593
 4605SOL     OW25276   1.600   0.566   3.498  0.1867 -0.3861 -0.5197
 4605SOL    HW125277   1.518   0.526   3.527 -0.5364  1.2746 -0.2577
 4605SOL    HW225278   1.613   0.522   3.414 -2.0305  2.8355 -2.5188
 4606SOL     OW25279   3.783   1.439   2.013  0.0149  0.5046  0.0203
 4606SOL    HW125280   3.870   1.461   2.044  0.0356  0.8369 -0.2674
 4606SOL    HW225281   3.733   1.520   2.003  0.3902  0.6630 -0.5860
 4607SOL     OW25282   0.491   2.447   8.958  0.5645 -0.6419 -0.0520
 4607SOL    HW125283   0.497   2.541   8.938 -3.3303 -0.2661  0.5375
 4607SOL    HW225284   0.415   2.437   9.016 -0.4550  1.4870 -1.0047
 4608SOL     OW25285   1.832   1.553   2.074 -0.0130 -0.3906  0.7087
 4608SOL    HW125286   1.888   1.486   2.113  2.4689  0.9705 -0.5002
 4608SOL    HW225287   1.757   1.550   2.134 -0.9033  1.0191 -0.3395
 4609SOL     OW25288   1.997   3.962   5.107 -0.6660 -0.5977 -0.2825
 4609SOL    HW125289   1.914   4.002   5.078 -0.1941 -0.7638 -1.8452
 4609SOL    HW225290   2.027   4.031   5.166 -1.0779 -1.1342  0.5574
 4610SOL     OW25291   2.820   1.197   8.946 -0.1447  0.2448  0.0158
 4610SOL    HW125292   2.801   1.260   9.016  1.3059  0.9841 -0.2340
 4610SOL    HW225293   2.870   1.256   8.889  0.3263  0.5872  0.7871
 4611SOL     OW25294   4.240   3.527   7.283  0.1203 -0.1380 -0.3641
 4611SOL    HW125295   4.152   3.523   7.319 -0.3849  0.9894 -1.4912
 4611SOL    HW225296   4.274   3.590   7.347  0.7224  1.8720 -2.6414
 4612SOL     OW25297   0.695   0.558   1.667 -0.4333 -0.0301 -0.5438
 4612SOL    HW125298   0.671   0.474   1.629 -0.3667  1.2052 -3.2680
 4612SOL    HW225299   0.722   0.541   1.758 -3.8497 -0.5317  0.3716
 4613SOL     OW25300   0.753   1.485   1.042 -0.0179  0.5071  0.5363
 4613SOL    HW125301   0.782   1.568   1.080  0.5263 -0.1245  1.4975
 4613SOL    HW225302   0.796   1.491   0.957 -1.5021 -0.4354 -0.2795
 4614SOL     OW25303   3.788   2.604   7.638 -0.0180  0.3921 -0.3424
 4614SOL    HW125304   3.860   2.569   7.585 -1.7616  0.8612 -3.0318
 4614SOL    HW225305   3.747   2.660   7.572  0.0607 -0.1214 -0.8313
 4615SOL     OW25306   2.651   0.521   3.818  0.7131  0.3419  0.0510
 4615SOL    HW125307   2.564   0.508   3.780  1.6617  0.8110 -2.3187
 4615SOL    HW225308   2.713   0.532   3.746  2.0750 -0.8333  1.0555
 4616SOL     OW25309   3.798   3.107   1.687  0.2144 -0.8578 -0.0993
 4616SOL    HW125310   3.765   3.193   1.661 -0.9634 -1.2754  0.0418
 4616SOL    HW225311   3.874   3.104   1.628 -1.2935  0.0377 -2.0606
 4617SOL     OW25312   0.401   4.104   7.387 -0.7849  0.1821  0.2443
 4617SOL    HW125313   0.347   4.121   7.310  1.8774 -2.2722 -2.1172
 4617SOL    HW225314   0.324   4.077   7.437 -1.0297  3.3975  1.6412
 4618SOL     OW25315   1.794   1.659   9.040 -0.7173 -0.3360 -0.2973
 4618SOL    HW125316   1.707   1.634   9.009 -0.4944  0.9686 -1.9830
 4618SOL    HW225317   1.840   1.575   9.027 -1.4199 -0.5579 -1.3387
 4619SOL     OW25318   0.387   0.369   9.141 -0.1541  0.1295 -0.3366
 4619SOL    HW125319   0.366   0.281   9.170 -1.1385  1.0634  1.7869
 4619SOL    HW225320   0.351   0.427   9.208 -1.4381  1.0911 -1.8324
 4620SOL     OW25321   2.047   1.068   7.615 -0.0534  0.7426  0.0569
 4620SOL    HW125322   2.078   1.047   7.527 -0.9011  1.6840 -0.4525
 4620SOL    HW225323   2.128   1.050   7.663  0.0515  0.0490 -0.3770
 4621SOL     OW25324   2.178   2.121  16.398  0.1155 -0.3114  0.2458
 4621SOL    HW125325   2.270   2.104  16.415  0.2640  1.4882  1.1437
 4621SOL    HW225326   2.162   2.186  16.466  1.3567  0.1625  0.0707
 4622SOL     OW25327   0.603   1.847  11.148 -0.1271  0.5799 -0.3464
 4622SOL    HW125328   0.617   1.752  11.140  0.4411  0.5898  0.5392
 4622SOL    HW225329   0.682   1.869  11.197  0.5410  1.9705 -2.0679
 4623SOL     OW25330   3.961   4.513   3.195  0.0448  0.1720 -0.2636
 4623SOL    HW125331   3.936   4.573   3.265  1.4825  0.0542  0.3507
 4623SOL    HW225332   3.924   4.428   3.219 -0.8467  0.1178 -1.8228
 4624SOL     OW25333   1.737   2.434   1.886  1.0678 -0.6387  0.0485
 4624SOL    HW125334   1.806   2.370   1.904  0.6078 -0.9148  0.8436
 4624SOL    HW225335   1.660   2.394   1.847 -0.6900  1.6655  1.1865
 4625SOL     OW25336   4.575   1.410   4.461  0.1042  0.1711 -0.4822
 4625SOL    HW125337   4.614   1.408   4.374  1.9143  1.2505  0.3198
 4625SOL    HW225338   4.649   1.394   4.520 -0.6728 -2.7798 -0.2865
 4626SOL     OW25339   3.825   3.830   3.264 -0.2605  0.2548 -0.3848
 4626SOL    HW125340   3.917   3.807   3.265 -0.5873 -0.8821  1.7646
 4626SOL    HW225341   3.819   3.907   3.320  0.1698  0.6299 -0.8506
 4627SOL     OW25342   1.709   2.272   7.353  0.0952  0.2469  0.5285
 4627SOL    HW125343   1.692   2.181   7.378 -0.3615  0.3477  0.5951
 4627SOL    HW225344   1.665   2.275   7.268  0.2809  2.0796  0.4884
 4628SOL     OW25345   3.504   4.037   5.607  0.2053 -0.4503  0.5413
 4628SOL    HW125346   3.448   4.039   5.530 -0.6175  4.7682  1.2597
 4628SOL    HW225347   3.579   4.091   5.581 -1.0665 -0.7350 -3.6925
 4629SOL     OW25348   3.466   1.091   9.932 -0.1668 -0.2011  0.2916
 4629SOL    HW125349   3.386   1.129   9.968 -1.6721 -1.0957 -2.1313
 4629SOL    HW225350   3.452   1.001   9.964 -1.9107 -0.5552 -1.4851
 4630SOL     OW25351   4.632   3.546  16.578  0.1660  0.3629 -0.0290
 4630SOL    HW125352   4.695   3.559  16.508 -0.4016  2.8927 -0.0705
 4630SOL    HW225353   4.549   3.575  16.538 -0.1682 -0.7934 -0.1697
 4631SOL     OW25354   1.008   0.263   7.107  0.4133  0.2247 -0.8017
 4631SOL    HW125355   1.048   0.347   7.083  0.9528  0.7128  1.8545
 4631SOL    HW225356   0.959   0.247   7.025 -2.9192 -0.4068  1.3012
 4632SOL     OW25357   4.560   3.004  14.863 -0.0476  0.4390 -0.4854
 4632SOL    HW125358   4.495   2.981  14.930  0.4394 -0.0293 -0.1833
 4632SOL    HW225359   4.526   3.089  14.835 -2.8145 -0.1253  1.1368
 4633SOL     OW25360   4.155   4.222   3.346 -0.2306  0.1284  0.3119
 4633SOL    HW125361   4.105   4.283   3.400 -0.2208  0.2435  0.1931
 4633SOL    HW225362   4.169   4.150   3.407 -2.2429 -1.2194 -0.7905
 4634SOL     OW25363   1.394   2.055   0.147 -0.6236 -0.2488 -0.4773
 4634SOL    HW125364   1.405   2.032   0.055 -0.3893 -1.9598 -0.0151
 4634SOL    HW225365   1.338   1.987   0.185 -2.9948 -0.0214 -3.5431
 4635SOL     OW25366   1.723   3.428   8.717  0.1709 -0.0793 -0.1559
 4635SOL    HW125367   1.748   3.339   8.692 -0.3674  0.3129 -2.1437
 4635SOL    HW225368   1.702   3.416   8.809  0.8214  1.3845  0.1904
 4636SOL     OW25369   1.676   0.174  12.573  0.2794  0.1475  0.0830
 4636SOL    HW125370   1.726   0.226  12.510  1.6672 -1.6350 -0.3027
 4636SOL    HW225371   1.596   0.147  12.529  0.3306 -0.3562  0.2984
 4637SOL     OW25372   0.161   1.168  10.553  0.3520  0.7974 -0.4815
 4637SOL    HW125373   0.228   1.109  10.585 -0.9508 -0.6861 -0.4977
 4637SOL    HW225374   0.084   1.143  10.604  1.2810 -0.2829  0.3621
 4638SOL     OW25375   3.704   3.122   1.273  0.0868  0.0299 -0.3259
 4638SOL    HW125376   3.690   3.216   1.277  0.2039  0.1129 -2.1946
 4638SOL    HW225377   3.623   3.089   1.311 -0.8211  0.4627 -1.9168
 4639SOL     OW25378   3.348   3.417   4.390  0.2678  0.3802  0.8964
 4639SOL    HW125379   3.256   3.408   4.414  0.4534 -0.9906  1.0809
 4639SOL    HW225380   3.344   3.510   4.370 -3.0770 -0.2492 -1.3874
 4640SOL     OW25381   2.608   4.133   7.064  0.4492  0.0470  0.4284
 4640SOL    HW125382   2.633   4.041   7.063 -0.5256 -0.2260  1.0003
 4640SOL    HW225383   2.517   4.116   7.086  0.7366 -2.4833 -0.3892
 4641SOL     OW25384   3.572   1.659  17.073 -0.3482  0.1352 -0.3954
 4641SOL    HW125385   3.607   1.572  17.093  0.9356  0.7942  0.1962
 4641SOL    HW225386   3.643   1.687  17.016 -2.9720  2.7671 -2.4320
 4642SOL     OW25387   2.395   1.570  13.303  0.0724 -0.0774  0.6827
 4642SOL    HW125388   2.460   1.640  13.299 -0.2917  0.1570 -1.1428
 4642SOL    HW225389   2.412   1.543  13.393  1.9467 -0.9097  0.0689
 4643SOL     OW25390   2.616   4.163   8.512  0.7453 -0.0291 -0.5021
 4643SOL    HW125391   2.663   4.095   8.465 -0.6967 -0.8146 -0.8060
 4643SOL    HW225392   2.690   4.220   8.535  1.2985 -0.3992 -1.3851
 4644SOL     OW25393   3.998   2.800   3.639 -0.5224  0.7041 -0.0748
 4644SOL    HW125394   4.071   2.751   3.677  0.0048  2.0953  0.7100
 4644SOL    HW225395   4.031   2.886   3.665 -0.8113  0.7079  0.2691
 4645SOL     OW25396   0.717   1.045   7.508 -0.5732  0.6278  0.5527
 4645SOL    HW125397   0.746   1.030   7.418 -1.2248 -3.2735  1.0138
 4645SOL    HW225398   0.794   1.020   7.560  0.4762 -0.3668 -1.5058
 4646SOL     OW25399   0.986   2.004   4.286  0.0662  0.3727  0.1432
 4646SOL    HW125400   0.999   1.913   4.313  2.1368  0.3568 -0.8641
 4646SOL    HW225401   1.057   2.013   4.223  0.2134 -0.4514  0.1895
 4647SOL     OW25402   3.289   3.972   9.838  0.0699 -0.2328  0.1100
 4647SOL    HW125403   3.257   3.907   9.900 -0.3819  0.9259  1.0943
 4647SOL    HW225404   3.376   3.985   9.874  0.0875 -1.4680  0.5252
 4648SOL     OW25405   0.331   3.375   1.471  0.1699  0.3723 -0.1133
 4648SOL    HW125406   0.294   3.426   1.398  1.7849 -0.1594 -1.3095
 4648SOL    HW225407   0.255   3.357   1.527  0.7615 -1.6322  0.0333
 4649SOL     OW25408   0.769   0.773   1.537 -0.0718  0.2368  0.3632
 4649SOL    HW125409   0.834   0.720   1.490 -0.0074  1.6053 -1.0756
 4649SOL    HW225410   0.723   0.722   1.603 -0.5434 -0.0335 -0.1773
 4650SOL     OW25411   0.275   1.431   0.968 -0.3002  0.2675  0.6667
 4650SOL    HW125412   0.247   1.509   1.016  2.1906  2.1829 -1.0433
 4650SOL    HW225413   0.359   1.448   0.926  0.1644 -0.9668  1.0854
 4651SOL     OW25414   0.294   3.425  15.448 -0.1590  0.2438  0.2362
 4651SOL    HW125415   0.362   3.492  15.461 -0.4959  0.6866 -0.2922
 4651SOL    HW225416   0.351   3.359  15.409 -1.1253 -0.5185  0.1422
 4652SOL     OW25417   3.891   3.096   0.629  0.4804  0.2907 -0.3887
 4652SOL    HW125418   3.834   3.080   0.704  2.6394 -1.0787  0.9828
 4652SOL    HW225419   3.851   3.046   0.558 -0.5208  0.3484  0.1359
 4653SOL     OW25420   3.713   0.550   3.870  0.4112  0.8804 -0.0864
 4653SOL    HW125421   3.662   0.477   3.905  1.5072  0.0374 -0.2539
 4653SOL    HW225422   3.802   0.523   3.889  0.2759  1.4060  1.3111
 4654SOL     OW25423   1.156   4.583   9.197  0.8398 -0.2267 -0.3923
 4654SOL    HW125424   1.116   4.496   9.191  2.8037 -1.2632  1.5432
 4654SOL    HW225425   1.230   4.557   9.252  0.9520  1.3169  0.1904
 4655SOL     OW25426   4.686   3.602   3.403  0.1762  0.0932 -0.2936
 4655SOL    HW125427   4.710   3.539   3.470  0.5673  0.9306  0.3572
 4655SOL    HW225428   0.010   3.561   3.332  1.0329  0.8838 -0.1479
 4656SOL     OW25429   3.766   1.988  10.795  0.2711 -0.3821 -0.4090
 4656SOL    HW125430   3.852   1.966  10.758 -0.5042 -0.6081 -2.0933
 4656SOL    HW225431   3.788   1.988  10.888 -2.6461 -0.9347  0.2548
 4657SOL     OW25432   0.399   4.495   1.726  0.3175 -0.0581  0.0601
 4657SOL    HW125433   0.431   4.585   1.735 -0.0322 -0.1781  2.3921
 4657SOL    HW225434   0.478   4.455   1.688 -0.4778 -0.8487 -0.7445
 4658SOL     OW25435   2.083   4.705   0.781 -0.0498 -0.4796 -0.5099
 4658SOL    HW125436   2.015   4.646   0.749 -0.6484  0.6188 -1.2486
 4658SOL    HW225437   2.092   4.675   0.872 -1.4041 -0.9044 -0.5103
 4659SOL     OW25438   1.850   2.721   5.985 -0.2602  0.4956  0.2634
 4659SOL    HW125439   1.896   2.757   6.061  0.0712  0.7524 -0.0620
 4659SOL    HW225440   1.806   2.644   6.022 -2.3654  1.6295  0.1203
 4660SOL     OW25441   4.632   0.441   2.976 -0.2106  0.3369 -0.2740
 4660SOL    HW125442   4.567   0.376   2.953 -0.3921  0.5495 -0.3563
 4660SOL    HW225443   4.583   0.523   2.982  0.2127  0.7361 -2.4040
 4661SOL     OW25444   2.846   3.221   9.538  0.2239  0.2782  0.6599
 4661SOL    HW125445   2.922   3.215   9.596  2.4509 -2.3134 -2.5061
 4661SOL    HW225446   2.857   3.140   9.488  0.9317 -1.0757  3.0280
 4662SOL     OW25447   4.149   1.748   0.097 -0.0251 -0.1082  0.5601
 4662SOL    HW125448   4.230   1.789   0.128  1.0827  0.4923 -3.1248
 4662SOL    HW225449   4.124   1.706   0.179 -2.6394 -0.2292 -0.2966
 4663SOL     OW25450   3.968   3.183   7.687  0.5699  0.1072 -0.3434
 4663SOL    HW125451   3.906   3.195   7.760  1.0595  0.6476 -0.0225
 4663SOL    HW225452   3.998   3.094   7.708  0.6029  0.0823 -0.5004
 4664SOL     OW25453   0.118   2.544  16.435 -0.8010  0.7166 -0.0956
 4664SOL    HW125454   0.168   2.478  16.387  1.4619 -0.2800  3.6147
 4664SOL    HW225455   0.063   2.575  16.363 -1.6420 -0.0139  0.2441
 4665SOL     OW25456   4.599   3.347   6.277 -0.1809  0.1551 -0.3021
 4665SOL    HW125457   4.509   3.343   6.246  0.0804 -1.3868 -0.8798
 4665SOL    HW225458   4.581   3.390   6.361  1.0342  1.7333 -0.8598
 4666SOL     OW25459   0.444   2.797   6.357  0.2030  0.1886 -0.6652
 4666SOL    HW125460   0.388   2.783   6.280 -0.0827 -2.7788  0.0565
 4666SOL    HW225461   0.424   2.889   6.374 -1.8063 -0.6934  1.7141
 4667SOL     OW25462   2.409   1.738   1.226 -0.5573  0.1455  0.7025
 4667SOL    HW125463   2.470   1.745   1.153 -1.1230 -2.0784  0.0121
 4667SOL    HW225464   2.463   1.682   1.281 -1.0352  0.6400  1.6828
 4668SOL     OW25465   2.672   2.141   1.424 -0.2417  0.1721 -0.6136
 4668SOL    HW125466   2.587   2.120   1.462 -0.3111 -0.6110 -1.2022
 4668SOL    HW225467   2.724   2.145   1.504  0.8796  1.1628 -1.3897
 4669SOL     OW25468   3.122   2.956   2.062  0.0359 -0.9622  0.5164
 4669SOL    HW125469   3.200   2.936   2.113  1.2900  1.4637 -0.4633
 4669SOL    HW225470   3.069   2.941   2.140 -0.1454 -2.3049  0.1415
 4670SOL     OW25471   2.217   3.235  13.955  0.2682 -0.5193 -0.0479
 4670SOL    HW125472   2.189   3.293  14.026  2.1551  0.9877 -0.5137
 4670SOL    HW225473   2.307   3.264  13.939 -0.4875  2.1429  0.5129
 4671SOL     OW25474   3.962   2.652   2.096 -0.1330 -0.4318 -0.1586
 4671SOL    HW125475   4.020   2.716   2.136  1.2831 -1.8613  0.0746
 4671SOL    HW225476   3.877   2.666   2.139  0.5985  0.3119  1.0488
 4672SOL     OW25477   3.173   0.675  13.576 -0.2072  0.1809 -0.0126
 4672SOL    HW125478   3.077   0.679  13.576 -0.2451 -0.7652 -0.2160
 4672SOL    HW225479   3.190   0.743  13.511  2.7836 -1.1073 -0.5760
 4673SOL     OW25480   3.378   0.908   2.057  0.1508 -0.1434 -0.1245
 4673SOL    HW125481   3.425   0.983   2.022 -0.7733 -0.6234 -2.3524
 4673SOL    HW225482   3.290   0.918   2.022  0.6371  0.9253 -1.0177
 4674SOL     OW25483   1.355   4.133   4.950 -0.2766  0.3473 -0.0854
 4674SOL    HW125484   1.324   4.080   4.877 -0.1053 -1.1900  0.9654
 4674SOL    HW225485   1.281   4.132   5.011  0.1916 -0.4359  0.4655
 4675SOL     OW25486   3.662   2.496   9.988 -0.5987 -0.2773 -0.7178
 4675SOL    HW125487   3.654   2.533  10.076 -2.0579 -2.8638  0.2172
 4675SOL    HW225488   3.676   2.404  10.012  1.2526  0.3377  0.5716
 4676SOL     OW25489   3.357   1.345   6.526 -0.1935  0.4803 -0.5532
 4676SOL    HW125490   3.367   1.252   6.547 -2.3216  0.6573  1.2004
 4676SOL    HW225491   3.295   1.343   6.453 -0.7291 -2.5921 -0.0456
 4677SOL     OW25492   2.446   2.264   3.407 -0.3987  0.5228 -0.2338
 4677SOL    HW125493   2.415   2.247   3.496  0.0175 -0.0581 -0.1960
 4677SOL    HW225494   2.529   2.306   3.432 -1.3687  2.4076 -0.1534
 4678SOL     OW25495   3.668   1.366  13.900 -0.2855  0.1445  0.1059
 4678SOL    HW125496   3.595   1.419  13.868 -1.5444 -0.9247  1.1717
 4678SOL    HW225497   3.703   1.332  13.817  2.9532  2.5259  0.4913
 4679SOL     OW25498   0.203   1.847  17.575 -0.3839  0.0835 -0.3397
 4679SOL    HW125499   0.293   1.861  17.546  1.1194 -3.3651  2.5862
 4679SOL    HW225500   0.212   1.877  17.666  1.0619 -1.7740  0.1358
 4680SOL     OW25501   2.651   2.316   8.536 -0.3695  0.1498  0.4462
 4680SOL    HW125502   2.708   2.239   8.535  0.1510  0.5199  1.6599
 4680SOL    HW225503   2.703   2.364   8.600  1.6300  1.2074 -1.9575
 4681SOL     OW25504   1.542   0.852  15.245 -0.4481  0.8512  0.1431
 4681SOL    HW125505   1.454   0.877  15.274  0.6482  2.6111  1.9545
 4681SOL    HW225506   1.560   0.903  15.166  1.7679 -0.3381 -0.1377
 4682SOL     OW25507   3.554   4.549   7.436  0.0376 -0.5106 -0.8615
 4682SOL    HW125508   3.620   4.572   7.502 -0.0448 -1.2355 -0.5280
 4682SOL    HW225509   3.472   4.562   7.484 -0.9098  1.2477 -2.9616
 4683SOL     OW25510   2.190   3.280  10.426  0.3090  0.0123  0.5043
 4683SOL    HW125511   2.123   3.222  10.391  0.5077 -0.4831  0.9482
 4683SOL    HW225512   2.133   3.352  10.453 -0.1223 -0.6965  1.4686
 4684SOL     OW25513   4.539   4.199  10.054 -0.5639  0.1901 -0.3227
 4684SOL    HW125514   4.513   4.112  10.084 -1.1346  0.1470 -0.9541
 4684SOL    HW225515   4.458   4.231  10.014 -0.1065 -0.4146 -1.7255
 4685SOL     OW25516   3.506   2.547   4.157 -0.6409  0.1351  0.4115
 4685SOL    HW125517   3.557   2.625   4.134 -1.0881  0.6291  1.1136
 4685SOL    HW225518   3.488   2.518   4.067 -0.0882 -0.0549  0.3615
 4686SOL     OW25519   1.612   4.176   7.799 -0.4439  0.0799 -0.3712
 4686SOL    HW125520   1.640   4.202   7.887 -0.4667  2.3494 -1.0255
 4686SOL    HW225521   1.694   4.151   7.757  0.0729  0.5643  0.3497
 4687SOL     OW25522   2.017   4.502  13.114 -0.0863 -0.1421 -0.9652
 4687SOL    HW125523   1.969   4.481  13.194  0.8157 -1.7872 -0.8540
 4687SOL    HW225524   2.010   4.597  13.111 -1.7744 -0.1939  1.5369
 4688SOL     OW25525   2.213   3.966   9.490 -0.4833  0.0408 -0.3068
 4688SOL    HW125526   2.133   4.017   9.492  0.0188  0.8194 -0.1230
 4688SOL    HW225527   2.178   3.912   9.419  0.1288 -0.9730  0.1554
 4689SOL     OW25528   0.808   1.560   6.011 -0.0292  0.1018  0.2563
 4689SOL    HW125529   0.856   1.634   6.048  0.5020 -1.9384  3.6631
 4689SOL    HW225530   0.818   1.498   6.084 -0.8740 -1.4038 -0.9087
 4690SOL     OW25531   1.198   2.621   4.905 -0.4044 -0.3329 -0.3514
 4690SOL    HW125532   1.139   2.692   4.931  2.3769  1.2019  1.7711
 4690SOL    HW225533   1.165   2.591   4.821 -0.5531 -1.0935 -0.0174
 4691SOL     OW25534   2.773   4.340   1.391 -0.0124  0.3459 -0.0083
 4691SOL    HW125535   2.805   4.291   1.315 -2.0195 -1.1772  0.1185
 4691SOL    HW225536   2.767   4.424   1.346  1.6385  0.6151  0.2738
 4692SOL     OW25537   3.554   4.350   2.173 -0.4597  0.1331  0.4775
 4692SOL    HW125538   3.488   4.322   2.237 -0.7850  1.0406  0.5436
 4692SOL    HW225539   3.582   4.437   2.202 -0.5091 -0.1525  1.4037
 4693SOL     OW25540   0.983   0.250  13.561  0.4865 -0.3730  0.1954
 4693SOL    HW125541   0.901   0.259  13.609  0.5762 -3.4461  0.9440
 4693SOL    HW225542   1.020   0.168  13.593  0.8651 -0.4236 -0.3602
 4694SOL     OW25543   1.327   4.217   9.586  0.6975 -0.5165 -0.3718
 4694SOL    HW125544   1.297   4.291   9.533 -0.6997 -0.7681  0.0647
 4694SOL    HW225545   1.416   4.249   9.595  1.1022 -1.7454  0.0930
 4695SOL     OW25546   1.786   4.701  14.063 -0.0227 -0.3824 -0.1487
 4695SOL    HW125547   1.785   4.641  14.137 -0.3004  0.5628  0.6281
 4695SOL    HW225548   1.736   0.051  14.095  3.2894  1.0924  1.5073
 4696SOL     OW25549   0.816   3.574  11.435  0.1132 -0.1283  0.4256
 4696SOL    HW125550   0.855   3.495  11.472 -0.4328 -0.3647  0.5006
 4696SOL    HW225551   0.783   3.534  11.354  3.0246  1.3914 -1.5027
 4697SOL     OW25552   1.596   4.484  10.202  0.2140 -0.4739  0.1246
 4697SOL    HW125553   1.531   4.553  10.212 -2.3158 -2.6201 -1.3748
 4697SOL    HW225554   1.646   4.491  10.283  0.7070  2.1495 -0.4279
 4698SOL     OW25555   1.218   3.841  16.695 -0.1088  0.5410  0.6896
 4698SOL    HW125556   1.231   3.867  16.787 -1.4604  0.0045  1.0357
 4698SOL    HW225557   1.123   3.835  16.688  0.0269 -1.2703  0.4894
 4699SOL     OW25558   3.419   3.880   1.647  1.1249  0.1536 -0.4040
 4699SOL    HW125559   3.417   3.895   1.742  0.3779  0.2131 -0.4264
 4699SOL    HW225560   3.369   3.954   1.612 -1.0607 -2.3786 -2.6202
 4700SOL     OW25561   3.965   1.040  13.503 -0.0160  0.1885  0.1708
 4700SOL    HW125562   3.908   1.045  13.427  0.7233 -2.1290 -0.5451
 4700SOL    HW225563   4.016   1.119  13.489 -0.2661  0.4248  0.5833
 4701SOL     OW25564   4.633   1.370   3.194  0.5152  0.7798  0.2873
 4701SOL    HW125565   4.600   1.459   3.179 -2.3096 -0.2557  0.2649
 4701SOL    HW225566   4.565   1.335   3.253  1.8774  1.4097  2.2264
 4702SOL     OW25567   2.618   3.937  12.056 -0.4378  0.0289  0.0736
 4702SOL    HW125568   2.637   4.008  12.117  2.0394  0.6716 -1.4662
 4702SOL    HW225569   2.709   3.907  12.047 -0.4339 -0.4444  1.5544
 4703SOL     OW25570   3.281   3.485  11.805 -0.0461  0.1511 -0.2088
 4703SOL    HW125571   3.307   3.577  11.815  2.7781 -0.4579 -1.7994
 4703SOL    HW225572   3.241   3.479  11.719 -0.2829  0.3620 -0.1148
 4704SOL     OW25573   2.245   3.296  15.600  0.3211  0.2412 -0.8067
 4704SOL    HW125574   2.190   3.334  15.670 -1.1934 -0.5530 -1.5640
 4704SOL    HW225575   2.329   3.318  15.641 -0.8512  1.3796  1.0078
 4705SOL     OW25576   2.857   1.014   8.730 -0.4687  0.3758 -0.3376
 4705SOL    HW125577   2.826   1.077   8.795  0.8045  0.0150  0.5940
 4705SOL    HW225578   2.947   1.045   8.720 -1.1857  1.7580 -2.5779
 4706SOL     OW25579   3.211   3.648   5.654  0.0405 -0.1263  0.6553
 4706SOL    HW125580   3.257   3.629   5.736  0.7705 -3.4540 -0.5491
 4706SOL    HW225581   3.141   3.585   5.643  0.6563 -0.8167  0.6992
 4707SOL     OW25582   2.390   3.364   0.887 -0.1542 -0.1018  0.4406
 4707SOL    HW125583   2.461   3.384   0.948  0.2072 -0.9624  0.3121
 4707SOL    HW225584   2.321   3.331   0.945 -2.1818  1.8471 -0.8640
 4708SOL     OW25585   3.453   2.880  14.122 -0.0714  0.3933  0.5375
 4708SOL    HW125586   3.525   2.878  14.185  1.6250  1.1235 -1.3648
 4708SOL    HW225587   3.379   2.902  14.179 -1.7040  1.5285 -1.9898
 4709SOL     OW25588   0.235   1.027   9.437  0.0907  0.0198 -0.3170
 4709SOL    HW125589   0.149   1.041   9.475 -0.1124 -0.8704 -0.4398
 4709SOL    HW225590   0.265   0.954   9.491  0.9489  0.6453  0.0404
 4710SOL     OW25591   2.878   3.706  13.556  0.1428 -0.0517  0.0916
 4710SOL    HW125592   2.902   3.789  13.513  1.5927 -0.5865 -0.1436
 4710SOL    HW225593   2.912   3.649  13.487  1.0991 -0.0944  0.6024
 4711SOL     OW25594   2.887   4.637   4.698 -0.0003  0.0082 -0.3259
 4711SOL    HW125595   2.843   4.608   4.778  1.6348  0.2793  0.6642
 4711SOL    HW225596   2.877   0.005   4.710  2.7264  0.4712 -1.6662
 4712SOL     OW25597   3.090   1.251  13.879 -0.6011 -0.4174  0.2514
 4712SOL    HW125598   3.180   1.227  13.859 -1.3475 -1.7865 -1.3867
 4712SOL    HW225599   3.052   1.271  13.794 -0.4823  1.8392  0.7167
 4713SOL     OW25600   3.523   3.240   9.805  0.0969  0.4308 -0.0422
 4713SOL    HW125601   3.608   3.196   9.795  0.4271  1.0356  0.1173
 4713SOL    HW225602   3.525   3.295   9.728 -0.4157 -0.4223 -0.6693
 4714SOL     OW25603   0.034   4.583   5.041 -0.2750  0.0465  0.5848
 4714SOL    HW125604   0.019   4.639   4.965 -0.4571 -0.7014  0.0702
 4714SOL    HW225605   0.101   4.633   5.089  1.2006 -2.8231  1.4865
 4715SOL     OW25606   0.068   0.745   3.704  0.7140 -0.0368 -0.2265
 4715SOL    HW125607   0.105   0.794   3.777  0.4736  0.1485 -0.2270
 4715SOL    HW225608   0.145   0.733   3.649  1.3560  0.7906  0.4926
 4716SOL     OW25609   1.475   0.014   8.545  0.5564 -0.2010  0.2278
 4716SOL    HW125610   1.488   0.080   8.477  0.0408 -0.9680 -0.6246
 4716SOL    HW225611   1.385   4.719   8.520  0.4874 -0.8335  0.9965
 4717SOL     OW25612   1.798   4.096   1.057 -0.1794 -0.3831  0.8451
 4717SOL    HW125613   1.711   4.105   1.095 -0.4451 -0.3661  0.2404
 4717SOL    HW225614   1.783   4.025   0.995 -1.3122 -0.1893  0.9068
 4718SOL     OW25615   0.622   0.356   6.375 -0.6730  0.1420 -0.1039
 4718SOL    HW125616   0.717   0.367   6.373 -0.3483 -2.5333  0.2761
 4718SOL    HW225617   0.599   0.394   6.291 -1.5216 -0.3640 -0.1007
 4719SOL     OW25618   3.136   2.199   8.332  0.1749  0.2942  0.1536
 4719SOL    HW125619   3.195   2.176   8.259  0.2949 -2.1392  1.0001
 4719SOL    HW225620   3.106   2.287   8.311  0.1830  0.4657  0.8550
 4720SOL     OW25621   4.404   2.943   1.737 -0.0860  0.4584  0.0884
 4720SOL    HW125622   4.468   2.898   1.791  0.6758 -0.7466 -1.8242
 4720SOL    HW225623   4.337   2.975   1.798 -0.3931  1.7831 -0.9468
 4721SOL     OW25624   3.142   2.752   8.715  0.3521 -0.9027 -0.2893
 4721SOL    HW125625   3.217   2.704   8.749  1.5990 -0.8134 -2.8850
 4721SOL    HW225626   3.173   2.842   8.709 -1.5912 -0.3150 -1.8042
 4722SOL     OW25627   3.008   4.126   7.116  0.4915  0.0085 -0.7008
 4722SOL    HW125628   3.080   4.181   7.146  0.1378 -0.2434  0.6197
 4722SOL    HW225629   3.057   4.048   7.090 -2.4092 -1.5650 -1.4994
 4723SOL     OW25630   0.304   0.367   7.235  0.2745 -0.0952  0.1999
 4723SOL    HW125631   0.280   0.336   7.322  0.8658  1.0215  0.7551
 4723SOL    HW225632   0.225   0.385   7.184  0.3424 -0.4164 -0.0240
 4724SOL     OW25633   3.783   0.593   8.049 -0.0164 -0.7018 -0.5586
 4724SOL    HW125634   3.749   0.564   8.134  0.1494  0.4017 -0.1154
 4724SOL    HW225635   3.810   0.682   8.073  0.3958 -1.4084  1.6183
 4725SOL     OW25636   3.455   2.630   1.466  0.5429  0.4125  0.6972
 4725SOL    HW125637   3.450   2.542   1.504  0.8284  0.0852 -0.0109
 4725SOL    HW225638   3.363   2.656   1.459 -0.0645 -0.9308  3.9575
 4726SOL     OW25639   4.169   3.043   0.640 -0.7240  0.2858 -0.2440
 4726SOL    HW125640   4.082   3.073   0.614 -1.2861 -1.9324 -0.8944
 4726SOL    HW225641   4.145   2.997   0.720  0.8348 -0.7449 -0.3550
 4727SOL     OW25642   1.626   0.953   3.040  0.5787  0.5809 -0.5215
 4727SOL    HW125643   1.628   0.857   3.043 -0.5107  0.6205  2.3322
 4727SOL    HW225644   1.567   0.958   2.965 -0.4352  0.0180  0.2364
 4728SOL     OW25645   1.596   3.895   3.287  0.3639 -0.8765  0.2280
 4728SOL    HW125646   1.666   3.868   3.227  0.4724 -1.9741  0.8683
 4728SOL    HW225647   1.571   3.978   3.246 -0.4251 -1.4609 -0.4649
 4729SOL     OW25648   4.147   2.722  17.643 -0.7547 -0.0274  0.2396
 4729SOL    HW125649   4.182   2.634  17.657 -1.3227 -0.2070  0.5530
 4729SOL    HW225650   4.180   2.769   0.015 -0.2084 -0.9384  0.5632
 4730SOL     OW25651   0.392   3.793   4.818 -0.6350 -0.4356  0.3183
 4730SOL    HW125652   0.341   3.817   4.896 -0.7882  1.0931 -0.2623
 4730SOL    HW225653   0.320   3.779   4.756 -1.7043 -0.2103  1.4938
 4731SOL     OW25654   2.607   3.590   8.622  0.1224  0.1290  0.5051
 4731SOL    HW125655   2.633   3.509   8.666  0.3351  0.3738  0.8306
 4731SOL    HW225656   2.603   3.644   8.702  1.8832  2.3552 -0.9110
 4732SOL     OW25657   3.319   0.630  12.631 -0.2980 -0.1736 -0.1077
 4732SOL    HW125658   3.325   0.724  12.649  2.8350  0.0560 -2.2896
 4732SOL    HW225659   3.382   0.622  12.559 -1.0643  4.8446 -1.3301
 4733SOL     OW25660   1.502   3.825   6.287  0.3134  0.3079 -0.2733
 4733SOL    HW125661   1.585   3.780   6.278 -0.8728 -1.7680 -0.7307
 4733SOL    HW225662   1.440   3.753   6.290  0.0787  0.4956 -0.5358
 4734SOL     OW25663   3.705   2.268   8.677 -0.5074 -0.1213 -0.1839
 4734SOL    HW125664   3.683   2.207   8.606 -0.3575 -2.0647  1.4409
 4734SOL    HW225665   3.741   2.210   8.744 -1.6465  0.9977  1.4032
 4735SOL     OW25666   1.261   0.625   0.152 -0.2447 -0.0931  0.4794
 4735SOL    HW125667   1.217   0.551   0.194  1.2396 -1.1484  0.1715
 4735SOL    HW225668   1.348   0.626   0.191 -0.4660 -0.4974  0.9752
 4736SOL     OW25669   2.026   1.710   6.203 -0.1484 -0.5952  0.4524
 4736SOL    HW125670   1.962   1.685   6.136  0.4753 -2.8524  0.7173
 4736SOL    HW225671   1.970   1.756   6.265 -3.4009  1.2120 -3.7592
 4737SOL     OW25672   0.554   1.037   2.374 -0.3073  0.2712  0.1526
 4737SOL    HW125673   0.507   1.034   2.291 -0.8942  3.4240  0.3898
 4737SOL    HW225674   0.552   0.945   2.401  0.1215  0.6437  1.4357
 4738SOL     OW25675   1.731   2.355   8.011  0.2002 -0.7541  0.0424
 4738SOL    HW125676   1.809   2.407   8.028  1.3096 -1.9182 -1.4460
 4738SOL    HW225677   1.693   2.400   7.936  1.1203  0.7609  0.4918
 4739SOL     OW25678   1.090   2.887   5.580 -0.4470  0.1451  0.2873
 4739SOL    HW125679   1.150   2.814   5.570  0.2458  0.4318  2.4506
 4739SOL    HW225680   1.129   2.956   5.526  1.7948 -0.7501  0.7793
 4740SOL     OW25681   1.387   0.971   2.435 -0.7519  0.6789 -0.3043
 4740SOL    HW125682   1.302   0.925   2.435 -1.2141  1.5334  0.9216
 4740SOL    HW225683   1.355   1.056   2.406  1.3008  1.3788 -0.4976
 4741SOL     OW25684   0.430   1.859  12.073  0.3735 -0.6633 -0.2815
 4741SOL    HW125685   0.336   1.855  12.091  0.2220  1.2799 -0.5732
 4741SOL    HW225686   0.424   1.828  11.983 -2.8384 -0.3434 -0.1743
 4742SOL     OW25687   2.211   0.373   1.432 -0.7547  0.0543  0.1398
 4742SOL    HW125688   2.123   0.381   1.395 -0.3708 -1.1686 -1.0257
 4742SOL    HW225689   2.266   0.364   1.354 -1.1995 -1.8988  0.0335
 4743SOL     OW25690   3.945   3.923   5.640 -0.2912  0.1292 -0.3120
 4743SOL    HW125691   4.005   3.871   5.693  1.0623  2.3978  0.3569
 4743SOL    HW225692   3.901   3.851   5.594 -0.0881 -0.0724 -0.1917
 4744SOL     OW25693   1.803   0.561   5.016 -0.0880 -0.0153  0.6652
 4744SOL    HW125694   1.817   0.468   5.033  1.4536  0.3221  1.2514
 4744SOL    HW225695   1.893   0.589   5.000 -0.6101  0.8473 -0.7911
 4745SOL     OW25696   0.250   2.442   6.121 -0.6531 -0.1915 -0.1116
 4745SOL    HW125697   0.295   2.423   6.038  0.3466 -1.1098  0.6523
 4745SOL    HW225698   0.160   2.439   6.087 -0.2684  0.9796 -1.2661
 4746SOL     OW25699   2.911   1.833   1.523 -0.5708  0.1381  0.1723
 4746SOL    HW125700   2.993   1.783   1.527 -0.5128  0.4133  2.2229
 4746SOL    HW225701   2.931   1.894   1.594 -2.4585  0.3223  0.5344
 4747SOL     OW25702   3.340   2.607   7.309 -0.1432 -0.4519  0.3572
 4747SOL    HW125703   3.258   2.655   7.320  0.2435 -0.1583  1.9323
 4747SOL    HW225704   3.333   2.546   7.382  2.0030  0.4374  1.3239
 4748SOL     OW25705   3.285   0.131   8.236 -0.1631  0.5096  0.6748
 4748SOL    HW125706   3.252   0.159   8.151  0.4314 -0.6458  0.0619
 4748SOL    HW225707   3.206   0.099   8.281 -0.4898  1.5827  0.8552
 4749SOL     OW25708   3.122   2.605   3.584 -0.7454  0.5492  0.0326
 4749SOL    HW125709   3.181   2.535   3.557 -0.0348  0.9032  0.6721
 4749SOL    HW225710   3.182   2.646   3.646  0.1180 -2.7063  1.3399
 4750SOL     OW25711   1.530   2.257   1.906 -0.1210 -0.2771  0.3001
 4750SOL    HW125712   1.440   2.228   1.892 -0.3950  0.1916  1.0555
 4750SOL    HW225713   1.580   2.206   1.842  0.3693 -0.0526  0.5027
 4751SOL     OW25714   2.757   4.340   5.467 -0.0614  0.2126 -0.5346
 4751SOL    HW125715   2.750   4.335   5.562 -0.3779  2.4540 -0.4456
 4751SOL    HW225716   2.845   4.377   5.458  0.4910 -1.6646 -2.8215
 4752SOL     OW25717   4.603   1.092   3.545 -0.2146  0.6540  0.0207
 4752SOL    HW125718   4.659   1.107   3.621 -1.9747 -0.4659  1.5337
 4752SOL    HW225719   4.581   0.999   3.553 -0.3884  0.8093  1.2912
 4753SOL     OW25720   2.405   0.996   5.379 -0.2607  0.0097 -0.0247
 4753SOL    HW125721   2.353   1.073   5.356  0.1673  0.7477  1.4854
 4753SOL    HW225722   2.339   0.927   5.384 -0.3698  0.1399  0.3566
 4754SOL     OW25723   4.318   0.616  10.849 -0.1868 -0.0176 -0.3159
 4754SOL    HW125724   4.247   0.680  10.842 -0.0312 -0.0232 -1.9560
 4754SOL    HW225725   4.299   0.575  10.934  1.3403  0.1876  0.1312
 4755SOL     OW25726   3.738   1.887   5.624 -0.1470  0.2079 -0.0935
 4755SOL    HW125727   3.781   1.828   5.561 -0.7754  0.3287 -0.6342
 4755SOL    HW225728   3.690   1.947   5.567 -0.4107 -0.5094 -0.6348
 4756SOL     OW25729   2.105   0.366   9.878  0.2190  0.1299 -0.5952
 4756SOL    HW125730   2.179   0.413   9.838  2.0049  0.6892  3.4331
 4756SOL    HW225731   2.070   0.426   9.943 -1.1884 -1.0384 -0.2737
 4757SOL     OW25732   1.307   0.049   4.330 -0.7090 -0.2595  0.4783
 4757SOL    HW125733   1.301   0.063   4.235 -1.6771 -2.2807  0.2374
 4757SOL    HW225734   1.329   0.140   4.351 -0.2586  0.0723 -1.4074
 4758SOL     OW25735   3.248   3.440   4.753  0.4236 -0.2669  0.6319
 4758SOL    HW125736   3.220   3.490   4.830  1.1570 -0.5538  1.0778
 4758SOL    HW225737   3.305   3.500   4.705  1.3186  0.5191  2.6845
 4759SOL     OW25738   4.313   1.826  12.378  0.2128  0.3319 -0.3950
 4759SOL    HW125739   4.409   1.830  12.377  0.2855 -1.3448  0.1943
 4759SOL    HW225740   4.309   1.852  12.470  0.1331  0.4421 -0.4294
 4760SOL     OW25741   2.767   1.778   9.196  0.5140 -0.6133 -0.0380
 4760SOL    HW125742   2.803   1.691   9.177  1.9542  0.2115 -1.0257
 4760SOL    HW225743   2.839   1.816   9.246  0.0913 -0.4602  0.4587
 4761SOL     OW25744   1.722   4.146  13.766 -0.0687  0.2451 -0.0556
 4761SOL    HW125745   1.712   4.238  13.791  0.1668 -0.0631  1.1561
 4761SOL    HW225746   1.780   4.106  13.829 -0.0524  1.1348  0.4997
 4762SOL     OW25747   1.441   3.295   3.042 -0.3498  0.0498  0.0316
 4762SOL    HW125748   1.523   3.246   3.047 -0.1309  0.5042  0.8749
 4762SOL    HW225749   1.425   3.288   2.948 -1.5166  1.9732  0.0936
 4763SOL     OW25750   2.393   3.215  14.581 -0.6446 -0.4353  0.2723
 4763SOL    HW125751   2.310   3.244  14.618  0.5218  2.1073  0.9233
 4763SOL    HW225752   2.364   3.172  14.500 -1.5846 -0.3228  0.5567
 4764SOL     OW25753   2.239   3.755  10.744  0.3208  0.1282  0.2528
 4764SOL    HW125754   2.302   3.718  10.681 -1.3355 -1.0511 -0.6982
 4764SOL    HW225755   2.292   3.750  10.824  0.8043  2.2262  0.0663
 4765SOL     OW25756   3.471   3.689   6.189 -0.1543  0.1069  0.1131
 4765SOL    HW125757   3.390   3.736   6.166 -0.1178  0.1845  0.1405
 4765SOL    HW225758   3.507   3.754   6.250  1.0112 -1.1754  0.7798
 4766SOL     OW25759   3.091   3.304   7.073  0.2234  0.0872 -0.1352
 4766SOL    HW125760   3.010   3.257   7.096  1.4745 -0.6530  2.7698
 4766SOL    HW225761   3.147   3.230   7.051 -1.8277 -0.5508 -3.2571
 4767SOL     OW25762   2.803   1.547  10.200 -0.0194 -0.4554 -0.3055
 4767SOL    HW125763   2.808   1.641  10.219 -0.0164 -0.7314  1.0618
 4767SOL    HW225764   2.830   1.511  10.285 -0.5805  0.1184  0.1250
 4768SOL     OW25765   4.241   2.831   9.230 -0.9839  0.1074  0.1705
 4768SOL    HW125766   4.178   2.759   9.225 -0.6576 -0.1471 -0.1994
 4768SOL    HW225767   4.283   2.816   9.315 -1.3376  0.5599  0.4307
 4769SOL     OW25768   2.635   2.581  14.589 -0.2193 -0.1713 -0.7749
 4769SOL    HW125769   2.644   2.607  14.681  0.1086  1.1608 -1.1941
 4769SOL    HW225770   2.554   2.531  14.603  0.8666 -1.8076 -0.2647
 4770SOL     OW25771   0.611   3.187   9.914 -0.1739  0.2010 -0.2414
 4770SOL    HW125772   0.525   3.147   9.912  0.2923 -0.7674 -1.1613
 4770SOL    HW225773   0.670   3.113   9.928 -0.8909 -0.5714 -1.3993
 4771SOL     OW25774   4.157   2.470  17.275  0.0217  0.3525  0.0812
 4771SOL    HW125775   4.229   2.462  17.213 -0.3240 -0.2701 -0.2407
 4771SOL    HW225776   4.183   2.392  17.324  2.2765  1.0176 -0.0821
 4772SOL     OW25777   3.983   3.897  16.482 -0.0596  0.1991  0.2613
 4772SOL    HW125778   3.936   3.827  16.436  1.4925 -1.3132  0.9882
 4772SOL    HW225779   3.972   3.964  16.415  0.6441  1.1526  1.0951
 4773SOL     OW25780   0.014   2.456  15.284 -0.4638  0.7167 -0.2635
 4773SOL    HW125781   4.674   2.526  15.284 -0.1513  1.0001  0.4078
 4773SOL    HW225782   0.063   2.487  15.208  0.4426 -0.1410 -0.0135
 4774SOL     OW25783   0.737   1.628   6.814 -0.1039  0.4547  0.1729
 4774SOL    HW125784   0.799   1.568   6.855  1.3926 -0.1405 -2.9491
 4774SOL    HW225785   0.674   1.647   6.884  0.1962  2.3806 -0.0775
 4775SOL     OW25786   1.560   2.165  16.272 -0.8554 -0.0242 -0.3310
 4775SOL    HW125787   1.468   2.141  16.276 -1.2679  1.4976 -0.4946
 4775SOL    HW225788   1.567   2.258  16.251  1.5483 -0.0848  0.1284
 4776SOL     OW25789   1.332   1.848  11.979  0.3039 -0.2209 -0.0292
 4776SOL    HW125790   1.377   1.838  12.063  1.5127 -2.2162 -0.9030
 4776SOL    HW225791   1.305   1.760  11.954  1.9040 -0.6587 -0.1954
 4777SOL     OW25792   0.198   2.604  14.159 -0.3111 -0.3728 -0.3408
 4777SOL    HW125793   0.209   2.535  14.225 -0.5198 -1.7232 -1.7050
 4777SOL    HW225794   0.287   2.608  14.124 -0.1615 -0.2987  0.0483
 4778SOL     OW25795   3.654   2.760  11.046  0.2745 -0.2015  0.7034
 4778SOL    HW125796   3.749   2.752  11.037  0.0154 -0.0457 -2.3687
 4778SOL    HW225797   3.649   2.748  11.140  1.6945  1.0671  0.9364
 4779SOL     OW25798   2.308   4.588   0.639  0.1201  0.0936 -0.2152
 4779SOL    HW125799   2.287   4.516   0.580  1.5227  0.4036 -1.1054
 4779SOL    HW225800   2.226   4.607   0.685  0.9664  1.1834  0.8707
 4780SOL     OW25801   0.035   1.179   6.386 -0.1984  0.1094  0.4554
 4780SOL    HW125802   0.064   1.250   6.443  0.5358  0.0769  0.1143
 4780SOL    HW225803   0.103   1.177   6.319  0.2180  2.4305  0.7977
 4781SOL     OW25804   2.652   3.641   4.305 -0.0925 -0.5820 -0.6295
 4781SOL    HW125805   2.697   3.596   4.233  1.1926 -0.6422  0.2152
 4781SOL    HW225806   2.568   3.661   4.265 -0.3053 -1.3900 -0.5836
 4782SOL     OW25807   4.690   4.422   5.468 -0.6086  0.4325  0.0676
 4782SOL    HW125808   4.690   4.371   5.387  1.4868  0.3392  0.1314
 4782SOL    HW225809   4.598   4.447   5.465 -0.3935  1.0589 -1.3671
 4783SOL     OW25810   1.309   1.780   5.758 -0.0957  0.0942  0.5591
 4783SOL    HW125811   1.341   1.866   5.785 -0.4543  0.3784  0.0714
 4783SOL    HW225812   1.315   1.786   5.662 -0.4282  0.4765  0.5597
 4784SOL     OW25813   4.520   2.901   4.842  0.4443 -0.4623  0.5032
 4784SOL    HW125814   4.467   2.878   4.919  0.4420  1.4551  1.0869
 4784SOL    HW225815   4.477   2.838   4.785 -0.5338  1.0438 -0.4261
 4785SOL     OW25816   1.355   2.048  15.793 -0.1430  0.1161  0.0195
 4785SOL    HW125817   1.420   2.061  15.724 -0.3301 -0.1935 -0.2126
 4785SOL    HW225818   1.312   2.132  15.805 -2.3677 -0.9309 -0.6815
 4786SOL     OW25819   3.873   3.510  17.107  0.7964 -0.6776 -0.0206
 4786SOL    HW125820   3.853   3.559  17.027  0.6862  0.1877  0.5292
 4786SOL    HW225821   3.961   3.479  17.086  0.2164 -2.4396  0.2022
 4787SOL     OW25822   4.305   2.208  17.676 -0.1811 -0.0770  0.0696
 4787SOL    HW125823   4.382   2.158   0.000  0.3763  0.0328 -1.2168
 4787SOL    HW225824   4.253   2.139  17.634 -0.6795 -1.3675  2.7735
 4788SOL     OW25825   0.335   2.300  13.278 -0.2136  0.0866  0.2579
 4788SOL    HW125826   0.421   2.257  13.285  0.0529  0.2699 -1.7503
 4788SOL    HW225827   0.356   2.390  13.305  1.0766  0.2125 -1.1377
 4789SOL     OW25828   3.140   2.660   4.132 -0.4004  0.4100 -0.3510
 4789SOL    HW125829   3.067   2.721   4.135 -1.0784 -0.3917 -0.4452
 4789SOL    HW225830   3.214   2.721   4.131 -2.5089  2.8530 -2.1908
 4790SOL     OW25831   4.330   1.205  12.098  0.2307 -0.0086 -0.1692
 4790SOL    HW125832   4.285   1.140  12.043 -0.4160  0.6700 -0.4422
 4790SOL    HW225833   4.269   1.278  12.091  1.9533  1.5314  0.9344
 4791SOL     OW25834   1.045   2.036   5.114 -0.3725  0.1847  0.5884
 4791SOL    HW125835   1.002   2.111   5.074 -0.3806  0.3137  0.8399
 4791SOL    HW225836   0.993   2.040   5.194 -1.8642  3.0094 -0.5122
 4792SOL     OW25837   0.569   2.892  14.352  0.0139  0.4270 -0.0643
 4792SOL    HW125838   0.555   2.799  14.370  1.1856  0.2911  0.1517
 4792SOL    HW225839   0.499   2.910  14.289  1.3852 -1.4070 -2.0913
 4793SOL     OW25840   3.436   3.474   5.588  0.6033 -0.1371 -0.0524
 4793SOL    HW125841   3.400   3.399   5.637  1.2663 -1.2158 -1.2037
 4793SOL    HW225842   3.397   3.547   5.636 -1.0286 -0.9885 -0.0576
 4794SOL     OW25843   0.709   3.065   7.495  0.3057 -0.4988 -0.2728
 4794SOL    HW125844   0.758   3.134   7.452  1.0209 -1.0341 -0.3231
 4794SOL    HW225845   0.728   2.986   7.444 -0.5090 -0.6806 -0.2968
 4795SOL     OW25846   0.666   0.832  17.142 -0.0950 -0.2080  0.0139
 4795SOL    HW125847   0.650   0.794  17.229  0.1581 -1.9161 -0.6704
 4795SOL    HW225848   0.582   0.820  17.098 -0.9733  1.0233  1.3717
 4796SOL     OW25849   4.421   3.712  16.423 -0.5883  0.5323 -0.0877
 4796SOL    HW125850   4.361   3.771  16.377 -0.2136  1.2142  0.2915
 4796SOL    HW225851   4.454   3.664  16.347 -1.3270 -1.1774  0.6703
 4797SOL     OW25852   1.418   2.956   8.718 -0.1957 -0.4668 -0.0653
 4797SOL    HW125853   1.512   2.939   8.711  0.5902  3.0666  1.9423
 4797SOL    HW225854   1.421   3.031   8.659  0.2384 -0.7580 -0.4131
 4798SOL     OW25855   3.019   3.719   5.106 -0.5688  0.8091 -0.1712
 4798SOL    HW125856   3.000   3.807   5.073 -1.9824  0.2166 -0.9553
 4798SOL    HW225857   2.935   3.676   5.120  0.6625 -1.2308  0.8910
 4799SOL     OW25858   0.974   3.756   5.565  0.0488 -0.1072  0.1094
 4799SOL    HW125859   0.958   3.841   5.607  0.7559 -0.2497  0.6706
 4799SOL    HW225860   0.978   3.785   5.474 -0.1160  0.0221  0.1431
 4800SOL     OW25861   2.874   2.009  12.521  0.4337  0.0715 -0.4341
 4800SOL    HW125862   2.946   2.032  12.581  0.1677 -1.6726  0.5464
 4800SOL    HW225863   2.829   1.941  12.571  2.3437 -1.5731 -0.9531
 4801SOL     OW25864   2.722   1.851   1.130  0.4506  0.2216 -0.0546
 4801SOL    HW125865   2.686   1.854   1.218 -0.8932 -2.6128 -0.5316
 4801SOL    HW225866   2.679   1.930   1.098 -1.4840 -0.4038  1.0500
 4802SOL     OW25867   4.067   1.769   6.708 -0.0915 -0.2880 -0.1923
 4802SOL    HW125868   4.117   1.821   6.771  1.5104 -0.4185 -1.3571
 4802SOL    HW225869   4.123   1.761   6.630  1.1405 -2.3058  0.9053
 4803SOL     OW25870   1.811   4.640   4.218 -0.3811  0.3455  0.6754
 4803SOL    HW125871   1.753   4.649   4.142 -1.2808  0.9407  1.4330
 4803SOL    HW225872   1.763   4.685   4.288 -0.5926 -0.2567  0.9125
 4804SOL     OW25873   2.815   1.364   2.954 -0.4324 -0.3986  0.1339
 4804SOL    HW125874   2.858   1.368   3.040 -1.5448 -0.0938  0.6798
 4804SOL    HW225875   2.828   1.454   2.925 -1.2566 -0.7068 -1.1658
 4805SOL     OW25876   3.724   0.332   4.788 -0.3840  0.3382 -0.1676
 4805SOL    HW125877   3.731   0.237   4.791 -0.9700  0.3006  0.1151
 4805SOL    HW225878   3.811   0.367   4.771 -0.1855 -0.9926 -1.8870
 4806SOL     OW25879   3.773   0.069   7.975 -0.0943  0.1022  0.2769
 4806SOL    HW125880   3.756   0.158   7.944  2.2714 -0.0691 -1.5032
 4806SOL    HW225881   3.790   0.026   7.891  0.8491 -1.5673  1.3181
 4807SOL     OW25882   4.253   3.429   4.724 -0.0947  0.3212 -0.9884
 4807SOL    HW125883   4.273   3.476   4.805  0.1219  0.5700 -1.1832
 4807SOL    HW225884   4.160   3.410   4.734  0.0690 -0.3913 -0.8241
 4808SOL     OW25885   2.773   0.322  16.761  0.7432  0.1778 -0.5945
 4808SOL    HW125886   2.825   0.377  16.702  0.6594  1.8695  0.9230
 4808SOL    HW225887   2.744   0.253  16.701 -0.2644  0.8655 -0.8876
 4809SOL     OW25888   1.705   3.937   3.543  0.1016 -0.0639 -0.3451
 4809SOL    HW125889   1.674   3.912   3.456  1.7496  1.9482 -1.5170
 4809SOL    HW225890   1.798   3.914   3.538  1.1041  4.4379 -1.9156
 4810SOL     OW25891   1.913   2.420   4.486  0.0299 -0.3867 -0.2457
 4810SOL    HW125892   1.866   2.500   4.460  1.2881  0.5789  0.4096
 4810SOL    HW225893   1.843   2.356   4.482  1.0479 -1.5141  0.0825
 4811SOL     OW25894   4.138   2.321   2.001  0.1223  0.0607 -0.4113
 4811SOL    HW125895   4.189   2.258   1.949 -0.8914  0.3157 -1.7332
 4811SOL    HW225896   4.051   2.330   1.960  0.4645 -1.8544 -1.5752
 4812SOL     OW25897   4.106   0.835  14.310 -0.0904  0.2190  0.2986
 4812SOL    HW125898   4.144   0.796  14.231 -0.1625 -0.6163  0.6861
 4812SOL    HW225899   4.170   0.826  14.381 -1.3165  0.5176  1.4337
 4813SOL     OW25900   1.301   2.405  17.520  0.1190  0.7058 -0.4676
 4813SOL    HW125901   1.241   2.462  17.569 -0.3543  0.3688 -0.6570
 4813SOL    HW225902   1.331   2.457  17.445  1.4642  0.2504 -0.2429
 4814SOL     OW25903   0.961   2.843  13.351  0.0636  0.1029 -0.8505
 4814SOL    HW125904   0.973   2.850  13.256  1.6325 -0.1737 -0.6712
 4814SOL    HW225905   1.041   2.798  13.379 -1.3169 -2.9419 -1.8282
 4815SOL     OW25906   4.580   0.175   3.865 -0.5435  0.4766 -0.4032
 4815SOL    HW125907   4.597   0.244   3.929 -2.5342  0.4382  0.1902
 4815SOL    HW225908   4.546   0.220   3.788  0.4575  0.2463 -0.9672
 4816SOL     OW25909   0.642   1.912  15.404  0.1757  0.3800 -0.2814
 4816SOL    HW125910   0.599   1.876  15.482  0.4559 -2.7274 -1.5830
 4816SOL    HW225911   0.710   1.959  15.453  1.2156 -0.3351 -1.0501
 4817SOL     OW25912   1.816   2.389   2.475  0.2578  0.4308 -0.5262
 4817SOL    HW125913   1.836   2.464   2.420  0.3148 -0.4521 -1.7057
 4817SOL    HW225914   1.899   2.384   2.523 -0.4566 -2.3412  0.4640
 4818SOL     OW25915   3.299   3.797   4.859 -0.2370 -0.0782  0.1807
 4818SOL    HW125916   3.343   3.760   4.782  2.5098 -3.3485  3.3455
 4818SOL    HW225917   3.225   3.850   4.828 -0.3699  0.8799  2.1294
 4819SOL     OW25918   4.131   2.634   0.597 -0.0446  0.2485  0.0463
 4819SOL    HW125919   4.186   2.708   0.623  0.2043  0.0074  0.2062
 4819SOL    HW225920   4.059   2.673   0.548  1.3898  1.3139 -1.2267
 4820SOL     OW25921   1.616   2.709   1.852  0.1388 -0.0580  0.1512
 4820SOL    HW125922   1.583   2.742   1.935 -1.5907  1.9068 -1.3277
 4820SOL    HW225923   1.574   2.772   1.794 -0.2906  0.8516  1.4592
 4821SOL     OW25924   2.429   3.678   7.166  0.2202  0.1062  0.6870
 4821SOL    HW125925   2.400   3.649   7.253 -1.7787  0.1648  0.0274
 4821SOL    HW225926   2.420   3.606   7.104  4.0296 -0.9515  1.3211
 4822SOL     OW25927   2.649   3.093  11.661 -0.3149 -0.0264 -0.0228
 4822SOL    HW125928   2.567   3.050  11.634 -1.8616  2.7318  0.2416
 4822SOL    HW225929   2.617   3.180  11.682  0.0006 -0.0513  0.5662
 4823SOL     OW25930   3.637   3.341   4.204  0.1673 -0.2949 -0.3724
 4823SOL    HW125931   3.585   3.265   4.231 -0.5591  0.7293  1.1142
 4823SOL    HW225932   3.572   3.410   4.195 -0.8654 -1.2537 -0.3290
 4824SOL     OW25933   1.191   0.140  16.652 -0.3947  0.5613 -0.5001
 4824SOL    HW125934   1.182   0.060  16.600 -0.3249  0.4865 -0.3972
 4824SOL    HW225935   1.174   0.210  16.590 -0.3141  0.9183 -0.1165
 4825SOL     OW25936   1.837   4.075   7.688  0.2981  0.0234 -0.0170
 4825SOL    HW125937   1.835   3.985   7.719 -0.7088 -0.7618 -2.3446
 4825SOL    HW225938   1.829   4.085   7.593  0.1113  0.6606  0.0639
 4826SOL     OW25939   1.482   1.077  13.560 -0.1163 -0.1354 -0.0173
 4826SOL    HW125940   1.513   1.167  13.555 -1.4669  0.2711 -1.1679
 4826SOL    HW225941   1.469   1.074  13.654  0.9307  1.0748  0.1674
 4827SOL     OW25942   3.150   3.906   5.768 -0.5335 -0.3285  0.3680
 4827SOL    HW125943   3.098   3.885   5.845 -1.6438  1.1371  0.0241
 4827SOL    HW225944   3.134   3.828   5.715 -3.1581  1.3943 -1.3441
 4828SOL     OW25945   2.897   4.161   4.036 -0.0324 -0.3453 -0.5657
 4828SOL    HW125946   2.869   4.094   3.974 -1.8970 -1.2534  1.2438
 4828SOL    HW225947   2.987   4.130   4.050 -0.0074  0.4272  0.9521
 4829SOL     OW25948   1.876   2.845   9.943 -0.1544  0.3478 -0.2250
 4829SOL    HW125949   1.952   2.787   9.930 -0.6167 -0.2903 -0.0931
 4829SOL    HW225950   1.876   2.877   9.853 -0.1635 -0.9629 -0.7017
 4830SOL     OW25951   3.380   1.097   2.502  0.5817  0.5349  0.1484
 4830SOL    HW125952   3.460   1.097   2.449  0.6036 -0.5218  0.1932
 4830SOL    HW225953   3.365   1.191   2.512 -0.1117  0.5288 -0.8035
 4831SOL     OW25954   1.985   1.995   8.620 -0.0100  0.0344  0.9926
 4831SOL    HW125955   1.956   2.028   8.705 -0.3875 -1.7502  1.5620
 4831SOL    HW225956   2.030   1.913   8.642 -0.7488  0.1534  2.9501
 4832SOL     OW25957   4.122   0.336   1.830  0.2964  0.3704 -0.3018
 4832SOL    HW125958   4.065   0.376   1.896 -0.6109 -0.4601 -0.5732
 4832SOL    HW225959   4.134   0.254   1.878 -0.9505 -0.4574 -1.4023
 4833SOL     OW25960   3.907   1.339  12.007  0.0905 -0.4577  0.6236
 4833SOL    HW125961   3.884   1.418  12.056 -1.1460 -0.9609  0.8643
 4833SOL    HW225962   3.895   1.380  11.921  0.1735  1.3385  1.4780
 4834SOL     OW25963   0.779   0.565  13.808  0.0461  0.0468 -0.1573
 4834SOL    HW125964   0.785   0.520  13.892 -0.1686 -0.7540 -0.5705
 4834SOL    HW225965   0.686   0.585  13.813 -0.6279 -3.4099  0.9656
 4835SOL     OW25966   2.105   0.009  16.831 -0.3634 -0.7737 -0.4850
 4835SOL    HW125967   2.032   0.070  16.818 -0.8985 -1.2056  0.4204
 4835SOL    HW225968   2.173   0.050  16.778 -0.9061 -0.2617 -0.7877
 4836SOL     OW25969   0.882   3.282   2.752  0.0163  0.0207 -0.0449
 4836SOL    HW125970   0.940   3.329   2.812 -0.1985 -0.6848  0.7093
 4836SOL    HW225971   0.842   3.208   2.797 -1.0464 -0.5577 -1.9496
 4837SOL     OW25972   1.413   0.879  14.843 -0.2059 -0.1910 -0.6209
 4837SOL    HW125973   1.471   0.803  14.850  0.6855  0.4387 -1.2778
 4837SOL    HW225974   1.349   0.872  14.915  0.7520  0.3897  0.2888
 4838SOL     OW25975   0.018   4.456   9.684 -0.2835 -0.1733 -0.5811
 4838SOL    HW125976   0.089   4.483   9.742  0.6325 -3.9084  0.0168
 4838SOL    HW225977   4.678   4.442   9.752  1.3304  1.5908  1.3504
 4839SOL     OW25978   2.818   4.381  16.782 -0.8232 -0.0874 -0.5890
 4839SOL    HW125979   2.805   4.297  16.739  0.2291  0.2961 -1.6536
 4839SOL    HW225980   2.913   4.395  16.776 -0.5463 -1.3389  0.9435
 4840SOL     OW25981   1.586   4.094   5.694 -0.4578 -0.3811  0.3603
 4840SOL    HW125982   1.535   4.093   5.775  0.1428  0.0353  0.7436
 4840SOL    HW225983   1.530   4.046   5.632  0.4263 -1.1056  0.1348
 4841SOL     OW25984   2.874   0.249   7.314  0.1448 -0.4822 -1.1496
 4841SOL    HW125985   2.925   0.326   7.290 -0.2578 -0.0033 -0.4650
 4841SOL    HW225986   2.913   0.181   7.259  1.9310 -1.2552  1.1140
 4842SOL     OW25987   3.390   4.678   5.817 -0.1357  0.2419  0.5796
 4842SOL    HW125988   3.406   4.664   5.724  1.3163  1.7261  0.6005
 4842SOL    HW225989   3.333   4.602   5.827 -0.2944 -0.0453 -2.3930
 4843SOL     OW25990   4.111   3.868   0.475  0.1520  0.3501  0.0343
 4843SOL    HW125991   4.102   3.933   0.406  1.3915 -0.6889 -1.0900
 4843SOL    HW225992   4.205   3.873   0.488  0.1480 -0.8960  0.5185
 4844SOL     OW25993   4.336   3.035   6.034 -0.4696 -0.6319 -0.3016
 4844SOL    HW125994   4.318   3.056   6.126 -1.1866 -1.3554 -0.2840
 4844SOL    HW225995   4.400   2.966   6.053 -1.8136 -2.1384 -1.2961
 4845SOL     OW25996   1.895   1.607   5.181  0.1023  0.3911  0.0868
 4845SOL    HW125997   1.829   1.544   5.210 -0.7691  0.6615 -1.3243
 4845SOL    HW225998   1.884   1.593   5.087 -0.7143  1.5304  0.0033
 4846SOL     OW25999   3.217   0.467  12.346 -0.3111 -0.2706 -0.0704
 4846SOL    HW126000   3.220   0.376  12.374 -0.6886  0.2032  1.4943
 4846SOL    HW226001   3.302   0.501  12.374  0.9055 -3.5498  0.2124
 4847SOL     OW26002   0.752   4.103   6.082 -0.1187  0.2066 -0.5229
 4847SOL    HW126003   0.773   4.011   6.101  2.1439  0.7320 -0.5671
 4847SOL    HW226004   0.707   4.086   5.999 -1.5709 -0.5702  0.4089
 4848SOL     OW26005   1.837   1.311   7.387  0.6892 -0.3347 -0.1069
 4848SOL    HW126006   1.821   1.251   7.459 -0.0376  1.9100  1.5811
 4848SOL    HW226007   1.805   1.396   7.415 -0.1190 -0.7769  0.2984
 4849SOL     OW26008   4.128   0.049   4.213  0.4466 -0.5941  0.2134
 4849SOL    HW126009   4.071   0.057   4.290  0.6237 -0.4772  0.3305
 4849SOL    HW226010   4.191   4.709   4.242  3.5045  2.5502  0.6496
 4850SOL     OW26011   0.531   0.323  15.450  0.1888  0.2405 -0.0361
 4850SOL    HW126012   0.599   0.390  15.451 -0.7642  1.2027  0.9508
 4850SOL    HW226013   0.568   0.266  15.517 -1.0164  0.7685  1.0849
 4851SOL     OW26014   2.483   1.434  17.236  0.2726 -0.6257 -0.3277
 4851SOL    HW126015   2.453   1.403  17.321 -2.7545  2.7087 -0.1742
 4851SOL    HW226016   2.415   1.497  17.211  1.3901 -0.1801 -2.2585
 4852SOL     OW26017   1.203   3.875   8.920  1.2544  0.7041 -0.5423
 4852SOL    HW126018   1.191   3.963   8.885 -0.6396  1.2009  1.3165
 4852SOL    HW226019   1.259   3.839   8.851  0.9273 -0.4400 -0.2003
 4853SOL     OW26020   4.378   2.905   4.562 -0.3740  0.0650  0.2815
 4853SOL    HW126021   4.292   2.930   4.596 -0.8589 -0.8822 -0.2514
 4853SOL    HW226022   4.389   2.988   4.515 -2.4392 -0.7243 -1.6006
 4854SOL     OW26023   3.577   1.098   7.333  0.1247  0.3580  0.2217
 4854SOL    HW126024   3.582   1.126   7.425 -1.5061  2.8634 -0.4285
 4854SOL    HW226025   3.667   1.089   7.302  0.0635  1.2940 -0.2477
 4855SOL     OW26026   1.963   0.097   6.907 -0.2691 -0.5335 -0.5750
 4855SOL    HW126027   1.925   0.182   6.927  0.3955 -0.1508 -0.9357
 4855SOL    HW226028   1.886   0.042   6.894 -0.6900  0.1110 -0.8372
 4856SOL     OW26029   3.170   0.647   1.017  0.5655 -0.2293  0.2233
 4856SOL    HW126030   3.221   0.713   1.064  0.7827 -0.8855  0.9168
 4856SOL    HW226031   3.080   0.678   1.009  0.6051  0.1527  1.1680
 4857SOL     OW26032   3.712   1.298   4.847  0.2179  0.2575  0.4713
 4857SOL    HW126033   3.750   1.210   4.835 -1.9490 -0.8377  1.7433
 4857SOL    HW226034   3.718   1.294   4.942  0.1482 -0.9830  0.4274
 4858SOL     OW26035   1.059   1.631   3.214  0.2778  0.2697  0.1693
 4858SOL    HW126036   1.053   1.536   3.227 -1.0413  0.2538 -0.5950
 4858SOL    HW226037   1.004   1.656   3.140 -1.3923 -1.7848  0.7129
 4859SOL     OW26038   3.492   0.076   9.336  0.0365 -0.1877 -0.4318
 4859SOL    HW126039   3.443   4.721   9.349  0.3802 -0.1975  0.7408
 4859SOL    HW226040   3.471   0.114   9.421 -0.4941  0.2546 -0.7672
 4860SOL     OW26041   3.048   4.279  11.426  0.0303  0.0426 -0.0493
 4860SOL    HW126042   3.044   4.366  11.385 -1.9675  0.7149  1.6126
 4860SOL    HW226043   2.958   4.247  11.426  0.8994 -2.4367  3.4735
 4861SOL     OW26044   3.589   1.196   4.028 -0.8154 -0.1060  0.0163
 4861SOL    HW126045   3.589   1.125   3.964  3.3195 -1.6273  1.7012
 4861SOL    HW226046   3.680   1.202   4.060 -1.0562 -0.6322  0.7892
 4862SOL     OW26047   0.865   3.184   4.269  0.3517 -1.1275 -0.2552
 4862SOL    HW126048   0.895   3.118   4.332 -1.4504  0.9020  2.7700
 4862SOL    HW226049   0.788   3.224   4.310  1.6066  1.0869 -0.0152
 4863SOL     OW26050   1.616   1.213   0.502  0.1198  0.7353  0.0602
 4863SOL    HW126051   1.558   1.213   0.577 -0.1279 -1.9278 -0.1112
 4863SOL    HW226052   1.680   1.279   0.528 -2.3075  2.9588  0.3624
 4864SOL     OW26053   3.602   2.086   5.116  0.4106  0.0648 -0.1887
 4864SOL    HW126054   3.698   2.084   5.112  0.3833 -0.6757 -0.5362
 4864SOL    HW226055   3.587   1.992   5.101  0.3279 -0.0607  0.6884
 4865SOL     OW26056   2.208   3.775   6.633  0.3210  0.2986 -0.7849
 4865SOL    HW126057   2.139   3.839   6.617  1.9978  2.2841 -0.1061
 4865SOL    HW226058   2.222   3.793   6.726  3.2034  1.6455 -1.4747
 4866SOL     OW26059   2.478   1.632   6.385  0.4795 -0.9572 -0.1373
 4866SOL    HW126060   2.392   1.594   6.397  0.2557 -0.1011  0.9598
 4866SOL    HW226061   2.534   1.594   6.453 -0.0801  1.2624  1.5345
 4867SOL     OW26062   2.552   1.045   0.389  0.6386 -0.3063  0.2536
 4867SOL    HW126063   2.537   1.074   0.299 -1.4852 -1.0182  0.3828
 4867SOL    HW226064   2.461   1.048   0.419  0.3881  2.2510 -0.7930
 4868SOL     OW26065   3.799   4.306   4.301 -0.0667  0.0058 -0.3910
 4868SOL    HW126066   3.731   4.363   4.266 -0.6361 -0.9066 -0.7786
 4868SOL    HW226067   3.876   4.363   4.298  1.6056 -2.0399  3.1631
 4869SOL     OW26068   2.167   1.219   5.737  0.0066 -0.0053 -0.1416
 4869SOL    HW126069   2.247   1.176   5.705 -0.2914  0.4919 -1.5868
 4869SOL    HW226070   2.103   1.148   5.738  0.9270 -0.8270  0.8137
 4870SOL     OW26071   2.375   3.333   5.283  0.0226 -0.0553  0.4173
 4870SOL    HW126072   2.404   3.420   5.310  0.6076 -0.5601  1.4323
 4870SOL    HW226073   2.453   3.281   5.302 -0.3995  0.1869  2.8443
 4871SOL     OW26074   4.030   1.064   2.863 -0.1852  0.0473  0.3231
 4871SOL    HW126075   4.036   1.141   2.806  0.2081  0.6527  1.1741
 4871SOL    HW226076   3.969   1.012   2.811 -1.9058  0.3591  1.9982
 4872SOL     OW26077   0.512   0.468   7.076 -0.2421 -0.1596 -0.5627
 4872SOL    HW126078   0.440   0.468   7.139  0.3351  3.5362  0.1145
 4872SOL    HW226079   0.587   0.445   7.132  0.3341 -0.1525 -1.3218
 4873SOL     OW26080   0.140   3.341  14.422  0.1186 -1.1990  0.1828
 4873SOL    HW126081   0.102   3.298  14.346 -3.0674  0.1485  1.0038
 4873SOL    HW226082   0.233   3.357  14.410  0.0447 -0.1206  1.0565
 4874SOL     OW26083   1.932   3.091  12.119  0.5869  0.6211  0.7000
 4874SOL    HW126084   1.861   3.094  12.183 -0.4599  4.0946 -0.6366
 4874SOL    HW226085   2.003   3.039  12.155  0.1162 -0.3991  0.1741
 4875SOL     OW26086   2.946   2.874   3.848 -0.1695  0.3551 -0.1897
 4875SOL    HW126087   2.942   2.866   3.943 -0.6542  1.5204 -0.1101
 4875SOL    HW226088   2.976   2.788   3.817  1.6885  0.6709  0.8099
 4876SOL     OW26089   2.226   0.728   9.898 -0.1029  0.1224 -0.1986
 4876SOL    HW126090   2.211   0.757   9.808  0.4498  0.2163 -0.2571
 4876SOL    HW226091   2.238   0.812   9.943  1.6779 -0.1886 -0.0834
 4877SOL     OW26092   1.424   4.105   3.391  0.1675 -0.0632  0.0577
 4877SOL    HW126093   1.485   4.129   3.321  0.3807 -0.3956  0.1327
 4877SOL    HW226094   1.341   4.128   3.350  0.5433  0.7953 -0.2256
 4878SOL     OW26095   2.172   2.225  15.198 -0.0120 -0.3269  0.0898
 4878SOL    HW126096   2.114   2.190  15.266 -0.6849 -2.2267 -1.4585
 4878SOL    HW226097   2.129   2.207  15.115  0.9431 -1.9700 -0.0664
 4879SOL     OW26098   1.321   1.652   4.448  0.2966  0.3143 -0.0186
 4879SOL    HW126099   1.264   1.584   4.412  2.2817 -0.9985 -0.7092
 4879SOL    HW226100   1.316   1.720   4.381  0.2489 -0.8600 -1.1902
 4880SOL     OW26101   3.785   0.979   1.689 -0.2183  0.5411  0.7176
 4880SOL    HW126102   3.865   0.958   1.737  0.0749 -0.3989 -0.1965
 4880SOL    HW226103   3.748   0.892   1.673  3.4048 -0.6912 -0.8409
 4881SOL     OW26104   0.325   3.397   2.612  0.0041  0.6386 -0.2289
 4881SOL    HW126105   0.327   3.369   2.520  0.4446 -1.3945  0.3992
 4881SOL    HW226106   0.280   3.481   2.606  1.4761  1.3475 -1.1927
 4882SOL     OW26107   2.082   1.089  13.643  0.2790 -0.8414 -0.1260
 4882SOL    HW126108   2.152   1.107  13.580 -1.6527  1.7378 -1.5396
 4882SOL    HW226109   2.007   1.128  13.598 -0.6343 -1.2573  1.0425
 4883SOL     OW26110   1.886   4.605   9.809  0.0287  0.1681  0.2152
 4883SOL    HW126111   1.893   4.579   9.717 -0.8366  0.0801  0.1740
 4883SOL    HW226112   1.815   4.551   9.844  0.4735  0.1617  1.0818
 4884SOL     OW26113   2.001   4.304   8.473  0.2929 -0.5488 -0.3624
 4884SOL    HW126114   1.930   4.336   8.416  1.5199  0.6334 -1.2250
 4884SOL    HW226115   1.948   4.231   8.506  0.4680 -0.1331  0.8132
 4885SOL     OW26116   3.369   3.995  11.124 -0.5162  0.1902 -0.1228
 4885SOL    HW126117   3.444   3.989  11.183 -1.9075  0.5924  1.6902
 4885SOL    HW226118   3.305   4.048  11.172  0.5853  1.2780  0.1395
 4886SOL     OW26119   3.426   1.054   6.588  0.0201  0.2745 -0.1628
 4886SOL    HW126120   3.487   1.015   6.524  1.2148  0.2358  1.0138
 4886SOL    HW226121   3.351   0.994   6.581 -0.3074  0.8083 -1.3263
 4887SOL     OW26122   4.721   4.281   9.487  0.0205  0.1740  0.2712
 4887SOL    HW126123   4.638   4.233   9.493 -0.1871  0.0778 -2.9933
 4887SOL    HW226124   4.725   4.332   9.568 -0.9490 -0.7400  0.9030
 4888SOL     OW26125   1.435   3.931   4.250  0.3769 -0.1119  0.0664
 4888SOL    HW126126   1.391   3.867   4.194 -1.0086  1.5787 -0.7855
 4888SOL    HW226127   1.396   4.011   4.214 -0.8474  0.0895  1.8082
 4889SOL     OW26128   4.294   0.312   5.160 -0.1083 -0.1882  0.0739
 4889SOL    HW126129   4.331   0.323   5.248  1.5388  3.1661 -1.0462
 4889SOL    HW226130   4.261   0.222   5.155  2.2379 -1.2065  2.7193
 4890SOL     OW26131   1.360   2.382   5.774 -0.3947 -0.7860 -0.5117
 4890SOL    HW126132   1.432   2.405   5.715  1.1300 -0.6332  1.3929
 4890SOL    HW226133   1.289   2.423   5.724  0.6025  0.5295 -0.8486
 4891SOL     OW26134   0.915   3.231   4.848  0.3771  0.3527 -0.7978
 4891SOL    HW126135   0.956   3.187   4.773 -0.7482 -0.4505 -0.9508
 4891SOL    HW226136   0.986   3.254   4.907  1.1047 -1.3981 -0.9841
 4892SOL     OW26137   1.533   2.694  16.319 -0.5721  0.5878 -0.2197
 4892SOL    HW126138   1.530   2.602  16.291  0.6694  0.8277 -1.1456
 4892SOL    HW226139   1.624   2.710  16.294 -0.3006 -1.1529 -0.3863
 4893SOL     OW26140   2.463   0.068   7.956  0.2431 -0.0367 -0.2789
 4893SOL    HW126141   2.449   0.163   7.956 -2.0308 -0.3776  0.1406
 4893SOL    HW226142   2.401   0.044   7.888 -1.0975 -0.6878  1.1824
 4894SOL     OW26143   3.626   2.866  12.443 -0.0994 -0.2709 -0.7385
 4894SOL    HW126144   3.710   2.905  12.464  0.4172 -1.2579 -0.9713
 4894SOL    HW226145   3.581   2.879  12.526  0.5719 -0.9076 -0.2791
 4895SOL     OW26146   0.788   3.618  11.806 -0.4650  0.6632  0.0925
 4895SOL    HW126147   0.721   3.617  11.737 -1.4730  0.1641  1.0766
 4895SOL    HW226148   0.822   3.707  11.799  1.9961 -0.3017 -0.2119
 4896SOL     OW26149   2.608   4.242   8.142  0.8982  0.7372 -0.2189
 4896SOL    HW126150   2.581   4.308   8.205 -1.9258 -0.9483  0.3573
 4896SOL    HW226151   2.702   4.260   8.146  0.9800  0.2861  0.0094
 4897SOL     OW26152   2.026   0.618  15.673 -0.0214 -0.1650  0.4951
 4897SOL    HW126153   2.061   0.530  15.664  0.2138  0.0504 -0.7285
 4897SOL    HW226154   2.085   0.647  15.743 -0.8461  3.0708 -0.1546
 4898SOL     OW26155   0.992   1.182   7.137  0.2003 -0.1181 -0.2158
 4898SOL    HW126156   0.980   1.182   7.042 -0.9022 -0.9858 -0.0896
 4898SOL    HW226157   0.901   1.208   7.154  0.0740 -1.3774  1.1221
 4899SOL     OW26158   4.497   1.005   2.056  0.6233  0.1353 -0.6775
 4899SOL    HW126159   4.513   0.944   2.129  2.8980  1.8336  0.2379
 4899SOL    HW226160   4.421   1.053   2.088  0.5549  1.1992 -2.4536
 4900SOL     OW26161   0.950   2.780   1.499 -0.3002  0.1162 -0.0897
 4900SOL    HW126162   0.913   2.752   1.583 -2.3520 -1.5434 -1.5605
 4900SOL    HW226163   0.935   2.874   1.508  2.0699  0.5857 -1.1407
 4901SOL     OW26164   1.856   4.069  13.984 -0.4525  0.1507  0.3693
 4901SOL    HW126165   1.915   4.012  14.032  1.5589  2.1998  0.3194
 4901SOL    HW226166   1.865   4.147  14.040 -0.6411 -0.4542  1.2485
 4902SOL     OW26167   2.539   3.373  10.119 -0.2185 -0.2240 -0.3154
 4902SOL    HW126168   2.583   3.451  10.153  1.4888  0.2001 -3.4922
 4902SOL    HW226169   2.490   3.347  10.197 -2.3564  0.3280 -1.4685
 4903SOL     OW26170   4.034   0.461   6.374 -0.1818 -0.0939 -0.2690
 4903SOL    HW126171   4.066   0.493   6.290  1.1799  0.4994  0.4777
 4903SOL    HW226172   4.064   0.534   6.428  0.8802 -1.2297  0.6921
 4904SOL     OW26173   2.709   2.575  15.216  0.0860  0.3626  0.2510
 4904SOL    HW126174   2.668   2.660  15.228 -0.8149 -0.2056  1.2595
 4904SOL    HW226175   2.794   2.600  15.179 -0.0838  2.2351  1.1490
 4905SOL     OW26176   1.799   1.741   9.418 -0.3389 -0.1841  0.2293
 4905SOL    HW126177   1.794   1.805   9.489  1.3340 -1.3343  1.3727
 4905SOL    HW226178   1.756   1.791   9.348  1.6486 -0.7728 -1.4088
 4906SOL     OW26179   3.225   0.822  10.618  0.0907  0.6107  0.3948
 4906SOL    HW126180   3.305   0.870  10.639 -0.3775  0.7488  1.8684
 4906SOL    HW226181   3.179   0.890  10.570  0.4607  1.0810  0.7039
 4907SOL     OW26182   0.399   3.179   5.045 -0.5133 -0.1764  0.2030
 4907SOL    HW126183   0.393   3.104   4.986  0.0772  0.8698 -1.1722
 4907SOL    HW226184   0.491   3.205   5.041 -0.9416  1.3608  0.6062
 4908SOL     OW26185   2.870   0.005   1.702 -0.3314  0.1903 -0.3770
 4908SOL    HW126186   2.901   4.641   1.693 -2.2128 -0.6059  1.1010
 4908SOL    HW226187   2.935   0.039   1.642  0.1253 -0.3337 -0.1768
 4909SOL     OW26188   0.551   1.392   5.847 -0.2126  0.1795 -0.2070
 4909SOL    HW126189   0.523   1.471   5.801 -0.7145 -0.5088 -1.0903
 4909SOL    HW226190   0.537   1.420   5.937 -1.0393 -3.9070  0.9084
 4910SOL     OW26191   4.343   3.992  11.374  0.2200  0.0237  0.3621
 4910SOL    HW126192   4.431   4.018  11.402  0.6134 -1.6041  0.6715
 4910SOL    HW226193   4.322   4.071  11.325  0.3616  0.5405  1.1417
 4911SOL     OW26194   4.336   2.944   7.133  0.1774 -0.6178 -0.1295
 4911SOL    HW126195   4.257   2.908   7.093  0.9681 -0.0904 -2.1943
 4911SOL    HW226196   4.292   3.011   7.186 -2.1581 -3.3533  1.3482
 4912SOL     OW26197   1.888   1.094   5.673 -0.7899  0.0161 -0.2004
 4912SOL    HW126198   1.881   1.066   5.764  2.6559 -0.5951 -0.1544
 4912SOL    HW226199   1.840   1.024   5.629  0.4432 -0.1079 -1.3257
 4913SOL     OW26200   2.908   2.296   9.216  0.0812 -0.3557  0.5851
 4913SOL    HW126201   2.866   2.210   9.210 -1.4028  0.5372 -1.5686
 4913SOL    HW226202   2.996   2.279   9.182 -0.5041  1.7587 -1.9455
 4914SOL     OW26203   4.647   1.528   5.362 -0.3869  0.2626 -0.2275
 4914SOL    HW126204   4.591   1.483   5.299  0.0812 -1.3267  0.4989
 4914SOL    HW226205   4.681   1.457   5.416 -2.3321 -1.4785 -1.2952
 4915SOL     OW26206   3.898   2.589   5.767 -0.1444 -0.3142 -0.0436
 4915SOL    HW126207   3.883   2.508   5.815 -1.2612  0.0215  0.1597
 4915SOL    HW226208   3.983   2.619   5.800 -0.4998 -1.3186  1.7861
 4916SOL     OW26209   2.565   1.858   3.370  0.2672 -0.8186 -0.1422
 4916SOL    HW126210   2.641   1.864   3.312  0.4636  0.6830  0.2655
 4916SOL    HW226211   2.498   1.838   3.304  0.3714 -2.3672  0.2261
 4917SOL     OW26212   1.291   4.487   5.165 -0.1977  0.1975 -0.1998
 4917SOL    HW126213   1.268   4.529   5.248 -1.7399 -2.3051  0.6599
 4917SOL    HW226214   1.240   4.406   5.169  0.3084 -0.1350 -0.4598
 4918SOL     OW26215   3.781   0.433  10.152 -0.1389  0.9784 -0.4513
 4918SOL    HW126216   3.771   0.524  10.123 -0.4679  0.9282 -0.4865
 4918SOL    HW226217   3.732   0.382  10.087 -0.4712  0.5540  0.1361
 4919SOL     OW26218   3.797   2.077  12.225  0.0026  0.3625 -0.1505
 4919SOL    HW126219   3.702   2.079  12.242  0.1827  1.1245  0.7737
 4919SOL    HW226220   3.803   2.173  12.223  0.7418  0.2371 -3.0220
 4920SOL     OW26221   1.125   1.028   4.042  0.6354  0.1981 -0.2665
 4920SOL    HW126222   1.061   1.093   4.011  0.8359  0.1761 -0.7306
 4920SOL    HW226223   1.064   0.957   4.064  0.1264  0.0016 -2.2546
 4921SOL     OW26224   4.005   2.665   1.825 -0.1652  0.4247  0.2076
 4921SOL    HW126225   3.967   2.658   1.913  1.6637  1.9037  1.1104
 4921SOL    HW226226   3.991   2.759   1.813 -1.9756  0.1628  0.2150
 4922SOL     OW26227   3.978   2.565   5.335  0.0905 -0.4328  0.2129
 4922SOL    HW126228   4.045   2.524   5.280 -1.3153 -1.7333 -0.5108
 4922SOL    HW226229   4.007   2.521   5.415 -0.5702  0.0805  0.7325
 4923SOL     OW26230   2.288   2.552   4.460 -0.5548 -0.2767 -0.2258
 4923SOL    HW126231   2.300   2.613   4.387  0.2735  1.2080  1.1397
 4923SOL    HW226232   2.193   2.553   4.474 -0.5837  2.2779 -0.4665
 4924SOL     OW26233   2.436   0.340   5.967 -0.1394 -0.2410  0.2379
 4924SOL    HW126234   2.390   0.257   5.966 -1.4042  0.4579  0.5240
 4924SOL    HW226235   2.361   0.394   5.944 -0.0069  0.2001  0.8230
 4925SOL     OW26236   2.836   4.447  15.935 -0.3349 -0.2991 -0.0211
 4925SOL    HW126237   2.866   4.427  16.024 -0.5907  0.8405  0.3180
 4925SOL    HW226238   2.805   4.362  15.903  3.6707 -1.3360 -1.1719
 4926SOL     OW26239   0.724   2.957   5.596  0.2744  0.1472  0.2851
 4926SOL    HW126240   0.775   2.924   5.522  1.5919  1.1622  0.7442
 4926SOL    HW226241   0.634   2.969   5.564  0.6131  2.6143  0.2923
 4927SOL     OW26242   2.286   0.302   7.460  0.1336 -0.0248 -0.0776
 4927SOL    HW126243   2.204   0.285   7.413 -0.1066 -2.8598  1.4108
 4927SOL    HW226244   2.305   0.216   7.497  0.2010 -0.5710 -1.3622
 4928SOL     OW26245   1.130   1.017   2.098 -0.2898  1.3683  0.0804
 4928SOL    HW126246   1.197   1.085   2.092 -0.6104  1.8963  2.4625
 4928SOL    HW226247   1.051   1.071   2.102 -2.6051 -2.0841  1.1593
 4929SOL     OW26248   1.177   3.911   3.987 -0.6336  0.4412  0.0711
 4929SOL    HW126249   1.110   3.915   3.919  0.4996 -1.0199 -1.1493
 4929SOL    HW226250   1.219   3.990   3.953  2.0368 -0.7470  0.6022
 4930SOL     OW26251   3.364   3.871  12.716  0.3730  0.1858 -0.1020
 4930SOL    HW126252   3.446   3.822  12.708  0.6652  0.8974 -1.3799
 4930SOL    HW226253   3.356   3.910  12.629 -1.0589  0.2565  0.0745
 4931SOL     OW26254   1.983   3.822   2.957 -0.3859 -0.4730 -0.2323
 4931SOL    HW126255   2.022   3.871   3.030 -2.2435 -2.2392  1.9071
 4931SOL    HW226256   2.059   3.782   2.914 -0.0286 -1.1659  1.0363
 4932SOL     OW26257   1.878   3.518  10.961  0.1324 -0.0506  1.0195
 4932SOL    HW126258   1.889   3.503  11.055 -0.9166  0.1235  1.1706
 4932SOL    HW226259   1.971   3.539  10.949 -0.1724  0.7784  0.0459
 4933SOL     OW26260   3.804   3.658  17.472  0.5762  0.2038 -0.7258
 4933SOL    HW126261   3.831   3.639  17.562 -0.5065  1.4766 -0.1402
 4933SOL    HW226262   3.784   3.567  17.448 -0.2904  0.7842 -2.2089
 4934SOL     OW26263   4.333   2.027   0.784  0.0084 -0.0371  0.1813
 4934SOL    HW126264   4.425   2.049   0.768  0.2811  0.6365  2.7125
 4934SOL    HW226265   4.337   1.965   0.856 -0.5527 -0.0527  0.2018
 4935SOL     OW26266   3.691   3.162   5.194  0.1497  0.1082  0.0054
 4935SOL    HW126267   3.745   3.231   5.233  0.5082 -0.7813  1.0565
 4935SOL    HW226268   3.603   3.184   5.225  0.6543  3.8010 -1.1872
 4936SOL     OW26269   0.708   2.463   7.332  0.2817  0.2907 -0.4170
 4936SOL    HW126270   0.677   2.382   7.293 -1.0942  0.0222  1.2490
 4936SOL    HW226271   0.626   2.513   7.340  0.2980  0.1879  0.3408
 4937SOL     OW26272   3.648   2.833   6.394 -0.0054 -0.0880  0.3168
 4937SOL    HW126273   3.589   2.770   6.435  0.9418 -0.2153  1.4922
 4937SOL    HW226274   3.601   2.856   6.315  1.4740  0.0132 -0.5371
 4938SOL     OW26275   3.475   4.534  12.813  0.5437  0.2973  0.0052
 4938SOL    HW126276   3.438   4.480  12.883 -0.1453  1.5295  0.5778
 4938SOL    HW226277   3.533   4.583  12.870  1.7707  0.3472 -1.2729
 4939SOL     OW26278   0.881   1.151  16.275 -0.4594 -0.4595  0.2167
 4939SOL    HW126279   0.881   1.247  16.279 -0.3186 -0.4686  0.4268
 4939SOL    HW226280   0.957   1.139  16.218 -0.6714  0.9257 -0.3707
 4940SOL     OW26281   1.851   4.177   3.049  0.3801  0.3152 -0.4250
 4940SOL    HW126282   1.856   4.272   3.050  0.3318  0.3132 -0.0821
 4940SOL    HW226283   1.935   4.140   3.076  1.5717  0.1706 -4.3376
 4941SOL     OW26284   1.758   1.167  10.485 -0.0768 -0.0348  0.2894
 4941SOL    HW126285   1.730   1.181  10.395  3.7348 -1.4815 -1.1288
 4941SOL    HW226286   1.852   1.152  10.474  0.3281  1.8969  1.2242
 4942SOL     OW26287   3.844   3.970   8.769  0.5691  0.4609 -0.3981
 4942SOL    HW126288   3.829   3.940   8.859  0.5319 -1.4498 -1.0517
 4942SOL    HW226289   3.812   4.059   8.782  0.8217  0.0795  2.8655
 4943SOL     OW26290   2.904   2.802   4.122  0.0220  0.8816 -0.0857
 4943SOL    HW126291   2.852   2.867   4.170 -1.6631  0.1237 -0.8834
 4943SOL    HW226292   2.857   2.722   4.146  1.7510  0.0750  0.5621
 4944SOL     OW26293   2.803   3.491  10.635 -0.4373  0.1980  0.1906
 4944SOL    HW126294   2.819   3.397  10.644 -1.6433 -0.0751 -0.4494
 4944SOL    HW226295   2.818   3.499  10.729  2.3986 -1.4006 -0.1330
 4945SOL     OW26296   1.109   1.856  14.875 -0.0741 -0.2185  0.3840
 4945SOL    HW126297   1.084   1.920  14.942 -0.8582 -0.0368 -0.0755
 4945SOL    HW226298   1.083   1.772  14.912  0.2497  0.2845  1.7339
 4946SOL     OW26299   0.193   3.956  13.211 -0.4423  0.3657  0.4438
 4946SOL    HW126300   0.118   4.016  13.206  0.3882  1.4703  1.4141
 4946SOL    HW226301   0.259   4.017  13.244 -1.4696  1.8221 -0.2018
 4947SOL     OW26302   3.836   1.094   0.157 -0.2365  0.0947  0.0939
 4947SOL    HW126303   3.747   1.127   0.173 -0.3698 -0.1534 -0.1338
 4947SOL    HW226304   3.828   1.043   0.076  1.1667  1.0982 -0.6827
 4948SOL     OW26305   0.483   3.832   5.843  0.3140 -0.4326  0.0352
 4948SOL    HW126306   0.437   3.760   5.800  0.7962  1.1013 -3.0524
 4948SOL    HW226307   0.522   3.776   5.911  0.4441  0.5292  0.7552
 4949SOL     OW26308   1.939   1.396   2.774 -0.3928 -0.3866  0.1042
 4949SOL    HW126309   1.881   1.454   2.824 -0.1010  0.0334 -0.0486
 4949SOL    HW226310   1.968   1.449   2.700 -1.7541 -0.1896 -0.2915
 4950SOL     OW26311   3.842   3.715   8.069  0.3531  0.2621 -0.3860
 4950SOL    HW126312   3.783   3.762   8.128  1.7822  1.4647  0.0597
 4950SOL    HW226313   3.873   3.785   8.012 -0.9987  1.2140  0.0374
 4951SOL     OW26314   1.107   2.012  15.128  0.6452  0.9894  0.1013
 4951SOL    HW126315   1.138   2.102  15.121 -0.2575  1.3697  0.9984
 4951SOL    HW226316   1.171   1.970  15.187  1.3092 -0.6843 -1.8117
 4952SOL     OW26317   0.058   1.118   3.744 -0.0009 -0.0656  0.2994
 4952SOL    HW126318   0.142   1.153   3.713  0.4731 -1.6065 -0.1774
 4952SOL    HW226319   0.089   1.078   3.825 -0.0112 -2.5969 -0.9651
 4953SOL     OW26320   1.776   4.073   4.697  0.7483  0.0718 -0.1625
 4953SOL    HW126321   1.768   4.144   4.633 -1.8406 -1.2561 -1.2680
 4953SOL    HW226322   1.736   4.109   4.776  1.0020 -0.5191  0.2299
 4954SOL     OW26323   3.235   2.318  14.768 -0.3882  0.1139 -0.1345
 4954SOL    HW126324   3.246   2.413  14.770 -2.2414  0.2853  2.0057
 4954SOL    HW226325   3.226   2.307  14.863  0.1213 -0.8264 -0.1999
 4955SOL     OW26326   4.060   1.671   4.789 -0.0826 -0.4808  0.7551
 4955SOL    HW126327   4.099   1.675   4.876  0.9785  0.9518  0.2085
 4955SOL    HW226328   3.981   1.620   4.805 -0.2706 -0.1961  0.7302
 4956SOL     OW26329   1.027   0.504   7.441  0.3386 -0.3859 -0.5126
 4956SOL    HW126330   0.940   0.512   7.481 -0.2314  1.1089 -2.0370
 4956SOL    HW226331   1.031   0.412   7.415 -0.7785 -0.8038  0.7938
 4957SOL     OW26332   3.467   1.694  11.767  0.2393 -0.3446  0.0498
 4957SOL    HW126333   3.383   1.707  11.811  0.9492  0.2805  1.2169
 4957SOL    HW226334   3.523   1.711  11.842 -0.5747  2.8969 -0.0876
 4958SOL     OW26335   2.814   1.773   6.565  0.5344  0.3362  0.1629
 4958SOL    HW126336   2.747   1.820   6.515  1.8512  1.4774 -0.5414
 4958SOL    HW226337   2.882   1.839   6.578 -0.2862  1.1649  0.2806
 4959SOL     OW26338   3.215   4.679  13.484  0.1521  0.2152  0.4375
 4959SOL    HW126339   3.232   0.021  13.550  0.5558  1.3116 -0.7890
 4959SOL    HW226340   3.133   4.714  13.449 -0.9911 -1.8207  1.1070
 4960SOL     OW26341   1.221   4.462  10.336 -0.0874 -0.0550  0.1147
 4960SOL    HW126342   1.290   4.484  10.274  2.7406 -0.0226  3.2527
 4960SOL    HW226343   1.248   4.373  10.357 -0.1913 -0.0319  0.3524
 4961SOL     OW26344   0.953   4.595   8.869 -0.1400 -0.1092 -0.1144
 4961SOL    HW126345   0.944   4.673   8.923  0.3543 -2.0721  2.7949
 4961SOL    HW226346   0.976   4.525   8.930 -1.3017 -1.0195 -0.7145
 4962SOL     OW26347   4.244   1.199  17.340  0.2870  0.1911 -0.2445
 4962SOL    HW126348   4.154   1.216  17.366 -0.0044  0.7874 -1.5898
 4962SOL    HW226349   4.278   1.190  17.428  0.8996  1.7041 -0.3188
 4963SOL     OW26350   2.574   0.090   9.728 -0.6780  0.3398 -0.6523
 4963SOL    HW126351   2.554   0.019   9.667  0.9793 -0.4156 -0.3173
 4963SOL    HW226352   2.561   0.051   9.814 -1.9495  2.1292 -0.0295
 4964SOL     OW26353   0.125   3.088  15.005  0.2074 -0.2928 -0.4191
 4964SOL    HW126354   0.078   3.113  15.084  1.4544  1.8647 -0.3593
 4964SOL    HW226355   0.072   3.010  14.990 -2.9083  1.2427  2.5799
 4965SOL     OW26356   4.659   2.760  14.807 -0.0126  0.7762 -0.1164
 4965SOL    HW126357   0.013   2.756  14.860  0.6496  4.3556 -0.7968
 4965SOL    HW226358   4.636   2.853  14.813  1.4022  1.2376 -1.9249
 4966SOL     OW26359   2.038   0.895  16.716  0.4778  0.3122  0.2554
 4966SOL    HW126360   2.112   0.881  16.776  0.4360 -0.1155  0.2074
 4966SOL    HW226361   1.996   0.969  16.760 -2.0766 -1.5415  0.9194
 4967SOL     OW26362   3.136   1.932   3.070  0.0216  0.2846  0.3675
 4967SOL    HW126363   3.102   1.928   2.981 -0.4351  1.1970  0.4986
 4967SOL    HW226364   3.206   1.867   3.064  1.4795  2.1619 -2.5134
 4968SOL     OW26365   3.124   2.790  12.504  0.3040 -0.5086  0.1696
 4968SOL    HW126366   3.072   2.801  12.424 -2.9880  1.3824  2.5731
 4968SOL    HW226367   3.054   2.780  12.568 -0.9863 -0.2697 -1.2138
 4969SOL     OW26368   0.561   4.469   0.251 -0.0375 -0.1897  0.0938
 4969SOL    HW126369   0.486   4.468   0.192  1.8123  0.1348 -2.2561
 4969SOL    HW226370   0.521   4.453   0.336  0.5722 -2.1939 -0.0043
 4970SOL     OW26371   4.212   2.312   3.060  0.6482  0.3636  0.0353
 4970SOL    HW126372   4.212   2.407   3.047 -2.4055  0.4003  0.2404
 4970SOL    HW226373   4.285   2.302   3.122  0.3595  1.1757  0.5118
 4971SOL     OW26374   1.797   0.963  13.452  0.7076  0.0638  0.2102
 4971SOL    HW126375   1.871   1.024  13.446 -0.2473  1.1200 -0.8972
 4971SOL    HW226376   1.760   0.955  13.364 -0.4757  0.2739  0.6906
 4972SOL     OW26377   3.300   0.096   4.183  0.1135 -0.8019 -0.4259
 4972SOL    HW126378   3.371   0.129   4.129 -0.9503  1.1885 -0.6074
 4972SOL    HW226379   3.248   0.044   4.123 -1.7278  1.2684 -0.6446
 4973SOL     OW26380   2.484   1.061   8.311 -0.4486  0.3777 -0.0598
 4973SOL    HW126381   2.495   1.140   8.364  1.7326  2.1079 -3.0537
 4973SOL    HW226382   2.575   1.029   8.314 -0.7475 -0.5013 -0.4189
 4974SOL     OW26383   3.629   3.094  14.427 -0.0251 -0.6472 -0.0085
 4974SOL    HW126384   3.604   3.072  14.516  1.4029 -1.3245  0.2291
 4974SOL    HW226385   3.548   3.063  14.387  0.0222 -0.8240  0.0336
 4975SOL     OW26386   0.682   4.209   8.830  0.4841  0.5169 -0.4532
 4975SOL    HW126387   0.653   4.118   8.836 -0.1523  0.5871 -2.4415
 4975SOL    HW226388   0.775   4.196   8.812  0.6275  1.3442 -0.3089
 4976SOL     OW26389   2.827   3.848  17.504 -0.0668  0.7481 -0.1072
 4976SOL    HW126390   2.769   3.893  17.565 -0.8535 -0.0163 -0.3019
 4976SOL    HW226391   2.760   3.794  17.463 -1.0822  0.9551  1.2773
 4977SOL     OW26392   3.397   3.727  11.846 -0.6644 -0.3998  0.7490
 4977SOL    HW126393   3.391   3.801  11.786 -0.9227 -0.9371  0.1064
 4977SOL    HW226394   3.432   3.766  11.926  2.0498 -0.6684 -0.3155
 4978SOL     OW26395   1.497   0.438   9.263 -0.5095  0.0340 -0.5904
 4978SOL    HW126396   1.413   0.398   9.286  0.8365 -2.2322  0.4053
 4978SOL    HW226397   1.489   0.520   9.215 -2.1232  0.4459  0.4071
 4979SOL     OW26398   0.785   1.043   2.934  0.8016 -0.2941  0.5250
 4979SOL    HW126399   0.826   1.057   3.019  3.0180  0.2703 -0.6452
 4979SOL    HW226400   0.785   0.948   2.947 -2.4962 -0.5234 -1.2412
 4980SOL     OW26401   2.737   2.524   9.608 -0.3680 -0.6482  0.2305
 4980SOL    HW126402   2.767   2.612   9.628 -2.1567  0.2981 -1.2886
 4980SOL    HW226403   2.733   2.536   9.513  1.1611 -0.8664  0.1298
 4981SOL     OW26404   3.666   3.591   3.965  0.5418 -0.6348  0.3779
 4981SOL    HW126405   3.597   3.540   4.007 -0.3083 -1.8734 -2.5946
 4981SOL    HW226406   3.724   3.519   3.939  1.9956  0.8413 -0.5019
 4982SOL     OW26407   0.386   4.305  13.551 -0.1867  0.2223  0.1997
 4982SOL    HW126408   0.397   4.400  13.559  1.8804 -0.0333  0.6149
 4982SOL    HW226409   0.472   4.271  13.525 -1.2671 -1.3690 -1.2772
 4983SOL     OW26410   0.439   4.278   2.416  0.8104  0.7037  0.1357
 4983SOL    HW126411   0.419   4.355   2.361  0.3688 -0.1510 -0.9092
 4983SOL    HW226412   0.367   4.219   2.393 -0.3787  2.1513  0.0630
 4984SOL     OW26413   1.686   0.865  13.668 -0.2196  0.1122  0.1767
 4984SOL    HW126414   1.730   0.887  13.586 -0.1448 -1.0746 -0.1004
 4984SOL    HW226415   1.611   0.925  13.668 -0.4052 -0.1097  1.9107
 4985SOL     OW26416   1.111   4.081   4.270  0.3230 -0.0733  0.1177
 4985SOL    HW126417   1.183   4.103   4.211 -0.4544 -0.8140 -1.1136
 4985SOL    HW226418   1.094   4.169   4.304 -0.3595  0.2631 -1.0734
 4986SOL     OW26419   0.034   4.653   3.414 -0.6180 -0.9599  0.2011
 4986SOL    HW126420   0.079   0.011   3.403 -2.3159 -0.0713  0.0793
 4986SOL    HW226421   0.015   4.653   3.508 -2.9298  2.2506 -0.2687
 4987SOL     OW26422   3.232   1.979  11.331 -0.2123  1.1713  0.2873
 4987SOL    HW126423   3.219   2.032  11.409  2.1612  1.9431  0.1382
 4987SOL    HW226424   3.298   1.917  11.359 -0.9036  0.5316  0.4818
 4988SOL     OW26425   2.136   0.987   3.738  0.0092 -0.0945  0.2993
 4988SOL    HW126426   2.060   0.931   3.720 -1.9132  1.6839  2.9597
 4988SOL    HW226427   2.099   1.075   3.728  0.8056  0.2363  0.2848
 4989SOL     OW26428   3.556   4.605   2.467 -0.5320  0.6428  0.7641
 4989SOL    HW126429   3.598   4.598   2.381 -0.3706 -1.1816  0.9952
 4989SOL    HW226430   3.483   4.662   2.443 -0.3095 -0.5743 -2.9067
 4990SOL     OW26431   3.272   1.873  16.482 -0.5752 -0.1013  0.2813
 4990SOL    HW126432   3.312   1.878  16.395 -1.4641 -1.6402 -0.2290
 4990SOL    HW226433   3.183   1.906  16.469 -1.0274 -1.5309 -0.3071
 4991SOL     OW26434   0.405   3.699   7.230  0.3428 -0.1412 -0.3363
 4991SOL    HW126435   0.336   3.692   7.164 -0.6324  0.1710  0.6346
 4991SOL    HW226436   0.453   3.768   7.184  0.3848 -0.5899 -0.9641
 4992SOL     OW26437   2.525   4.006   2.709 -1.0535  0.5459 -1.1437
 4992SOL    HW126438   2.472   4.004   2.789 -0.3361  1.5011 -0.6502
 4992SOL    HW226439   2.480   3.937   2.659  0.4812 -0.8657 -0.5961
 4993SOL     OW26440   0.664   3.847   3.793  0.2194 -0.4114 -0.1114
 4993SOL    HW126441   0.685   3.896   3.713  1.5226  1.2475  1.2713
 4993SOL    HW226442   0.621   3.771   3.754 -0.4471  1.3299 -2.7738
 4994SOL     OW26443   3.521   1.794  14.732 -1.0927  0.0267  0.6467
 4994SOL    HW126444   3.458   1.776  14.662  0.0182 -0.4055 -0.2364
 4994SOL    HW226445   3.606   1.762  14.701 -1.4426  1.0279 -1.3493
 4995SOL     OW26446   2.926   4.726   1.009 -0.5118  0.3990  0.2360
 4995SOL    HW126447   2.940   0.030   1.099 -1.8773  1.6315  0.0345
 4995SOL    HW226448   2.911   4.632   1.020 -0.5104  0.4588  0.7710
 4996SOL     OW26449   0.108   1.999   9.166  0.6358  0.0390  0.3261
 4996SOL    HW126450   0.055   1.954   9.231  2.0915 -1.7958  0.2428
 4996SOL    HW226451   0.070   1.971   9.083 -0.3577  0.2977  0.6942
 4997SOL     OW26452   3.428   2.382   1.935 -0.1352  0.5532 -0.0035
 4997SOL    HW126453   3.346   2.394   1.887  0.5331 -0.8143 -1.4754
 4997SOL    HW226454   3.490   2.451   1.913  0.0510  0.5650  0.5544
 4998SOL     OW26455   3.887   1.006   5.325  0.3897 -0.9053  0.0048
 4998SOL    HW126456   3.902   0.999   5.231  0.5994  0.7072 -0.0869
 4998SOL    HW226457   3.821   0.941   5.348 -0.2467 -1.3882 -3.1469
 4999SOL     OW26458   0.688   0.135   7.417 -0.7403 -0.1593 -0.0949
 4999SOL    HW126459   0.600   0.157   7.448 -1.0726  0.7674 -1.7026
 4999SOL    HW226460   0.704   0.195   7.345  2.3558 -0.9594 -0.0897
 5000SOL     OW26461   4.600   2.859   9.694  0.1669 -0.1617 -0.2944
 5000SOL    HW126462   4.659   2.906   9.753 -1.7058  0.0881  1.3653
 5000SOL    HW226463   4.520   2.903   9.721  0.2395 -0.4655  0.4264
 5001SOL     OW26464   0.230   4.362   4.485 -0.0124 -0.0261  0.2235
 5001SOL    HW126465   0.320   4.393   4.481 -0.2915  0.7502 -0.2484
 5001SOL    HW226466   0.186   4.443   4.456  1.2994  0.3437 -0.7320
 5002SOL     OW26467   1.517   3.059   3.663  0.3690 -0.2763  0.5339
 5002SOL    HW126468   1.503   2.965   3.665 -1.7065  0.0556  2.1623
 5002SOL    HW226469   1.606   3.074   3.631  0.0904 -2.0975 -1.1050
 5003SOL     OW26470   3.283   3.125   1.855  0.1184 -0.2283  0.8645
 5003SOL    HW126471   3.356   3.085   1.902  1.4401  0.7119 -0.4116
 5003SOL    HW226472   3.292   3.220   1.860  0.6705 -0.3214  1.7343
 5004SOL     OW26473   0.667   4.099   7.530  0.5567 -0.2324  0.5785
 5004SOL    HW126474   0.579   4.079   7.498  0.2594  0.0020  1.2318
 5004SOL    HW226475   0.712   4.137   7.455  0.5090  0.4264  0.8742
 5005SOL     OW26476   4.224   2.028   6.103  0.3179 -0.3882  0.0461
 5005SOL    HW126477   4.177   2.112   6.111 -2.2726 -1.6392 -2.0858
 5005SOL    HW226478   4.293   2.053   6.165  0.7931  0.2070 -0.7258
 5006SOL     OW26479   4.521   0.164   7.222  0.0859  0.3106 -0.5187
 5006SOL    HW126480   4.506   0.069   7.216 -0.7301  0.5169 -1.6441
 5006SOL    HW226481   4.478   0.181   7.306  0.3389  0.0740 -0.3382
 5007SOL     OW26482   4.524   0.378  16.589 -0.1929  0.6213  0.0360
 5007SOL    HW126483   4.437   0.341  16.574 -0.6513  2.2455 -1.3937
 5007SOL    HW226484   4.577   0.332  16.524  0.8835  1.7597  0.0868
 5008SOL     OW26485   2.706   0.411   9.801 -0.0663 -0.1729 -0.0024
 5008SOL    HW126486   2.662   0.340   9.849  1.7350 -1.6486 -0.5289
 5008SOL    HW226487   2.716   0.367   9.716 -2.0306  0.4643 -0.5567
 5009SOL     OW26488   0.711   2.180   7.607  0.2021 -0.4673 -0.3377
 5009SOL    HW126489   0.783   2.138   7.653  1.7106 -0.2969 -2.5480
 5009SOL    HW226490   0.671   2.110   7.556  0.8212 -0.0970 -1.3376
 5010SOL     OW26491   2.396   4.167   5.713 -0.1057 -0.1422  0.2666
 5010SOL    HW126492   2.461   4.233   5.736 -1.7988  1.8475 -0.5850
 5010SOL    HW226493   2.320   4.225   5.704  0.2432  0.4902  1.4583
 5011SOL     OW26494   3.423   1.489   4.833 -0.4825  0.1385 -0.9323
 5011SOL    HW126495   3.373   1.522   4.758  0.3760 -1.5546 -2.2617
 5011SOL    HW226496   3.365   1.425   4.873  0.1018 -0.0032 -0.3124
 5012SOL     OW26497   4.168   1.412  12.067  0.2022 -0.4093 -0.1630
 5012SOL    HW126498   4.078   1.402  12.038 -0.6272  1.4069  1.7604
 5012SOL    HW226499   4.157   1.493  12.116  1.3929 -0.5393  0.3280
 5013SOL     OW26500   4.148   4.111   4.786 -0.2644 -0.6945  0.6632
 5013SOL    HW126501   4.224   4.153   4.825  0.6144 -1.1546 -0.5280
 5013SOL    HW226502   4.086   4.099   4.858 -1.2295 -0.4723 -0.1379
 5014SOL     OW26503   2.243   4.622   5.368 -0.4778  0.2666  0.3162
 5014SOL    HW126504   2.268   4.679   5.295 -1.3764 -0.5418 -0.6237
 5014SOL    HW226505   2.319   4.564   5.378 -1.9487 -1.8246 -0.5080
 5015SOL     OW26506   3.138   1.534   7.968 -0.0688  0.7351 -0.2591
 5015SOL    HW126507   3.078   1.597   7.927 -0.6607  0.6558  0.4904
 5015SOL    HW226508   3.131   1.454   7.916  3.3820  0.2140  0.0665
 5016SOL     OW26509   1.379   1.780  15.636  0.2912  0.2483  0.9040
 5016SOL    HW126510   1.326   1.704  15.614 -0.2798  1.3495 -1.5290
 5016SOL    HW226511   1.329   1.823  15.706  1.7643  1.5729  1.1482
 5017SOL     OW26512   1.059   0.789   9.745 -0.1927 -0.9492  0.3207
 5017SOL    HW126513   0.983   0.843   9.761 -0.7282 -0.7093 -3.0179
 5017SOL    HW226514   1.025   0.732   9.676  0.2468 -1.9951  0.9538
 5018SOL     OW26515   2.348   4.208   2.581 -0.4516  0.2271  0.1007
 5018SOL    HW126516   2.381   4.123   2.611  1.4519  0.3166 -1.7407
 5018SOL    HW226517   2.388   4.210   2.494  0.8673 -0.7874  0.6713
 5019SOL     OW26518   2.038   0.124   1.917  0.7755  0.0731  0.6840
 5019SOL    HW126519   1.951   0.118   1.956  0.8824  0.9845  1.0578
 5019SOL    HW226520   2.042   0.036   1.881 -0.3306 -0.0929  0.9487
 5020SOL     OW26521   2.795   3.980  11.333  0.5395 -0.7886  0.9737
 5020SOL    HW126522   2.754   4.058  11.371  1.7494  0.5784 -0.5256
 5020SOL    HW226523   2.811   3.935  11.416  2.0430 -2.5215 -0.2646
 5021SOL     OW26524   0.732   1.156  13.491 -0.0932 -0.1937  0.4728
 5021SOL    HW126525   0.761   1.237  13.534  1.8767 -0.0227 -1.1353
 5021SOL    HW226526   0.795   1.162  13.419  0.7090  1.9808  1.3312
 5022SOL     OW26527   0.488   2.635   1.060  0.2531 -0.4923 -0.5572
 5022SOL    HW126528   0.552   2.605   1.125  0.1637  2.0450  0.6932
 5022SOL    HW226529   0.437   2.683   1.125 -0.0761 -0.4717 -0.8324
 5023SOL     OW26530   2.194   2.876   5.646  0.2846  0.2494  0.9365
 5023SOL    HW126531   2.101   2.854   5.642 -0.2923  2.7981  0.0960
 5023SOL    HW226532   2.210   2.842   5.735  1.8171  0.0978  0.5885
 5024SOL     OW26533   4.364   2.999   9.747  0.4260  0.6060 -0.6582
 5024SOL    HW126534   4.342   3.091   9.730 -0.7638  0.6263  1.0173
 5024SOL    HW226535   4.283   2.957   9.774  0.9921 -0.2520 -0.2771
 5025SOL     OW26536   3.730   3.862   7.574 -0.3132  0.3578  0.2031
 5025SOL    HW126537   3.825   3.854   7.559  0.0155  3.3582  0.6994
 5025SOL    HW226538   3.707   3.771   7.593  0.7988 -0.3017 -1.6316
 5026SOL     OW26539   3.045   1.852   9.272 -1.0133 -0.2330  0.2594
 5026SOL    HW126540   3.089   1.936   9.256  0.3688 -0.7983  1.0579
 5026SOL    HW226541   3.086   1.789   9.212 -3.0304  0.5696 -1.9494
 5027SOL     OW26542   3.263   2.206   6.115 -0.3464  0.1746  0.0731
 5027SOL    HW126543   3.237   2.115   6.128  1.3040 -0.5339 -1.4505
 5027SOL    HW226544   3.305   2.227   6.198  1.6521 -1.6021 -0.4862
 5028SOL     OW26545   3.870   3.007   7.129 -0.0958 -0.4068  0.0522
 5028SOL    HW126546   3.825   3.059   7.196 -0.6466 -0.4817 -0.2584
 5028SOL    HW226547   3.796   2.976   7.077 -2.4650  3.6053  1.0796
 5029SOL     OW26548   1.791   3.051  13.562  0.9140 -0.3302  0.1676
 5029SOL    HW126549   1.865   3.042  13.502 -0.0642  0.9602 -1.2428
 5029SOL    HW226550   1.717   3.019  13.511  1.1139  2.3681 -1.8150
 5030SOL     OW26551   1.936   3.563  15.359 -0.4365  0.4247 -0.2605
 5030SOL    HW126552   1.967   3.653  15.352  0.9713  0.0399  0.9785
 5030SOL    HW226553   1.887   3.556  15.441 -0.8054  2.8190 -0.2897
 5031SOL     OW26554   3.938   2.722  15.795  0.4607  0.0251  0.3534
 5031SOL    HW126555   3.861   2.736  15.739  2.2308  0.5158 -1.9776
 5031SOL    HW226556   3.950   2.629  15.779 -1.1485 -0.0750 -0.3540
 5032SOL     OW26557   3.629   3.096   3.138 -0.9777 -0.1477 -0.3108
 5032SOL    HW126558   3.550   3.055   3.170  0.2786 -0.4597  2.3687
 5032SOL    HW226559   3.612   3.190   3.138  1.4941  0.3071 -0.3351
 5033SOL     OW26560   1.008   1.859  16.232 -0.1211 -0.3026 -0.4358
 5033SOL    HW126561   1.058   1.884  16.155 -2.1056 -0.2655 -1.7227
 5033SOL    HW226562   1.052   1.779  16.261  1.7791  0.4874 -1.1880
 5034SOL     OW26563   0.080   2.415   5.758  0.2242  0.1947  0.2587
 5034SOL    HW126564   0.133   2.472   5.703  0.3171  0.3957  0.5593
 5034SOL    HW226565   0.053   2.348   5.695 -1.6408  0.9064  0.2889
 5035SOL     OW26566   3.000   3.207   0.681  0.0240 -0.4924 -0.0672
 5035SOL    HW126567   2.973   3.287   0.636  1.6372  0.5047  0.7456
 5035SOL    HW226568   2.938   3.204   0.754  0.4679 -0.0453  0.3297
 5036SOL     OW26569   1.156   4.560   4.449 -0.4685 -0.6944 -0.1943
 5036SOL    HW126570   1.183   4.557   4.541  0.4226 -0.6078 -0.4450
 5036SOL    HW226571   1.228   4.613   4.415  0.0807 -0.1605  1.8303
 5037SOL     OW26572   3.007   1.705   1.986 -0.3501  0.2195  0.1541
 5037SOL    HW126573   3.100   1.726   1.981 -0.2031  0.1719  2.8404
 5037SOL    HW226574   2.989   1.788   2.029  0.7265 -0.8080  2.5970
 5038SOL     OW26575   0.132   3.723   4.587  0.4027  0.5056  0.1002
 5038SOL    HW126576   0.064   3.775   4.629  1.5951  2.4510 -0.3837
 5038SOL    HW226577   0.110   3.632   4.608  1.0472 -0.0328 -1.5021
 5039SOL     OW26578   1.877   1.230   6.596 -0.2119  0.2702 -0.7120
 5039SOL    HW126579   1.958   1.255   6.552  1.0822  1.9112  2.5578
 5039SOL    HW226580   1.810   1.261   6.536 -1.0918 -0.8031 -0.2858
 5040SOL     OW26581   1.756   0.410   3.656 -0.2011  0.2822  0.1477
 5040SOL    HW126582   1.705   0.469   3.602 -0.5706 -0.6793 -0.5512
 5040SOL    HW226583   1.733   0.409   3.749  2.8754 -0.0995  0.9221
 5041SOL     OW26584   0.444   1.908  15.015  0.1070  0.6827  0.5242
 5041SOL    HW126585   0.426   1.950  14.931 -0.1539 -0.9375 -0.2174
 5041SOL    HW226586   0.536   1.884  15.017 -0.9972 -3.5716 -0.7226
 5042SOL     OW26587   2.106   0.075   7.287  0.1602  0.2837 -0.5180
 5042SOL    HW126588   2.103   0.044   7.377 -0.6774 -0.6723 -0.8796
 5042SOL    HW226589   2.029   0.035   7.246 -2.1809  3.0579  1.1777
 5043SOL     OW26590   3.266   3.079   9.786 -0.0539 -0.5279  0.7492
 5043SOL    HW126591   3.318   3.137   9.842 -3.1550  0.5089  2.5345
 5043SOL    HW226592   3.176   3.112   9.793  1.1412  2.5674  1.3466
 5044SOL     OW26593   1.374   2.736   4.706 -0.0507  0.0336  0.1773
 5044SOL    HW126594   1.330   2.718   4.789 -2.7026  0.6612 -1.0757
 5044SOL    HW226595   1.304   2.717   4.643 -0.9987  3.6740  0.1287
 5045SOL     OW26596   1.153   0.569   0.921  0.0482 -0.1049 -0.1218
 5045SOL    HW126597   1.088   0.528   0.978  0.7658  1.1890  1.6350
 5045SOL    HW226598   1.094   0.587   0.848  1.5119  2.3575 -0.6973
 5046SOL     OW26599   3.042   1.386   2.609  0.3091 -0.1551 -0.2150
 5046SOL    HW126600   3.109   1.387   2.678  0.5514  0.4860 -0.4562
 5046SOL    HW226601   2.987   1.310   2.627 -0.4909  0.0225 -1.9327
 5047SOL     OW26602   0.080   1.629   7.066  0.2012 -0.2293 -0.3792
 5047SOL    HW126603   0.033   1.712   7.056  1.1808  0.4611  0.8805
 5047SOL    HW226604   0.170   1.658   7.056  0.5294  0.2540  3.9277
 5048SOL     OW26605   0.303   1.829   2.915 -0.3997 -0.6206  0.6287
 5048SOL    HW126606   0.294   1.868   2.828 -2.1497 -2.0416  0.1694
 5048SOL    HW226607   0.398   1.824   2.919 -0.2670  0.8432 -0.6430
 5049SOL     OW26608   0.180   0.892   2.577 -0.0937 -0.4361  0.1851
 5049SOL    HW126609   0.104   0.836   2.596 -0.5697 -0.1122 -0.7991
 5049SOL    HW226610   0.214   0.854   2.496  0.0362  0.0124  0.0336
 5050SOL     OW26611   1.836   1.608   4.905  0.3984 -0.2422 -0.2217
 5050SOL    HW126612   1.825   1.703   4.905  1.9867 -0.0296  4.3659
 5050SOL    HW226613   1.756   1.573   4.867  0.4844 -0.3802 -0.2783
 5051SOL     OW26614   0.567   2.745  12.448  0.6489  0.0339  0.3179
 5051SOL    HW126615   0.623   2.821  12.464  0.5219  0.2993 -0.5030
 5051SOL    HW226616   0.514   2.738  12.528  1.0734 -0.6732  0.5331
 5052SOL     OW26617   1.262   2.916   7.686 -0.1556  0.3818  0.8907
 5052SOL    HW126618   1.355   2.919   7.663 -0.4628 -0.6393 -0.4588
 5052SOL    HW226619   1.272   2.854   7.759 -1.5329  1.1497  1.7216
 5053SOL     OW26620   2.453   3.485   9.677 -0.3525  0.1530 -0.3999
 5053SOL    HW126621   2.390   3.557   9.670 -0.8922 -0.2778  0.0003
 5053SOL    HW226622   2.533   3.537   9.671 -0.2976 -0.3847 -3.9372
 5054SOL     OW26623   4.121   3.844   3.323  0.5677 -0.8066 -0.3632
 5054SOL    HW126624   4.170   3.886   3.394  0.5716  0.2520 -0.9893
 5054SOL    HW226625   4.189   3.840   3.256  1.7278 -0.8421  0.8023
 5055SOL     OW26626   3.386   1.148   4.459 -0.0412 -0.6791  0.1620
 5055SOL    HW126627   3.380   1.086   4.532  2.0923 -0.3038  0.6567
 5055SOL    HW226628   3.368   1.229   4.505 -0.6861 -0.2935 -0.7841
 5056SOL     OW26629   2.315   0.768   1.474  0.1294 -0.3020  0.5947
 5056SOL    HW126630   2.266   0.717   1.410 -2.6154  2.5025  0.4117
 5056SOL    HW226631   2.404   0.765   1.439  0.1556  0.0930  0.6284
 5057SOL     OW26632   0.747   4.714   2.068  0.1529 -0.1270  0.2984
 5057SOL    HW126633   0.768   4.623   2.091 -0.6773 -0.4841 -0.3365
 5057SOL    HW226634   0.827   0.021   2.027 -0.0328  0.4092  0.3780
 5058SOL     OW26635   0.574   3.974  11.723  0.8108  0.5804 -0.1959
 5058SOL    HW126636   0.559   4.043  11.658  0.0346  1.7255  1.1947
 5058SOL    HW226637   0.603   3.901  11.668  1.1219  1.1361 -0.7781
 5059SOL     OW26638   0.701   2.943   0.399  0.0587  1.0632 -0.9349
 5059SOL    HW126639   0.610   2.925   0.425  0.2655  1.3272 -0.0166
 5059SOL    HW226640   0.686   2.948   0.305 -0.5748  2.0455 -0.7743
 5060SOL     OW26641   1.691   1.156  13.850  0.2921  0.3200 -0.6168
 5060SOL    HW126642   1.662   1.242  13.819 -0.0192  0.5607  0.3393
 5060SOL    HW226643   1.607   1.111  13.855 -0.8106  2.3809 -0.9578
 5061SOL     OW26644   3.701   1.602  11.678  0.3650 -0.3960  0.7170
 5061SOL    HW126645   3.752   1.670  11.722 -1.2260  0.1545  1.7117
 5061SOL    HW226646   3.614   1.606  11.717 -0.7492 -0.6387 -1.7570
 5062SOL     OW26647   1.503   3.583   4.260  0.6977 -0.0132  0.0734
 5062SOL    HW126648   1.481   3.626   4.178 -1.5901  3.1062  2.3303
 5062SOL    HW226649   1.573   3.523   4.235  1.2955  1.1881 -1.1397
 5063SOL     OW26650   4.679   4.573  12.761 -0.3591 -0.0388  0.3207
 5063SOL    HW126651   4.649   4.484  12.779  1.3802 -0.2427  2.2277
 5063SOL    HW226652   4.663   4.579  12.667  2.6512  0.7316 -0.1479
 5064SOL     OW26653   4.021   0.437  17.229 -0.3214  0.2276  0.4448
 5064SOL    HW126654   3.960   0.391  17.287 -0.4126  1.9477  1.7043
 5064SOL    HW226655   4.080   0.365  17.208  0.5408  0.8803  0.6462
 5065SOL     OW26656   4.269   3.405   8.510 -0.9692 -0.0517  0.7240
 5065SOL    HW126657   4.188   3.448   8.537 -1.0118 -0.5928  1.4579
 5065SOL    HW226658   4.262   3.322   8.556 -1.9020  0.6550  1.8685
 5066SOL     OW26659   3.060   3.452   9.065 -0.5779 -0.3035 -0.1081
 5066SOL    HW126660   3.146   3.438   9.025  0.9604 -1.1657  3.4982
 5066SOL    HW226661   3.082   3.419   9.153 -0.8340  0.7027  0.3331
 5067SOL     OW26662   4.001   2.261   3.553 -0.2753  0.0819  0.4598
 5067SOL    HW126663   3.942   2.275   3.627 -0.1406  1.9311  0.2179
 5067SOL    HW226664   4.083   2.286   3.597  0.9765  0.7964 -2.2379
 5068SOL     OW26665   3.869   4.623  15.709  0.1374 -0.2231  0.3082
 5068SOL    HW126666   3.783   4.624  15.665  1.0044  0.6227 -1.3896
 5068SOL    HW226667   3.925   4.615  15.632 -0.9629 -1.4587 -0.3804
 5069SOL     OW26668   0.209   2.232   8.690  0.3852  0.2599  0.1771
 5069SOL    HW126669   0.230   2.140   8.703  0.7693  0.5699  1.7610
 5069SOL    HW226670   0.292   2.247   8.644  0.6133 -2.1891 -0.1863
 5070SOL     OW26671   3.987   3.301   8.384  0.5386  0.4510  0.0421
 5070SOL    HW126672   3.961   3.232   8.445 -3.4604  1.6186 -0.3768
 5070SOL    HW226673   3.947   3.381   8.416  1.5835  1.3016 -0.7643
 5071SOL     OW26674   1.332   3.611   6.323  0.0211  0.3700  0.1418
 5071SOL    HW126675   1.364   3.521   6.329  2.0632  1.1079  0.4622
 5071SOL    HW226676   1.277   3.622   6.401 -1.5397  1.2859 -1.1001
 5072SOL     OW26677   3.299   3.660   6.591 -0.4219 -0.5218 -0.0934
 5072SOL    HW126678   3.305   3.741   6.541 -1.1078  0.0658  0.7983
 5072SOL    HW226679   3.339   3.604   6.524  1.8492  2.0093 -0.8728
 5073SOL     OW26680   2.886   0.069   5.557 -0.3643 -0.0931  0.7877
 5073SOL    HW126681   2.921   4.719   5.509  0.4012  0.9674 -0.3186
 5073SOL    HW226682   2.793   0.051   5.545 -0.1283  0.6502 -2.2191
 5074SOL     OW26683   1.502   0.019   2.327  0.0219  0.6312 -0.0638
 5074SOL    HW126684   1.505   4.651   2.314 -1.3065  0.8326 -1.7210
 5074SOL    HW226685   1.591   0.042   2.353 -0.3149 -0.8001  2.3507
 5075SOL     OW26686   3.072   1.257   8.804 -0.3718 -0.3293 -0.0525
 5075SOL    HW126687   3.155   1.304   8.797 -1.8593  2.2149 -0.6519
 5075SOL    HW226688   3.096   1.166   8.819  0.4211  0.3758  3.0133
 5076SOL     OW26689   2.578   0.941   0.753 -0.1818  0.4847  0.0225
 5076SOL    HW126690   2.605   0.973   0.839 -0.9281  1.9612 -0.2932
 5076SOL    HW226691   2.491   0.905   0.768 -0.8564  1.7265 -0.8747
 5077SOL     OW26692   4.479   0.086   4.813 -0.1630  0.3890  0.5002
 5077SOL    HW126693   4.573   0.069   4.824 -0.4476 -2.6206 -1.7678
 5077SOL    HW226694   4.443   4.723   4.814  0.7330  0.0249  0.9195
 5078SOL     OW26695   4.052   1.003   1.338  0.2381 -0.6129 -0.2507
 5078SOL    HW126696   3.973   1.016   1.390 -1.0454 -0.6335 -2.1842
 5078SOL    HW226697   4.078   0.922   1.383 -0.5826 -0.6203  0.2164
 5079SOL     OW26698   0.139   0.198  11.523 -0.7194  0.0170 -0.6352
 5079SOL    HW126699   0.202   0.144  11.475  0.6636 -0.6067  1.8252
 5079SOL    HW226700   0.178   0.184  11.610  0.2284  1.5678 -0.7963
 5080SOL     OW26701   2.931   0.480  13.308  0.1180 -0.0825  0.2700
 5080SOL    HW126702   2.892   0.407  13.259  1.4813  1.3302 -2.9122
 5080SOL    HW226703   2.949   0.454  13.398  0.5074 -2.0751 -0.3789
 5081SOL     OW26704   4.017   0.160   2.490 -0.6030 -0.5594 -0.0393
 5081SOL    HW126705   3.924   0.167   2.508  0.0274  3.0404  1.8801
 5081SOL    HW226706   4.010   0.101   2.415  0.0539 -0.8666  0.1354
 5082SOL     OW26707   3.833   4.109   7.821 -0.1444  0.1217 -0.3571
 5082SOL    HW126708   3.878   4.044   7.875  0.4296  0.5999 -0.2534
 5082SOL    HW226709   3.878   4.188   7.852  0.3179  0.8044 -2.8165
 5083SOL     OW26710   0.372   0.261   5.848  0.2121  0.2306 -0.5056
 5083SOL    HW126711   0.388   0.303   5.763  2.7235  0.2144 -0.0483
 5083SOL    HW226712   0.461   0.228   5.866  0.7348  1.1157 -1.4683
 5084SOL     OW26713   0.936   1.785   7.105  0.4595  0.0830 -0.3496
 5084SOL    HW126714   1.020   1.739   7.098  0.7635  0.2136  2.3720
 5084SOL    HW226715   0.926   1.834   7.023 -0.9827 -0.5104 -0.5245
 5085SOL     OW26716   0.594   3.629   5.151 -0.7445  0.5497 -0.1901
 5085SOL    HW126717   0.588   3.544   5.194  2.6001  0.1318 -0.5290
 5085SOL    HW226718   0.574   3.608   5.059  1.6763  2.9050 -1.2667
 5086SOL     OW26719   1.053   1.755   5.780 -0.0947  0.1881 -0.0646
 5086SOL    HW126720   1.042   1.791   5.868  0.9586  0.5967 -0.1013
 5086SOL    HW226721   1.148   1.766   5.779 -0.4433  3.0268 -2.6282
 5087SOL     OW26722   3.767   3.694  14.187 -0.1145  0.1520 -0.1562
 5087SOL    HW126723   3.697   3.659  14.243  0.8902 -2.9410 -0.8062
 5087SOL    HW226724   3.721   3.769  14.148 -0.3260 -1.3085 -2.7378
 5088SOL     OW26725   2.062   0.101   3.285 -0.2226  0.5761  0.2066
 5088SOL    HW126726   2.132   0.051   3.327  1.1710  0.4880 -2.1965
 5088SOL    HW226727   2.038   0.053   3.205  4.1789  0.6045 -1.1144
 5089SOL     OW26728   0.125   2.736   2.436  0.5192  0.5229  0.0822
 5089SOL    HW126729   0.166   2.819   2.411  0.0422  0.6417 -0.3115
 5089SOL    HW226730   0.078   2.714   2.356  1.5224  2.0146 -0.9329
 5090SOL     OW26731   2.512   4.240   5.362 -0.0784 -0.2051 -0.0315
 5090SOL    HW126732   2.514   4.151   5.397  1.6213 -0.5984 -1.1286
 5090SOL    HW226733   2.599   4.268   5.390 -0.0178  0.2641 -0.7088
 5091SOL     OW26734   0.895   3.783   1.539 -0.2077 -0.2857  0.3515
 5091SOL    HW126735   0.812   3.738   1.553 -0.5242  0.6417  1.4138
 5091SOL    HW226736   0.956   3.732   1.593  2.4302  1.3357 -1.0859
 5092SOL     OW26737   1.328   2.975   0.715 -0.2473  0.2612  0.0058
 5092SOL    HW126738   1.331   2.916   0.639 -1.4988  0.4696 -0.2094
 5092SOL    HW226739   1.243   2.948   0.749 -0.9249  3.2200  0.6451
 5093SOL     OW26740   2.080   0.061   8.493  0.1706 -0.3966 -0.2848
 5093SOL    HW126741   2.104   0.085   8.582 -1.1693 -0.0190 -0.0419
 5093SOL    HW226742   2.031   4.706   8.505 -1.0293  0.2966 -0.6040
 5094SOL     OW26743   1.789   3.544   3.201  0.5180 -0.3793 -0.4219
 5094SOL    HW126744   1.697   3.530   3.179  0.7850 -0.1434 -1.6575
 5094SOL    HW226745   1.795   3.638   3.190  4.2171 -0.5370  0.3209
 5095SOL     OW26746   4.312   0.467  12.306 -0.1900 -0.1264  0.1024
 5095SOL    HW126747   4.367   0.546  12.307 -0.6341  0.1737  1.8810
 5095SOL    HW226748   4.333   0.425  12.223  0.0403  1.1090 -0.4603
 5096SOL     OW26749   0.250   3.424   1.872  0.1961  0.4100  0.5195
 5096SOL    HW126750   0.338   3.430   1.833  0.6742 -2.5441  1.1160
 5096SOL    HW226751   0.207   3.382   1.797 -0.1861 -1.5227  1.8243
 5097SOL     OW26752   4.173   3.410   2.780  0.5692 -0.4360  0.1780
 5097SOL    HW126753   4.142   3.496   2.809 -2.0328 -1.0739 -0.6809
 5097SOL    HW226754   4.210   3.375   2.861  1.4164  2.3242  0.9618
 5098SOL     OW26755   4.639   0.580   5.927  0.0591  0.1689 -0.0537
 5098SOL    HW126756   0.002   0.546   5.935  0.2181  1.0506  1.9713
 5098SOL    HW226757   4.587   0.502   5.909  0.1703  0.2384 -0.6783
 5099SOL     OW26758   1.374   0.915  16.668 -0.3360  0.0536 -0.9555
 5099SOL    HW126759   1.351   0.845  16.729  0.9147 -0.2100 -0.8023
 5099SOL    HW226760   1.424   0.876  16.597  0.4116  0.7615 -0.8228
 5100SOL     OW26761   2.969   2.235   5.162  0.2521  0.6849  0.2067
 5100SOL    HW126762   2.987   2.147   5.194  1.7742  1.0205  0.2972
 5100SOL    HW226763   2.920   2.229   5.081  0.2076  0.5780  0.2419
 5101SOL     OW26764   4.404   2.529   6.403 -0.0642  0.1741  0.7480
 5101SOL    HW126765   4.422   2.470   6.476 -2.1036 -0.7650  0.4949
 5101SOL    HW226766   4.464   2.498   6.334  1.2264  1.2329  1.3833
 5102SOL     OW26767   2.046   2.612  15.436  0.2901 -0.3941 -0.6007
 5102SOL    HW126768   2.052   2.643  15.526  2.9038 -0.9095 -0.5789
 5102SOL    HW226769   2.077   2.521  15.437 -0.5936 -0.6814  0.5350
 5103SOL     OW26770   3.796   2.033   2.224  0.2299 -0.0197 -0.1253
 5103SOL    HW126771   3.773   2.067   2.310 -0.9433  0.4437 -0.6168
 5103SOL    HW226772   3.857   2.094   2.181 -0.2229 -0.1185 -0.9040
 5104SOL     OW26773   3.585   0.597   1.954 -0.0409  0.1339  0.3092
 5104SOL    HW126774   3.665   0.575   2.003 -0.0216  0.4448  0.4215
 5104SOL    HW226775   3.557   0.668   2.013 -0.5097  0.2854 -0.0969
 5105SOL     OW26776   1.545   1.435   1.864  0.1501  0.4004  0.2574
 5105SOL    HW126777   1.616   1.374   1.885  1.1464  1.4725 -0.0072
 5105SOL    HW226778   1.534   1.416   1.771 -0.9718 -0.5353  0.5778
 5106SOL     OW26779   1.815   3.097   6.511  0.5592  0.7464 -0.2460
 5106SOL    HW126780   1.779   3.011   6.535  0.2522  0.7415 -0.7154
 5106SOL    HW226781   1.778   3.116   6.424  2.0630  0.2072 -0.9934
 5107SOL     OW26782   2.963   1.476   8.628 -0.2482 -0.1594  0.0496
 5107SOL    HW126783   2.882   1.434   8.601 -1.1609  1.0838  0.8373
 5107SOL    HW226784   2.994   1.420   8.700  0.1038  1.5725  1.2544
 5108SOL     OW26785   1.447   3.500   8.925 -0.2370  0.1302  0.5316
 5108SOL    HW126786   1.542   3.493   8.940  0.1791  1.1295 -1.6146
 5108SOL    HW226787   1.415   3.411   8.931  0.9148 -0.2481  1.0870
 5109SOL     OW26788   0.060   0.790   5.329 -0.0792 -0.5975 -0.2091
 5109SOL    HW126789   0.117   0.750   5.394 -3.1040  1.3312  3.6568
 5109SOL    HW226790   4.702   0.768   5.370 -1.0292  0.5851 -1.4999
 5110SOL     OW26791   1.753   3.392  11.237  0.3739 -0.1811  0.3305
 5110SOL    HW126792   1.682   3.406  11.174  1.9451  0.5593 -1.2760
 5110SOL    HW226793   1.706   3.436  11.308  0.5292  0.2128  0.1932
 5111SOL     OW26794   3.613   3.664   9.248 -0.3897  0.1108  0.4311
 5111SOL    HW126795   3.566   3.674   9.330  0.0143  0.9581  0.5617
 5111SOL    HW226796   3.591   3.749   9.210 -2.9624 -0.2043  1.2590
 5112SOL     OW26797   2.729   3.461   1.072 -0.5730  0.1931 -0.2221
 5112SOL    HW126798   2.654   3.408   1.101 -0.9809  0.8291 -0.1246
 5112SOL    HW226799   2.749   3.508   1.153 -1.6262 -0.3542  0.3587
 5113SOL     OW26800   0.132   1.130  10.277  0.3637  0.0545  0.7865
 5113SOL    HW126801   0.096   1.046  10.304  0.2953 -0.6213 -1.3607
 5113SOL    HW226802   0.170   1.161  10.359  1.3224  0.4029  0.2137
 5114SOL     OW26803   0.173   3.496   1.285  0.6201  0.0477 -0.4784
 5114SOL    HW126804   0.133   3.566   1.338 -1.6351 -1.2684 -0.4645
 5114SOL    HW226805   0.100   3.476   1.228  0.8974  1.4904 -1.3392
 5115SOL     OW26806   0.165   2.143   7.069 -0.6764  0.3398 -0.3545
 5115SOL    HW126807   0.211   2.123   6.987 -1.0636  1.8923 -0.9568
 5115SOL    HW226808   0.220   2.095   7.130 -0.7387 -0.1981 -0.7229
 5116SOL     OW26809   2.406   1.774   1.695  0.0739  0.6507 -0.3412
 5116SOL    HW126810   2.378   1.848   1.642 -0.1574  1.0867  0.3895
 5116SOL    HW226811   2.347   1.779   1.771 -0.0003 -0.6390 -0.3140
 5117SOL     OW26812   2.187   3.224   6.183 -0.5720 -0.1331  0.2338
 5117SOL    HW126813   2.259   3.253   6.127 -0.2122  1.4084  1.4792
 5117SOL    HW226814   2.165   3.140   6.142  0.8953  1.1719 -3.2725
 5118SOL     OW26815   2.222   3.915   2.583 -0.1650 -0.5830 -0.5850
 5118SOL    HW126816   2.311   3.891   2.558 -0.4026 -1.0895 -0.9413
 5118SOL    HW226817   2.194   3.986   2.526 -0.7710 -0.1993  0.1873
 5119SOL     OW26818   1.473   0.645   5.051  0.3135 -0.3635  0.3933
 5119SOL    HW126819   1.522   0.647   5.133  0.7799 -0.1096  0.1098
 5119SOL    HW226820   1.465   0.739   5.038 -0.7277 -0.3896  0.8549
 5120SOL     OW26821   1.673   0.437   3.260  0.1156 -0.0600 -0.3777
 5120SOL    HW126822   1.749   0.388   3.293  0.8926  1.4543  0.0660
 5120SOL    HW226823   1.617   0.360   3.261  0.2417 -0.1356  1.1789
 5121SOL     OW26824   3.416   0.152   9.584  0.1971 -0.1954  0.4741
 5121SOL    HW126825   3.392   0.244   9.575  0.9572  0.0919  1.3586
 5121SOL    HW226826   3.391   0.131   9.674 -2.1129  0.4261 -0.0039
 5122SOL     OW26827   1.800   3.239   5.276  0.0073  0.6474 -0.0404
 5122SOL    HW126828   1.742   3.271   5.207  0.2512  1.5471  0.1680
 5122SOL    HW226829   1.883   3.264   5.235  0.8073  0.5664  1.5261
 5123SOL     OW26830   0.379   1.800   4.789 -0.4823 -0.0492  0.9759
 5123SOL    HW126831   0.472   1.809   4.809 -0.4196 -2.2059  1.6727
 5123SOL    HW226832   0.347   1.823   4.875  1.8701 -1.1342  2.1621
 5124SOL     OW26833   1.647   2.000   4.372 -0.6105  0.0914 -0.5278
 5124SOL    HW126834   1.710   2.059   4.413 -3.6124  2.6918  0.3559
 5124SOL    HW226835   1.596   1.971   4.447 -1.0450  1.6935 -0.2126
 5125SOL     OW26836   3.010   4.002   5.023 -0.4040  0.4112  0.7160
 5125SOL    HW126837   2.930   3.982   4.974 -1.2912  1.0198  1.9209
 5125SOL    HW226838   2.983   4.087   5.058 -0.9642 -0.2350  1.8360
 5126SOL     OW26839   2.354   0.024   4.480  0.0739 -0.0065 -0.2888
 5126SOL    HW126840   2.378   0.031   4.388  2.7232  2.1501  0.5321
 5126SOL    HW226841   2.293   0.095   4.501 -1.5031 -1.5969  0.4713
 5127SOL     OW26842   2.732   4.650  16.129  0.2346 -0.0192  0.6105
 5127SOL    HW126843   2.786   4.723  16.160 -2.2977  2.2032 -0.2427
 5127SOL    HW226844   2.771   4.630  16.044 -0.6586 -0.2444  0.2656
 5128SOL     OW26845   2.996   3.568  11.094 -0.2220 -0.3506 -0.0331
 5128SOL    HW126846   2.992   3.663  11.103  0.2093 -0.3181 -0.1688
 5128SOL    HW226847   3.041   3.525  11.166  1.3240 -0.4871 -1.0587
 5129SOL     OW26848   2.232   0.894   5.762  0.4689  0.8083 -0.3056
 5129SOL    HW126849   2.288   0.967   5.736  1.1404  0.3233 -0.2221
 5129SOL    HW226850   2.302   0.830   5.747  0.2500  0.0272  2.0010
 5130SOL     OW26851   1.844   2.481   3.017 -0.5606  0.0624 -0.0820
 5130SOL    HW126852   1.881   2.542   3.080  0.7755 -0.0836 -0.7304
 5130SOL    HW226853   1.764   2.523   2.984 -0.7120 -0.7502 -0.7688
 5131SOL     OW26854   3.662   2.404   0.735  0.2690  0.0261 -0.2177
 5131SOL    HW126855   3.585   2.458   0.718 -0.8283 -0.5116  3.1717
 5131SOL    HW226856   3.623   2.330   0.688  1.6316 -1.7879  1.5483
 5132SOL     OW26857   2.165   1.273   3.680 -1.1190 -0.3478 -0.3048
 5132SOL    HW126858   2.110   1.330   3.626  0.3732  2.4721  1.1190
 5132SOL    HW226859   2.227   1.340   3.710 -0.1407 -2.0910  1.5645
 5133SOL     OW26860   3.514   1.152   2.961  0.2932  0.1711  0.2878
 5133SOL    HW126861   3.526   1.232   2.910  0.0720  1.6162  2.5454
 5133SOL    HW226862   3.422   1.142   2.984 -0.8476  3.3464 -2.9630
 5134SOL     OW26863   0.594   2.595   3.070 -0.1376 -0.0263 -0.2522
 5134SOL    HW126864   0.552   2.602   2.985 -3.6373  0.6865  1.5524
 5134SOL    HW226865   0.536   2.535   3.117  0.2783 -0.4854 -0.3164
 5135SOL     OW26866   0.219   3.551   9.719 -0.5222 -0.2362 -0.1138
 5135SOL    HW126867   0.254   3.505   9.643  0.4331  1.1896 -0.5384
 5135SOL    HW226868   0.275   3.628   9.721  0.3949 -0.9324  1.8587
 5136SOL     OW26869   2.500   1.719  15.556  0.1566  0.0350 -0.9289
 5136SOL    HW126870   2.412   1.755  15.547  0.5390  0.9667 -0.8526
 5136SOL    HW226871   2.499   1.658  15.481  1.6452 -0.4665 -0.5483
 5137SOL     OW26872   3.066   1.464   4.863 -0.5357  0.1451 -0.2402
 5137SOL    HW126873   3.013   1.513   4.800  0.2448 -0.2386 -1.1941
 5137SOL    HW226874   3.106   1.534   4.914 -1.0429  0.0523  0.2913
 5138SOL     OW26875   3.465   4.592   7.909 -0.2043 -0.2862  0.4657
 5138SOL    HW126876   3.442   4.571   8.000  2.8994 -0.7204  1.1529
 5138SOL    HW226877   3.394   4.651   7.883  0.0319 -0.5062 -0.6699
 5139SOL     OW26878   2.694   2.822   9.005  0.0222  0.4272  0.1348
 5139SOL    HW126879   2.738   2.737   9.012 -0.1732  0.3429  0.3015
 5139SOL    HW226880   2.607   2.796   9.035  0.8868 -2.5851 -0.0571
 5140SOL     OW26881   4.423   1.894   3.451  0.0449  0.3697 -0.3875
 5140SOL    HW126882   4.390   1.941   3.529 -0.2654 -1.4320  0.5615
 5140SOL    HW226883   4.459   1.963   3.395 -0.8529  0.7845 -0.4655
 5141SOL     OW26884   1.279   3.044  13.452 -0.3605  0.0136 -0.0167
 5141SOL    HW126885   1.327   2.964  13.430  0.5862  0.7542 -0.6358
 5141SOL    HW226886   1.359   3.094  13.470 -0.9119  0.9764 -0.2346
 5142SOL     OW26887   4.267   3.423   5.816  0.0415 -0.9173 -1.2128
 5142SOL    HW126888   4.222   3.482   5.876 -1.8263  0.8248 -4.3720
 5142SOL    HW226889   4.204   3.351   5.813 -0.8167 -0.2959  1.5929
 5143SOL     OW26890   0.961   2.586   8.858 -0.5253  0.1003  0.3480
 5143SOL    HW126891   0.957   2.491   8.850  1.5505 -0.0704  1.5697
 5143SOL    HW226892   0.874   2.602   8.821 -1.2949 -1.2527  1.5980
 5144SOL     OW26893   0.398   2.079  15.333 -0.0274 -0.1822 -0.4064
 5144SOL    HW126894   0.451   2.134  15.391  0.9576 -1.5608  0.0129
 5144SOL    HW226895   0.450   1.998  15.334 -1.2086 -0.9406  0.0127
 5145SOL     OW26896   2.139   2.603  12.531 -0.1547 -0.3733 -0.0531
 5145SOL    HW126897   2.112   2.695  12.530 -2.8438 -1.1920 -0.9466
 5145SOL    HW226898   2.119   2.582  12.440 -1.4926  0.2203  0.1097
 5146SOL     OW26899   3.262   2.764  12.249  0.2744  0.1797 -0.2546
 5146SOL    HW126900   3.179   2.731  12.280 -0.2052  1.0723 -0.5721
 5146SOL    HW226901   3.316   2.732  12.321  1.4981  0.1237 -1.1935
 5147SOL     OW26902   1.817   1.445   5.587  0.4563  0.5847 -0.8448
 5147SOL    HW126903   1.741   1.497   5.563  3.6820  4.7817 -2.0380
 5147SOL    HW226904   1.805   1.360   5.544 -1.5142 -0.9295  2.6473
 5148SOL     OW26905   0.208   2.075  13.382 -0.5142 -0.6365  0.0471
 5148SOL    HW126906   0.266   2.142  13.346  1.5467 -1.0794  2.5159
 5148SOL    HW226907   0.248   2.083  13.468  1.0803  1.5592 -0.8960
 5149SOL     OW26908   3.339   1.834  15.982  0.7396 -0.6142 -0.0367
 5149SOL    HW126909   3.295   1.812  15.901  1.3383  1.9857 -1.0754
 5149SOL    HW226910   3.397   1.758  15.977  0.1123 -0.9781 -1.9020
 5150SOL     OW26911   3.468   1.769   1.715  0.7436 -0.6222 -0.0764
 5150SOL    HW126912   3.496   1.822   1.640  3.1547 -1.5643  0.1723
 5150SOL    HW226913   3.425   1.696   1.669 -0.0081  0.0838 -0.5049
 5151SOL     OW26914   0.277   0.940  13.578 -0.2317  0.3681  0.1636
 5151SOL    HW126915   0.251   0.912  13.665 -0.1694  2.6635  0.9126
 5151SOL    HW226916   0.333   1.016  13.596  0.4834  0.4380 -2.3617
 5152SOL     OW26917   0.268   3.071   9.063  0.3410  0.5420  0.4106
 5152SOL    HW126918   0.219   3.039   8.986  0.6251  0.9017  0.0779
 5152SOL    HW226919   0.353   3.072   9.020  1.0033 -2.1047  1.7224
 5153SOL     OW26920   0.741   4.532   4.656  0.3041 -0.0454 -0.8580
 5153SOL    HW126921   0.794   4.594   4.706 -0.3660 -0.6003  0.5417
 5153SOL    HW226922   0.810   4.481   4.614 -0.8445 -0.0928 -2.6872
 5154SOL     OW26923   4.043   0.675  12.085 -0.5978 -0.1898  0.4972
 5154SOL    HW126924   4.077   0.690  11.997  2.6629 -1.9264  1.4410
 5154SOL    HW226925   4.065   0.582  12.091 -0.4982 -0.0910  1.5951
 5155SOL     OW26926   0.881   2.520  16.285 -0.5129 -0.1195 -0.0356
 5155SOL    HW126927   0.891   2.614  16.271  3.1688 -0.5544 -0.4590
 5155SOL    HW226928   0.788   2.508  16.305 -0.2261  0.2097  1.5030
 5156SOL     OW26929   4.414   4.595   5.041 -0.7570  0.2944  0.4494
 5156SOL    HW126930   4.508   4.587   5.054 -0.4870  0.1284 -1.7371
 5156SOL    HW226931   4.399   4.566   4.951  1.7315  1.9514 -0.4969
 5157SOL     OW26932   2.255   2.865  11.533 -0.3731  0.1528  0.3560
 5157SOL    HW126933   2.270   2.780  11.493  0.7506  0.7506 -0.5254
 5157SOL    HW226934   2.175   2.890  11.486 -0.4154 -0.6700 -0.0058
 5158SOL     OW26935   3.821   0.050  16.557  0.2830 -0.3787 -0.1135
 5158SOL    HW126936   3.845   4.684  16.565 -1.6494 -0.7909  1.0531
 5158SOL    HW226937   3.884   0.091  16.498  1.9890 -0.9128  1.3244
 5159SOL     OW26938   3.566   1.615   4.521  0.2127  0.1475 -0.3284
 5159SOL    HW126939   3.570   1.523   4.548  0.8307  0.2140 -0.1854
 5159SOL    HW226940   3.485   1.612   4.470 -1.2315 -0.2381  2.0191
 5160SOL     OW26941   1.595   3.557  15.775 -0.1847 -0.2480  0.5682
 5160SOL    HW126942   1.606   3.651  15.791  1.6338 -0.3656 -0.0404
 5160SOL    HW226943   1.501   3.547  15.760 -0.0566  1.3890 -1.4397
 5161SOL     OW26944   1.342   3.540   2.982 -0.2907 -0.0943 -0.2612
 5161SOL    HW126945   1.307   3.459   3.020 -0.1570 -0.8825 -1.8101
 5161SOL    HW226946   1.431   3.518   3.011 -0.6141 -2.0688 -0.7502
 5162SOL     OW26947   3.309   1.842  17.585  0.1301  0.7818  0.7889
 5162SOL    HW126948   3.384   1.901  17.588  0.3307  0.5225  0.7835
 5162SOL    HW226949   3.308   1.806  17.673 -2.1436 -0.6937  0.1552
 5163SOL     OW26950   3.573   3.225   2.091 -0.3373  0.2246  0.5534
 5163SOL    HW126951   3.554   3.149   2.036  2.5743 -0.2368  0.1897
 5163SOL    HW226952   3.639   3.187   2.149 -1.0953 -2.8545 -0.5786
 5164SOL     OW26953   0.863   3.872  14.507  0.0051 -0.2343 -0.3530
 5164SOL    HW126954   0.834   3.790  14.469 -4.4703  1.4645 -0.6289
 5164SOL    HW226955   0.835   3.880  14.598 -0.1326 -0.1227 -0.4043
 5165SOL     OW26956   1.156   1.923   0.194  0.1962  0.3908 -0.3748
 5165SOL    HW126957   1.079   1.923   0.137  0.3012 -0.8604 -0.5261
 5165SOL    HW226958   1.116   1.899   0.277  1.5126 -1.0495 -0.1513
 5166SOL     OW26959   4.528   2.906   8.879  0.3271 -0.5783  0.5163
 5166SOL    HW126960   4.436   2.879   8.875  0.6008 -1.3932 -0.4624
 5166SOL    HW226961   4.570   2.822   8.898  0.3871 -0.4921  0.7615
 5167SOL     OW26962   0.748   1.854   5.629 -0.1621  0.7038  0.6250
 5167SOL    HW126963   0.755   1.761   5.649 -1.2480  0.3756 -0.5353
 5167SOL    HW226964   0.812   1.856   5.558 -0.4845  0.9226  0.3413
 5168SOL     OW26965   1.416   3.027   1.509 -0.2314  0.1392  0.2175
 5168SOL    HW126966   1.473   3.079   1.453 -1.4571 -0.4317 -1.5512
 5168SOL    HW226967   1.381   2.965   1.446 -1.8330  2.4973 -1.2387
 5169SOL     OW26968   3.635   3.688   3.507  0.4572 -0.2175 -0.1646
 5169SOL    HW126969   3.645   3.642   3.423 -0.6084  0.4267 -0.6520
 5169SOL    HW226970   3.710   3.656   3.556 -0.5471 -0.7836  1.0090
 5170SOL     OW26971   0.880   4.059   7.730 -0.5067  0.4686 -0.5766
 5170SOL    HW126972   0.926   4.027   7.652  1.7928  2.8632 -0.2034
 5170SOL    HW226973   0.796   4.033   7.693 -0.5904 -0.2251  0.1073
 5171SOL     OW26974   1.250   3.076   0.386  0.2577  0.5137 -0.4953
 5171SOL    HW126975   1.185   3.111   0.326 -0.6251 -1.1506 -0.4903
 5171SOL    HW226976   1.223   2.985   0.401 -1.2688  1.2455  1.2239
 5172SOL     OW26977   2.737   2.593   5.022  0.7625  0.4522 -0.8054
 5172SOL    HW126978   2.828   2.582   4.994  0.9249  0.1556 -0.1651
 5172SOL    HW226979   2.736   2.672   5.076 -0.2748 -0.4707  0.5229
 5173SOL     OW26980   2.981   0.633   8.492 -0.5545 -0.1966  0.0567
 5173SOL    HW126981   3.057   0.594   8.534  1.1112  0.0291 -2.7711
 5173SOL    HW226982   3.005   0.723   8.514 -0.5658  0.1775 -1.4565
 5174SOL     OW26983   0.241   1.582   6.323  0.3252 -0.3533 -0.2323
 5174SOL    HW126984   0.291   1.506   6.293  0.6609 -0.4819  0.6661
 5174SOL    HW226985   0.185   1.599   6.247  2.5113 -1.3695 -2.0802
 5175SOL     OW26986   3.241   2.052   0.545  0.6434 -0.8584  0.3066
 5175SOL    HW126987   3.245   2.065   0.640  1.1768 -1.0779  0.3105
 5175SOL    HW226988   3.255   2.145   0.526 -3.3159  0.0717  1.9907
 5176SOL     OW26989   3.113   3.527   6.215 -0.2820  0.2674 -0.1477
 5176SOL    HW126990   3.180   3.594   6.226  0.4512 -0.7234  1.3791
 5176SOL    HW226991   3.054   3.571   6.154  0.3468  0.1774 -0.8256
 5177SOL     OW26992   2.855   0.161   1.929 -0.2844 -0.1393 -0.2456
 5177SOL    HW126993   2.872   0.095   1.862  0.2750 -1.0429  0.7795
 5177SOL    HW226994   2.927   0.153   1.992 -0.1418  0.9985 -0.2593
 5178SOL     OW26995   4.137   1.896   8.309  0.0435 -0.2159  0.5394
 5178SOL    HW126996   4.081   1.973   8.317  0.7855  0.2089  1.5866
 5178SOL    HW226997   4.136   1.871   8.216  1.2764 -0.2870  0.5432
 5179SOL     OW26998   1.346   4.563   9.367  0.0496  0.0349  0.0805
 5179SOL    HW126999   1.312   4.570   9.456  2.5763  3.8917  0.7109
 5179SOL    HW227000   1.363   4.652   9.336 -0.7781  0.1075 -0.1612
 5180SOL     OW27001   2.553   3.643   6.797 -0.6654  0.1376 -0.2153
 5180SOL    HW127002   2.591   3.676   6.716  0.1322  0.6105  0.3527
 5180SOL    HW227003   2.482   3.586   6.766  0.2238  0.0658 -2.1285
 5181SOL     OW27004   3.403   2.717  10.959  0.0406 -0.0096 -0.3223
 5181SOL    HW127005   3.390   2.812  10.956 -0.2560  0.0091  1.3564
 5181SOL    HW227006   3.492   2.715  10.993 -0.4103  1.7040  0.9649
 5182SOL     OW27007   2.172   0.426  10.408 -0.1824  0.2159 -0.1717
 5182SOL    HW127008   2.133   0.511  10.387 -1.6935 -0.1873  1.0241
 5182SOL    HW227009   2.265   0.446  10.395 -0.0283 -0.9610 -0.8666
 5183SOL     OW27010   2.846   0.320  17.293 -0.0404  0.3085 -0.1736
 5183SOL    HW127011   2.751   0.317  17.289 -0.0220  0.6585 -0.8878
 5183SOL    HW227012   2.872   0.341  17.203  0.4760 -1.2581 -0.3903
 5184SOL     OW27013   3.393   1.629   6.695  0.4664  0.5753 -0.1596
 5184SOL    HW127014   3.420   1.698   6.755  0.8003  0.6533 -0.3979
 5184SOL    HW227015   3.405   1.668   6.608 -1.1032  1.4679  0.0102
 5185SOL     OW27016   1.457   4.440   2.342  0.0121 -0.2932 -0.4229
 5185SOL    HW127017   1.369   4.420   2.310 -0.7706  2.7686 -0.1239
 5185SOL    HW227018   1.511   4.361   2.338  1.1551  0.6076 -2.7034
 5186SOL     OW27019   3.279   3.873  13.883 -0.1851 -0.0798 -0.0368
 5186SOL    HW127020   3.225   3.943  13.920  0.8683 -0.7609  2.7550
 5186SOL    HW227021   3.370   3.885  13.912 -0.2834 -0.9816  0.6259
 5187SOL     OW27022   4.166   1.041   3.606  0.3268 -0.1406  0.4293
 5187SOL    HW127023   4.077   1.012   3.625  0.9883 -3.4152 -1.5015
 5187SOL    HW227024   4.184   0.985   3.531  0.3818  0.0066  0.3326
 5188SOL     OW27025   1.406   2.566  17.287 -0.4704 -0.1429  0.4109
 5188SOL    HW127026   1.460   2.596  17.360  2.6067 -1.7904 -1.1797
 5188SOL    HW227027   1.478   2.525  17.240  0.1522  0.6752  0.6500
 5189SOL     OW27028   1.541   2.534   8.759 -0.2245  0.1207  0.7626
 5189SOL    HW127029   1.554   2.491   8.674 -0.5843 -0.3297  0.9380
 5189SOL    HW227030   1.451   2.511   8.780  0.1140 -1.1168  0.8338
 5190SOL     OW27031   0.241   4.664   6.687 -0.4340 -0.1813  0.3305
 5190SOL    HW127032   0.228   0.020   6.733 -2.2241 -0.1310 -0.2595
 5190SOL    HW227033   0.335   4.674   6.670 -0.7056  0.0184 -1.0409
 5191SOL     OW27034   0.407   3.350   4.790 -0.3725 -0.5421  0.0949
 5191SOL    HW127035   0.322   3.309   4.773  0.1939 -1.9643  0.6832
 5191SOL    HW227036   0.425   3.319   4.879  0.1829  0.0369  0.1848
 5192SOL     OW27037   1.149   2.727  13.024  0.6128 -0.1327  0.1620
 5192SOL    HW127038   1.227   2.694  12.980  0.5598  1.9648 -1.5435
 5192SOL    HW227039   1.100   2.650  13.053 -1.3104 -0.0215 -2.7741
 5193SOL     OW27040   4.094   1.581   7.475  0.0820  0.0968  0.0785
 5193SOL    HW127041   4.182   1.610   7.499 -0.0161 -1.3379  2.1385
 5193SOL    HW227042   4.076   1.502   7.526 -3.0567  0.0849 -1.0038
 5194SOL     OW27043   4.512   0.933   4.855 -0.4968 -0.8799 -0.0563
 5194SOL    HW127044   4.533   1.024   4.837 -0.2371 -0.6375  1.4413
 5194SOL    HW227045   4.561   0.879   4.793  0.5167 -0.3598  0.2986
 5195SOL     OW27046   3.440   2.526   3.789  0.6820 -0.4595 -0.1606
 5195SOL    HW127047   3.364   2.585   3.795 -0.2293 -1.7151  0.8035
 5195SOL    HW227048   3.421   2.486   3.704  2.1353 -0.3145 -0.5466
 5196SOL     OW27049   0.571   1.709   7.068  0.0918 -0.1918 -0.2268
 5196SOL    HW127050   0.475   1.713   7.069  0.1028 -0.2305  1.2515
 5196SOL    HW227051   0.592   1.651   7.142 -1.1950 -0.8757 -0.3954
 5197SOL     OW27052   3.639   0.261  10.002 -0.1984 -0.2051 -0.2454
 5197SOL    HW127053   3.609   0.176  10.033  0.4633  0.0209  1.0000
 5197SOL    HW227054   3.675   0.238   9.917 -0.4882 -0.0869 -0.4018
 5198SOL     OW27055   0.659   3.659   2.613  0.0356  0.4187 -0.1057
 5198SOL    HW127056   0.615   3.630   2.692  0.0942 -2.6855 -1.2204
 5198SOL    HW227057   0.590   3.660   2.546 -1.6255  1.2081  1.6206
 5199SOL     OW27058   3.207   2.310  10.374 -0.2568 -0.2226 -0.4535
 5199SOL    HW127059   3.149   2.331  10.446  0.3553 -0.8367  0.2172
 5199SOL    HW227060   3.160   2.366  10.312 -0.0334 -0.0243 -0.4433
 5200SOL     OW27061   3.903   1.854   0.424  0.6500 -0.0065 -0.4951
 5200SOL    HW127062   3.890   1.911   0.348 -0.3120  0.5187  0.0578
 5200SOL    HW227063   3.980   1.804   0.399 -1.6784 -2.7971 -2.1083
 5201SOL     OW27064   3.051   3.700  10.221  0.0258  0.5429 -0.0019
 5201SOL    HW127065   3.001   3.619  10.210  2.9705 -1.3138  0.1021
 5201SOL    HW227066   3.059   3.710  10.316  0.4537  2.4168 -0.2344
 5202SOL     OW27067   2.720   0.181   1.235 -0.3305  0.0934  0.3307
 5202SOL    HW127068   2.764   0.244   1.178  0.2442 -0.3830  0.2396
 5202SOL    HW227069   2.709   0.236   1.313  2.4834  1.1484 -0.0218
 5203SOL     OW27070   0.887   1.082   4.548 -0.4883  0.2405  0.0851
 5203SOL    HW127071   0.965   1.030   4.531 -0.5817  0.1463 -0.0474
 5203SOL    HW227072   0.824   1.015   4.520 -0.7471  1.8139 -3.1261
 5204SOL     OW27073   3.658   3.440   1.857 -0.2306  0.1879 -0.7785
 5204SOL    HW127074   3.684   3.387   1.932  0.9803  1.4256 -0.3239
 5204SOL    HW227075   3.647   3.524   1.901 -1.1987 -0.3426  0.0000
 5205SOL     OW27076   0.557   1.494  11.911  0.5393 -0.4655 -0.1537
 5205SOL    HW127077   0.556   1.401  11.890  0.1569 -0.6580  0.6889
 5205SOL    HW227078   0.607   1.488  11.993  0.5028 -0.3041 -0.1191
 5206SOL     OW27079   3.772   1.737  14.898  0.4664  0.2681  0.0542
 5206SOL    HW127080   3.811   1.770  14.979 -0.1294  1.8307 -0.2785
 5206SOL    HW227081   3.769   1.820  14.850  0.3199  0.7309  0.8474
 5207SOL     OW27082   2.945   1.003   6.742  0.0759 -0.1635  0.3050
 5207SOL    HW127083   2.993   0.931   6.783  0.0611  0.3565  1.2282
 5207SOL    HW227084   2.998   1.028   6.666 -2.0475 -0.1864 -1.1877
 5208SOL     OW27085   2.953   4.517   0.558 -0.3347  0.3885 -0.8180
 5208SOL    HW127086   2.901   4.592   0.529  1.0188  0.7779 -2.2516
 5208SOL    HW227087   2.892   4.490   0.627  0.7621 -1.4435 -0.5584
 5209SOL     OW27088   3.560   3.493   0.072 -0.3568  0.2440  0.2116
 5209SOL    HW127089   3.581   3.534   0.156 -0.2891 -0.1741  0.3984
 5209SOL    HW227090   3.648   3.489   0.033  0.5777  0.0523  2.2844
 5210SOL     OW27091   2.938   0.891   5.952 -0.0789  0.0098  0.5155
 5210SOL    HW127092   2.894   0.964   5.995 -1.7229 -0.9379  0.4613
 5210SOL    HW227093   2.922   0.912   5.860 -0.4048  0.2961  0.6361
 5211SOL     OW27094   1.829   3.562   1.193  0.2363 -0.0244 -0.5170
 5211SOL    HW127095   1.769   3.588   1.123  1.0229 -0.9276 -1.5466
 5211SOL    HW227096   1.874   3.645   1.207  1.8937 -0.9329 -0.4105
 5212SOL     OW27097   4.428   2.436   2.768 -0.3695  0.4177  0.0369
 5212SOL    HW127098   4.515   2.476   2.774 -0.3066 -0.0746  2.0979
 5212SOL    HW227099   4.447   2.356   2.816  1.1965  0.2196 -0.8900
 5213SOL     OW27100   3.197   3.863   3.054  0.6263 -0.7615  0.2400
 5213SOL    HW127101   3.148   3.909   2.986  0.9422 -1.3216 -0.3688
 5213SOL    HW227102   3.174   3.772   3.035 -2.4258  0.0724 -0.0956
 5214SOL     OW27103   1.876   1.467   9.427 -0.3382 -0.1853  0.4750
 5214SOL    HW127104   1.846   1.556   9.408  1.0134  0.2557  0.3707
 5214SOL    HW227105   1.963   1.481   9.389 -1.6426  1.7713 -1.7424
 5215SOL     OW27106   0.787   0.018  14.510  0.0926 -0.1050 -0.1347
 5215SOL    HW127107   0.742   0.016  14.426  2.0016  0.3569 -1.1866
 5215SOL    HW227108   0.838   0.099  14.504 -1.8635  1.2663  1.6069
 5216SOL     OW27109   2.288   4.266   9.048 -0.2421  0.2303 -0.3051
 5216SOL    HW127110   2.267   4.175   9.069  1.9435 -0.6418 -1.9148
 5216SOL    HW227111   2.360   4.273   8.985 -2.5144  1.5567 -2.7348
 5217SOL     OW27112   0.525   3.057   7.672  0.3721  0.0849 -0.0048
 5217SOL    HW127113   0.595   3.059   7.608  0.9261 -0.2020  0.5897
 5217SOL    HW227114   0.553   3.131   7.726 -1.2116 -0.5150  1.6629
 5218SOL     OW27115   4.609   3.151  14.460  0.6706 -0.5480 -0.7864
 5218SOL    HW127116   4.686   3.134  14.514 -0.7347 -0.4572  1.2511
 5218SOL    HW227117   4.566   3.232  14.487 -2.2128 -1.4644 -2.6106
 5219SOL     OW27118   2.148   1.875   5.308  0.7658 -0.1936 -0.2625
 5219SOL    HW127119   2.103   1.900   5.227  0.0380  0.4670  0.3470
 5219SOL    HW227120   2.226   1.828   5.278  2.5518  3.0102 -0.6668
 5220SOL     OW27121   1.798   1.344  16.898 -0.7619 -0.3021 -0.2122
 5220SOL    HW127122   1.816   1.257  16.935 -0.3677 -0.0905  0.0878
 5220SOL    HW227123   1.713   1.329  16.857 -1.0229  1.0338 -0.1403
 5221SOL     OW27124   4.226   2.702  16.023  0.0157 -0.0572  0.1665
 5221SOL    HW127125   4.146   2.754  16.022  0.0780  0.0259 -0.8970
 5221SOL    HW227126   4.272   2.737  15.946  1.8109 -1.1980  0.7098
 5222SOL     OW27127   0.957   1.314   6.378 -0.1723 -0.3221 -0.5834
 5222SOL    HW127128   0.927   1.292   6.467 -0.5541  1.1167 -0.3583
 5222SOL    HW227129   0.959   1.228   6.336  2.8446 -0.9940  0.9690
 5223SOL     OW27130   0.316   3.197   6.725  0.7331 -0.7479 -0.0044
 5223SOL    HW127131   0.298   3.218   6.634 -0.8967 -2.6398 -0.1157
 5223SOL    HW227132   0.307   3.282   6.769  0.6917  0.1043 -1.6684
 5224SOL     OW27133   3.710   0.879   8.107 -0.2395  0.4879  0.0013
 5224SOL    HW127134   3.793   0.901   8.150 -0.9041  2.1091  0.4581
 5224SOL    HW227135   3.649   0.915   8.171 -0.1788  1.4126 -0.4561
 5225SOL     OW27136   1.184   1.505   3.921  0.2948  0.2679 -0.8368
 5225SOL    HW127137   1.267   1.522   3.877  1.6983  2.6927  2.7920
 5225SOL    HW227138   1.213   1.424   3.961 -0.3615  0.0480 -0.8118
 5226SOL     OW27139   1.890   0.651   5.396 -0.1704  0.2266 -0.0082
 5226SOL    HW127140   1.952   0.611   5.457  1.5754 -0.4740 -2.2389
 5226SOL    HW227141   1.944   0.715   5.349 -0.6304 -0.5041 -1.5354
 5227SOL     OW27142   1.032   0.307  13.920  0.2935  0.0892 -0.5143
 5227SOL    HW127143   0.950   0.348  13.946  1.1753  0.5907  1.4553
 5227SOL    HW227144   1.043   0.246  13.993 -1.7938  1.2230  0.7427
 5228SOL     OW27145   0.532   0.948   1.765 -0.1096  0.2291  0.2741
 5228SOL    HW127146   0.464   0.888   1.797 -1.2027  1.3515  0.0665
 5228SOL    HW227147   0.518   1.020   1.827 -1.4800  1.3437 -1.3145
 5229SOL     OW27148   4.217   2.509   1.126  0.4396  0.2166  0.1101
 5229SOL    HW127149   4.154   2.582   1.128  1.2317  0.9153 -0.2809
 5229SOL    HW227150   4.258   2.504   1.212 -0.1287 -0.5398  0.3317
 5230SOL     OW27151   2.737   0.953   7.400 -0.0995  0.3504  0.5727
 5230SOL    HW127152   2.736   0.858   7.405  1.1049  0.2326 -1.5702
 5230SOL    HW227153   2.735   0.969   7.306 -1.8051  0.7053  0.6806
 5231SOL     OW27154   0.323   3.239  13.320 -0.0105  0.2513 -0.4219
 5231SOL    HW127155   0.337   3.187  13.399  2.3098 -1.5969 -2.0491
 5231SOL    HW227156   0.380   3.314  13.336 -0.0423  0.2860 -0.4699
 5232SOL     OW27157   1.248   3.243   8.643 -0.5260  0.0119 -0.0884
 5232SOL    HW127158   1.297   3.265   8.722 -0.9396  2.4123 -0.4789
 5232SOL    HW227159   1.312   3.220   8.575 -0.1724 -0.8012  0.5243
 5233SOL     OW27160   0.618   1.219   7.919 -0.6259  0.7531  0.6432
 5233SOL    HW127161   0.682   1.199   7.987 -2.7188 -0.0327  2.3507
 5233SOL    HW227162   0.567   1.139   7.927  0.4296  0.0552  0.3394
 5234SOL     OW27163   2.335   2.380   7.473  0.4907  0.6208  0.0710
 5234SOL    HW127164   2.305   2.471   7.464 -0.1279  0.3744 -0.4195
 5234SOL    HW227165   2.322   2.375   7.568 -2.7151  2.3628 -0.2505
 5235SOL     OW27166   3.574   3.113   6.860 -0.0953  0.5129  0.3751
 5235SOL    HW127167   3.595   3.038   6.917  1.0713  1.6040  1.3841
 5235SOL    HW227168   3.639   3.181   6.877  0.2451  0.4445 -0.6548
 5236SOL     OW27169   1.325   3.683  11.718  0.4037  0.1296 -0.2621
 5236SOL    HW127170   1.265   3.613  11.692  1.3195 -1.2452  1.3259
 5236SOL    HW227171   1.390   3.620  11.747  0.6917  0.8301  0.6043
 5237SOL     OW27172   0.113   3.087  16.848 -0.4330  0.0408 -0.7282
 5237SOL    HW127173   0.104   2.996  16.876 -1.4153 -0.6413 -3.2702
 5237SOL    HW227174   0.127   3.072  16.754 -0.6752  1.0188 -0.9290
 5238SOL     OW27175   1.295   1.404  13.327 -0.5264  0.2337  0.1966
 5238SOL    HW127176   1.263   1.486  13.289 -1.1092  0.3087  0.8373
 5238SOL    HW227177   1.372   1.441  13.371 -0.0742 -1.7483  1.0774
 5239SOL     OW27178   4.645   2.767  16.651 -0.1430 -0.0913  0.0918
 5239SOL    HW127179   4.630   2.851  16.608  1.3943 -0.6537 -1.5329
 5239SOL    HW227180   4.704   2.798  16.720 -0.8626 -2.5926  1.8545
 5240SOL     OW27181   0.789   2.999   9.017  0.0977  0.5062 -0.3045
 5240SOL    HW127182   0.842   2.956   8.950  0.6479 -1.1279  1.1752
 5240SOL    HW227183   0.741   2.923   9.050 -1.0154  1.0988 -0.5490
 5241SOL     OW27184   1.996   3.672  11.210 -0.9390 -0.2481  0.8976
 5241SOL    HW127185   2.058   3.615  11.257 -0.8083 -2.2379 -1.6776
 5241SOL    HW227186   2.060   3.732  11.170  0.6119 -0.9991  2.2621
 5242SOL     OW27187   0.235   1.988   2.413 -0.1823 -0.0535 -0.0998
 5242SOL    HW127188   0.269   1.899   2.424 -0.9386 -0.3273  0.0936
 5242SOL    HW227189   0.181   1.979   2.334 -1.0228  1.2994  0.3138
 5243SOL     OW27190   0.846   0.560   9.920 -0.5838 -0.3064  0.1433
 5243SOL    HW127191   0.824   0.467   9.926 -2.6398  0.2020  0.7463
 5243SOL    HW227192   0.932   0.559   9.879  0.8397 -2.6285  3.1785
 5244SOL     OW27193   0.835   3.481   0.426 -0.3768 -0.0688 -0.6764
 5244SOL    HW127194   0.870   3.407   0.475 -0.0669 -1.0120 -2.3440
 5244SOL    HW227195   0.798   3.428   0.356 -2.8956  0.0602  0.5497
 5245SOL     OW27196   0.845   1.659   2.984  0.7739 -0.2274  0.0772
 5245SOL    HW127197   0.750   1.661   2.988  0.8858 -1.2579  3.5633
 5245SOL    HW227198   0.858   1.565   2.968 -0.8262 -0.1671 -1.5674
 5246SOL     OW27199   1.692   2.173   1.701  0.5361  0.0000 -0.1114
 5246SOL    HW127200   1.733   2.090   1.725  0.8460  0.5418  1.2345
 5246SOL    HW227201   1.656   2.159   1.613 -0.6536 -0.3888  0.4269
 5247SOL     OW27202   3.243   2.892   7.220  0.3162  0.2039  0.1582
 5247SOL    HW127203   3.251   2.964   7.157 -0.5660  0.1326 -0.0449
 5247SOL    HW227204   3.218   2.822   7.159 -3.1006 -0.3178  2.1587
 5248SOL     OW27205   3.070   2.125  14.901 -0.1638  0.2073 -0.8034
 5248SOL    HW127206   3.090   2.186  14.830 -0.7647 -1.5143 -2.4596
 5248SOL    HW227207   2.998   2.079  14.858 -0.3096 -0.6414  0.3317
 5249SOL     OW27208   2.761   3.991  10.160 -0.1243 -0.4598  0.8169
 5249SOL    HW127209   2.689   3.983  10.223 -0.9926 -0.4301 -0.1803
 5249SOL    HW227210   2.770   3.903  10.123  0.6089 -0.4795  1.0552
 5250SOL     OW27211   0.252   2.612   2.631 -0.2269  0.2331 -0.8523
 5250SOL    HW127212   0.336   2.598   2.588  0.3924  0.0437  0.4057
 5250SOL    HW227213   0.210   2.646   2.552  2.2166  0.1809 -2.1618
 5251SOL     OW27214   3.819   1.051   6.683 -0.3795 -0.0772  0.0435
 5251SOL    HW127215   3.842   1.143   6.673 -1.6128 -0.0435 -2.4894
 5251SOL    HW227216   3.775   1.030   6.600  2.5388 -1.1249 -1.2543
 5252SOL     OW27217   3.956   0.028   6.961  0.1031 -0.7137 -0.1853
 5252SOL    HW127218   4.045   0.058   6.941  0.3838 -1.8089 -0.5712
 5252SOL    HW227219   3.973   4.663   6.935  0.0774 -0.5807 -0.6538
 5253SOL     OW27220   1.411   3.756   9.451  0.5400  0.4304 -0.1861
 5253SOL    HW127221   1.405   3.713   9.366 -0.1734 -1.0749  0.6361
 5253SOL    HW227222   1.443   3.690   9.513  1.0485  0.5719 -0.3016
 5254SOL     OW27223   2.179   1.499  10.428 -0.1953 -0.1740 -0.4599
 5254SOL    HW127224   2.178   1.407  10.402  0.8715 -0.0916 -0.8254
 5254SOL    HW227225   2.122   1.527  10.357 -1.0007 -1.9626 -0.5027
 5255SOL     OW27226   1.470   0.114   1.430 -0.0926  0.6068 -0.1925
 5255SOL    HW127227   1.489   0.039   1.487  1.2619  0.5691 -0.6839
 5255SOL    HW227228   1.422   0.169   1.493  0.1155  0.6021 -0.0278
 5256SOL     OW27229   0.540   0.798   3.571 -0.1953  0.9676  0.2212
 5256SOL    HW127230   0.449   0.771   3.563 -0.3027  1.6643 -0.9051
 5256SOL    HW227231   0.528   0.891   3.588 -0.8372  1.1794 -1.3545
 5257SOL     OW27232   0.862   2.477  16.848 -0.1896  0.0241 -0.3369
 5257SOL    HW127233   0.890   2.463  16.757 -0.0880 -1.8248 -0.0185
 5257SOL    HW227234   0.837   2.387  16.870 -0.6205  1.0705  3.2921
 5258SOL     OW27235   0.867   4.403   7.351  0.3089 -0.4288  0.5659
 5258SOL    HW127236   0.823   4.327   7.312 -2.4811  2.4846 -2.0301
 5258SOL    HW227237   0.854   4.471   7.285  3.1447  0.0369  0.5079
 5259SOL     OW27238   1.756   0.268  11.755 -0.1315  0.5967 -0.2322
 5259SOL    HW127239   1.727   0.289  11.666 -3.2863  0.6714  0.8200
 5259SOL    HW227240   1.830   0.211  11.734 -1.8030 -1.9592  0.8714
 5260SOL     OW27241   2.997   0.441  11.821  0.2612 -0.0118 -0.3093
 5260SOL    HW127242   3.033   0.486  11.898 -0.4305 -0.3606  0.2286
 5260SOL    HW227243   2.959   0.510  11.768 -0.6281 -0.3222 -0.0797
 5261SOL     OW27244   2.060   3.327   9.978  0.0062  0.0082  0.2687
 5261SOL    HW127245   2.098   3.243  10.003 -1.6044 -0.6314  0.5286
 5261SOL    HW227246   1.996   3.299   9.912 -1.0462  0.4453  1.1113
 5262SOL     OW27247   2.042   1.574   4.746 -0.1570  0.6493  0.3575
 5262SOL    HW127248   1.977   1.588   4.815 -0.5021  2.1967 -0.2808
 5262SOL    HW227249   2.019   1.492   4.703  1.3928 -0.1588  1.1161
 5263SOL     OW27250   3.813   2.031   8.526 -0.0661  0.1349  0.2188
 5263SOL    HW127251   3.885   1.994   8.577 -0.2063  0.1361  0.4191
 5263SOL    HW227252   3.736   1.986   8.560 -0.4055  1.7329  1.5755
 5264SOL     OW27253   4.054   0.274  10.300  0.3345  0.1245  0.2446
 5264SOL    HW127254   4.146   0.292  10.279  0.6627 -0.8336  0.8626
 5264SOL    HW227255   4.018   0.257  10.213  0.1301  1.6809  0.0273
 5265SOL     OW27256   3.820   2.351  12.275  0.1815  0.0021 -0.0466
 5265SOL    HW127257   3.778   2.419  12.223 -1.6551 -0.0536  1.3854
 5265SOL    HW227258   3.793   2.368  12.365 -0.2365 -0.0311 -0.1654
 5266SOL     OW27259   0.473   4.447   4.408  0.0536 -0.0900  0.2486
 5266SOL    HW127260   0.563   4.459   4.377 -0.4672  0.5202 -1.0285
 5266SOL    HW227261   0.447   4.539   4.417  1.9962  0.5971 -1.2660
 5267SOL     OW27262   3.917   2.976   1.053  0.2088  0.2441 -0.0129
 5267SOL    HW127263   3.915   3.071   1.067 -0.4556 -0.0615  1.8402
 5267SOL    HW227264   3.850   2.980   0.984 -0.6492 -2.0622  0.7143
 5268SOL     OW27265   2.542   0.293   9.311 -0.6322 -0.4031  0.3606
 5268SOL    HW127266   2.594   0.285   9.391 -0.4231  1.3283  0.4015
 5268SOL    HW227267   2.484   0.365   9.336  0.1567 -0.3647  2.0730
 5269SOL     OW27268   0.011   2.126  16.731 -0.0829  0.4392  0.3727
 5269SOL    HW127269   0.079   2.151  16.667  0.9545 -2.1804  0.4587
 5269SOL    HW227270   4.703   2.049  16.686  0.6666 -0.9831  2.2642
 5270SOL     OW27271   4.625   1.913   7.878  0.1225 -0.1988 -0.2438
 5270SOL    HW127272   4.537   1.914   7.839  0.4852 -2.3669 -1.1477
 5270SOL    HW227273   4.659   1.973   7.812 -0.1366  0.6500  0.3982
 5271SOL     OW27274   1.926   0.641  15.239  0.0506  0.4611  0.1845
 5271SOL    HW127275   2.003   0.696  15.220 -0.3831  0.9807 -0.0816
 5271SOL    HW227276   1.929   0.576  15.169  1.4673 -1.8579  2.4038
 5272SOL     OW27277   4.704   4.050   7.156 -0.0462 -0.6484  0.6470
 5272SOL    HW127278   4.654   3.987   7.207 -0.1550 -0.2830  0.9913
 5272SOL    HW227279   0.056   3.998   7.138  0.0057  0.5384 -2.5845
 5273SOL     OW27280   2.560   3.009  17.688 -0.1536  0.1218  0.8953
 5273SOL    HW127281   2.510   3.078  17.646  3.2226 -0.2262 -3.7986
 5273SOL    HW227282   2.647   3.049  17.693  0.0502  0.0014 -1.7008
 5274SOL     OW27283   3.161   2.283   7.386 -0.1266  0.2443 -0.1914
 5274SOL    HW127284   3.195   2.270   7.297 -2.9245  0.0657 -1.2567
 5274SOL    HW227285   3.069   2.266   7.362  0.0153  0.3253 -0.7971
 5275SOL     OW27286   3.387   3.765   1.005 -0.3475 -0.5283  0.0071
 5275SOL    HW127287   3.347   3.694   0.955 -3.8256  1.2265  0.2823
 5275SOL    HW227288   3.377   3.832   0.937 -4.1372 -0.2326  0.8760
 5276SOL     OW27289   2.875   3.119  12.780  0.2397 -0.1892 -0.1075
 5276SOL    HW127290   2.828   3.124  12.863  1.3352 -1.5249  0.5863
 5276SOL    HW227291   2.880   3.027  12.752 -3.0945 -0.7246  1.1651
 5277SOL     OW27292   2.356   2.927   2.187 -0.3971 -0.0283  0.3619
 5277SOL    HW127293   2.402   2.918   2.104 -1.0328  1.4327 -0.1626
 5277SOL    HW227294   2.364   3.021   2.206 -2.3489  0.3011 -0.3801
 5278SOL     OW27295   2.702   4.411   3.194 -0.2817  0.1087  0.4483
 5278SOL    HW127296   2.737   4.489   3.153  0.9375 -0.5188  0.2942
 5278SOL    HW227297   2.611   4.430   3.216  0.6670  2.6231  2.1438
 5279SOL     OW27298   2.926   4.372   9.433  0.1462 -0.1875 -0.6383
 5279SOL    HW127299   2.862   4.443   9.436  0.0286 -0.4422  3.0837
 5279SOL    HW227300   2.861   4.301   9.440  1.4328 -0.9172  3.8946
 5280SOL     OW27301   1.516   1.212   8.755  0.0800 -0.3312  0.1726
 5280SOL    HW127302   1.424   1.224   8.777 -0.0894 -0.8573 -0.2568
 5280SOL    HW227303   1.510   1.139   8.693 -1.9787  0.3782 -0.4573
 5281SOL     OW27304   1.157   1.458   5.522  0.3043 -0.2687  0.0724
 5281SOL    HW127305   1.147   1.370   5.560 -2.1131  0.1545  0.4260
 5281SOL    HW227306   1.078   1.499   5.557 -0.2412 -2.1151  1.0024
 5282SOL     OW27307   4.286   2.639  10.461  0.4596 -0.3605  0.1491
 5282SOL    HW127308   4.348   2.700  10.500  0.9121 -0.3763 -0.5469
 5282SOL    HW227309   4.213   2.658  10.519  0.7690 -0.0044  0.4276
 5283SOL     OW27310   1.718   1.006   2.731  0.2761  0.5181 -0.3856
 5283SOL    HW127311   1.652   0.936   2.731  1.0383 -0.1966 -2.1126
 5283SOL    HW227312   1.655   1.078   2.732 -0.1226  0.1635  0.4329
 5284SOL     OW27313   2.303   2.325   0.252  0.3802  0.3798 -0.3525
 5284SOL    HW127314   2.334   2.411   0.283  0.8073 -0.2314  0.9090
 5284SOL    HW227315   2.374   2.325   0.187  0.7177 -2.5504  0.0148
 5285SOL     OW27316   3.991   2.950   0.325  0.3979 -0.2579  0.0680
 5285SOL    HW127317   4.016   2.862   0.353 -1.1225 -0.7447 -0.1147
 5285SOL    HW227318   3.900   2.928   0.308 -0.2291  3.1699 -1.0276
 5286SOL     OW27319   3.791   3.470   2.375 -0.1766  0.3374  0.2700
 5286SOL    HW127320   3.812   3.499   2.464  0.6645  1.2820 -0.2314
 5286SOL    HW227321   3.709   3.513   2.352 -0.6991  0.7325  2.9204
 5287SOL     OW27322   3.797   3.755  16.114 -0.8500 -0.2705 -0.6019
 5287SOL    HW127323   3.733   3.788  16.051 -0.6281 -0.0402 -0.7079
 5287SOL    HW227324   3.842   3.832  16.148  0.7604 -1.2542 -0.4804
 5288SOL     OW27325   1.749   0.426  10.482 -0.3871  0.0463  0.3144
 5288SOL    HW127326   1.697   0.368  10.537  3.9758 -3.7448  0.4168
 5288SOL    HW227327   1.767   0.493  10.547 -2.2997  0.6238  0.2371
 5289SOL     OW27328   0.841   0.604   7.850  0.2403  0.5761  0.2381
 5289SOL    HW127329   0.810   0.586   7.939  0.0281 -1.2467 -0.1968
 5289SOL    HW227330   0.778   0.549   7.802 -1.4762  1.4008  1.5463
 5290SOL     OW27331   1.045   0.879   9.394 -0.5119 -0.5893  0.1067
 5290SOL    HW127332   1.015   0.969   9.379 -0.7410 -0.3942  1.6884
 5290SOL    HW227333   1.139   0.881   9.411 -0.4464 -1.1022 -0.2040
 5291SOL     OW27334   2.585   4.191   2.402  0.3087  0.1793 -0.1254
 5291SOL    HW127335   2.526   4.123   2.370  0.8848  0.1457 -1.1025
 5291SOL    HW227336   2.668   4.161   2.366  0.7507 -0.4541  1.4201
 5292SOL     OW27337   1.866   3.400   7.772  0.2512  0.1661 -0.1578
 5292SOL    HW127338   1.871   3.357   7.858 -0.8525  2.3594  1.0066
 5292SOL    HW227339   1.831   3.484   7.801 -1.2320 -0.0112 -1.4272
 5293SOL     OW27340   1.306   1.272   6.785  0.1630  0.3186 -0.0867
 5293SOL    HW127341   1.251   1.338   6.829  0.8806  2.0104 -1.7346
 5293SOL    HW227342   1.296   1.304   6.696  0.0099  0.0033 -0.1817
 5294SOL     OW27343   0.289   2.096   5.768  0.0851  0.1331 -0.3686
 5294SOL    HW127344   0.205   2.090   5.814  0.2641  2.1199  0.2437
 5294SOL    HW227345   0.276   2.030   5.700 -1.2815 -0.0503  0.0741
 5295SOL     OW27346   2.111   4.639  11.469 -0.4780 -0.2810  0.3422
 5295SOL    HW127347   2.131   0.005  11.486  2.1014 -0.9621  1.0575
 5295SOL    HW227348   2.044   4.644  11.402 -2.2122  0.7315  2.1720
 5296SOL     OW27349   2.753   1.742   5.702 -0.4744  0.9327 -0.2155
 5296SOL    HW127350   2.687   1.755   5.634 -1.3220 -1.7963  0.0541
 5296SOL    HW227351   2.821   1.800   5.669  1.2854 -1.0336 -0.0637
 5297SOL     OW27352   2.291   3.509  11.199  0.2035  0.2086  0.6875
 5297SOL    HW127353   2.252   3.424  11.217 -2.0962  0.2846 -3.8517
 5297SOL    HW227354   2.385   3.500  11.216  0.0600 -2.8900 -0.1365
 5298SOL     OW27355   0.053   1.197   3.060  0.1437 -0.5579 -0.4939
 5298SOL    HW127356   0.005   1.274   3.091 -0.9364 -0.9702 -1.1451
 5298SOL    HW227357   0.077   1.169   3.149  0.3048 -0.9718 -0.6687
 5299SOL     OW27358   3.890   3.628   9.069 -0.2027  0.2459 -0.6266
 5299SOL    HW127359   3.976   3.627   9.111 -0.0676  0.2404 -0.9048
 5299SOL    HW227360   3.855   3.541   9.088  0.6351 -0.5562 -2.7583
 5300SOL     OW27361   2.344   0.119   0.924 -0.3299  0.8154 -0.0191
 5300SOL    HW127362   2.355   0.089   1.014 -1.4690 -0.5435 -0.3393
 5300SOL    HW227363   2.429   0.159   0.905 -0.4870  1.0350 -0.2663
 5301SOL     OW27364   3.713   1.189   8.173  0.4733 -0.6950 -0.8774
 5301SOL    HW127365   3.645   1.202   8.108 -0.1794 -0.5151 -0.1537
 5301SOL    HW227366   3.783   1.154   8.117  0.4624  0.0359 -1.3511
 5302SOL     OW27367   3.540   2.168  11.460  0.2975  0.0891  0.1645
 5302SOL    HW127368   3.494   2.135  11.537  1.5487 -0.3154  0.7579
 5302SOL    HW227369   3.622   2.119  11.452 -0.6733 -1.3806 -0.7797
 5303SOL     OW27370   2.543   0.927  13.284 -0.1420  0.2320  0.4669
 5303SOL    HW127371   2.568   0.834  13.286 -0.9419 -0.0002 -0.2960
 5303SOL    HW227372   2.591   0.960  13.360 -1.8749 -0.9487  2.0821
 5304SOL     OW27373   3.090   3.614   3.049 -0.0549  0.3013 -0.2849
 5304SOL    HW127374   3.044   3.564   2.982 -5.6918  2.3233  2.0633
 5304SOL    HW227375   3.113   3.545   3.111 -2.5426  0.0935  0.4072
 5305SOL     OW27376   0.602   4.201   2.897  0.1093  0.2837  0.2234
 5305SOL    HW127377   0.557   4.272   2.942  2.0546  0.3959  1.9527
 5305SOL    HW227378   0.539   4.174   2.829  1.3798  0.9420 -1.2165
 5306SOL     OW27379   3.928   0.095  16.810 -0.1454  0.5399 -1.0897
 5306SOL    HW127380   3.883   0.063  16.732 -0.0806 -1.1416 -0.4486
 5306SOL    HW227381   4.018   0.065  16.800  0.5978  1.9489  1.3132
 5307SOL     OW27382   3.340   3.300  11.376 -0.4074  0.0081 -0.3608
 5307SOL    HW127383   3.360   3.288  11.469 -1.1516 -1.6937 -0.4233
 5307SOL    HW227384   3.390   3.228  11.337 -0.4210 -0.3911  0.3579
 5308SOL     OW27385   2.090   1.976  12.933 -0.2125 -0.0163 -0.2243
 5308SOL    HW127386   2.168   1.993  12.987 -0.6281 -1.5133  0.8616
 5308SOL    HW227387   2.126   1.997  12.847 -2.2935  0.0488 -1.0581
 5309SOL     OW27388   2.780   3.871   4.298 -0.5632 -0.6130 -0.3859
 5309SOL    HW127389   2.720   3.924   4.245  0.7879  3.2274  1.9428
 5309SOL    HW227390   2.741   3.783   4.300 -0.9738 -0.4220  0.0266
 5310SOL     OW27391   2.269   0.052   7.061  0.0643  0.6624  0.1410
 5310SOL    HW127392   2.183   0.076   7.026 -0.8963 -2.3966  0.4398
 5310SOL    HW227393   2.250   0.035   7.153  1.1804 -0.3173  0.1775
 5311SOL     OW27394   3.662   3.593   4.804 -0.1122  0.4456 -0.1955
 5311SOL    HW127395   3.680   3.539   4.882  1.6392 -1.1069 -1.6654
 5311SOL    HW227396   3.699   3.539   4.734 -2.3584  0.0036 -1.0261
 5312SOL     OW27397   2.790   1.386  13.535 -0.1215 -0.0708  0.7038
 5312SOL    HW127398   2.761   1.474  13.558 -2.6759 -1.2365  1.8681
 5312SOL    HW227399   2.706   1.344  13.517 -0.3247  1.2960 -1.5658
 5313SOL     OW27400   0.406   3.785   6.918  0.4255 -0.0777  0.0648
 5313SOL    HW127401   0.446   3.715   6.867 -0.4632 -1.4046  1.1998
 5313SOL    HW227402   0.457   3.866   6.914  1.9723 -1.1267 -1.2343
 5314SOL     OW27403   4.195   2.442   7.658  0.2447  0.4871  0.5251
 5314SOL    HW127404   4.259   2.511   7.676  0.6208  0.0015  1.0637
 5314SOL    HW227405   4.213   2.394   7.739 -1.9856  3.5491  2.8206
 5315SOL     OW27406   1.747   2.838   3.250 -0.2851 -0.3618 -0.2300
 5315SOL    HW127407   1.741   2.744   3.229 -0.3485 -0.9138  2.2575
 5315SOL    HW227408   1.653   2.851   3.256 -0.6386 -2.3494 -1.3375
 5316SOL     OW27409   4.701   0.703   2.533  0.7031  0.1586 -0.1246
 5316SOL    HW127410   4.621   0.725   2.581  0.3793 -2.1178  0.4211
 5316SOL    HW227411   4.715   0.611   2.559 -0.8400 -0.3863 -1.2240
 5317SOL     OW27412   2.714   2.433  12.254 -0.5701 -0.9068  0.0864
 5317SOL    HW127413   2.710   2.449  12.160 -0.9495 -3.4876 -0.3595
 5317SOL    HW227414   2.807   2.417  12.269 -0.4644 -0.4481 -0.0937
 5318SOL     OW27415   2.746   3.002   4.179  0.5364 -0.1081 -0.0854
 5318SOL    HW127416   2.746   3.016   4.084 -0.4846 -2.1985 -0.4000
 5318SOL    HW227417   2.685   3.071   4.204  1.1702  0.6012 -0.5272
 5319SOL     OW27418   1.925   2.203  17.023 -0.0984 -0.2890 -0.5935
 5319SOL    HW127419   1.890   2.279  17.070 -2.4176 -1.8037  0.0777
 5319SOL    HW227420   1.913   2.224  16.930  2.4598  1.4217 -0.5339
 5320SOL     OW27421   3.352   1.613   8.083 -0.4391 -0.2356 -0.4729
 5320SOL    HW127422   3.325   1.679   8.147 -0.0404  0.0405 -0.5914
 5320SOL    HW227423   3.265   1.589   8.051 -0.3669 -1.1499  0.0052
 5321SOL     OW27424   3.163   2.251   1.757  0.3860  0.6770  0.2412
 5321SOL    HW127425   3.237   2.200   1.725  0.2014 -0.7996  2.2090
 5321SOL    HW227426   3.154   2.221   1.847  1.0461  0.9435  0.3952
 5322SOL     OW27427   3.466   0.996   3.244  0.1143 -0.4605 -0.0819
 5322SOL    HW127428   3.495   0.951   3.165  0.2638 -1.2675  0.4274
 5322SOL    HW227429   3.522   1.073   3.236  0.7091 -0.9825 -0.8835
 5323SOL     OW27430   1.158   2.828   4.232 -0.4725  0.3868  0.0554
 5323SOL    HW127431   1.068   2.851   4.256  0.5157  1.5535  2.6638
 5323SOL    HW227432   1.173   2.878   4.152  0.0269 -0.2432 -0.2437
 5324SOL     OW27433   2.752   3.871   7.615  0.2771 -0.6677  0.3607
 5324SOL    HW127434   2.785   3.833   7.696 -3.4586 -2.5320  0.9887
 5324SOL    HW227435   2.676   3.927   7.629  0.0163 -0.9225 -0.0568
 5325SOL     OW27436   1.272   2.009   3.007  0.3173 -0.4551 -0.2744
 5325SOL    HW127437   1.224   1.951   3.066  2.0500 -0.8150  0.7650
 5325SOL    HW227438   1.287   2.086   3.062 -3.0852  0.0197  0.0149
 5326SOL     OW27439   3.040   1.997   4.833  0.3624  0.1236  0.1189
 5326SOL    HW127440   3.105   2.044   4.886  0.0587  1.3219 -0.5634
 5326SOL    HW227441   2.962   2.049   4.851  0.4645 -0.1782  1.4500
 5327SOL     OW27442   0.109   1.817   2.238 -1.0428  0.5103  0.1918
 5327SOL    HW127443   0.141   1.734   2.202 -1.3860 -0.2942  1.7493
 5327SOL    HW227444   0.030   1.835   2.187 -2.3443 -1.2947  1.5699
 5328SOL     OW27445   4.610   2.048   8.120  0.2918 -0.1585  0.2279
 5328SOL    HW127446   4.550   2.114   8.086 -1.4754  0.1180  3.8208
 5328SOL    HW227447   4.625   1.996   8.041 -0.6714 -3.0321  1.8917
 5329SOL     OW27448   0.723   0.578   2.658  0.9958 -0.2035  0.2739
 5329SOL    HW127449   0.816   0.577   2.639  1.3247 -1.7837  1.9659
 5329SOL    HW227450   0.698   0.486   2.648 -0.9977  0.1569  1.8559
 5330SOL     OW27451   2.600   0.374   5.614  0.3928 -0.0369  0.2853
 5330SOL    HW127452   2.643   0.361   5.530  0.5400 -0.2287  0.3906
 5330SOL    HW227453   2.513   0.334   5.606 -1.7813  4.3855  1.5092
 5331SOL     OW27454   2.386   2.185   7.985 -0.5264  0.1921  0.2176
 5331SOL    HW127455   2.383   2.273   8.022  1.0958  0.4369 -0.2692
 5331SOL    HW227456   2.369   2.135   8.065 -0.4802 -0.8318 -0.3987
 5332SOL     OW27457   0.468   3.473   9.002 -0.0484 -0.4726 -0.6504
 5332SOL    HW127458   0.476   3.436   9.090  0.2385  1.1973  0.0425
 5332SOL    HW227459   0.399   3.539   9.013  1.1363  0.5273  0.9495
 5333SOL     OW27460   1.725   4.376  16.440  0.2113 -0.1662  0.1227
 5333SOL    HW127461   1.753   4.291  16.405  0.3675  0.5367 -1.4695
 5333SOL    HW227462   1.729   4.363  16.535  0.6477 -0.6759  0.0310
 5334SOL     OW27463   4.432   0.629   1.036  0.3809 -0.5577 -0.3435
 5334SOL    HW127464   4.382   0.650   1.115 -1.6797 -2.8099 -1.0488
 5334SOL    HW227465   4.515   0.672   1.055 -0.6191  0.3010  2.0400
 5335SOL     OW27466   2.873   3.393   8.056  0.1513  0.7795  0.0707
 5335SOL    HW127467   2.942   3.444   8.013  0.1230  0.5914 -0.1944
 5335SOL    HW227468   2.937   3.328   8.086 -0.5681 -0.2573 -0.6659
 5336SOL     OW27469   3.333   4.583   6.651 -0.0128  0.2157  0.0324
 5336SOL    HW127470   3.426   4.561   6.660  0.2091 -0.3448 -3.6298
 5336SOL    HW227471   3.328   4.638   6.729  1.0675  1.5658 -0.8319
 5337SOL     OW27472   1.815   1.567   7.607  0.3555 -0.2009  0.6970
 5337SOL    HW127473   1.741   1.511   7.633 -0.5041 -0.2309 -1.8279
 5337SOL    HW227474   1.866   1.562   7.688  3.1117  2.1817 -0.9272
 5338SOL     OW27475   1.788   4.376   8.294 -0.2043  0.1010 -0.1313
 5338SOL    HW127476   1.700   4.392   8.327  0.4558  1.0907  1.1623
 5338SOL    HW227477   1.831   4.460   8.280 -2.4984  1.5396  1.4258
 5339SOL     OW27478   0.896   0.423  15.278  0.6016 -0.4352  0.1855
 5339SOL    HW127479   0.969   0.381  15.324  1.9530 -0.7265 -2.2374
 5339SOL    HW227480   0.857   0.345  15.240 -1.8436  0.8382  0.0888
 5340SOL     OW27481   4.321   2.002  14.906 -0.2949  0.2437 -0.2693
 5340SOL    HW127482   4.356   1.923  14.947  1.1015  2.0119  1.9981
 5340SOL    HW227483   4.364   2.075  14.951 -1.0414 -0.0741  0.9628
 5341SOL     OW27484   1.377   4.350   8.016  0.1531 -0.4261 -0.5287
 5341SOL    HW127485   1.423   4.298   8.082  1.3093 -0.2256 -1.1634
 5341SOL    HW227486   1.319   4.284   7.979  0.4756 -0.6008 -0.7194
 5342SOL     OW27487   2.000   2.664   3.163  0.3580 -0.8116 -0.3227
 5342SOL    HW127488   2.055   2.731   3.203 -1.3154  0.7029 -0.5752
 5342SOL    HW227489   2.055   2.588   3.183 -0.4022 -1.2049  0.2654
 5343SOL     OW27490   1.704   2.904   8.121  0.4209 -0.3573 -0.1127
 5343SOL    HW127491   1.773   2.881   8.059  0.8410  0.2121  0.1344
 5343SOL    HW227492   1.638   2.934   8.059 -0.2463 -1.1891  0.2054
 5344SOL     OW27493   1.477   0.145   9.766 -0.1428 -0.3009  0.0738
 5344SOL    HW127494   1.523   0.084   9.709 -0.2929 -0.6243  0.2948
 5344SOL    HW227495   1.493   0.237   9.743 -0.5344 -0.0270  0.8921
 5345SOL     OW27496   0.255   1.988   8.063  0.4355 -0.0643  0.6642
 5345SOL    HW127497   0.337   1.939   8.065 -0.0405 -0.8657  0.5647
 5345SOL    HW227498   0.260   2.021   8.152  2.0308  2.5203 -0.3662
 5346SOL     OW27499   0.127   2.118   4.998  0.4588  0.6510  0.1573
 5346SOL    HW127500   0.082   2.175   4.936  0.6966  0.2995 -0.3383
 5346SOL    HW227501   0.059   2.116   5.065  1.0367  0.9002  0.7508
 5347SOL     OW27502   0.675   2.946  13.338 -0.2899  0.4501  0.2677
 5347SOL    HW127503   0.668   3.040  13.357  1.5213  0.6025  0.1819
 5347SOL    HW227504   0.749   2.954  13.277 -2.5093  2.5307 -2.1725
 5348SOL     OW27505   3.593   4.478   4.287 -0.1172  0.0305 -0.1829
 5348SOL    HW127506   3.595   4.551   4.349  1.3497  0.3915 -0.6453
 5348SOL    HW227507   3.499   4.462   4.293  0.2787 -2.7287 -1.3936
 5349SOL     OW27508   1.683   4.294   0.931  0.1162  1.1103  0.1567
 5349SOL    HW127509   1.600   4.251   0.910 -0.3672  1.2513  1.7443
 5349SOL    HW227510   1.728   4.228   0.985  0.9403  1.4701 -0.0857
 5350SOL     OW27511   4.093   0.753  11.827  0.0746  0.0204 -0.4753
 5350SOL    HW127512   4.068   0.719  11.741  3.5655 -1.8415 -0.7574
 5350SOL    HW227513   4.079   0.847  11.817 -1.2244 -0.2134 -0.8347
 5351SOL     OW27514   2.736   2.760   2.984  0.8669 -0.5087  0.0641
 5351SOL    HW127515   2.662   2.813   2.953  0.9889  0.4158  1.3393
 5351SOL    HW227516   2.766   2.822   3.051 -2.4164  1.8472 -0.5877
 5352SOL     OW27517   0.896   3.939   9.874 -0.4346 -0.5427  0.0558
 5352SOL    HW127518   0.905   3.949   9.969 -0.9073 -0.0323  0.0455
 5352SOL    HW227519   0.982   3.904   9.852 -1.0831 -1.9082 -0.3275
 5353SOL     OW27520   1.955   4.360   2.461  0.3063  0.0809  0.6113
 5353SOL    HW127521   1.945   4.266   2.447 -0.0352  0.2090 -0.0301
 5353SOL    HW227522   1.993   4.379   2.375 -2.3558  0.0491 -0.5979
 5354SOL     OW27523   1.210   3.879   5.755  0.5000  0.0930 -0.0873
 5354SOL    HW127524   1.277   3.898   5.820 -0.7107 -2.2025  1.8420
 5354SOL    HW227525   1.214   3.964   5.711  0.9311 -0.9048 -1.9841
 5355SOL     OW27526   2.381   3.436   6.982 -0.2629  0.2518  0.5862
 5355SOL    HW127527   2.356   3.447   6.891 -1.1406 -1.1748  0.6703
 5355SOL    HW227528   2.473   3.408   6.977  0.0472  1.1742  0.9712
 5356SOL     OW27529   2.991   0.141   9.829  0.2373  0.1732  0.0395
 5356SOL    HW127530   3.039   0.096   9.898  1.6809  2.4013  0.4888
 5356SOL    HW227531   3.017   0.093   9.750 -0.5978 -1.6828  0.8913
 5357SOL     OW27532   4.282   0.572   4.129  0.5569 -0.1037 -0.4903
 5357SOL    HW127533   4.243   0.602   4.046  1.4124  0.3329 -0.7267
 5357SOL    HW227534   4.210   0.521   4.166  0.4078  1.0938  0.8711
 5358SOL     OW27535   1.496   3.273  16.351 -0.0869 -0.1048  0.2596
 5358SOL    HW127536   1.476   3.341  16.415 -0.7799 -0.1664  0.1044
 5358SOL    HW227537   1.512   3.323  16.271  0.6280 -0.0030  0.4643
 5359SOL     OW27538   1.865   0.646  10.621 -0.1843  0.3429  0.4519
 5359SOL    HW127539   1.826   0.643  10.708 -0.9074  0.9735  0.1376
 5359SOL    HW227540   1.897   0.736  10.628  0.6586  0.0031  0.9750
 5360SOL     OW27541   0.115   3.309   6.960 -0.0721 -0.6668  0.1156
 5360SOL    HW127542   0.135   3.296   7.053 -0.8321  0.8582  0.4777
 5360SOL    HW227543   0.021   3.321   6.969 -0.0901 -1.2937  0.7338
 5361SOL     OW27544   2.292   2.294   8.244  0.3878  0.1480 -0.0912
 5361SOL    HW127545   2.330   2.330   8.324  0.3424 -0.2392  0.1012
 5361SOL    HW227546   2.309   2.201   8.259 -0.1281  0.2296  0.9919
 5362SOL     OW27547   1.413   3.584   7.286  0.1921 -0.5467  0.2598
 5362SOL    HW127548   1.322   3.612   7.288  0.4362  0.3206 -0.8353
 5362SOL    HW227549   1.431   3.550   7.374 -2.5684 -1.9339  0.2776
 5363SOL     OW27550   2.393   2.882  14.007 -0.7952 -0.5799 -0.0807
 5363SOL    HW127551   2.472   2.873  13.954 -1.4945  0.1455 -1.2522
 5363SOL    HW227552   2.379   2.792  14.036  0.6230 -0.2237  1.7780
 5364SOL     OW27553   1.136   4.228  16.601  0.1754  0.0296 -0.2831
 5364SOL    HW127554   1.230   4.249  16.605  0.3192 -0.7822  0.5773
 5364SOL    HW227555   1.109   4.271  16.520  0.6846 -0.7220 -0.8526
 5365SOL     OW27556   3.583   1.657  13.184 -0.0347 -0.0662 -0.3168
 5365SOL    HW127557   3.624   1.643  13.099  0.0882  0.5021 -0.3497
 5365SOL    HW227558   3.640   1.728  13.215  0.9208 -0.5731 -0.9166
 5366SOL     OW27559   4.714   0.286   9.239 -0.6257  0.0719 -0.2578
 5366SOL    HW127560   4.631   0.241   9.222 -1.5942  1.8611 -0.2386
 5366SOL    HW227561   0.049   0.214   9.222  1.2586  1.1737  1.8297
 5367SOL     OW27562   3.486   4.033   6.042  0.0718 -0.8073 -0.5529
 5367SOL    HW127563   3.396   4.036   6.073  0.5313 -0.6584  0.7812
 5367SOL    HW227564   3.476   3.979   5.964  0.7158 -1.9091  0.1270
 5368SOL     OW27565   3.383   1.242  13.888  0.3070  0.0767 -0.0207
 5368SOL    HW127566   3.427   1.179  13.830  0.7242  0.8097 -0.4928
 5368SOL    HW227567   3.434   1.215  13.964  1.9056  1.5490 -0.5787
 5369SOL     OW27568   4.675   2.150  14.859  1.0736  0.2440  0.8355
 5369SOL    HW127569   4.659   2.123  14.769 -1.6000 -0.6161  1.5720
 5369SOL    HW227570   4.596   2.203  14.867  1.3299  0.5862  1.0654
 5370SOL     OW27571   1.061   1.466   4.847  0.0307 -0.1031  0.0011
 5370SOL    HW127572   1.112   1.502   4.774 -2.7324  0.4654 -1.6563
 5370SOL    HW227573   1.052   1.547   4.896 -0.7824  0.5491 -1.2157
 5371SOL     OW27574   2.616   2.074   8.311 -0.4035 -0.4766  0.0738
 5371SOL    HW127575   2.609   2.138   8.241 -0.0929  0.0600  0.5365
 5371SOL    HW227576   2.712   2.072   8.315 -0.3964 -1.2746 -0.5108
 5372SOL     OW27577   2.625   1.930   2.596  0.5093  0.4846 -0.1628
 5372SOL    HW127578   2.648   1.859   2.656 -0.6712  0.6190  0.4334
 5372SOL    HW227579   2.601   1.886   2.514 -1.3251  1.2860 -0.0511
 5373SOL     OW27580   2.970   4.020   4.425  0.3919  0.0697  0.0142
 5373SOL    HW127581   2.905   3.957   4.394  1.9299 -2.1960  1.3855
 5373SOL    HW227582   2.920   4.102   4.428 -0.2558 -0.2830 -1.2733
 5374SOL     OW27583   2.322   4.712  12.916 -0.1054  0.3897 -0.1962
 5374SOL    HW127584   2.371   0.042  12.856  2.1813 -0.6689  0.6349
 5374SOL    HW227585   2.259   0.057  12.922 -2.4654 -1.6577 -0.9065
 5375SOL     OW27586   2.903   3.614   7.840 -0.1617 -0.4762  1.1503
 5375SOL    HW127587   2.892   3.705   7.868 -0.5140 -0.0868 -0.2124
 5375SOL    HW227588   2.997   3.608   7.822 -0.5868 -3.0041 -0.2078
 5376SOL     OW27589   0.530   4.171   7.757 -0.3553 -0.0064 -0.1687
 5376SOL    HW127590   0.474   4.102   7.792  1.2562 -1.0866  0.3162
 5376SOL    HW227591   0.590   4.116   7.706 -1.3956 -0.3708 -1.0014
 5377SOL     OW27592   3.940   0.646   4.678  0.3797 -0.0150  0.1388
 5377SOL    HW127593   3.910   0.731   4.710 -0.4718  0.5345 -2.1263
 5377SOL    HW227594   3.860   0.600   4.655  1.4372 -1.7337 -0.1502
 5378SOL     OW27595   1.064   4.241   3.877 -0.2654 -0.7560  0.0297
 5378SOL    HW127596   1.111   4.313   3.918  2.7407 -1.1863 -2.6288
 5378SOL    HW227597   1.143   4.190   3.859 -0.8831 -0.9287 -2.1928
 5379SOL     OW27598   3.365   1.993  16.208 -0.7589  0.4555 -0.8473
 5379SOL    HW127599   3.446   2.041  16.190  0.5740 -2.0540 -1.5663
 5379SOL    HW227600   3.362   1.946  16.125  0.5757  0.4026 -0.8622
 5380SOL     OW27601   4.616   2.036   0.638  0.1495 -0.1246 -0.3028
 5380SOL    HW127602   4.673   2.014   0.565 -0.5259 -0.7529 -0.6485
 5380SOL    HW227603   4.668   2.093   0.694  0.5757 -0.8204  0.0019
 5381SOL     OW27604   3.414   2.381   3.293  0.1804  0.4387 -0.1629
 5381SOL    HW127605   3.349   2.374   3.224 -0.9945 -0.9343  1.0823
 5381SOL    HW227606   3.474   2.313   3.262 -1.2636 -0.1502 -1.6661
 5382SOL     OW27607   1.235   3.179  16.111  0.3825  0.0080 -0.8178
 5382SOL    HW127608   1.271   3.266  16.129 -3.2223  1.4689 -0.6407
 5382SOL    HW227609   1.308   3.117  16.103  1.4025  0.8170  2.3623
 5383SOL     OW27610   3.421   4.388  11.178 -0.1233  0.4823 -0.1134
 5383SOL    HW127611   3.447   4.433  11.258  0.8998  2.5416 -1.6155
 5383SOL    HW227612   3.363   4.322  11.217  0.6321 -0.2491 -0.2305
 5384SOL     OW27613   2.168   1.774   7.746 -0.3242 -0.3462 -0.1949
 5384SOL    HW127614   2.109   1.844   7.774  0.1592  0.4886 -1.2986
 5384SOL    HW227615   2.171   1.719   7.825 -0.6028 -1.2346 -0.8120
 5385SOL     OW27616   1.708   3.902   5.268 -0.1903  0.4305  0.4115
 5385SOL    HW127617   1.654   3.938   5.198 -1.5254 -0.6076  0.9219
 5385SOL    HW227618   1.763   3.841   5.218  0.9245  0.3425  1.7579
 5386SOL     OW27619   4.027   2.273  16.934  0.7186  0.3104  0.2293
 5386SOL    HW127620   4.117   2.276  16.967  0.7405 -2.5991  0.4473
 5386SOL    HW227621   3.998   2.187  16.964  0.0261  0.1995 -0.7859
 5387SOL     OW27622   0.302   0.947   3.197  0.2267 -0.1512 -0.9392
 5387SOL    HW127623   0.379   0.925   3.249 -0.5751 -0.9419 -0.0885
 5387SOL    HW227624   0.262   1.018   3.247  3.0024  0.6211  0.1493
 5388SOL     OW27625   0.239   4.013   2.438  0.1273  0.1730 -0.2335
 5388SOL    HW127626   0.230   3.924   2.471  2.2623 -0.0913 -0.3525
 5388SOL    HW227627   0.148   4.035   2.417  0.3996 -0.5569 -2.1538
 5389SOL     OW27628   2.790   3.891   4.910  0.4113  0.1139 -0.1226
 5389SOL    HW127629   2.758   3.901   4.821 -2.2833 -1.0970  0.7016
 5389SOL    HW227630   2.797   3.796   4.905  0.5629  0.2726 -2.5621
 5390SOL     OW27631   4.327   0.647   0.773  0.2392  0.3997  0.2454
 5390SOL    HW127632   4.410   0.610   0.743  1.2123  2.3194  0.5594
 5390SOL    HW227633   4.341   0.661   0.867 -1.2404  0.3118  0.4804
 5391SOL     OW27634   3.312   0.535   5.500  0.3012  0.0357 -0.1211
 5391SOL    HW127635   3.309   0.550   5.406 -1.6206 -1.3029 -0.2752
 5391SOL    HW227636   3.380   0.468   5.504 -0.0824 -0.3770 -0.5162
 5392SOL     OW27637   3.620   3.551   7.995  0.5813 -0.3010  0.4829
 5392SOL    HW127638   3.655   3.514   8.076  2.4573  0.8899  0.2064
 5392SOL    HW227639   3.699   3.559   7.942  0.9468  1.3372  1.2798
 5393SOL     OW27640   4.040   2.576   8.079 -0.3124  0.0048 -0.0220
 5393SOL    HW127641   4.099   2.511   8.041  0.0847 -0.3588  1.2186
 5393SOL    HW227642   4.077   2.598   8.164  1.6191 -0.5152 -0.7324
 5394SOL     OW27643   4.109   1.113  14.999  0.5258  1.2302  0.3396
 5394SOL    HW127644   4.133   1.031  14.958  2.2831  1.9946 -0.1439
 5394SOL    HW227645   4.017   1.087  15.005  0.8461 -0.0335 -0.4009
 5395SOL     OW27646   3.568   0.203  12.538 -0.3414 -0.5452  0.5932
 5395SOL    HW127647   3.501   0.236  12.598  0.4099  0.7073  0.7319
 5395SOL    HW227648   3.641   0.175  12.594 -1.0967 -0.2841  1.7153
 5396SOL     OW27649   2.666   2.463  15.731  0.4765  0.6620 -0.0332
 5396SOL    HW127650   2.656   2.521  15.807  1.1276 -1.1368  1.4224
 5396SOL    HW227651   2.759   2.446  15.749 -0.6236 -3.6677  1.4631
 5397SOL     OW27652   2.063   2.993  17.161  0.0393 -0.3999 -0.0611
 5397SOL    HW127653   2.147   2.969  17.122  0.7562  0.9547  0.6560
 5397SOL    HW227654   2.077   3.087  17.177  2.7947 -0.7320 -0.5105
 5398SOL     OW27655   3.845   2.058   9.677  0.1365 -0.0558  0.0173
 5398SOL    HW127656   3.898   1.981   9.655  3.5753  2.4470 -0.5309
 5398SOL    HW227657   3.784   2.066   9.604 -0.5124 -2.8261  0.2592
 5399SOL     OW27658   0.350   0.702   5.119  0.2653 -0.4943 -0.1788
 5399SOL    HW127659   0.301   0.635   5.072 -1.9905  0.2994  1.0470
 5399SOL    HW227660   0.333   0.671   5.208 -0.4639  1.7391  0.4732
 5400SOL     OW27661   0.721   1.084   8.320 -0.5942 -0.2520 -0.1468
 5400SOL    HW127662   0.724   1.004   8.372  1.0348  2.5565  4.0586
 5400SOL    HW227663   0.627   1.085   8.305 -0.9449  0.2727  2.0840
 5401SOL     OW27664   4.337   1.029   6.023 -0.5350 -0.5225 -0.1426
 5401SOL    HW127665   4.336   1.124   6.027 -2.0133 -0.5261 -0.5771
 5401SOL    HW227666   4.245   1.015   6.044 -0.3773 -2.0427 -0.4638
 5402SOL     OW27667   3.830   3.647   0.800 -0.1635  0.0179 -0.2317
 5402SOL    HW127668   3.834   3.720   0.738 -1.3637  1.5724  1.5172
 5402SOL    HW227669   3.809   3.577   0.738  1.1057 -0.0439 -0.6039
 5403SOL     OW27670   2.972   1.552   6.529  0.9037  0.0154 -0.5744
 5403SOL    HW127671   2.916   1.628   6.514  2.0909  1.3223  1.5842
 5403SOL    HW227672   2.956   1.495   6.454  0.8926  0.5963 -1.0168
 5404SOL     OW27673   2.483   2.749   8.697 -0.0556 -0.0621 -1.0667
 5404SOL    HW127674   2.457   2.838   8.674 -2.0957 -0.1175  1.0446
 5404SOL    HW227675   2.488   2.753   8.793 -1.9731  3.4666 -1.1267
 5405SOL     OW27676   1.833   3.427   7.055  0.2557 -0.2408  0.4292
 5405SOL    HW127677   1.767   3.458   6.993  1.0246  1.2502  0.3649
 5405SOL    HW227678   1.832   3.331   7.052 -1.2375 -0.2270  0.6675
 5406SOL     OW27679   0.399   2.435   5.894 -0.0110 -0.1109  0.5146
 5406SOL    HW127680   0.457   2.361   5.875  0.0481  0.5588 -1.9039
 5406SOL    HW227681   0.355   2.440   5.810 -1.6991  0.8989  1.4637
 5407SOL     OW27682   4.549   1.539   1.094  0.3802 -0.2034 -0.1567
 5407SOL    HW127683   4.492   1.537   1.017 -0.2706  0.6976  0.3034
 5407SOL    HW227684   4.500   1.498   1.165 -1.1362  1.1687 -0.4160
 5408SOL     OW27685   3.059   3.333  12.743 -0.4336  0.1468  0.4618
 5408SOL    HW127686   2.981   3.278  12.750  0.3366 -0.8430  1.1187
 5408SOL    HW227687   3.043   3.384  12.822 -0.2470 -0.5818  0.9617
 5409SOL     OW27688   3.887   3.533  15.995  0.4723 -0.3507  0.0254
 5409SOL    HW127689   3.868   3.608  16.051 -0.5813 -1.0529  0.6005
 5409SOL    HW227690   3.827   3.467  16.029  0.1801 -0.3428 -0.4838
 5410SOL     OW27691   0.248   1.875   8.962  0.0174 -0.3548  0.2802
 5410SOL    HW127692   0.285   1.921   9.037 -1.5837 -0.0946  0.9257
 5410SOL    HW227693   0.164   1.842   8.995 -1.2160  0.1491 -2.4172
 5411SOL     OW27694   3.682   1.319   2.642 -0.1756  0.3422  0.1534
 5411SOL    HW127695   3.769   1.336   2.607  1.1516 -1.0138  2.8197
 5411SOL    HW227696   3.620   1.345   2.573  0.9705 -0.3191 -1.1173
 5412SOL     OW27697   2.345   4.448   4.844 -0.1163 -0.0854  0.6300
 5412SOL    HW127698   2.286   4.379   4.874  1.0147 -0.7633  1.3330
 5412SOL    HW227699   2.295   4.485   4.771 -0.6515 -0.4334  0.8200
 5413SOL     OW27700   1.383   2.681   4.214  0.1643 -0.2651 -0.6594
 5413SOL    HW127701   1.373   2.586   4.213  1.1014 -0.4129  2.0541
 5413SOL    HW227702   1.292   2.710   4.215  0.6425  1.1991  1.2802
 5414SOL     OW27703   2.200   1.912  14.893  0.4434 -0.1467  0.0938
 5414SOL    HW127704   2.120   1.906  14.841  0.6312  0.6279 -0.2818
 5414SOL    HW227705   2.156   1.930  14.977 -0.7205  0.6021 -0.6731
 5415SOL     OW27706   4.403   3.022   2.902  0.8600  0.2673  0.0070
 5415SOL    HW127707   4.435   3.021   2.992 -0.4351 -0.8389  0.4638
 5415SOL    HW227708   4.480   3.059   2.860  0.4112 -0.3423 -1.3672
 5416SOL     OW27709   2.431   0.546   4.294 -0.0469  0.0881  0.2452
 5416SOL    HW127710   2.495   0.593   4.241  0.3615 -2.2479 -1.2944
 5416SOL    HW227711   2.483   0.472   4.323 -1.9250 -0.9317  1.0161
 5417SOL     OW27712   2.257   3.325   4.793 -0.0549 -0.2453 -0.2544
 5417SOL    HW127713   2.303   3.323   4.878  0.0007 -1.6648 -0.3252
 5417SOL    HW227714   2.180   3.271   4.810  0.6251 -1.0036  0.4478
 5418SOL     OW27715   1.259   4.498   6.665 -0.0759  0.1395 -0.7894
 5418SOL    HW127716   1.177   4.460   6.633  0.5847 -1.0595 -1.0868
 5418SOL    HW227717   1.222   4.575   6.708 -0.0820 -0.5141  0.3710
 5419SOL     OW27718   4.415   2.771  12.553 -0.0355  0.5575 -0.1763
 5419SOL    HW127719   4.355   2.726  12.614 -1.6581  1.0471 -1.4336
 5419SOL    HW227720   4.378   2.741  12.470  0.0132 -0.8217  0.2941
 5420SOL     OW27721   0.359   0.084   3.458 -0.1071 -0.0101  0.4014
 5420SOL    HW127722   0.283   0.126   3.420  0.0866 -0.8747 -0.9623
 5420SOL    HW227723   0.380   0.145   3.529  0.6057 -1.4683  1.4430
 5421SOL     OW27724   2.782   2.967  12.336 -0.0358 -0.1545  0.0226
 5421SOL    HW127725   2.816   3.010  12.414  1.4500  0.6495 -1.0639
 5421SOL    HW227726   2.765   3.044  12.281  1.8413  0.3933  0.2040
 5422SOL     OW27727   3.820   2.271   3.762 -0.0119 -0.0978  0.3725
 5422SOL    HW127728   3.799   2.361   3.786 -0.5847 -0.5635  1.6327
 5422SOL    HW227729   3.854   2.231   3.842 -0.7300 -0.2007  0.6328
 5423SOL     OW27730   1.191   1.069   7.265 -0.6276  0.1001 -0.6019
 5423SOL    HW127731   1.115   1.101   7.217  1.9533  3.7055 -2.3024
 5423SOL    HW227732   1.155   0.995   7.315 -2.8005  1.3629 -0.3223
 5424SOL     OW27733   0.268   4.434   4.003  0.3330  0.5468 -0.0302
 5424SOL    HW127734   0.324   4.357   4.002 -2.4047 -1.3789 -1.4082
 5424SOL    HW227735   0.217   4.432   3.922 -0.6090 -2.6140  0.6541
 5425SOL     OW27736   4.340   2.962  14.450  0.2312 -0.1826  0.3008
 5425SOL    HW127737   4.392   2.915  14.385 -2.2036 -2.1195 -0.2571
 5425SOL    HW227738   4.409   3.020  14.483  1.4395 -2.5782  1.9713
 5426SOL     OW27739   0.358   2.686   6.708 -0.1053 -0.1966  0.7800
 5426SOL    HW127740   0.274   2.644   6.724  0.0439 -1.2032 -1.0611
 5426SOL    HW227741   0.419   2.629   6.756 -0.3788 -1.9940 -0.9959
 5427SOL     OW27742   2.320   4.018   5.163 -0.2310 -0.0724  0.3267
 5427SOL    HW127743   2.239   3.983   5.128 -1.4191  1.5756  1.4300
 5427SOL    HW227744   2.305   4.021   5.258 -0.5219  2.0870  0.2235
 5428SOL     OW27745   2.926   2.432   0.246  0.2455 -0.0925 -0.5699
 5428SOL    HW127746   3.000   2.465   0.298 -0.8636 -0.5160  1.2834
 5428SOL    HW227747   2.919   2.339   0.266  0.9308 -0.2335 -0.9751
 5429SOL     OW27748   1.101   4.378  16.388  0.0875 -0.3395 -0.2776
 5429SOL    HW127749   1.085   4.445  16.322  0.0772 -0.0945 -0.0237
 5429SOL    HW227750   1.186   4.349  16.355  0.0508 -0.4450 -0.2789
 5430SOL     OW27751   0.943   1.711  13.282  0.0780 -0.3085 -0.6710
 5430SOL    HW127752   0.952   1.616  13.291 -0.9763 -0.4068 -0.6376
 5430SOL    HW227753   0.896   1.712  13.199  0.3818  2.6757 -0.8185
 5431SOL     OW27754   1.091   3.883   2.812  0.4762 -0.1668  0.5552
 5431SOL    HW127755   1.025   3.830   2.768 -0.3418  0.0577  1.5180
 5431SOL    HW227756   1.091   3.832   2.893 -2.3247  1.7462  1.7753
 5432SOL     OW27757   1.818   4.137   0.270 -0.1555 -0.0852 -0.3991
 5432SOL    HW127758   1.755   4.086   0.218 -0.0812 -0.8357  0.2333
 5432SOL    HW227759   1.892   4.076   0.265  0.1220  0.1743  0.4958
 5433SOL     OW27760   4.153   3.363  12.100 -0.3619 -0.4590 -0.2029
 5433SOL    HW127761   4.152   3.308  12.022 -0.3530  0.9619 -1.2018
 5433SOL    HW227762   4.061   3.391  12.107  0.1103  0.7251  1.2106
 5434SOL     OW27763   1.526   1.431   1.587  0.2480  0.2116  0.0821
 5434SOL    HW127764   1.545   1.346   1.547 -1.3764  0.9836 -2.3189
 5434SOL    HW227765   1.562   1.488   1.520 -1.1152 -1.5077 -2.1148
 5435SOL     OW27766   1.110   0.912   2.999 -0.4266  0.8492  0.8557
 5435SOL    HW127767   1.043   0.946   3.058  0.0476  0.8581  1.3844
 5435SOL    HW227768   1.118   0.826   3.039  1.3442  0.4940 -0.2941
 5436SOL     OW27769   3.528   3.172  15.939 -0.1012  0.1463 -0.0346
 5436SOL    HW127770   3.556   3.211  15.857  0.6381  2.0290  1.1210
 5436SOL    HW227771   3.510   3.245  15.998  1.4260 -0.7836  1.5833
 5437SOL     OW27772   2.734   4.304  15.581 -0.2150  0.4471  0.0634
 5437SOL    HW127773   2.788   4.243  15.532  0.3030 -0.5807  1.9049
 5437SOL    HW227774   2.735   4.273  15.672  3.7899 -0.5876 -0.3375
 5438SOL     OW27775   0.043   2.413   6.423  0.1713 -0.2495 -0.3189
 5438SOL    HW127776   4.681   2.393   6.457  1.3224 -3.7496  0.6256
 5438SOL    HW227777   0.021   2.401   6.331  4.0501  0.0696 -1.2670
 5439SOL     OW27778   1.507   3.436  16.134  0.1667 -0.1424  0.5518
 5439SOL    HW127779   1.456   3.434  16.054  1.1806  0.3477 -0.1062
 5439SOL    HW227780   1.597   3.435  16.100 -0.0355 -0.7243  0.0309
 5440SOL     OW27781   1.472   2.236  12.608  0.4165 -0.0985 -0.1859
 5440SOL    HW127782   1.387   2.213  12.571  0.2455 -2.6021  1.7400
 5440SOL    HW227783   1.448   2.295  12.679 -0.7037 -2.4999  1.4572
 5441SOL     OW27784   0.127   3.478  16.735  0.2563  0.0882  0.5885
 5441SOL    HW127785   0.038   3.457  16.710  0.9141  0.1556 -1.8033
 5441SOL    HW227786   0.161   3.517  16.654  0.1755 -0.6196  0.2152
 5442SOL     OW27787   4.489   4.692  10.479 -0.1026 -0.4950 -0.2427
 5442SOL    HW127788   4.474   4.603  10.510 -1.9776  0.6280  2.1280
 5442SOL    HW227789   4.410   0.008  10.512  1.5476  1.1076  1.7045
 5443SOL     OW27790   3.667   2.205   9.098 -0.0539 -0.8087 -0.0061
 5443SOL    HW127791   3.595   2.221   9.038  0.2930 -2.3750 -0.8581
 5443SOL    HW227792   3.631   2.135   9.153  1.0803 -2.8827 -1.8816
 5444SOL     OW27793   0.789   0.314   2.050  0.3879 -0.1963 -0.1313
 5444SOL    HW127794   0.785   0.397   2.004  0.6555  0.9308  1.8574
 5444SOL    HW227795   0.735   0.258   1.995 -0.5357  1.4061 -0.8456
 5445SOL     OW27796   0.367   3.632   3.271 -0.7186 -0.1987  0.5965
 5445SOL    HW127797   0.298   3.630   3.338 -0.7418  0.2600  0.5815
 5445SOL    HW227798   0.401   3.543   3.279 -2.7039 -0.9266  0.9989
 5446SOL     OW27799   0.189   2.758   0.947  0.3645 -1.1030 -0.0327
 5446SOL    HW127800   0.248   2.775   1.021  1.8327  3.9198 -2.3577
 5446SOL    HW227801   0.225   2.671   0.931  1.7891 -0.6795  0.8151
 5447SOL     OW27802   1.168   2.387  12.365  0.4951 -0.0107 -0.0118
 5447SOL    HW127803   1.219   2.365  12.287  0.8385 -1.1603  0.5337
 5447SOL    HW227804   1.082   2.381  12.324 -0.9431 -0.4408  3.1031
 5448SOL     OW27805   3.992   3.347   4.790 -0.3296 -0.4554 -0.6247
 5448SOL    HW127806   3.930   3.374   4.722 -0.4106  0.2295 -0.2795
 5448SOL    HW227807   3.951   3.386   4.867  0.0623 -0.2205 -0.5328
 5449SOL     OW27808   3.738   2.235  10.020 -0.3331 -0.4066  0.1779
 5449SOL    HW127809   3.804   2.219  10.086  0.3425  0.2375 -0.3381
 5449SOL    HW227810   3.716   2.150   9.983  0.6779 -0.3528 -0.5535
 5450SOL     OW27811   1.673   1.737   3.856  0.5461 -0.4551 -0.0561
 5450SOL    HW127812   1.738   1.804   3.833 -0.5795  0.9741  0.9625
 5450SOL    HW227813   1.703   1.720   3.945  1.4674 -0.8103 -0.4348
 5451SOL     OW27814   0.098   0.371   5.422 -0.5739 -0.7567  0.0461
 5451SOL    HW127815   0.056   0.450   5.456  2.3116  0.7152  0.1656
 5451SOL    HW227816   0.062   0.377   5.334  0.1281 -0.3587 -0.2144
 5452SOL     OW27817   3.483   1.355   7.957  0.3941 -0.3005 -0.1622
 5452SOL    HW127818   3.416   1.294   7.986 -0.9937  1.4679  0.3230
 5452SOL    HW227819   3.462   1.438   8.000 -0.3073 -1.0059  0.8465
 5453SOL     OW27820   1.975   0.263  10.480 -0.0734  0.2104 -0.1368
 5453SOL    HW127821   2.054   0.312  10.458  1.9958 -3.2919 -0.4908
 5453SOL    HW227822   1.902   0.325  10.483 -1.3041 -1.2753  0.8170
 5454SOL     OW27823   3.579   4.070  10.796  0.4190 -0.1030 -0.2308
 5454SOL    HW127824   3.560   4.142  10.856  1.6177  0.3136 -0.3387
 5454SOL    HW227825   3.498   4.041  10.755  0.4510 -0.7286  0.1560
 5455SOL     OW27826   0.125   3.649   1.986  0.3700 -0.2081  0.1187
 5455SOL    HW127827   0.161   3.712   1.923 -2.0243  0.9004 -0.1457
 5455SOL    HW227828   0.181   3.573   1.969 -1.1965 -1.3547  0.0660
 5456SOL     OW27829   3.074   1.389  10.177 -0.2901 -0.6803  0.1988
 5456SOL    HW127830   3.080   1.476  10.138 -0.5393 -0.1224  1.4176
 5456SOL    HW227831   2.996   1.406  10.228 -2.2095 -0.1464 -2.9009
 5457SOL     OW27832   3.408   3.411   5.149 -0.5379  1.2409 -0.3106
 5457SOL    HW127833   3.328   3.444   5.107 -0.4632  0.1237 -1.3380
 5457SOL    HW227834   3.366   3.371   5.225  2.5994  1.3911  1.4800
 5458SOL     OW27835   2.954   1.438   1.957 -0.1602  0.0397 -0.4149
 5458SOL    HW127836   2.961   1.533   1.947  0.0699  0.3559  2.8875
 5458SOL    HW227837   2.894   1.421   1.884  0.4900  0.5374 -1.0624
 5459SOL     OW27838   2.548   2.834  13.414  0.2999 -0.2422 -0.2434
 5459SOL    HW127839   2.488   2.800  13.347  0.2560  0.3101 -0.4819
 5459SOL    HW227840   2.605   2.898  13.370  1.7418 -0.9233  0.6456
 5460SOL     OW27841   0.938   1.010   7.673  0.3713 -0.1937  0.0043
 5460SOL    HW127842   0.935   1.088   7.728 -0.5056  0.0807 -0.4347
 5460SOL    HW227843   0.936   0.944   7.742  2.4063  0.0459  0.2910
 5461SOL     OW27844   2.430   0.665   5.387 -0.2346  0.2988 -0.1570
 5461SOL    HW127845   2.446   0.746   5.339  0.2047  1.4340  1.8760
 5461SOL    HW227846   2.519   0.642   5.415  0.0739  0.7086 -0.8107
 5462SOL     OW27847   4.516   2.448   7.020 -0.1447 -0.2657  0.5385
 5462SOL    HW127848   4.518   2.404   7.105 -2.3801 -1.6179 -0.1064
 5462SOL    HW227849   4.423   2.462   7.003 -0.2827 -0.7168  0.9002
 5463SOL     OW27850   4.296   1.122   4.600 -0.0803  0.0380 -0.6761
 5463SOL    HW127851   4.349   1.180   4.656 -0.7992 -0.9054  0.9810
 5463SOL    HW227852   4.279   1.183   4.528  0.2265 -0.1865 -0.9386
 5464SOL     OW27853   4.257   2.200   3.902 -0.0168  0.1993 -0.3347
 5464SOL    HW127854   4.342   2.157   3.898  0.3202  0.7193  1.5776
 5464SOL    HW227855   4.220   2.167   3.984 -3.1581  0.1997 -1.7305
 5465SOL     OW27856   2.647   3.757  11.000 -0.6591  0.0691 -0.4567
 5465SOL    HW127857   2.647   3.851  10.978  2.3309  0.5789  1.7686
 5465SOL    HW227858   2.737   3.726  10.985 -0.2767  1.0323 -0.1710
 5466SOL     OW27859   2.275   4.639   2.266 -0.1555 -0.8179 -0.3131
 5466SOL    HW127860   2.349   4.694   2.242 -0.2341  0.0532  1.4060
 5466SOL    HW227861   2.320   4.555   2.254  1.4944 -0.0945  0.8790
 5467SOL     OW27862   1.095   3.105  13.181 -0.3810 -0.2196  0.1156
 5467SOL    HW127863   1.167   3.042  13.189  1.0100  1.4389  0.5541
 5467SOL    HW227864   1.095   3.154  13.263  0.2128  1.7480 -1.0701
 5468SOL     OW27865   2.659   2.372   0.352  0.0210  0.2570 -0.1108
 5468SOL    HW127866   2.615   2.341   0.273 -1.0085  0.8413  0.2193
 5468SOL    HW227867   2.742   2.405   0.319  0.0137  0.1525 -0.2314
 5469SOL     OW27868   0.299   2.152   6.349 -0.4231  0.2009 -0.3205
 5469SOL    HW127869   0.295   2.233   6.400 -0.8665  0.6209 -1.0261
 5469SOL    HW227870   0.394   2.150   6.340 -0.3424 -0.2764  0.6103
 5470SOL     OW27871   0.563   2.395  10.430  0.1165 -0.2366  0.4286
 5470SOL    HW127872   0.622   2.441  10.370  0.9257 -0.2734  1.2036
 5470SOL    HW227873   0.511   2.340  10.371  1.4083 -1.8378  0.7907
 5471SOL     OW27874   4.688   1.026   5.849 -0.4196  0.0026  0.3715
 5471SOL    HW127875   4.609   1.009   5.799  0.4882 -1.4292 -0.5728
 5471SOL    HW227876   4.658   1.006   5.937 -1.3434  0.0524  0.0630
 5472SOL     OW27877   1.654   2.944   4.087  0.2626  0.2442 -0.6814
 5472SOL    HW127878   1.719   2.998   4.133 -1.9062 -0.0660  2.7367
 5472SOL    HW227879   1.614   3.018   4.041  1.2309 -0.1076 -2.0685
 5473SOL     OW27880   4.581   4.484  11.495 -0.2043  0.1251  0.1152
 5473SOL    HW127881   4.564   4.453  11.584 -2.4610 -1.5532 -0.9002
 5473SOL    HW227882   4.673   4.462  11.481  0.2522  1.9909  0.1768
 5474SOL     OW27883   2.070   1.974   2.638 -0.0189  0.0642 -0.0213
 5474SOL    HW127884   2.069   1.886   2.674  1.6269  0.6641  1.4706
 5474SOL    HW227885   2.163   1.992   2.649 -0.2270 -0.6840  2.8682
 5475SOL     OW27886   0.689   0.150  14.776 -0.9536  0.0017 -0.2708
 5475SOL    HW127887   0.710   0.244  14.771 -3.7058  0.7458  2.4273
 5475SOL    HW227888   0.767   0.109  14.738 -0.3000  0.7048  0.3141
 5476SOL     OW27889   0.976   4.694  12.633 -0.3901 -0.0591 -0.4859
 5476SOL    HW127890   0.893   4.669  12.593 -0.2480  1.5908 -1.8133
 5476SOL    HW227891   0.983   4.617  12.690 -1.6052 -0.2090 -0.5486
 5477SOL     OW27892   3.946   2.741   9.129  0.1709 -0.0689  0.3534
 5477SOL    HW127893   3.875   2.693   9.088  2.2726 -1.5219 -1.6140
 5477SOL    HW227894   3.944   2.831   9.096 -0.1477  0.1151  0.8727
 5478SOL     OW27895   1.535   0.611   8.454  0.4219  0.3458 -0.4119
 5478SOL    HW127896   1.601   0.643   8.516 -0.6035  1.1622  0.2423
 5478SOL    HW227897   1.528   0.520   8.482  1.2444  0.0999 -1.0153
 5479SOL     OW27898   3.943   3.755  14.987  0.2157 -0.7485 -0.4802
 5479SOL    HW127899   4.033   3.722  14.978  0.2597 -1.1368  1.5490
 5479SOL    HW227900   3.944   3.791  15.076 -0.2143 -0.8464 -0.4375
 5480SOL     OW27901   4.386   0.492   5.498  0.1867  0.1094  0.2619
 5480SOL    HW127902   4.362   0.404   5.468  0.0441  0.0251  0.6201
 5480SOL    HW227903   4.299   0.533   5.504  0.1922  0.3064 -1.0015
 5481SOL     OW27904   0.274   3.705   9.399  0.1384 -0.3240  0.3650
 5481SOL    HW127905   0.315   3.622   9.422 -1.6682 -2.1708 -3.2554
 5481SOL    HW227906   0.201   3.714   9.462  1.5596  0.0425  1.9697
 5482SOL     OW27907   1.295   2.082   5.774 -0.2860 -0.1475 -0.3283
 5482SOL    HW127908   1.214   2.091   5.824  0.0614  2.0932 -0.1955
 5482SOL    HW227909   1.305   2.173   5.746 -2.7345 -0.7285 -3.1807
 5483SOL     OW27910   2.815   0.914  15.971 -0.1553 -0.6560 -0.3385
 5483SOL    HW127911   2.819   0.970  15.893  0.4953  0.5655  0.5687
 5483SOL    HW227912   2.737   0.864  15.950 -2.3161  2.7492 -0.2851
 5484SOL     OW27913   2.213   2.855  11.833 -0.6228 -0.7804 -0.8851
 5484SOL    HW127914   2.240   2.868  11.742  1.4756  2.4856  0.1714
 5484SOL    HW227915   2.182   2.944  11.851 -0.4185 -0.4763 -2.0336
 5485SOL     OW27916   1.400   0.182   2.854 -0.3433  0.3178 -0.2364
 5485SOL    HW127917   1.442   0.239   2.790 -1.7279  0.7690 -0.7425
 5485SOL    HW227918   1.306   0.202   2.851 -0.4935 -0.2139  0.7158
 5486SOL     OW27919   2.153   2.629  14.340 -0.4936  0.2830  0.2193
 5486SOL    HW127920   2.153   2.722  14.319 -0.9168 -0.2249 -2.1526
 5486SOL    HW227921   2.130   2.624  14.432 -2.0945 -0.9250 -0.2228
 5487SOL     OW27922   2.633   0.591   4.079  0.3057  0.3682 -0.3424
 5487SOL    HW127923   2.636   0.543   3.996 -0.9020  2.5874 -1.6724
 5487SOL    HW227924   2.689   0.668   4.064 -2.6079  2.5543  0.0424
 5488SOL     OW27925   1.566   0.402   9.760  0.0383 -0.1067  0.0774
 5488SOL    HW127926   1.620   0.443   9.827 -1.1600  1.8062 -0.1292
 5488SOL    HW227927   1.598   0.454   9.686 -3.3665  0.7475 -0.8272
 5489SOL     OW27928   0.708   3.007  17.182 -0.8217 -0.9179 -0.6142
 5489SOL    HW127929   0.764   2.945  17.136 -0.6935 -1.3856  0.1709
 5489SOL    HW227930   0.625   2.959  17.176 -2.3273  1.5636  0.0688
 5490SOL     OW27931   0.720   0.649  13.335  0.3632 -0.4569 -0.0193
 5490SOL    HW127932   0.766   0.729  13.310  1.0479 -0.1342  2.3167
 5490SOL    HW227933   0.776   0.581  13.298  1.7928  0.3984  0.5940
 5491SOL     OW27934   1.180   2.884  17.497  0.0217 -0.1912 -0.3225
 5491SOL    HW127935   1.231   2.851  17.423  0.5353 -1.8332  0.7397
 5491SOL    HW227936   1.091   2.876  17.462 -0.3215  2.7265 -0.1306
 5492SOL     OW27937   1.954   2.516   9.901  0.1181 -0.0503 -0.1098
 5492SOL    HW127938   1.996   2.449   9.846  1.2464  0.8949 -0.3957
 5492SOL    HW227939   2.006   2.591   9.872 -0.0545  0.6707  1.4798
 5493SOL     OW27940   2.030   2.016   9.380 -0.3329 -0.0576  0.0027
 5493SOL    HW127941   2.009   2.098   9.423  1.8017 -0.8625  2.5510
 5493SOL    HW227942   1.949   1.987   9.337 -1.1858  1.2429  0.7483
 5494SOL     OW27943   1.328   1.786   2.851 -0.2853 -0.1230 -0.0746
 5494SOL    HW127944   1.314   1.872   2.892 -2.5595 -0.6527  0.2399
 5494SOL    HW227945   1.249   1.794   2.798 -0.1532 -0.3670 -0.3106
 5495SOL     OW27946   1.522   3.130   0.493 -0.0135 -0.3347  0.1807
 5495SOL    HW127947   1.435   3.141   0.455  0.5772 -1.0138 -1.3416
 5495SOL    HW227948   1.530   3.035   0.501  1.5374 -0.3704 -2.0584
 5496SOL     OW27949   4.694   3.731   2.184  0.0127 -0.3261 -0.5045
 5496SOL    HW127950   0.006   3.689   2.107  0.5291 -0.8268  0.0129
 5496SOL    HW227951   4.602   3.724   2.161  0.1288  0.2915 -1.1441
 5497SOL     OW27952   1.968   3.809   4.870  0.0752  0.4354 -0.3845
 5497SOL    HW127953   1.973   3.716   4.891  1.3112  0.6106  0.0908
 5497SOL    HW227954   2.005   3.850   4.949 -0.4749  2.7529 -1.3224
 5498SOL     OW27955   3.030   1.322  13.621  0.0036 -0.1134 -0.1971
 5498SOL    HW127956   2.941   1.330  13.586  0.3674  0.8002 -0.9171
 5498SOL    HW227957   3.070   1.406  13.598 -1.3714  0.1314 -1.6434
 5499SOL     OW27958   4.152   3.458   2.328 -0.4552 -0.4482  0.0741
 5499SOL    HW127959   4.210   3.527   2.296  0.6339 -0.5812  1.7577
 5499SOL    HW227960   4.099   3.507   2.391 -0.4836 -0.3123 -0.0567
 5500SOL     OW27961   1.071   2.980  12.933 -0.0613  0.2560 -0.5646
 5500SOL    HW127962   1.081   3.029  13.014 -1.6840  0.6609 -0.6109
 5500SOL    HW227963   1.115   2.899  12.958 -1.5124 -0.7521 -1.3232
 5501SOL     OW27964   3.635   1.190   3.218 -0.5199  0.0256  0.2268
 5501SOL    HW127965   3.594   1.277   3.219  0.1558  0.3529 -0.7577
 5501SOL    HW227966   3.640   1.176   3.124 -1.1337 -1.2287  0.3851
 5502SOL     OW27967   2.968   2.320  15.377 -0.0130  0.1342 -0.3621
 5502SOL    HW127968   2.921   2.352  15.300  0.3241 -0.4602 -0.8063
 5502SOL    HW227969   3.012   2.242  15.345  1.3010  1.0492 -0.7928
 5503SOL     OW27970   0.704   0.899  13.573 -0.2707  0.0819  0.2111
 5503SOL    HW127971   0.722   0.993  13.565  1.5091 -0.5056 -2.7416
 5503SOL    HW227972   0.729   0.883  13.481  2.3333 -0.0244  0.9513
 5504SOL     OW27973   0.004   2.356   6.026  0.1457  0.1773  0.1978
 5504SOL    HW127974   4.722   2.376   5.933 -1.2066  0.8108  0.4485
 5504SOL    HW227975   0.038   2.267   6.033 -0.9148 -0.2166  0.3538
 5505SOL     OW27976   3.863   3.696  16.362  0.1258  0.1495  0.3878
 5505SOL    HW127977   3.887   3.603  16.365 -2.2331 -0.5248 -1.4743
 5505SOL    HW227978   3.853   3.696  16.267  1.1569 -1.4567  0.2859
 5506SOL     OW27979   4.442   0.281   3.654 -0.2033 -0.3229 -0.1924
 5506SOL    HW127980   4.514   0.323   3.607 -1.9038  2.2789 -0.4803
 5506SOL    HW227981   4.385   0.358   3.645 -1.0992 -0.8207  1.1746
 5507SOL     OW27982   2.939   2.320   9.907 -0.9605 -0.3916  0.2181
 5507SOL    HW127983   2.984   2.263   9.844 -0.6734 -2.9576  2.7781
 5507SOL    HW227984   2.929   2.389   9.841 -1.8839 -0.0845  0.6810
 5508SOL     OW27985   0.031   3.180   3.351 -0.4765  0.0963 -0.3383
 5508SOL    HW127986   0.110   3.127   3.356 -1.9323 -1.9848  0.7397
 5508SOL    HW227987   4.690   3.112   3.340  0.9687 -1.3117 -0.4187
 5509SOL     OW27988   0.391   1.041   4.432 -0.3735 -0.2955 -0.4445
 5509SOL    HW127989   0.354   0.965   4.387  1.8084 -3.3675  2.9295
 5509SOL    HW227990   0.353   1.042   4.520 -1.4697  3.3631 -0.9786
 5510SOL     OW27991   2.158   0.364   3.276  0.0873 -0.2576 -0.7191
 5510SOL    HW127992   2.126   0.274   3.282  2.1871 -0.9259  0.2374
 5510SOL    HW227993   2.097   0.388   3.206 -1.7514  0.1728  1.0239
 5511SOL     OW27994   2.400   0.479   3.721  0.0362 -0.3977  0.4987
 5511SOL    HW127995   2.348   0.556   3.700  0.7753 -0.8082 -2.8474
 5511SOL    HW227996   2.401   0.432   3.638 -0.4150 -0.4767  0.5419
 5512SOL     OW27997   3.802   4.249   8.807 -0.1002  0.3491  0.5337
 5512SOL    HW127998   3.749   4.300   8.867 -1.8970 -0.5966 -0.2504
 5512SOL    HW227999   3.771   4.282   8.723 -1.0524 -0.1480  0.6934
 5513SOL     OW28000   3.763   2.146   7.242 -0.4848  0.4208 -0.0536
 5513SOL    HW128001   3.815   2.065   7.234 -0.1681  0.4488  1.8069
 5513SOL    HW228002   3.682   2.128   7.194  0.4453  0.5369 -1.6609
 5514SOL     OW28003   2.658   1.875   0.828 -0.2417  0.5799  0.7765
 5514SOL    HW128004   2.654   1.887   0.923 -0.7801  0.6025  0.7509
 5514SOL    HW228005   2.592   1.805   0.827 -0.5496  0.8757  0.2168
 5515SOL     OW28006   3.083   0.362   4.532  0.1860  0.2390  0.0387
 5515SOL    HW128007   3.168   0.384   4.494  0.4062 -3.2558 -1.5615
 5515SOL    HW228008   3.081   0.412   4.614 -0.0401 -0.1589  0.2760
 5516SOL     OW28009   1.198   3.619   1.317  0.5930  0.2420  0.2177
 5516SOL    HW128010   1.214   3.550   1.381  2.8923  1.9382  1.4852
 5516SOL    HW228011   1.236   3.695   1.363  0.8668  1.3860 -1.9285
 5517SOL     OW28012   0.397   4.195   4.089 -0.2084 -0.1800  0.4671
 5517SOL    HW128013   0.437   4.183   4.003  2.7449  1.3306  1.6516
 5517SOL    HW228014   0.473   4.214   4.143  0.0526 -0.6279  0.2557
 5518SOL     OW28015   1.010   4.272   2.976  0.3612 -0.1800 -0.0948
 5518SOL    HW128016   0.950   4.288   2.903 -1.0150 -1.2387  0.8031
 5518SOL    HW228017   1.005   4.177   2.988  1.7302 -0.4121 -1.3516
 5519SOL     OW28018   2.320   2.125   6.144 -0.2446  0.2948  0.3490
 5519SOL    HW128019   2.343   2.189   6.211  0.3102  1.2073 -0.7022
 5519SOL    HW228020   2.282   2.061   6.204  1.5324 -3.8674 -3.0002
 5520SOL     OW28021   0.187   4.154   7.777  0.3659 -0.2609  0.2170
 5520SOL    HW128022   0.209   4.193   7.693  0.3789  0.7192  0.6610
 5520SOL    HW228023   0.202   4.065   7.748 -0.0034  0.4638 -2.1855
 5521SOL     OW28024   1.981   3.954   0.852  0.8597 -0.1622  0.6855
 5521SOL    HW128025   1.889   3.940   0.873  0.3401 -0.0706 -1.4803
 5521SOL    HW228026   2.022   3.985   0.933  3.2910  0.7589 -0.8981
 5522SOL     OW28027   0.228   4.564   7.741  0.1071 -0.2112  0.6817
 5522SOL    HW128028   0.223   4.497   7.809 -0.3665  0.5312  1.3844
 5522SOL    HW228029   0.316   4.540   7.712 -0.5673 -1.1535 -0.5805
 5523SOL     OW28030   2.123   3.121   8.103  0.4538  0.5242  0.1421
 5523SOL    HW128031   2.216   3.139   8.116  0.3669  0.1755  1.2345
 5523SOL    HW228032   2.086   3.187   8.044  0.5876  0.8463  0.4259
 5524SOL     OW28033   0.943   0.433   5.272 -0.0665 -0.0502 -0.0560
 5524SOL    HW128034   0.897   0.517   5.281 -1.5703 -0.9109  0.3152
 5524SOL    HW228035   0.924   0.407   5.181  0.5505  0.1480 -0.2398
 5525SOL     OW28036   0.332   0.032  11.406 -0.5160 -0.1857  0.3856
 5525SOL    HW128037   0.365   0.020  11.495  2.6020 -0.8971 -0.8576
 5525SOL    HW228038   0.395   4.701  11.361  0.9355  1.4467  0.3207
 5526SOL     OW28039   2.730   0.035   7.123  0.1663 -0.4107 -0.1221
 5526SOL    HW128040   2.672   0.070   7.056  1.1950 -1.0056 -1.3288
 5526SOL    HW228041   2.806   0.026   7.064  0.5572 -0.8085  0.4401
 5527SOL     OW28042   0.188   2.030  17.302 -0.3200 -0.1671 -0.3794
 5527SOL    HW128043   0.275   2.032  17.260 -0.9400  0.5240 -1.6564
 5527SOL    HW228044   0.170   1.937  17.314 -0.1741  0.0715  1.6372
 5528SOL     OW28045   2.262   1.813  15.305 -0.4421  0.5274 -0.2496
 5528SOL    HW128046   2.305   1.737  15.265 -2.2984 -0.9325  0.5106
 5528SOL    HW228047   2.322   1.879  15.271 -0.5280  0.1467 -1.1439
 5529SOL     OW28048   3.800   2.893   9.623  0.5751  0.1823  0.1334
 5529SOL    HW128049   3.826   2.873   9.533 -1.8277  0.7131 -0.6846
 5529SOL    HW228050   3.814   2.813   9.673  1.6024  0.7014  0.6635
 5530SOL     OW28051   3.026   2.961   8.501 -0.1330 -0.4576  0.3799
 5530SOL    HW128052   2.935   2.993   8.503 -0.2168 -0.7543  1.1616
 5530SOL    HW228053   3.062   3.031   8.555 -1.7194  0.5505  0.1352
 5531SOL     OW28054   2.458   2.629  10.453  0.1528  0.1994  0.3873
 5531SOL    HW128055   2.497   2.577  10.523  1.4144 -1.4386 -1.5496
 5531SOL    HW228056   2.450   2.716  10.494 -0.0347  0.3420  0.0492
 5532SOL     OW28057   1.567   1.094   9.380 -0.0651 -0.5478 -0.4603
 5532SOL    HW128058   1.569   1.096   9.476 -0.4952 -0.2471 -0.4579
 5532SOL    HW228059   1.582   1.185   9.356 -1.8250 -0.4067 -0.9523
 5533SOL     OW28060   2.578   0.300   4.358  0.4365  0.1005  0.2137
 5533SOL    HW128061   2.602   0.290   4.266 -1.1861  0.1146 -0.2124
 5533SOL    HW228062   2.634   0.230   4.391 -1.9112 -0.7623  2.3739
 5534SOL     OW28063   3.683   3.180  17.599  0.2822  0.8204  0.3767
 5534SOL    HW128064   3.730   3.139  17.672 -0.1374 -0.1344  0.1157
 5534SOL    HW228065   3.691   3.115  17.529  0.2169 -0.4839  1.5830
 5535SOL     OW28066   4.656   1.755   8.740 -0.0675 -0.4171  0.6559
 5535SOL    HW128067   4.706   1.774   8.660  0.0685  0.2373  0.8965
 5535SOL    HW228068   4.611   1.673   8.718 -0.8180 -0.2273  1.5068
 5536SOL     OW28069   2.338   2.236  11.216  0.2282 -0.2394  0.3003
 5536SOL    HW128070   2.259   2.247  11.163  1.2787  0.4836 -1.1131
 5536SOL    HW228071   2.366   2.327  11.228  1.3251 -0.4999 -0.2763
 5537SOL     OW28072   4.059   0.944   9.315 -0.5190  0.0501  0.0433
 5537SOL    HW128073   4.131   0.939   9.251 -0.0844 -1.9786  0.6912
 5537SOL    HW228074   4.092   0.883   9.380  1.5675 -0.6143 -1.6149
 5538SOL     OW28075   0.517   0.782   7.039  0.3829 -0.5798 -0.3179
 5538SOL    HW128076   0.423   0.771   7.024 -0.4239  3.4692  1.7555
 5538SOL    HW228077   0.547   0.692   7.027  0.9351 -0.6895  1.9711
 5539SOL     OW28078   3.111   1.407  16.881  0.2967 -0.1085  0.4160
 5539SOL    HW128079   3.183   1.364  16.926 -0.7085 -0.8703  1.2905
 5539SOL    HW228080   3.037   1.370  16.929 -2.2718  3.5059 -0.7411
 5540SOL     OW28081   3.381   4.230  17.341  0.3760  0.2136  0.0063
 5540SOL    HW128082   3.382   4.256  17.433  0.8528 -0.5742  0.2186
 5540SOL    HW228083   3.336   4.145  17.345  1.4175 -0.2154  2.5437
 5541SOL     OW28084   2.600   0.690   9.417  0.2215  0.0252 -0.0973
 5541SOL    HW128085   2.572   0.684   9.508  0.5324  3.5800  0.2617
 5541SOL    HW228086   2.623   0.783   9.413 -1.8835  0.5130 -0.7093
 5542SOL     OW28087   1.281   2.388   6.050  0.8232 -0.2710 -0.3006
 5542SOL    HW128088   1.240   2.469   6.021  0.6779 -0.2563 -0.0540
 5542SOL    HW228089   1.342   2.374   5.977 -2.4446 -0.7430 -2.9275
 5543SOL     OW28090   4.059   0.140   5.427 -0.5573 -0.0252 -0.0141
 5543SOL    HW128091   4.053   0.150   5.522  0.1534 -0.6792  0.1034
 5543SOL    HW228092   4.019   0.225   5.406 -2.8353 -0.9978  0.3999
 5544SOL     OW28093   0.069   2.080   6.140  0.3363 -0.3438 -0.0098
 5544SOL    HW128094   0.101   1.996   6.173 -0.2549 -0.2570  0.7900
 5544SOL    HW228095   0.114   2.143   6.195  0.1754  1.5511 -2.0456
 5545SOL     OW28096   1.056   3.652   9.021 -0.2172 -0.0476  0.0484
 5545SOL    HW128097   1.011   3.652   8.937  0.4687 -1.1614 -0.3175
 5545SOL    HW228098   1.120   3.724   9.018 -0.0857 -0.1705 -0.1159
 5546SOL     OW28099   1.434   3.362   5.998 -0.3529  0.1921  0.2649
 5546SOL    HW128100   1.378   3.297   6.040  0.1604 -1.9810 -2.4382
 5546SOL    HW228101   1.508   3.307   5.970 -1.5339 -1.3101  0.0978
 5547SOL     OW28102   3.980   3.771   8.655  0.7112  0.1452  0.8244
 5547SOL    HW128103   3.936   3.850   8.684  0.7066  0.1430  0.8236
 5547SOL    HW228104   4.063   3.800   8.617  1.7486 -0.7190  2.4027
 5548SOL     OW28105   1.942   2.276  14.332 -0.0486  0.2965 -0.2868
 5548SOL    HW128106   1.984   2.255  14.249  0.6597  1.7196 -0.2991
 5548SOL    HW228107   1.883   2.341  14.292 -1.6800 -0.8075  0.3633
 5549SOL     OW28108   4.330   2.270   1.056 -0.4527  0.2639 -0.3684
 5549SOL    HW128109   4.282   2.351   1.075  1.0546  0.9759  0.4325
 5549SOL    HW228110   4.291   2.263   0.969  1.5977  0.4327 -1.3120
 5550SOL     OW28111   1.920   3.391  11.470 -0.1765 -0.6827  0.1493
 5550SOL    HW128112   1.918   3.366  11.378 -0.4987 -3.0718  0.8118
 5550SOL    HW228113   1.829   3.417  11.486 -0.4062 -1.1116 -0.4734
 5551SOL     OW28114   0.361   4.130   8.036 -0.2046  0.6074  0.2036
 5551SOL    HW128115   0.341   4.211   8.083 -2.6221  1.2691 -1.9576
 5551SOL    HW228116   0.343   4.154   7.945 -0.9288 -1.7936 -0.2821
 5552SOL     OW28117   0.932   0.479  13.414 -0.6730 -0.3301  0.6158
 5552SOL    HW128118   0.940   0.384  13.430  2.1800 -0.1380  0.3543
 5552SOL    HW228119   0.976   0.522  13.487  0.1113 -2.9427  1.7153
 5553SOL     OW28120   3.777   2.335   5.324 -0.0299 -0.1566 -0.3318
 5553SOL    HW128121   3.852   2.386   5.295 -1.9452  1.5749 -2.1918
 5553SOL    HW228122   3.806   2.251   5.290 -0.0999  0.0908 -0.9909
 5554SOL     OW28123   4.242   3.084   9.171 -0.1190 -0.3592 -0.9620
 5554SOL    HW128124   4.258   2.990   9.185 -0.8698 -0.3410  0.0163
 5554SOL    HW228125   4.307   3.128   9.224 -0.9201  0.7395 -0.8939
 5555SOL     OW28126   4.541   1.895   4.580 -0.1171  0.5565 -0.4478
 5555SOL    HW128127   4.592   1.972   4.556  0.3463  0.8925  1.6042
 5555SOL    HW228128   4.602   1.852   4.640 -1.8358 -1.9185 -0.4676
 5556SOL     OW28129   1.244   4.106   5.633  0.1260 -0.5661  0.1659
 5556SOL    HW128130   1.238   4.131   5.540 -2.0264 -0.3968  0.3470
 5556SOL    HW228131   1.263   4.185   5.683  1.5446  0.4329 -1.9248
 5557SOL     OW28132   1.923   2.635   6.790 -0.7770 -0.1359  0.1464
 5557SOL    HW128133   1.872   2.556   6.771 -0.9431 -0.1930  0.8240
 5557SOL    HW228134   1.943   2.625   6.883  0.4198  1.4380  0.0428
 5558SOL     OW28135   2.357   1.948   2.231 -0.3446 -0.3733  0.2815
 5558SOL    HW128136   2.324   1.952   2.141  3.0330 -0.4994 -0.9707
 5558SOL    HW228137   2.300   2.009   2.277 -0.7764 -0.1964 -0.4927
 5559SOL     OW28138   3.488   1.113  10.848 -0.5986  0.0783  0.2494
 5559SOL    HW128139   3.441   1.100  10.930 -1.5272  0.6025 -0.2057
 5559SOL    HW228140   3.540   1.187  10.877  2.1100 -1.4515 -0.6771
 5560SOL     OW28141   3.330   3.937  15.400  0.3263  0.1614 -1.1779
 5560SOL    HW128142   3.294   3.849  15.394 -0.9538  0.5842  0.2036
 5560SOL    HW228143   3.326   3.954  15.306  0.2117  1.9072 -0.8624
 5561SOL     OW28144   1.139   3.801   9.502  0.1155  0.0267  0.2219
 5561SOL    HW128145   1.228   3.767   9.508 -0.1753 -0.7525  0.2121
 5561SOL    HW228146   1.131   3.813   9.407 -0.4354  0.2890  0.3005
 5562SOL     OW28147   3.020   3.636   2.695 -0.4093 -0.2842  0.1575
 5562SOL    HW128148   2.930   3.665   2.714 -0.0902  0.8143  0.0411
 5562SOL    HW228149   3.011   3.563   2.755 -0.7465 -0.6349 -0.3223
 5563SOL     OW28150   0.801   0.926   7.272 -0.7228 -0.2353 -0.0283
 5563SOL    HW128151   0.854   0.897   7.198  0.0745  1.5898 -0.1764
 5563SOL    HW228152   0.836   0.866   7.339 -0.9845 -0.7426 -0.3430
 5564SOL     OW28153   0.252   2.790  11.148 -0.2016 -0.0604  0.0963
 5564SOL    HW128154   0.316   2.824  11.085 -0.6045  0.1101 -0.2231
 5564SOL    HW228155   0.186   2.781  11.079 -0.5418  1.8292  0.1790
 5565SOL     OW28156   3.212   2.689   3.842  0.5063  0.1396 -0.2211
 5565SOL    HW128157   3.236   2.673   3.933  3.5038 -1.8681 -1.3916
 5565SOL    HW228158   3.225   2.784   3.841  2.2936 -0.0731  2.6641
 5566SOL     OW28159   2.443   1.183   2.814 -0.0573  0.7915 -0.3241
 5566SOL    HW128160   2.395   1.102   2.832  0.2632  1.0053  1.5379
 5566SOL    HW228161   2.371   1.244   2.825  1.0891  1.7049  2.1706
 5567SOL     OW28162   4.202   0.842   2.332 -0.0329 -0.2230 -0.4061
 5567SOL    HW128163   4.120   0.810   2.370  0.4698  1.5489  2.2211
 5567SOL    HW228164   4.174   0.934   2.325 -0.2021 -0.4302 -2.2468
 5568SOL     OW28165   1.479   1.135   2.699  0.2310 -0.0569 -0.3178
 5568SOL    HW128166   1.402   1.089   2.734 -0.0774 -0.4943 -1.5678
 5568SOL    HW228167   1.475   1.084   2.618 -0.0603  0.0847 -0.3917
 5569SOL     OW28168   0.992   2.417   3.864  0.5653 -0.4293 -0.2839
 5569SOL    HW128169   0.921   2.408   3.799 -1.3012  1.1947  1.5368
 5569SOL    HW228170   1.065   2.445   3.809  0.3398  0.6702 -0.0172
 5570SOL     OW28171   0.338   2.092   0.462  0.0614  0.4125 -0.4230
 5570SOL    HW128172   0.396   2.168   0.455 -0.9472  1.2860  0.6719
 5570SOL    HW228173   0.251   2.121   0.433  0.8899  2.3574 -0.9953
 5571SOL     OW28174   0.455   2.350   4.848  0.1360  0.6024  0.0954
 5571SOL    HW128175   0.550   2.339   4.856  0.4070  2.0757 -1.1364
 5571SOL    HW228176   0.440   2.444   4.834 -3.5816 -0.1316 -0.8008
 5572SOL     OW28177   2.505   4.369   8.356 -0.3344 -0.4557 -0.2916
 5572SOL    HW128178   2.413   4.381   8.379 -0.1594 -0.8624  0.6257
 5572SOL    HW228179   2.514   4.288   8.406 -0.3006  0.9828  2.0355
 5573SOL     OW28180   2.161   2.681   6.424  0.3217 -0.3638  0.1319
 5573SOL    HW128181   2.245   2.636   6.410  0.7032  0.7545 -1.2267
 5573SOL    HW228182   2.161   2.674   6.519 -2.1532 -2.1129  0.0217
 5574SOL     OW28183   0.874   3.534   5.061 -0.4978 -0.5216 -0.6152
 5574SOL    HW128184   0.875   3.544   4.965 -0.2081 -0.4137 -0.5985
 5574SOL    HW228185   0.816   3.608   5.078 -1.5627 -1.0418 -1.9187
 5575SOL     OW28186   0.967   4.377   4.606 -0.1186  0.0052  0.1299
 5575SOL    HW128187   0.972   4.335   4.520 -3.0620  1.1931 -0.6009
 5575SOL    HW228188   1.054   4.413   4.620 -1.2321  3.6862 -2.5754
 5576SOL     OW28189   1.703   1.132  11.916 -0.2825 -0.6169 -0.6268
 5576SOL    HW128190   1.775   1.131  11.980 -2.3396  0.3602  1.6938
 5576SOL    HW228191   1.661   1.217  11.926 -1.2486 -1.2759  0.8935
 5577SOL     OW28192   2.308   1.551   3.399  0.5554  0.8976  0.2391
 5577SOL    HW128193   2.312   1.528   3.492 -0.6685 -1.9268 -0.4030
 5577SOL    HW228194   2.219   1.563   3.367  0.4650  0.6443  0.3982
 5578SOL     OW28195   0.725   4.050   5.215  0.0741  0.2288  0.0687
 5578SOL    HW128196   0.710   4.119   5.151 -0.4742 -2.0378 -2.2255
 5578SOL    HW228197   0.713   4.100   5.296 -2.2655 -1.9190  1.0689
 5579SOL     OW28198   0.114   1.579  12.029 -0.9655  0.1630 -0.0031
 5579SOL    HW128199   0.169   1.584  11.951 -0.2129 -0.1831  0.4999
 5579SOL    HW228200   0.181   1.561  12.094  0.4583  2.8509 -0.7147
 5580SOL     OW28201   1.934   1.257  13.404 -0.0314  0.4698 -0.4311
 5580SOL    HW128202   1.990   1.322  13.446 -0.9951  1.1657 -0.2231
 5580SOL    HW228203   1.852   1.305  13.417 -1.0819 -0.7030 -2.7706
 5581SOL     OW28204   4.120   4.190   5.804  0.1885  0.0191  0.2634
 5581SOL    HW128205   4.142   4.162   5.715  1.6458 -0.8868  0.9057
 5581SOL    HW228206   4.207   4.211   5.838  0.6328  0.5434 -1.2077
 5582SOL     OW28207   4.457   1.438   4.144 -0.7087 -0.2230  0.3330
 5582SOL    HW128208   4.502   1.395   4.072 -0.9850 -0.3289  0.2243
 5582SOL    HW228209   4.404   1.509   4.107  0.6938  1.7924  2.1393
 5583SOL     OW28210   0.719   2.933   8.256 -0.2519 -0.3152  0.1981
 5583SOL    HW128211   0.805   2.925   8.215 -1.0397 -1.5653 -1.1987
 5583SOL    HW228212   0.681   2.988   8.188 -0.0978 -0.3159  0.1131
 5584SOL     OW28213   0.859   4.685   2.390  1.0903 -0.7341  0.6931
 5584SOL    HW128214   0.776   4.642   2.412  2.1982 -2.5995  1.2336
 5584SOL    HW228215   0.898   4.693   2.477  0.2894 -0.5517  1.0387
 5585SOL     OW28216   2.918   4.331  16.171  0.3583  0.7394 -0.0975
 5585SOL    HW128217   2.957   4.252  16.132  1.0916  0.0760  1.9624
 5585SOL    HW228218   2.852   4.287  16.224 -0.4522  0.8861 -0.9792
 5586SOL     OW28219   2.219   3.277  11.305  0.4042  0.1894  0.4584
 5586SOL    HW128220   2.129   3.276  11.272 -0.7524  0.7844  3.6021
 5586SOL    HW228221   2.253   3.188  11.296  0.4234  0.1012  1.4475
 5587SOL     OW28222   0.226   3.969   3.946  0.7009 -0.1293  0.3723
 5587SOL    HW128223   0.187   3.958   4.032  0.5533 -0.8480  0.2147
 5587SOL    HW228224   0.312   4.010   3.961  0.8867  0.2169 -1.5489
 5588SOL     OW28225   4.190   3.709   8.077  0.5988 -0.3685 -0.3696
 5588SOL    HW128226   4.112   3.726   8.131 -0.2935  2.1429 -2.4819
 5588SOL    HW228227   4.260   3.751   8.126 -1.3411  3.1363 -0.6104
 5589SOL     OW28228   3.530   3.280   1.478 -0.5267 -0.2062 -0.0943
 5589SOL    HW128229   3.444   3.256   1.511 -0.1667  0.4413  1.3004
 5589SOL    HW228230   3.502   3.339   1.407 -0.8816 -1.5411 -1.0659
 5590SOL     OW28231   2.844   2.699   6.501  0.1264  0.3697  0.3300
 5590SOL    HW128232   2.922   2.747   6.527  1.2685  0.0978 -2.5419
 5590SOL    HW228233   2.840   2.723   6.408  0.3207  1.9983  0.7438
 5591SOL     OW28234   1.146   3.958  14.406  0.0935 -0.4676  0.1334
 5591SOL    HW128235   1.072   3.903  14.429  0.4020  0.2674  2.9356
 5591SOL    HW228236   1.141   3.965  14.311  0.7412  1.6910  0.2427
 5592SOL     OW28237   2.440   2.371   6.630 -0.2396 -0.0410  0.2153
 5592SOL    HW128238   2.512   2.413   6.582 -0.2834 -0.6534 -0.3886
 5592SOL    HW228239   2.432   2.427   6.707 -0.8876 -0.3406  0.3609
 5593SOL     OW28240   4.539   2.812   8.105  0.0832 -0.0339 -0.0831
 5593SOL    HW128241   4.533   2.733   8.050  1.0142  0.2080 -0.5504
 5593SOL    HW228242   4.450   2.843   8.117  0.0255 -1.1420  2.3899
 5594SOL     OW28243   1.327   0.935   9.408  0.5503  0.0459 -0.1595
 5594SOL    HW128244   1.344   0.889   9.326  2.5782 -2.8717  1.8741
 5594SOL    HW228245   1.404   0.990   9.419 -1.0458  2.1839  0.1253
 5595SOL     OW28246   1.500   1.770   9.234  0.1266  0.1213 -0.4494
 5595SOL    HW128247   1.532   1.684   9.206 -1.2222  0.1583 -2.1434
 5595SOL    HW228248   1.437   1.793   9.165 -0.0714 -0.2179 -0.3835
 5596SOL     OW28249   0.981   3.470   2.942  0.0519  0.0647 -0.2105
 5596SOL    HW128250   0.995   3.480   3.036  0.6367 -1.0713 -0.1718
 5596SOL    HW228251   0.960   3.561   2.921 -0.8866 -0.5133 -1.7681
 5597SOL     OW28252   0.547   1.500   0.886  0.2248 -0.2416 -0.3861
 5597SOL    HW128253   0.578   1.422   0.840 -1.1719 -2.0296  1.7321
 5597SOL    HW228254   0.610   1.517   0.956  1.5505  0.2149 -1.6809
 5598SOL     OW28255   3.100   1.049   4.337  0.4722  0.2433 -0.4181
 5598SOL    HW128256   3.054   1.102   4.403 -0.3935  0.0406 -0.8634
 5598SOL    HW228257   3.190   1.066   4.364 -0.0095  0.9029  0.8026
 5599SOL     OW28258   0.510   3.483   7.053 -0.4330  0.4126  0.2762
 5599SOL    HW128259   0.441   3.538   7.088 -0.5299  0.3517  0.1814
 5599SOL    HW228260   0.474   3.438   6.976  1.5625  1.2566 -1.1715
 5600SOL     OW28261   2.753   4.549   8.689 -0.7390  0.5696  0.0688
 5600SOL    HW128262   2.847   4.536   8.678 -1.0941 -0.3089 -1.9766
 5600SOL    HW228263   2.722   4.570   8.601  2.0149  1.4248 -0.7079
 5601SOL     OW28264   1.424   4.079  14.253 -0.1754  0.2602  0.0644
 5601SOL    HW128265   1.470   4.084  14.169  2.3526  1.4885  1.5216
 5601SOL    HW228266   1.448   3.993  14.286 -0.3397  0.2441  0.1405
 5602SOL     OW28267   3.865   1.484  13.383 -0.0857  0.3637  0.5964
 5602SOL    HW128268   3.852   1.578  13.370 -1.3847  0.4094  2.2035
 5602SOL    HW228269   3.960   1.473  13.388  0.0987  1.1364 -1.1942
 5603SOL     OW28270   4.257   4.515  12.439 -0.1123  0.2507 -0.0215
 5603SOL    HW128271   4.315   4.522  12.515 -0.2192 -0.1366  0.0936
 5603SOL    HW228272   4.309   4.452  12.389 -0.5696  0.5082 -0.8170
 5604SOL     OW28273   0.292   2.437   6.577 -0.2306 -0.2217 -0.1152
 5604SOL    HW128274   0.297   2.379   6.653 -0.1811  0.6182  0.5155
 5604SOL    HW228275   0.197   2.434   6.568 -0.3330  1.4614  0.5896
 5605SOL     OW28276   3.248   1.017   4.768 -0.3485  0.0338  0.1460
 5605SOL    HW128277   3.327   1.063   4.796 -1.8661  1.6120  1.7736
 5605SOL    HW228278   3.179   1.044   4.828 -1.2405 -3.0030  0.5153
 5606SOL     OW28279   2.344   2.106   3.001 -0.1092  0.6182 -0.0304
 5606SOL    HW128280   2.314   2.164   2.931 -1.2491  0.5128  0.3553
 5606SOL    HW228281   2.387   2.034   2.956  0.7400 -0.0185  1.7675
 5607SOL     OW28282   4.513   0.467   1.353 -0.0873  0.4736  0.3232
 5607SOL    HW128283   4.441   0.524   1.326  0.7201  0.3472 -2.1638
 5607SOL    HW228284   4.591   0.522   1.347  1.4802 -1.6595  1.1691
 5608SOL     OW28285   0.476   0.134   6.192  0.6124  0.6540  0.2063
 5608SOL    HW128286   0.537   0.106   6.124  0.4856  3.4098 -1.0358
 5608SOL    HW228287   0.527   0.203   6.235 -0.6244 -0.4518  3.4534
 5609SOL     OW28288   3.137   3.558   8.160  0.0889  0.2580 -0.0445
 5609SOL    HW128289   3.100   3.473   8.182  0.6591  0.0081 -0.0515
 5609SOL    HW228290   3.214   3.562   8.216 -0.4701 -0.0073  0.7388
 5610SOL     OW28291   1.014   0.225   7.411  0.1499 -0.1481 -0.1396
 5610SOL    HW128292   0.986   0.156   7.472 -1.4227  0.2523 -0.4078
 5610SOL    HW228293   0.998   0.192   7.323 -1.1426  1.9714 -0.6940
 5611SOL     OW28294   3.563   1.685   1.956  0.0033 -0.2755  0.4698
 5611SOL    HW128295   3.652   1.698   1.990  0.3337  1.8721 -1.1775
 5611SOL    HW228296   3.559   1.740   1.878  3.1660 -1.5201 -0.5740
 5612SOL     OW28297   2.852   1.327  15.288 -0.0036 -0.0461  0.5262
 5612SOL    HW128298   2.824   1.239  15.262 -0.8402  0.8431 -1.5924
 5612SOL    HW228299   2.879   1.368  15.206 -0.4012 -1.4207 -0.2807
 5613SOL     OW28300   1.788   0.796   8.819  0.2899  0.7402 -0.5752
 5613SOL    HW128301   1.763   0.732   8.885  1.5654 -0.3609 -1.1625
 5613SOL    HW228302   1.851   0.755   8.760  0.1380 -1.0513  0.5152
 5614SOL     OW28303   0.409   0.503   8.899 -0.0229  0.6740  0.3947
 5614SOL    HW128304   0.367   0.585   8.926  2.9467  1.6715  1.9335
 5614SOL    HW228305   0.407   0.453   8.981  1.2128 -0.2056 -0.1213
 5615SOL     OW28306   1.102   1.718   4.981 -0.3779 -0.0216 -0.1610
 5615SOL    HW128307   1.180   1.710   5.035 -0.7079  0.3793  0.3752
 5615SOL    HW228308   1.065   1.802   5.009 -0.5665 -0.3987  0.7093
 5616SOL     OW28309   0.987   0.228   8.407 -0.1612  0.3153 -0.1630
 5616SOL    HW128310   0.944   0.224   8.493 -0.3525  2.1912 -0.1651
 5616SOL    HW228311   0.969   0.139   8.377 -0.6541 -0.0335  1.1716
 5617SOL     OW28312   3.288   1.225  10.085 -0.3688  0.0887  0.0263
 5617SOL    HW128313   3.216   1.283  10.110  0.0095 -0.8882  3.3622
 5617SOL    HW228314   3.257   1.148  10.132  0.6194 -1.0547 -1.1937
 5618SOL     OW28315   0.059   0.741   5.040 -0.3798 -0.2280  0.1501
 5618SOL    HW128316   0.070   0.717   5.132 -2.3155  1.3233  0.7874
 5618SOL    HW228317   0.145   0.783   5.031 -0.4328  0.2053  1.5873
 5619SOL     OW28318   1.033   1.284  12.581  0.1853  0.5185  0.2244
 5619SOL    HW128319   1.087   1.257  12.656  0.5398  1.5737  0.3491
 5619SOL    HW228320   0.947   1.261  12.614 -0.5755  0.0974 -2.0712
 5620SOL     OW28321   0.251   1.285   8.770 -0.0742 -0.3098  0.0808
 5620SOL    HW128322   0.342   1.265   8.795 -1.4678 -3.0357  3.0093
 5620SOL    HW228323   0.276   1.323   8.686  0.9002 -3.2089 -0.9458
 5621SOL     OW28324   0.682   4.458  12.321 -0.0678  0.6248  0.1522
 5621SOL    HW128325   0.705   4.478  12.411  2.9334 -0.1162 -0.4537
 5621SOL    HW228326   0.703   4.365  12.315  0.7820  0.9372 -2.0390
 5622SOL     OW28327   2.723   0.138   9.958 -0.2944 -0.1737  0.3266
 5622SOL    HW128328   2.785   0.114  10.026 -2.7432  0.5240  2.7813
 5622SOL    HW228329   2.790   0.157   9.892  0.1998  0.3589  0.9921
 5623SOL     OW28330   0.170   3.883   7.059 -0.5561 -0.2687 -0.0941
 5623SOL    HW128331   0.117   3.852   6.986  0.6406 -1.9066 -0.2517
 5623SOL    HW228332   0.253   3.869   7.013  0.0526  0.9171  0.6266
 5624SOL     OW28333   3.312   0.831   5.614 -0.5708  0.4570  0.7730
 5624SOL    HW128334   3.322   0.923   5.637  1.7430  0.5632 -0.7233
 5624SOL    HW228335   3.217   0.829   5.598 -0.5955 -0.0208  0.9643
 5625SOL     OW28336   2.935   2.058   6.549  0.2437 -0.4677 -0.2066
 5625SOL    HW128337   3.020   2.033   6.585 -0.2721 -0.4909  1.0089
 5625SOL    HW228338   2.923   2.141   6.595 -0.1750  0.1659 -1.4884
 5626SOL     OW28339   1.564   1.752   3.495 -0.2131 -0.4471  0.0109
 5626SOL    HW128340   1.481   1.756   3.449  1.1644  0.1109 -2.4504
 5626SOL    HW228341   1.549   1.819   3.561  1.1169  1.0209 -1.1777
 5627SOL     OW28342   3.735   2.828  15.649  0.2457  0.8528 -0.1750
 5627SOL    HW128343   3.687   2.875  15.717 -1.2709 -2.3620  0.9911
 5627SOL    HW228344   3.670   2.817  15.579  0.8167 -0.3803 -0.5232
 5628SOL     OW28345   2.850   0.125  10.207 -0.3169 -0.5497 -0.1433
 5628SOL    HW128346   2.762   0.125  10.245 -0.6258  0.0705 -0.8748
 5628SOL    HW228347   2.895   0.205  10.237 -0.8667 -0.7520  1.2458
 5629SOL     OW28348   2.421   0.605  16.915  0.0658  0.1109 -0.2074
 5629SOL    HW128349   2.478   0.563  16.980 -1.9776 -1.6230  0.4362
 5629SOL    HW228350   2.483   0.675  16.892 -0.5388  1.1624  1.3715
 5630SOL     OW28351   3.258   1.461   3.616 -0.5926  0.0965 -0.2059
 5630SOL    HW128352   3.297   1.381   3.650 -1.3122  0.3005  1.1211
 5630SOL    HW228353   3.167   1.432   3.603 -0.3839 -1.0236  0.8302
 5631SOL     OW28354   4.383   3.541   8.301  0.2162  0.7380 -0.7077
 5631SOL    HW128355   4.417   3.623   8.338  0.9861 -0.6421  1.6484
 5631SOL    HW228356   4.343   3.505   8.380  0.2652  1.4715 -0.3469
 5632SOL     OW28357   3.685   2.308  10.313  0.1840 -0.4263 -0.2271
 5632SOL    HW128358   3.693   2.403  10.306  1.1086 -0.5346 -0.5739
 5632SOL    HW228359   3.745   2.294  10.386  0.8615 -1.6105 -1.0188
 5633SOL     OW28360   2.279   2.906   6.844 -0.2304 -0.0977  0.0865
 5633SOL    HW128361   2.362   2.951   6.860  0.4863 -1.2141 -0.5481
 5633SOL    HW228362   2.241   2.921   6.930  0.4949  0.4191  0.3182
 5634SOL     OW28363   2.593   4.040   8.737  0.3130 -0.0944 -0.1014
 5634SOL    HW128364   2.593   4.088   8.655  1.0374  0.5006  0.2389
 5634SOL    HW228365   2.629   4.107   8.796  0.4487  0.7642 -1.1725
 5635SOL     OW28366   3.870   3.620   6.162 -0.1349  0.9858 -0.2434
 5635SOL    HW128367   3.881   3.695   6.220  1.9376  0.5436 -0.0512
 5635SOL    HW228368   3.830   3.659   6.085 -0.3476  1.7612  0.2606
 5636SOL     OW28369   4.213   4.068  16.104  0.0028  0.7941  0.2140
 5636SOL    HW128370   4.237   4.089  16.014  0.8967  0.2727  0.3335
 5636SOL    HW228371   4.287   4.120  16.134  0.6513 -0.4429  0.7498
 5637SOL     OW28372   4.129   1.457  12.634 -1.3530  0.1275 -0.0057
 5637SOL    HW128373   4.082   1.374  12.643  0.3904 -0.9829 -1.0972
 5637SOL    HW228374   4.168   1.437  12.548 -3.3727  0.7809 -1.0697
 5638SOL     OW28375   2.483   4.371   4.354  0.0437  0.1659 -0.0758
 5638SOL    HW128376   2.459   4.352   4.445 -3.3288  1.2734 -0.7315
 5638SOL    HW228377   2.448   4.296   4.307  1.1629 -1.0730  1.0624
 5639SOL     OW28378   3.474   1.590  15.931  0.0158 -1.2850  0.0756
 5639SOL    HW128379   3.432   1.524  15.985  2.9877 -0.5541  3.2245
 5639SOL    HW228380   3.563   1.571  15.958  0.6078  2.5055  0.7864
 5640SOL     OW28381   1.624   0.318   8.905 -0.5822 -0.3122  0.5684
 5640SOL    HW128382   1.634   0.223   8.903  0.5180 -0.1693 -0.5839
 5640SOL    HW228383   1.560   0.340   8.838  0.3605 -1.1184 -0.6073
 5641SOL     OW28384   3.497   3.385   2.649  0.7678  0.5903  0.1730
 5641SOL    HW128385   3.424   3.445   2.659  0.2022  0.1353 -1.3480
 5641SOL    HW228386   3.532   3.414   2.565  0.4351  1.2751  0.2755
 5642SOL     OW28387   4.509   1.739  14.240 -0.4540 -0.3508 -0.4364
 5642SOL    HW128388   4.449   1.801  14.282  2.0613 -0.1132  2.8481
 5642SOL    HW228389   4.580   1.727  14.303  0.0528  1.8924 -0.5654
 5643SOL     OW28390   0.835   4.035   2.735 -0.4047  0.4661 -0.0841
 5643SOL    HW128391   0.809   4.084   2.813 -1.6009  0.4164 -0.4629
 5643SOL    HW228392   0.920   4.004   2.768  0.6460  0.7099 -2.6061
 5644SOL     OW28393   2.307   4.339   9.616  0.0378 -0.1835  0.6322
 5644SOL    HW128394   2.354   4.272   9.567 -1.0538 -1.6291  1.5649
 5644SOL    HW228395   2.228   4.294   9.644 -0.1309 -0.5839 -0.4920
 5645SOL     OW28396   3.360   2.231   6.591 -0.4202 -0.7241 -0.0136
 5645SOL    HW128397   3.302   2.160   6.566 -0.0946 -1.3934  1.0937
 5645SOL    HW228398   3.444   2.187   6.602  0.2988  0.7401  0.4113
 5646SOL     OW28399   3.340   4.116   1.273  0.3187  0.3548 -0.1345
 5646SOL    HW128400   3.334   4.172   1.196 -1.8629  0.6835  0.2875
 5646SOL    HW228401   3.433   4.092   1.276  0.1314 -0.4779 -0.8403
 5647SOL     OW28402   1.987   0.081  13.616  0.0773 -0.0548 -0.4352
 5647SOL    HW128403   2.056   0.040  13.564  0.0163 -0.9293  0.1683
 5647SOL    HW228404   1.959   0.003  13.664 -1.7972  2.8474  3.1250
 5648SOL     OW28405   0.228   1.435   2.637  0.4388  0.4287  0.3799
 5648SOL    HW128406   0.209   1.489   2.713 -1.4866 -0.0338  0.2172
 5648SOL    HW228407   0.141   1.417   2.602  0.5614  0.1718  0.2058
 5649SOL     OW28408   0.723   2.425   4.810 -0.4143 -0.6016 -0.0077
 5649SOL    HW128409   0.731   2.520   4.803 -0.4065 -0.6649 -0.8173
 5649SOL    HW228410   0.755   2.397   4.724  0.8370 -0.4384  0.4017
 5650SOL     OW28411   3.329   0.018   2.426 -0.5331  0.5306  0.3734
 5650SOL    HW128412   3.307   0.074   2.351 -0.0692 -2.6790 -2.1576
 5650SOL    HW228413   3.325   0.078   2.501 -3.0549  0.8894 -0.0401
 5651SOL     OW28414   0.372   0.831   6.714 -0.3561 -0.0410  0.1678
 5651SOL    HW128415   0.296   0.795   6.668 -0.6620  1.3067 -0.3772
 5651SOL    HW228416   0.341   0.893   6.779 -0.3819  0.0099  0.1067
 5652SOL     OW28417   2.608   0.309   2.753 -0.3197  0.0475  0.0259
 5652SOL    HW128418   2.561   0.332   2.834 -0.4161  0.6642 -0.2044
 5652SOL    HW228419   2.536   0.279   2.697  0.3900 -1.4445 -0.0771
 5653SOL     OW28420   2.861   2.817   6.237 -0.2017 -0.2538 -0.2065
 5653SOL    HW128421   2.932   2.877   6.215 -0.5908  0.0747 -0.5509
 5653SOL    HW228422   2.796   2.844   6.172 -1.3823  0.0978  1.1264
 5654SOL     OW28423   1.364   1.429   9.201 -0.5780  0.2834 -0.2297
 5654SOL    HW128424   1.420   1.371   9.252 -4.6729 -1.3833  2.3965
 5654SOL    HW228425   1.276   1.424   9.239 -0.1400 -2.1758  0.4419
 5655SOL     OW28426   2.334   0.134   0.624 -0.1860  0.4710 -0.1524
 5655SOL    HW128427   2.367   0.168   0.540  2.0588 -1.7084 -0.1573
 5655SOL    HW228428   2.372   0.047   0.618 -4.2030 -1.2883  0.2967
 5656SOL     OW28429   2.638   3.159   5.129 -0.5882 -0.6428  0.1710
 5656SOL    HW128430   2.706   3.113   5.080  1.5476  0.9839  1.6105
 5656SOL    HW228431   2.640   3.104   5.207  1.1085  0.1037  0.6482
 5657SOL     OW28432   3.775   4.058   3.445 -0.4059 -0.5138 -0.1460
 5657SOL    HW128433   3.798   3.991   3.509  2.1751  0.9979  0.5124
 5657SOL    HW228434   3.827   4.131   3.477 -1.9760 -0.6427  2.7535
 5658SOL     OW28435   1.835   2.147   8.809 -0.2944 -0.4827  0.5040
 5658SOL    HW128436   1.819   2.176   8.899 -2.6974 -0.6016  0.1069
 5658SOL    HW228437   1.830   2.058   8.844  0.6378 -1.2032 -1.1997
 5659SOL     OW28438   0.160   2.290   2.988 -0.1514  0.0893  0.5665
 5659SOL    HW128439   0.180   2.295   2.895  0.7662  2.0437  0.8751
 5659SOL    HW228440   0.249   2.280   3.021  0.5178  0.8032 -1.0452
 5660SOL     OW28441   1.722   2.791   1.576  0.2039  0.3930 -0.3262
 5660SOL    HW128442   1.753   2.796   1.486  0.5464 -0.7865 -0.2726
 5660SOL    HW228443   1.634   2.756   1.561  0.0031 -0.5719  3.0737
 5661SOL     OW28444   3.338   2.915   6.550  0.3677  0.1574  0.1745
 5661SOL    HW128445   3.376   2.987   6.499  0.2611 -0.7505 -1.1790
 5661SOL    HW228446   3.324   2.964   6.631  1.8274 -0.3319  0.7208
 5662SOL     OW28447   0.226   0.832   7.999 -0.4918  0.3195  0.6554
 5662SOL    HW128448   0.303   0.791   8.040 -1.4092 -0.5147  1.5375
 5662SOL    HW228449   0.257   0.923   8.002 -3.0184  1.1150  2.1350
 5663SOL     OW28450   4.451   1.261   5.656 -0.2848  0.1988  0.0610
 5663SOL    HW128451   4.388   1.296   5.593  0.2791 -2.8517 -2.1728
 5663SOL    HW228452   4.435   1.308   5.738  0.1064  1.2003 -0.4355
 5664SOL     OW28453   0.636   0.736   8.755  0.4869  0.1885  0.1415
 5664SOL    HW128454   0.711   0.789   8.784 -0.4232  0.5082  1.9646
 5664SOL    HW228455   0.577   0.741   8.831 -0.3093 -1.5202 -0.3821
 5665SOL     OW28456   0.429   2.221   3.070  0.2176  0.3561  0.3364
 5665SOL    HW128457   0.499   2.176   3.022  0.4782 -2.2953  3.1423
 5665SOL    HW228458   0.459   2.196   3.157 -1.1443 -0.2414  0.6454
 5666SOL     OW28459   4.474   4.359  14.190  0.0198  0.3554 -0.0058
 5666SOL    HW128460   4.401   4.297  14.189  0.9651 -0.7383 -2.8886
 5666SOL    HW228461   4.552   4.304  14.174 -0.0376 -0.3801  2.2921
 5667SOL     OW28462   3.463   3.256   4.805 -0.2002 -0.0197  0.5483
 5667SOL    HW128463   3.444   3.216   4.890 -1.8504  0.0008  0.1887
 5667SOL    HW228464   3.379   3.299   4.788 -1.5760 -2.8955 -0.0332
 5668SOL     OW28465   2.454   0.806   2.170 -0.1193 -0.5972  0.0378
 5668SOL    HW128466   2.455   0.902   2.178 -1.6904 -0.5711 -0.0316
 5668SOL    HW228467   2.439   0.780   2.260  0.1222  0.5253  0.4067
 5669SOL     OW28468   1.997   3.890  16.144 -0.7252 -0.5568  0.3263
 5669SOL    HW128469   1.904   3.888  16.121 -0.3526  0.3381 -1.3266
 5669SOL    HW228470   2.049   3.886  16.063 -0.7217 -0.2576  0.3140
 5670SOL     OW28471   2.724   1.042  11.648 -0.0143 -0.0473 -0.1896
 5670SOL    HW128472   2.796   1.020  11.589  1.2488 -1.3330  1.8199
 5670SOL    HW228473   2.676   0.961  11.634  1.4608 -0.9886  0.1799
 5671SOL     OW28474   1.472   4.696   7.823  0.0120  0.2076  0.3457
 5671SOL    HW128475   1.522   4.615   7.831  2.5218  1.9848  2.5361
 5671SOL    HW228476   1.527   0.001   7.751 -0.5348 -0.4492 -0.3603
 5672SOL     OW28477   2.937   0.409  16.512  0.3568  0.2576 -0.1968
 5672SOL    HW128478   2.940   0.472  16.440  0.3995 -0.6122 -0.9585
 5672SOL    HW228479   2.893   0.336  16.470  0.5247  0.8714 -1.4240
 5673SOL     OW28480   2.811   3.500  11.752 -0.6503  0.3077  0.4370
 5673SOL    HW128481   2.795   3.586  11.712 -2.3161 -0.9204 -1.5189
 5673SOL    HW228482   2.857   3.526  11.832  3.2962 -2.8170 -0.8144
 5674SOL     OW28483   1.807   3.686   9.043  0.3062 -1.0316  0.0276
 5674SOL    HW128484   1.848   3.730   9.118  1.2119 -0.3864 -0.8410
 5674SOL    HW228485   1.846   3.730   8.967 -1.2408  1.7842  0.8662
 5675SOL     OW28486   0.821   4.618   0.053 -0.5251  0.1201  0.0769
 5675SOL    HW128487   0.828   4.675   0.130  0.5562  0.2192 -0.0923
 5675SOL    HW228488   0.751   4.557   0.076 -0.9940  0.4147 -0.5863
 5676SOL     OW28489   0.862   0.622   6.819  0.2669 -0.5486 -0.2406
 5676SOL    HW128490   0.797   0.565   6.778  0.4060 -2.7424  2.6450
 5676SOL    HW228491   0.853   0.699   6.762  0.0442 -1.1354 -1.0075
 5677SOL     OW28492   0.897   4.390   9.224 -0.2927 -0.5415  0.2244
 5677SOL    HW128493   0.904   4.301   9.259  1.0979 -0.4842  0.1227
 5677SOL    HW228494   0.822   4.399   9.165  0.5528  0.7712 -0.6422
 5678SOL     OW28495   3.890   0.950  12.542 -0.3973  0.0510  0.6993
 5678SOL    HW128496   3.872   1.022  12.482 -1.8515 -1.9348 -1.2925
 5678SOL    HW228497   3.982   0.927  12.526 -0.6194 -0.1210 -0.3616
 5679SOL     OW28498   0.110   3.928   5.754  0.6292  0.2435  0.1349
 5679SOL    HW128499   0.169   3.974   5.694 -0.2572  0.6012 -0.4716
 5679SOL    HW228500   0.081   3.841   5.726  0.4051  1.4168 -3.2417
 5680SOL     OW28501   3.128   2.700   9.676 -0.1084  0.0230 -0.0307
 5680SOL    HW128502   3.148   2.608   9.690  0.8403  0.3760  0.8992
 5680SOL    HW228503   3.170   2.748   9.748 -0.5300  0.3788 -0.0181
 5681SOL     OW28504   0.642   3.184  13.600  0.2745 -0.0624  0.0083
 5681SOL    HW128505   0.552   3.159  13.579 -0.8863  1.5085  3.0390
 5681SOL    HW228506   0.644   3.266  13.551  0.5754  0.5199  0.9835
 5682SOL     OW28507   4.176   2.076   8.597 -0.3652 -0.3015  0.3294
 5682SOL    HW128508   4.233   2.060   8.522 -0.1058  1.8036  0.1003
 5682SOL    HW228509   4.125   1.995   8.603 -1.0213  0.0676 -0.2398
 5683SOL     OW28510   4.026   1.849   9.621  0.2862  0.5331  0.2807
 5683SOL    HW128511   4.117   1.849   9.649  0.3075  2.0647  0.2036
 5683SOL    HW228512   3.987   1.770   9.660  0.8015  0.2894  0.2962
 5684SOL     OW28513   3.465   0.361   1.995 -0.1870 -0.1808  0.2521
 5684SOL    HW128514   3.498   0.442   1.956 -0.9320  0.9526  1.9445
 5684SOL    HW228515   3.466   0.393   2.086  2.1662  0.5781 -0.0378
 5685SOL     OW28516   0.985   1.206   3.897 -0.2134  0.2397 -0.0693
 5685SOL    HW128517   1.026   1.197   3.810  0.1123  0.5332  0.0523
 5685SOL    HW228518   0.933   1.284   3.875 -0.0548  0.2981 -0.2415
 5686SOL     OW28519   2.000   3.926   4.622 -0.3616 -0.3671 -0.4445
 5686SOL    HW128520   1.924   3.964   4.666  1.0280  0.9246  0.8559
 5686SOL    HW228521   2.044   3.887   4.698 -0.6132 -1.2706 -0.7629
 5687SOL     OW28522   1.272   2.137   4.434  0.0490 -0.3385 -0.2164
 5687SOL    HW128523   1.248   2.061   4.381 -0.5677 -0.2844 -0.0197
 5687SOL    HW228524   1.346   2.110   4.487  2.0905  1.0841 -2.3412
 5688SOL     OW28525   2.767   4.589   1.995 -0.0417 -0.0462 -0.0717
 5688SOL    HW128526   2.829   4.562   1.927  0.5461  3.0648 -0.7402
 5688SOL    HW228527   2.826   4.621   2.064 -0.1860 -1.0775  0.5372
 5689SOL     OW28528   2.279   4.466  13.235 -0.4908  0.8630  0.2278
 5689SOL    HW128529   2.215   4.451  13.305 -0.3432  1.3932  0.4810
 5689SOL    HW228530   2.209   4.477  13.170 -0.8354 -0.6304  0.3402
 5690SOL     OW28531   1.594   4.687   9.557 -0.2929 -0.1586 -0.5637
 5690SOL    HW128532   1.615   4.614   9.499  0.3985 -1.0042  0.7446
 5690SOL    HW228533   1.568   4.640   9.636 -2.6207  1.5338 -0.3065
 5691SOL     OW28534   4.496   3.750   6.454  0.8768  0.0972  0.1201
 5691SOL    HW128535   4.479   3.841   6.429 -2.5377 -0.9071 -1.2997
 5691SOL    HW228536   4.588   3.762   6.475  1.0685  0.4743 -0.9356
 5692SOL     OW28537   3.491   0.356   9.364 -0.8062 -0.2595 -0.0173
 5692SOL    HW128538   3.542   0.367   9.445 -0.8736 -0.0630 -0.0030
 5692SOL    HW228539   3.566   0.353   9.304 -1.6779 -0.3882 -1.1002
 5693SOL     OW28540   0.295   2.963   8.097  0.3083  0.0619 -0.2215
 5693SOL    HW128541   0.202   2.941   8.090  0.4699 -1.0055  0.8573
 5693SOL    HW228542   0.295   3.036   8.159 -0.9191 -1.7057  1.8795
 5694SOL     OW28543   4.073   1.078   3.130 -0.2594  0.3508 -0.0802
 5694SOL    HW128544   3.982   1.051   3.138 -0.5595  1.5470  0.6281
 5694SOL    HW228545   4.094   1.060   3.038 -2.0503  2.7504 -0.9653
 5695SOL     OW28546   0.303   3.611   8.145  0.2636 -0.7653  0.0542
 5695SOL    HW128547   0.334   3.572   8.227 -1.7533  0.7585  1.5544
 5695SOL    HW228548   0.299   3.531   8.093 -0.9222  1.2991 -3.0059
 5696SOL     OW28549   2.965   1.717   5.154  1.0846 -0.5253 -0.4642
 5696SOL    HW128550   2.980   1.673   5.238 -1.6340  2.1590  1.4381
 5696SOL    HW228551   2.881   1.677   5.133  0.3622 -0.5529  2.3870
 5697SOL     OW28552   3.465   1.076  16.454  0.3883 -0.1817  0.3599
 5697SOL    HW128553   3.535   1.035  16.404  1.2093  0.5117  0.9248
 5697SOL    HW228554   3.401   1.094  16.385 -0.2260 -0.5295  0.8398
 5698SOL     OW28555   1.941   2.617   5.354  0.7980  0.4830  0.3548
 5698SOL    HW128556   1.998   2.608   5.430  1.0864  0.6020  0.1509
 5698SOL    HW228557   1.933   2.523   5.340  0.0094  0.7376 -0.9232
 5699SOL     OW28558   0.580   0.545  14.938  0.3301 -0.8613  0.9694
 5699SOL    HW128559   0.666   0.511  14.915  0.1858 -0.7498  0.2668
 5699SOL    HW228560   0.516   0.478  14.913 -1.0576  0.7262  0.1966
 5700SOL     OW28561   3.729   0.574   6.155  0.5421  0.2059  0.0625
 5700SOL    HW128562   3.722   0.566   6.250 -2.2363 -1.1883 -0.2649
 5700SOL    HW228563   3.711   0.483   6.132  0.4396  0.3253 -0.3218
 5701SOL     OW28564   3.863   2.056   5.270 -0.3135  1.0375 -0.2592
 5701SOL    HW128565   3.900   2.087   5.353 -3.5327  0.3130  1.4791
 5701SOL    HW228566   3.933   2.003   5.233  0.0076  0.1168  1.6434
 5702SOL     OW28567   0.390   3.671   6.371  0.1387 -0.0126 -0.1259
 5702SOL    HW128568   0.327   3.639   6.435  0.4179 -1.8492 -0.7668
 5702SOL    HW228569   0.346   3.652   6.288 -1.0437  0.1954  0.4462
 5703SOL     OW28570   3.042   3.857  12.897  0.2344 -0.3264  0.2716
 5703SOL    HW128571   3.072   3.862  12.988  0.3078 -1.1638  0.2953
 5703SOL    HW228572   2.953   3.824  12.907  0.2153 -1.0381 -2.2335
 5704SOL     OW28573   3.226   1.074   3.367 -0.2548 -0.0726  0.3726
 5704SOL    HW128574   3.310   1.053   3.327 -1.1892  0.9192 -2.1235
 5704SOL    HW228575   3.167   1.006   3.334 -0.7016 -0.0133  1.0523
 5705SOL     OW28576   2.498   0.888  15.504 -0.7391 -0.3778  0.4651
 5705SOL    HW128577   2.481   0.941  15.426  0.9184  1.2039  1.1653
 5705SOL    HW228578   2.461   0.807  15.469 -1.3740  0.8018 -1.5945
 5706SOL     OW28579   2.114   1.018  15.740 -0.3819 -0.3108  0.5426
 5706SOL    HW128580   2.076   1.095  15.783  2.3908 -0.3897  3.0435
 5706SOL    HW228581   2.046   0.951  15.739  1.0125 -1.7078 -0.6652
 5707SOL     OW28582   0.011   1.683   1.645  1.0256 -0.0335 -0.0786
 5707SOL    HW128583   0.048   1.723   1.567  0.7690  1.9597  0.8028
 5707SOL    HW228584   0.031   1.753   1.708  0.9811 -0.7994  0.7989
 5708SOL     OW28585   1.253   3.546   1.576  0.8577 -0.3749  0.2933
 5708SOL    HW128586   1.316   3.618   1.575  2.2251 -1.5879 -1.3641
 5708SOL    HW228587   1.302   3.491   1.637  1.5475 -1.2213 -1.0395
 5709SOL     OW28588   2.480   1.529   8.769  0.0756  0.4126  0.6228
 5709SOL    HW128589   2.556   1.571   8.809  0.1883  0.1923  0.6393
 5709SOL    HW228590   2.445   1.608   8.727 -0.9360 -0.1116  0.4759
 5710SOL     OW28591   3.546   0.690  10.224  0.0597 -0.1413 -0.2489
 5710SOL    HW128592   3.474   0.627  10.225  1.5575 -1.8361 -0.1633
 5710SOL    HW228593   3.570   0.698  10.317  0.6726 -0.9324 -0.3396
 5711SOL     OW28594   0.603   0.418   6.128  0.1822  0.2386  0.6282
 5711SOL    HW128595   0.623   0.475   6.054  1.1134  0.5102  1.0832
 5711SOL    HW228596   0.682   0.364   6.127  0.3091  0.4162  1.1215
 5712SOL     OW28597   4.161   4.083   1.067 -0.6889 -0.3981  0.0885
 5712SOL    HW128598   4.108   4.028   1.010 -0.0445  0.4821 -1.3580
 5712SOL    HW228599   4.195   4.011   1.121 -2.2338 -0.9894  0.2687
 5713SOL     OW28600   1.254   1.351   8.956 -0.0382  0.0109  0.3257
 5713SOL    HW128601   1.235   1.445   8.959 -2.6102 -0.4844 -0.5325
 5713SOL    HW228602   1.322   1.362   9.022  1.7472  1.2396 -1.7103
 5714SOL     OW28603   2.761   3.525   7.027 -0.3185  0.4312 -0.6146
 5714SOL    HW128604   2.696   3.577   6.980  0.2487  1.0069 -0.7785
 5714SOL    HW228605   2.780   3.451   6.970 -0.5269 -0.8334  0.9699
 5715SOL     OW28606   3.196   3.882   1.206 -0.1691 -0.7519  0.5620
 5715SOL    HW128607   3.217   3.965   1.248  1.6192 -0.7765 -0.2787
 5715SOL    HW228608   3.280   3.853   1.170 -0.1167 -0.8473  0.7611
 5716SOL     OW28609   1.149   4.669   7.914  0.0936 -0.3277  0.2725
 5716SOL    HW128610   1.180   0.033   7.896  0.6779 -0.5996 -0.0846
 5716SOL    HW228611   1.072   4.658   7.858  0.3547 -0.1632 -0.1226
 5717SOL     OW28612   0.335   2.672   8.760 -0.7357  0.2128 -0.0623
 5717SOL    HW128613   0.342   2.707   8.671 -0.9295 -0.9209 -0.5339
 5717SOL    HW228614   0.319   2.580   8.740  0.3611  0.5336 -2.3675
 5718SOL     OW28615   3.403   2.426   9.790  0.8378 -0.0868 -0.1566
 5718SOL    HW128616   3.475   2.363   9.791  0.7667 -0.1664 -0.0616
 5718SOL    HW228617   3.442   2.505   9.753 -0.0367 -0.4135 -1.7914
 5719SOL     OW28618   3.290   2.150   4.548 -0.4289 -0.0144 -0.4922
 5719SOL    HW128619   3.220   2.105   4.502  0.8271 -2.0948 -0.3943
 5719SOL    HW228620   3.292   2.097   4.628 -1.2840  1.5014  0.5284
 5720SOL     OW28621   4.658   2.077   7.678  0.2683  0.1903 -0.7589
 5720SOL    HW128622   4.581   2.098   7.625 -1.5227 -2.6469  0.7559
 5720SOL    HW228623   0.006   2.111   7.626  0.5150 -0.3609 -0.7620
 5721SOL     OW28624   2.655   2.518   7.945 -0.0166 -0.3297 -0.1990
 5721SOL    HW128625   2.560   2.511   7.955  0.0747 -0.8134  0.3000
 5721SOL    HW228626   2.656   2.613   7.931 -2.0428 -0.3886 -0.7555
 5722SOL     OW28627   1.976   0.406   7.799 -0.5096 -0.2069  0.1955
 5722SOL    HW128628   1.918   0.330   7.795  0.3157 -0.6673 -2.6343
 5722SOL    HW228629   1.980   0.424   7.893 -2.1145 -0.5715  0.3336
 5723SOL     OW28630   0.897   1.814   8.369 -0.2901 -0.3689  0.0016
 5723SOL    HW128631   0.982   1.854   8.347 -1.5017  1.7309 -0.8230
 5723SOL    HW228632   0.862   1.891   8.413 -0.8647  0.1554 -1.3893
 5724SOL     OW28633   4.575   4.337   4.693 -0.7008  0.2749  0.9436
 5724SOL    HW128634   4.588   4.243   4.702 -0.4221  0.2922  0.7226
 5724SOL    HW228635   4.602   4.342   4.601 -1.0132  2.6738  0.9805
 5725SOL     OW28636   1.604   4.147   7.199 -0.9684  0.5018 -0.1331
 5725SOL    HW128637   1.675   4.193   7.244 -0.4652 -0.2566 -0.1458
 5725SOL    HW228638   1.645   4.116   7.118 -1.4149  0.5104 -0.3615
 5726SOL     OW28639   1.089   0.196  11.763  0.0665  0.3135  0.0454
 5726SOL    HW128640   1.152   0.237  11.822  0.1855  0.2624 -0.0474
 5726SOL    HW228641   1.026   0.159  11.825  1.3370 -2.4900 -0.3633
 5727SOL     OW28642   3.083   1.748   4.764  0.0365  0.1070  0.4480
 5727SOL    HW128643   3.058   1.837   4.788 -2.3320 -0.4942  0.1738
 5727SOL    HW228644   3.152   1.761   4.699  0.0976  2.1899  0.9131
 5728SOL     OW28645   1.895   1.574   7.876 -0.2327  0.2874  0.0404
 5728SOL    HW128646   1.901   1.479   7.888  0.0754  0.5578  2.0114
 5728SOL    HW228647   1.812   1.609   7.905 -1.7114 -0.8002 -2.8290
 5729SOL     OW28648   1.997   0.159   6.280 -0.0356 -0.6598  0.4060
 5729SOL    HW128649   1.955   0.095   6.338 -0.9434 -1.1511 -0.8054
 5729SOL    HW228650   2.010   0.237   6.335  1.0749 -1.2650  1.0026
 5730SOL     OW28651   2.813   4.464  11.472  0.0098 -0.0073  0.6908
 5730SOL    HW128652   2.826   4.536  11.534 -2.6358  1.0269  0.0156
 5730SOL    HW228653   2.827   4.506  11.387 -1.0066  1.0799  1.0610
 5731SOL     OW28654   0.059   2.202   0.442 -0.0077 -0.1859  0.5719
 5731SOL    HW128655   0.060   2.263   0.515 -1.0795  1.0651 -0.4717
 5731SOL    HW228656   4.697   2.220   0.410  0.0072 -1.1690 -0.0388
 5732SOL     OW28657   0.471   1.264   4.740  0.4266  0.2432  0.0954
 5732SOL    HW128658   0.382   1.280   4.708  0.0407 -2.1920 -0.0559
 5732SOL    HW228659   0.499   1.354   4.753  1.1441  0.0787 -0.2804
 5733SOL     OW28660   1.369   2.338   3.731  0.3515  0.1129  0.4685
 5733SOL    HW128661   1.369   2.245   3.752  0.7151  0.0939  0.3868
 5733SOL    HW228662   1.451   2.362   3.775  1.5530  0.8948 -2.1575
 5734SOL     OW28663   0.607   2.243   5.945 -0.3856 -0.2221 -0.1474
 5734SOL    HW128664   0.639   2.185   5.875 -1.8707 -2.1307  0.7752
 5734SOL    HW228665   0.682   2.293   5.977 -0.7635  1.0675 -1.2276
 5735SOL     OW28666   2.760   1.130   3.204  0.2119 -0.5523 -0.2793
 5735SOL    HW128667   2.701   1.205   3.200  2.0594  1.0459  2.5262
 5735SOL    HW228668   2.740   1.094   3.117 -3.0751  0.5495  0.0469
 5736SOL     OW28669   1.274   1.994  10.963 -0.2492  0.7699  0.3841
 5736SOL    HW128670   1.292   1.968  11.053 -1.0205  0.3418  0.4197
 5736SOL    HW228671   1.324   2.073  10.944  1.2317 -0.5883 -1.3290
 5737SOL     OW28672   4.585   1.316   2.834 -0.2395 -0.6033  0.0494
 5737SOL    HW128673   4.621   1.231   2.809  0.3790 -0.0080 -1.0760
 5737SOL    HW228674   4.663   1.370   2.822 -0.6259 -0.1218 -0.2533
 5738SOL     OW28675   0.908   1.333   5.592  0.0782 -0.0220 -0.4991
 5738SOL    HW128676   0.977   1.290   5.642  2.6352  2.2000 -2.0853
 5738SOL    HW228677   0.856   1.257   5.566 -0.3532 -0.7809  2.6671
 5739SOL     OW28678   1.229   4.532   8.134  0.0401  0.4006 -0.7824
 5739SOL    HW128679   1.215   4.604   8.072 -0.5229 -1.6650 -3.0325
 5739SOL    HW228680   1.284   4.474   8.082 -1.1779 -0.3510 -1.2298
 5740SOL     OW28681   4.263   4.661   7.201  0.1240  0.4041  0.3164
 5740SOL    HW128682   4.220   4.610   7.132  0.3321  1.5156 -0.6228
 5740SOL    HW228683   4.356   4.639   7.190  0.4963  1.6786  1.0253
 5741SOL     OW28684   2.934   1.589   2.923  0.1186 -0.4803  0.5103
 5741SOL    HW128685   2.957   1.639   3.001  1.3183  0.6071 -0.5287
 5741SOL    HW228686   3.018   1.591   2.876  1.1747  0.3258  2.4324
 5742SOL     OW28687   2.201   0.242  15.478  0.1786 -0.7315 -1.0179
 5742SOL    HW128688   2.245   0.158  15.492 -1.2013 -1.4968 -1.3257
 5742SOL    HW228689   2.198   0.292  15.560 -0.4097 -0.7014 -1.0583
 5743SOL     OW28690   2.012   3.947   0.332  0.4058 -0.0067 -0.3053
 5743SOL    HW128691   2.100   3.982   0.343 -0.1464  0.8873  1.2357
 5743SOL    HW228692   1.984   3.936   0.423  0.3310 -0.0583 -0.3342
 5744SOL     OW28693   1.383   4.075   6.946 -0.1655 -0.2337  0.1066
 5744SOL    HW128694   1.475   4.079   6.919  0.0621 -0.0789  0.8874
 5744SOL    HW228695   1.348   4.159   6.918 -0.1167 -0.9013 -1.9387
 5745SOL     OW28696   0.803   3.138   3.914  0.1511  0.1759  0.0660
 5745SOL    HW128697   0.856   3.061   3.892  0.5305  0.2591  0.6915
 5745SOL    HW228698   0.732   3.106   3.970  0.2703  0.8744  0.6154
 5746SOL     OW28699   1.591   3.452   2.684  0.0296 -0.1484 -0.3195
 5746SOL    HW128700   1.552   3.367   2.704 -1.6011  0.1560 -2.2256
 5746SOL    HW228701   1.567   3.472   2.594 -0.3817  2.4839  0.3678
 5747SOL     OW28702   4.511   2.122   6.106  0.0598  0.9852  0.1552
 5747SOL    HW128703   4.519   2.040   6.056 -0.0166 -0.5101  2.5850
 5747SOL    HW228704   4.594   2.113   6.153 -0.3427  1.9932  1.0600
 5748SOL     OW28705   0.453   3.083   3.786 -0.5482  0.0790  0.1664
 5748SOL    HW128706   0.445   3.065   3.692 -0.9986 -0.9569  0.4053
 5748SOL    HW228707   0.406   3.009   3.822 -2.0466  1.5389  1.2091
 5749SOL     OW28708   1.255   1.448  12.466 -0.1126  0.0354 -0.2225
 5749SOL    HW128709   1.221   1.518  12.410 -1.0892  0.1106  0.4701
 5749SOL    HW228710   1.178   1.391  12.466  0.9064 -1.3489 -0.4889
 5750SOL     OW28711   3.148   1.937   3.376  0.2617  0.0166  0.0737
 5750SOL    HW128712   3.128   1.855   3.422  0.2416 -0.4953 -0.8451
 5750SOL    HW228713   3.057   1.959   3.355 -0.0318  0.6012  1.9621
 5751SOL     OW28714   2.613   1.400   4.974 -0.2505 -0.3126  0.1143
 5751SOL    HW128715   2.533   1.346   4.972 -1.0628  0.8824  0.6451
 5751SOL    HW228716   2.583   1.471   4.918 -0.2211  1.6595  2.6038
 5752SOL     OW28717   0.710   3.276   6.316 -0.3590  0.0573  0.2629
 5752SOL    HW128718   0.661   3.248   6.239  2.3203 -0.1949 -1.3696
 5752SOL    HW228719   0.745   3.194   6.351  3.6113  1.9395  0.7207
 5753SOL     OW28720   3.616   3.168  12.429 -0.3307  0.2876  0.2184
 5753SOL    HW128721   3.653   3.244  12.473 -2.2546  0.5001  1.4669
 5753SOL    HW228722   3.541   3.218  12.397  0.4902  0.9746 -0.6347
 5754SOL     OW28723   2.727   3.337   8.753 -0.2909  0.0189  0.4043
 5754SOL    HW128724   2.739   3.364   8.844 -0.8808  1.8135 -0.0524
 5754SOL    HW228725   2.677   3.257   8.773 -0.8937  0.1164 -0.7381
 5755SOL     OW28726   3.533   3.263   8.551 -0.4482  0.5299 -0.6496
 5755SOL    HW128727   3.461   3.201   8.550 -0.0898  0.1285 -1.7992
 5755SOL    HW228728   3.576   3.241   8.468  3.0422  1.8025  0.8108
 5756SOL     OW28729   2.320   2.262   6.394  0.3850 -0.0754 -0.0011
 5756SOL    HW128730   2.378   2.293   6.464 -0.2780 -0.2628  0.6199
 5756SOL    HW228731   2.259   2.211   6.446 -0.7620 -0.9690 -2.2457
 5757SOL     OW28732   2.658   1.502   4.320 -0.4260  0.1498 -0.4365
 5757SOL    HW128733   2.563   1.509   4.315 -0.4317  0.7701  0.5677
 5757SOL    HW228734   2.694   1.496   4.232 -0.2211  1.9924 -0.4741
 5758SOL     OW28735   0.650   2.807   7.776  0.1854  0.1016 -0.0044
 5758SOL    HW128736   0.733   2.847   7.803  0.2547  0.2939 -0.5202
 5758SOL    HW228737   0.583   2.840   7.836  0.6993  0.3140  0.4584
 5759SOL     OW28738   1.522   0.210   3.187  0.1003  0.2336 -0.2715
 5759SOL    HW128739   1.524   0.189   3.093  1.0471  1.7097 -0.5881
 5759SOL    HW228740   1.444   0.159   3.207  2.4849 -2.1799  2.8721
 5760SOL     OW28741   0.845   1.010  15.565 -0.1383 -0.2008  0.3635
 5760SOL    HW128742   0.796   0.973  15.492  0.8429 -0.0693 -0.3671
 5760SOL    HW228743   0.803   0.980  15.645 -0.7674 -0.9189 -0.2365
 5761SOL     OW28744   4.540   2.095   3.278 -0.5695 -0.0349  0.5120
 5761SOL    HW128745   4.567   2.095   3.186  0.6035  1.8986  0.8557
 5761SOL    HW228746   4.471   2.161   3.284  2.0299  2.9179 -2.3577
 5762SOL     OW28747   4.461   2.182   7.898  0.1721 -0.7784  0.2476
 5762SOL    HW128748   4.473   2.189   7.803  0.2012 -1.1395  0.2255
 5762SOL    HW228749   4.380   2.135   7.915  1.1754 -2.2016  1.0615
 5763SOL     OW28750   1.630   0.605   4.790 -0.2906 -0.1716 -0.0022
 5763SOL    HW128751   1.574   0.632   4.862  0.9353 -1.4057  1.4290
 5763SOL    HW228752   1.715   0.601   4.834  0.5778  0.5702 -1.6152
 5764SOL     OW28753   4.348   3.397   3.400 -0.4075 -0.3005  0.1301
 5764SOL    HW128754   4.317   3.316   3.441 -0.8915  0.4806  1.3103
 5764SOL    HW228755   4.413   3.367   3.336 -2.2366 -0.9446 -1.4537
 5765SOL     OW28756   2.277   2.351   0.878 -0.0024 -0.0416  0.4636
 5765SOL    HW128757   2.236   2.303   0.950  0.4434  1.1704  1.5181
 5765SOL    HW228758   2.333   2.411   0.925  1.1447 -0.7809  0.0419
 5766SOL     OW28759   2.035   0.573   8.972  0.3110  0.8687 -0.4393
 5766SOL    HW128760   2.043   0.614   9.058 -1.0889 -2.2028  1.1324
 5766SOL    HW228761   2.022   0.651   8.917 -1.0471  0.8217 -0.1663
 5767SOL     OW28762   2.607   2.255   3.990  0.1829 -0.0788 -0.3432
 5767SOL    HW128763   2.683   2.260   3.933  1.0572 -0.4062  0.7800
 5767SOL    HW228764   2.554   2.328   3.957 -1.3624 -0.8257  0.4793
 5768SOL     OW28765   4.719   1.901   7.072  0.2759 -0.3764 -0.1378
 5768SOL    HW128766   0.039   1.984   7.058  0.0969 -0.0775  1.0904
 5768SOL    HW228767   4.629   1.927   7.095 -0.2556 -0.6921 -1.8116
 5769SOL     OW28768   3.496   3.031   3.515 -0.3486  0.3617 -0.6491
 5769SOL    HW128769   3.572   3.088   3.531 -1.4866  1.6042  0.3427
 5769SOL    HW228770   3.433   3.055   3.583  3.1587  2.0900  2.0369
 5770SOL     OW28771   4.127   3.072  12.879 -0.8092  0.2699  0.0697
 5770SOL    HW128772   4.063   3.053  12.947 -2.0170 -0.6708 -1.3345
 5770SOL    HW228773   4.192   3.124  12.926 -1.1464  0.8488 -0.1086
 5771SOL     OW28774   2.707   4.140   2.128  0.4553 -0.3073  0.1958
 5771SOL    HW128775   2.618   4.126   2.098  0.1780  2.9087 -0.5516
 5771SOL    HW228776   2.757   4.141   2.046 -0.6488 -3.4490 -0.4923
 5772SOL     OW28777   0.709   0.388  16.119 -0.5322 -0.1408  0.4249
 5772SOL    HW128778   0.697   0.364  16.211 -3.9610  2.1983  0.5943
 5772SOL    HW228779   0.748   0.476  16.126 -1.3121  0.2696 -0.3646
 5773SOL     OW28780   3.965   3.960   6.570  0.0004  0.1965 -0.1034
 5773SOL    HW128781   4.006   4.041   6.600 -0.0435  0.2534 -0.1971
 5773SOL    HW228782   3.910   3.949   6.648  1.1188  0.0706  0.6658
 5774SOL     OW28783   4.545   2.532   7.945  0.4366 -0.2265  0.2499
 5774SOL    HW128784   4.602   2.467   7.904 -0.1761 -0.9963  0.6246
 5774SOL    HW228785   4.552   2.511   8.039  0.2349  1.0951  0.5552
 5775SOL     OW28786   4.008   0.777   0.206  0.1320  0.0617 -0.7911
 5775SOL    HW128787   3.942   0.715   0.237  0.2019 -0.7150 -2.1973
 5775SOL    HW228788   3.954   0.836   0.154 -0.7979  0.4992  0.6715
 5776SOL     OW28789   4.060   0.670   4.436 -0.0556  0.0579 -0.3356
 5776SOL    HW128790   4.020   0.664   4.523  1.5767  0.6530  0.4493
 5776SOL    HW228791   4.012   0.596   4.397  0.6578  0.5989 -2.2273
 5777SOL     OW28792   1.260   2.916  13.187 -0.0328 -0.3668 -0.1692
 5777SOL    HW128793   1.306   2.881  13.263 -0.7117 -2.2326 -0.6170
 5777SOL    HW228794   1.238   2.834  13.143  0.2213 -0.3894 -0.2531
 5778SOL     OW28795   4.318   2.796   0.288 -0.0486  0.5609 -0.0261
 5778SOL    HW128796   4.282   2.860   0.228 -1.9665  1.3918  2.0077
 5778SOL    HW228797   4.343   2.848   0.364 -2.5319 -1.3417  2.1079
 5779SOL     OW28798   1.263   3.661  16.441 -0.0760 -0.0218 -0.0811
 5779SOL    HW128799   1.205   3.717  16.389  0.8727 -0.6951 -1.8526
 5779SOL    HW228800   1.260   3.706  16.525  0.2471 -1.3922  0.6586
 5780SOL     OW28801   2.220   0.928   9.682  0.3359  0.2554  0.2810
 5780SOL    HW128802   2.254   1.005   9.727 -0.0806  1.0052 -0.6885
 5780SOL    HW228803   2.300   0.902   9.636 -0.4590 -1.6215 -0.0419
 5781SOL     OW28804   0.088   3.507  13.629 -0.1426  0.1938  0.3017
 5781SOL    HW128805   0.075   3.530  13.537 -0.1236  1.2062  0.5581
 5781SOL    HW228806   0.137   3.426  13.615  0.1328  0.4007  0.0608
 5782SOL     OW28807   4.481   2.446   8.636 -0.0855  0.2638 -0.0575
 5782SOL    HW128808   4.502   2.396   8.715 -0.3652  0.5200  0.1755
 5782SOL    HW228809   4.537   2.407   8.569  0.8984  0.1785  0.8167
 5783SOL     OW28810   0.543   2.544  16.608  0.0808  0.2034 -0.1222
 5783SOL    HW128811   0.458   2.556  16.651  0.3525 -0.6438  0.6503
 5783SOL    HW228812   0.537   2.621  16.551  1.9931  1.0909  0.8878
 5784SOL     OW28813   3.357   0.466  10.263 -0.0743 -0.6017  0.7316
 5784SOL    HW128814   3.404   0.386  10.238  1.4974  0.2300  1.0309
 5784SOL    HW228815   3.347   0.460  10.358 -1.7827 -0.4438  0.5600
 5785SOL     OW28816   0.160   3.121   2.690  0.1176 -0.5628 -0.1356
 5785SOL    HW128817   0.232   3.074   2.732 -2.2055 -3.3365  0.7350
 5785SOL    HW228818   0.179   3.212   2.713  0.4222 -0.7821  0.4724
 5786SOL     OW28819   0.228   0.781   7.022 -0.3441 -0.4287 -0.2691
 5786SOL    HW128820   0.193   0.773   7.111  3.6786 -0.5404  1.3033
 5786SOL    HW228821   0.148   0.801   6.973  0.8079 -2.1224 -2.8426
 5787SOL     OW28822   0.007   2.983   8.207  0.0596 -0.1448 -0.2311
 5787SOL    HW128823   4.673   2.918   8.172  0.6083  0.2006 -1.8166
 5787SOL    HW228824   4.671   3.054   8.225 -0.4543 -0.2359 -1.5907
 5788SOL     OW28825   4.553   2.499   2.223  0.1694 -0.0595  0.3170
 5788SOL    HW128826   4.468   2.492   2.179  0.2043 -1.7630  0.5128
 5788SOL    HW228827   4.569   2.593   2.226 -1.4958  0.0870  4.3078
 5789SOL     OW28828   4.385   4.665  16.474  0.8447  0.3430  0.4637
 5789SOL    HW128829   4.416   0.006  16.536 -2.3222  2.5709 -0.3302
 5789SOL    HW228830   4.461   4.607  16.478 -0.0353 -0.9269 -1.1826
 5790SOL     OW28831   2.724   0.425   6.751 -0.3609 -0.0796  0.1299
 5790SOL    HW128832   2.782   0.498   6.732  0.0489 -0.6210 -0.7075
 5790SOL    HW228833   2.772   0.376   6.818 -1.1301  0.1816  0.8832
 5791SOL     OW28834   1.970   0.401  13.573 -0.2712  0.2304 -0.2159
 5791SOL    HW128835   1.944   0.394  13.665 -1.0313  0.8757 -0.3773
 5791SOL    HW228836   1.985   0.309  13.551  0.3863  0.0387  1.0098
 5792SOL     OW28837   0.270   0.766   2.348  0.0137  0.5578 -0.1492
 5792SOL    HW128838   0.265   0.812   2.264  0.4633  1.5565  0.3751
 5792SOL    HW228839   0.265   0.676   2.314 -3.6414  1.0734 -1.0439
 5793SOL     OW28840   2.006   0.210   8.268  0.2450  0.1982 -0.1434
 5793SOL    HW128841   2.097   0.238   8.258 -0.8071  2.5217 -3.4450
 5793SOL    HW228842   2.008   0.153   8.344 -0.2764 -1.7735 -1.5869
 5794SOL     OW28843   2.617   2.663   5.389 -0.2034 -0.0710 -0.5085
 5794SOL    HW128844   2.556   2.595   5.359  0.8089 -0.7350 -1.0663
 5794SOL    HW228845   2.566   2.716   5.450 -0.8736 -1.4836  0.1702
 5795SOL     OW28846   1.994   3.409   8.606  0.6258  0.1857  0.1515
 5795SOL    HW128847   1.995   3.505   8.603 -1.4222  0.1803 -0.8672
 5795SOL    HW228848   1.904   3.387   8.581  0.1648  1.0519  1.0367
 5796SOL     OW28849   0.259   4.141   9.441  0.4860  0.6262 -0.0056
 5796SOL    HW128850   0.174   4.168   9.475  0.0491 -0.8322  0.0621
 5796SOL    HW228851   0.317   4.203   9.485 -1.6276  1.4583  1.5802
 5797SOL     OW28852   0.995   1.490   8.811  0.4682  0.2667  0.3018
 5797SOL    HW128853   1.000   1.414   8.870  1.0602 -0.9636 -1.3095
 5797SOL    HW228854   1.072   1.531   8.852  0.9023 -0.4921  0.2627
 5798SOL     OW28855   0.665   3.521   9.534  0.1800  0.2652  0.3687
 5798SOL    HW128856   0.692   3.454   9.598 -3.9041 -0.8555  0.9245
 5798SOL    HW228857   0.753   3.555   9.521  0.8482 -1.2338  0.8914
 5799SOL     OW28858   1.648   2.365   4.606  0.2325 -0.4616  0.2291
 5799SOL    HW128859   1.611   2.435   4.659  0.1554 -2.3482  2.6962
 5799SOL    HW228860   1.665   2.304   4.678 -1.7824 -1.5029 -0.1860
 5800SOL     OW28861   3.038   1.380   5.488 -0.2553 -0.0575 -0.0928
 5800SOL    HW128862   3.041   1.382   5.393  0.9417 -0.0037 -0.0544
 5800SOL    HW228863   2.987   1.304   5.514 -1.4423  0.3955 -1.1324
 5801SOL     OW28864   4.121   0.084  15.830 -0.3473  1.1220  0.7428
 5801SOL    HW128865   4.049   0.032  15.796  0.3876  1.4922 -1.3705
 5801SOL    HW228866   4.139   0.034  15.910  1.2594  1.4725  0.6039
 5802SOL     OW28867   2.012   3.287   5.103  0.4917  0.4008 -0.1502
 5802SOL    HW128868   1.991   3.245   5.020 -1.0635  0.2939  0.3073
 5802SOL    HW228869   2.102   3.258   5.118 -0.7175 -2.1484  2.3167
 5803SOL     OW28870   3.011   2.992   8.946  0.0182  0.5987  0.3874
 5803SOL    HW128871   3.099   2.988   8.983  0.1728 -0.6216 -0.1287
 5803SOL    HW228872   3.031   3.056   8.877  0.6275 -1.4742 -1.3573
 5804SOL     OW28873   2.514   4.376   6.567  0.1708 -0.0617 -0.0602
 5804SOL    HW128874   2.424   4.406   6.559  0.2909  0.4127  0.3313
 5804SOL    HW228875   2.549   4.439   6.630 -1.8734 -0.3408  1.3580
 5805SOL     OW28876   3.842   0.665   0.547  0.7086  0.0691 -0.3961
 5805SOL    HW128877   3.781   0.709   0.487  0.3126  1.6085  1.1356
 5805SOL    HW228878   3.805   0.578   0.558 -2.2332  1.1502 -1.7114
 5806SOL     OW28879   4.661   4.122   7.592  0.2349 -0.5027 -0.2169
 5806SOL    HW128880   4.605   4.090   7.662  0.0994  0.4451  0.1074
 5806SOL    HW228881   4.685   4.201   7.641  2.7176 -0.4848 -1.4939
 5807SOL     OW28882   3.144   1.010  10.936 -0.3319 -1.0490  0.6785
 5807SOL    HW128883   3.152   0.918  10.960 -0.2966 -0.4929  2.8495
 5807SOL    HW228884   3.161   1.052  11.021 -1.5255  0.0388  0.3968
 5808SOL     OW28885   3.177   3.864   7.066  0.0931  0.2809  0.6820
 5808SOL    HW128886   3.129   3.809   7.128 -0.5526  1.0104  0.8271
 5808SOL    HW228887   3.184   3.814   6.985 -1.8676  0.5774  0.3344
 5809SOL     OW28888   1.168   1.723   7.451 -0.3105 -0.3158  0.2670
 5809SOL    HW128889   1.075   1.708   7.434 -0.8579  3.9832 -0.3926
 5809SOL    HW228890   1.187   1.651   7.512 -0.8459 -0.3479  0.3910
 5810SOL     OW28891   3.083   4.689   2.939  0.3626 -0.4492  0.5279
 5810SOL    HW128892   3.116   4.647   2.860  0.0388 -0.6462  0.4958
 5810SOL    HW228893   3.142   4.663   3.009  0.2803  2.1484  1.5555
 5811SOL     OW28894   1.456   2.049   4.614  0.6343  0.3141  0.7714
 5811SOL    HW128895   1.514   2.101   4.669  0.2434  0.9395  0.5870
 5811SOL    HW228896   1.396   2.004   4.673  1.2267 -0.1917  0.9937
 5812SOL     OW28897   0.019   4.556   4.615 -0.4208 -0.2956 -0.0077
 5812SOL    HW128898   4.703   4.547   4.530 -1.3367 -0.1607  0.4232
 5812SOL    HW228899   4.714   4.476   4.657 -1.1826 -0.1992 -0.3790
 5813SOL     OW28900   2.792   2.527  10.274 -0.2341 -0.0775 -0.0361
 5813SOL    HW128901   2.791   2.620  10.298 -0.8017  0.9446 -4.0843
 5813SOL    HW228902   2.771   2.539  10.181  1.5640 -1.9608 -0.6865
 5814SOL     OW28903   2.973   1.121  10.038 -0.2241 -0.1732  0.1877
 5814SOL    HW128904   3.026   1.130  10.117 -0.2335 -1.0455  0.2925
 5814SOL    HW228905   2.987   1.202   9.990  0.5198 -0.0108  0.6698
 5815SOL     OW28906   2.368   4.510   3.674 -0.4404  0.5490  0.1121
 5815SOL    HW128907   2.287   4.459   3.678 -0.5769  0.6919 -0.7802
 5815SOL    HW228908   2.433   4.451   3.710 -1.3254  0.2140  1.1787
 5816SOL     OW28909   1.348   1.520   2.369 -0.2693  0.1150 -0.3362
 5816SOL    HW128910   1.395   1.526   2.453  0.4845  1.4347 -0.8459
 5816SOL    HW228911   1.274   1.469   2.402  1.8638 -0.3669  3.6935
 5817SOL     OW28912   2.656   0.560   1.819  0.2455 -0.3344 -0.3985
 5817SOL    HW128913   2.730   0.500   1.831 -0.5997 -1.0630  1.1185
 5817SOL    HW228914   2.658   0.609   1.901  2.1345 -1.7342  0.3841
 5818SOL     OW28915   0.340   1.102   2.675  0.4633 -0.7417  0.2643
 5818SOL    HW128916   0.279   1.034   2.646 -0.8010  0.7026 -0.4487
 5818SOL    HW228917   0.413   1.040   2.668 -0.3128 -1.7202  0.8526
 5819SOL     OW28918   1.584   4.421   0.051  0.1936  0.1505  0.0012
 5819SOL    HW128919   1.571   4.389   0.140 -0.8149 -0.5906 -0.4146
 5819SOL    HW228920   1.491   4.432   0.028  0.5226  0.8987 -0.9470
 5820SOL     OW28921   1.555   0.592  16.588 -0.5292 -0.1199  0.1682
 5820SOL    HW128922   1.476   0.547  16.614 -1.4549  1.2377 -0.2962
 5820SOL    HW228923   1.519   0.654  16.525  0.4152 -1.9147 -2.1404
 5821SOL     OW28924   2.134   1.428   5.565  0.2878 -0.1323 -0.0428
 5821SOL    HW128925   2.124   1.355   5.627 -1.1248 -0.4931 -0.6904
 5821SOL    HW228926   2.219   1.459   5.597 -0.5123 -0.0859  2.0673
 5822SOL     OW28927   0.533   2.715   5.361 -0.2731 -0.2830 -0.3968
 5822SOL    HW128928   0.567   2.638   5.406 -0.6467  0.9038  1.9115
 5822SOL    HW228929   0.465   2.678   5.304  0.4949 -0.0803 -1.4497
 5823SOL     OW28930   0.432   1.281   5.155 -0.4339  0.4611 -0.0752
 5823SOL    HW128931   0.443   1.315   5.244  3.9710  0.1305 -0.4586
 5823SOL    HW228932   0.504   1.318   5.104 -0.2943 -2.0755 -1.7104
 5824SOL     OW28933   2.580   1.045  11.401 -1.3829  0.3006  0.1600
 5824SOL    HW128934   2.657   1.007  11.360 -1.8113  0.6747 -0.9717
 5824SOL    HW228935   2.574   1.130  11.359  0.8612  0.8469  0.9744
 5825SOL     OW28936   0.837   1.354   4.555  0.3710 -0.4290  0.5998
 5825SOL    HW128937   0.871   1.265   4.545 -0.5376 -0.5010 -2.0110
 5825SOL    HW228938   0.905   1.411   4.519 -0.9377 -0.2624 -1.6590
 5826SOL     OW28939   3.056   2.586   2.297  0.4696  0.0098 -0.0583
 5826SOL    HW128940   3.142   2.629   2.303  1.5926 -2.3107  0.8085
 5826SOL    HW228941   2.999   2.662   2.304  0.9383  0.4432 -0.8544
 5827SOL     OW28942   4.259   0.632  14.929  0.6006  0.3404 -0.6774
 5827SOL    HW128943   4.313   0.603  14.855 -0.0094 -1.8700 -0.2635
 5827SOL    HW228944   4.276   0.726  14.930  2.3978 -0.0064 -0.0478
 5828SOL     OW28945   2.789   4.003   2.633 -0.2316  0.2789 -0.0627
 5828SOL    HW128946   2.834   4.087   2.633  1.2135 -0.5069  1.4308
 5828SOL    HW228947   2.699   4.030   2.651  0.0649  0.7778  0.6387
 5829SOL     OW28948   3.360   2.315   3.963 -0.5552 -0.2029 -0.2329
 5829SOL    HW128949   3.390   2.371   3.892 -1.9896  0.1595 -0.5411
 5829SOL    HW228950   3.265   2.323   3.968 -0.6186 -0.1512 -1.4150
 5830SOL     OW28951   3.574   1.989   5.388 -0.2045 -0.8632 -0.1324
 5830SOL    HW128952   3.639   2.013   5.322 -1.6144  0.7260 -0.9436
 5830SOL    HW228953   3.496   2.042   5.371  1.8840  2.2740 -0.0374
 5831SOL     OW28954   4.091   2.898   4.575 -0.2501  0.4429 -0.7145
 5831SOL    HW128955   4.028   2.839   4.532 -0.7238  0.2418  0.2598
 5831SOL    HW228956   4.049   2.928   4.655 -0.6781 -1.2630 -0.3036
 5832SOL     OW28957   2.413   2.698  10.781 -0.4671  0.1626 -0.3392
 5832SOL    HW128958   2.458   2.781  10.769  1.0809 -0.4568  1.1193
 5832SOL    HW228959   2.339   2.731  10.831  0.5663  0.0279  1.2806
 5833SOL     OW28960   0.466   2.190  10.264 -0.2477 -0.2459  0.2922
 5833SOL    HW128961   0.479   2.176  10.170 -1.9482 -2.2028  0.3227
 5833SOL    HW228962   0.494   2.108  10.305  0.3388 -1.4294 -2.4728
 5834SOL     OW28963   0.520   0.388   5.295 -0.0712  0.2477  0.0315
 5834SOL    HW128964   0.594   0.418   5.243 -0.4339 -1.0502 -1.2579
 5834SOL    HW228965   0.475   0.360   5.215  0.8460  0.4590 -0.5536
 5835SOL     OW28966   0.282   2.581   3.791 -0.0699  0.1466 -0.4769
 5835SOL    HW128967   0.295   2.488   3.774  0.2958 -0.0420  0.8546
 5835SOL    HW228968   0.358   2.601   3.846 -0.4548 -0.1564  0.1610
 5836SOL     OW28969   0.095   2.126  17.017  0.2888 -0.2721 -0.4115
 5836SOL    HW128970   0.007   2.118  17.055 -0.1018  2.1950 -0.8064
 5836SOL    HW228971   0.080   2.150  16.926 -1.9894  0.2894  0.1231
 5837SOL     OW28972   2.070   4.582   1.859  0.6064 -0.0290  0.2779
 5837SOL    HW128973   2.001   4.517   1.874 -1.1304  1.7673  0.0785
 5837SOL    HW228974   2.148   4.550   1.903  0.8537  0.9798  0.5779
 5838SOL     OW28975   2.036   1.906   5.047  0.2974 -0.2251 -0.2996
 5838SOL    HW128976   2.031   1.872   4.957  1.7904 -1.6153  0.1466
 5838SOL    HW228977   1.945   1.896   5.076 -1.1447  1.0695 -4.3096
 5839SOL     OW28978   3.520   3.030   5.523  0.9515 -0.4300 -0.0948
 5839SOL    HW128979   3.611   3.040   5.553  0.6813  0.7702  0.3272
 5839SOL    HW228980   3.513   2.943   5.483 -1.1599 -0.5403  0.5201
 5840SOL     OW28981   3.612   0.629   8.975 -0.5373 -0.0968  0.4886
 5840SOL    HW128982   3.656   0.639   8.891 -0.8900  0.7643  0.4011
 5840SOL    HW228983   3.675   0.591   9.036  0.2210 -2.2407 -1.6620
 5841SOL     OW28984   1.181   1.098   3.250  0.1997 -0.1348  0.0210
 5841SOL    HW128985   1.215   1.032   3.309 -0.7274 -0.5993  0.0486
 5841SOL    HW228986   1.207   1.064   3.164  2.3415 -0.5956  0.8613
 5842SOL     OW28987   2.938   4.638   3.172 -0.0597 -0.1257 -0.0338
 5842SOL    HW128988   3.025   4.604   3.152 -0.7324 -1.7837 -0.1420
 5842SOL    HW228989   2.920   4.690   3.094 -0.1573  0.1232  0.1560
 5843SOL     OW28990   2.570   4.019   1.616  0.1190 -0.2309  0.0073
 5843SOL    HW128991   2.595   3.982   1.532  0.0023  2.8845 -1.3948
 5843SOL    HW228992   2.610   4.105   1.611  0.5788 -0.4216  0.4124
 5844SOL     OW28993   2.708   1.134   9.630  0.5805 -0.0414 -0.0267
 5844SOL    HW128994   2.673   1.222   9.639  2.1285  0.4530  1.0240
 5844SOL    HW228995   2.708   1.108   9.722  0.0415 -0.6649 -0.1998
 5845SOL     OW28996   4.513   2.350   4.581 -0.4999 -0.5090  0.3638
 5845SOL    HW128997   4.451   2.303   4.637  1.0958 -1.3085  1.4573
 5845SOL    HW228998   4.457   2.351   4.503  0.7237  0.5457 -0.4811
 5846SOL     OW28999   3.511   0.845   3.447  0.0851  0.0940 -0.0554
 5846SOL    HW129000   3.508   0.908   3.374 -0.1940  1.8562  1.4650
 5846SOL    HW229001   3.443   0.784   3.419  0.3962  0.2830 -1.2534
 5847SOL     OW29002   2.853   2.762   9.659  0.7125  0.0781  0.0815
 5847SOL    HW129003   2.846   2.848   9.700 -0.3468  0.1721 -0.3017
 5847SOL    HW229004   2.945   2.737   9.651  0.4857 -1.4711  2.2485
 5848SOL     OW29005   2.993   2.435   9.643  0.4365 -0.7288 -0.6367
 5848SOL    HW129006   2.903   2.468   9.644  0.6001 -0.2893 -0.6175
 5848SOL    HW229007   3.016   2.478   9.561  1.3320  0.5403  0.2959
 5849SOL     OW29008   3.987   1.100  10.001  0.1838  0.3526  0.0060
 5849SOL    HW129009   4.037   1.170  10.042  0.3687  0.6585 -0.7389
 5849SOL    HW229010   3.965   1.150   9.923  2.1659  2.8181  1.0017
 5850SOL     OW29011   1.260   0.461   5.349  0.2927  0.0739  0.4852
 5850SOL    HW129012   1.343   0.415   5.359 -1.0604 -2.1675  1.4719
 5850SOL    HW229013   1.200   0.395   5.385  1.6280 -1.2385  0.2972
 5851SOL     OW29014   3.261   1.172  13.534  0.3951 -0.1642 -0.3548
 5851SOL    HW129015   3.319   1.245  13.555  0.7539 -0.2630 -1.0053
 5851SOL    HW229016   3.174   1.209  13.552 -0.0886 -1.7925  0.7120
 5852SOL     OW29017   2.888   3.838   9.560  0.3397  0.3180  0.7654
 5852SOL    HW129018   2.878   3.909   9.624 -2.5280  1.2963 -0.7404
 5852SOL    HW229019   2.922   3.893   9.489 -0.6053 -1.0585 -0.7442
 5853SOL     OW29020   1.563   0.673   4.066 -0.6609  0.1289  0.1881
 5853SOL    HW129021   1.507   0.738   4.023 -1.2992  0.6326  1.7598
 5853SOL    HW229022   1.512   0.656   4.146 -1.9697  1.4203 -0.3773
 5854SOL     OW29023   0.555   1.228  11.939 -0.2589 -0.6267 -0.7744
 5854SOL    HW129024   0.487   1.174  11.898 -2.2708 -0.6670  2.6137
 5854SOL    HW229025   0.536   1.216  12.032 -1.3537  1.3786 -0.7461
 5855SOL     OW29026   1.759   3.805   3.089  0.6826  0.5670 -0.2874
 5855SOL    HW129027   1.730   3.749   3.017 -2.4596  0.4221  1.0939
 5855SOL    HW229028   1.838   3.845   3.052 -0.5278  1.1594 -2.2934
 5856SOL     OW29029   1.916   4.200  14.233 -0.1542  0.0527  0.2447
 5856SOL    HW129030   1.991   4.244  14.272 -0.0805  0.4897 -0.3884
 5856SOL    HW229031   1.858   4.175  14.305  0.5398 -0.5430  0.6073
 5857SOL     OW29032   0.155   3.515   6.153 -0.4825 -0.5448 -0.0774
 5857SOL    HW129033   0.114   3.489   6.070  3.0864  0.9436 -2.2835
 5857SOL    HW229034   0.105   3.590   6.183 -0.3717 -0.2603 -0.6081
 5858SOL     OW29035   1.276   2.449   7.074  0.3906 -0.6928  0.1342
 5858SOL    HW129036   1.324   2.480   6.998  0.0200  1.4293  0.7806
 5858SOL    HW229037   1.281   2.528   7.128  1.2879 -0.1766 -0.7181
 5859SOL     OW29038   3.092   1.060  16.757  0.1308 -0.1888 -0.3804
 5859SOL    HW129039   3.095   1.040  16.850  0.2839 -1.5739 -0.6832
 5859SOL    HW229040   3.177   1.029  16.726  0.4129  0.4622 -0.2675
 5860SOL     OW29041   0.624   2.654   8.263  0.1730  0.1620 -0.1628
 5860SOL    HW129042   0.675   2.733   8.283  1.6253 -1.3474  2.1357
 5860SOL    HW229043   0.539   2.694   8.247  0.8673  2.2254  1.3206
 5861SOL     OW29044   0.790   4.210  12.323 -0.0453 -0.7559 -0.5307
 5861SOL    HW129045   0.833   4.127  12.344  0.2228 -0.8851 -1.5801
 5861SOL    HW229046   0.737   4.183  12.247  0.8717  1.8899 -2.0848
 5862SOL     OW29047   0.616   4.332  13.094  0.0809  0.0674 -0.2586
 5862SOL    HW129048   0.657   4.414  13.067  1.3088 -0.2086  0.7327
 5862SOL    HW229049   0.624   4.286  13.010  0.3423  0.9070 -0.6939
 5863SOL     OW29050   0.988   3.439   2.025  0.0928 -0.0753  0.6895
 5863SOL    HW129051   1.065   3.405   2.071  0.1531 -1.8058 -0.6869
 5863SOL    HW229052   1.029   3.517   1.988 -0.2168  1.0143  2.6687
 5864SOL     OW29053   4.600   0.489   2.280  0.2110  0.1458 -0.2633
 5864SOL    HW129054   4.673   0.509   2.221  1.6956 -1.1566  1.1111
 5864SOL    HW229055   4.530   0.542   2.242  0.3093  0.1929 -0.3762
 5865SOL     OW29056   3.701   2.748   1.552 -0.2305  0.8263  0.5031
 5865SOL    HW129057   3.630   2.688   1.530  1.5020 -1.2844  0.6554
 5865SOL    HW229058   3.749   2.776   1.474 -1.3855  1.3304 -0.0217
 5866SOL     OW29059   4.172   3.122   2.163 -0.1469  0.8047  0.4428
 5866SOL    HW129060   4.106   3.186   2.189 -1.4536 -0.7994  1.0454
 5866SOL    HW229061   4.237   3.131   2.232  0.0321 -1.4613  0.5750
 5867SOL     OW29062   3.539   2.648   0.420 -0.4208 -0.4943  0.4993
 5867SOL    HW129063   3.530   2.595   0.499  0.6880  1.7858  2.1269
 5867SOL    HW229064   3.564   2.591   0.347 -3.1358 -1.0022 -0.0406
 5868SOL     OW29065   1.479   4.242  10.099  0.1549 -0.4358 -0.3435
 5868SOL    HW129066   1.516   4.327  10.123  0.9726 -0.3546 -1.8645
 5868SOL    HW229067   1.428   4.221  10.177 -0.6150  3.3078  0.1750
 5869SOL     OW29068   2.201   2.938   9.410 -0.1904 -0.0438 -0.2407
 5869SOL    HW129069   2.294   2.929   9.388 -0.4479  0.4714 -1.4912
 5869SOL    HW229070   2.159   2.959   9.328 -0.8172 -2.5225 -0.5478
 5870SOL     OW29071   4.161   2.965   8.383 -0.2919 -0.1467 -0.5558
 5870SOL    HW129072   4.244   2.948   8.427  0.2918 -1.9566 -2.3829
 5870SOL    HW229073   4.098   2.914   8.434 -1.1559  0.3923 -1.0811
 5871SOL     OW29074   4.356   3.039   4.166 -0.4484  0.2062 -0.4423
 5871SOL    HW129075   4.283   3.061   4.223  0.4241 -0.2306  0.8502
 5871SOL    HW229076   4.367   3.107   4.100  0.0380  0.5560 -0.0016
 5872SOL     OW29077   2.047   4.196  13.777 -0.0999  0.1883 -0.0745
 5872SOL    HW129078   2.025   4.152  13.859  1.4980 -0.7153 -0.1270
 5872SOL    HW229079   2.056   4.127  13.712  1.2415  1.6445 -1.4439
 5873SOL     OW29080   4.570   1.902  12.343 -0.3015  0.3658  0.0200
 5873SOL    HW129081   4.559   1.902  12.248  1.7136 -2.1386 -0.2054
 5873SOL    HW229082   4.637   1.970  12.347  0.2794 -0.1683 -0.6805
 5874SOL     OW29083   2.252   1.011   4.003 -0.3769 -0.5266  0.1974
 5874SOL    HW129084   2.200   1.014   3.923  2.2625 -0.4920 -1.5144
 5874SOL    HW229085   2.313   0.941   3.979  2.2464  1.6872  0.3842
 5875SOL     OW29086   1.020   1.076   8.583  0.2689  0.1927  0.1431
 5875SOL    HW129087   0.933   1.116   8.587  1.3313  2.3915  1.3376
 5875SOL    HW229088   1.065   1.115   8.659 -0.0746 -2.4917  1.7172
 5876SOL     OW29089   2.098   2.085  10.687  0.1539 -0.0617  0.0749
 5876SOL    HW129090   2.179   2.056  10.729  0.4844 -0.0442 -0.5471
 5876SOL    HW229091   2.047   2.006  10.709 -0.5526  0.8842  1.8082
 5877SOL     OW29092   1.234   2.658  17.649  0.1870  0.3352  0.3229
 5877SOL    HW129093   1.262   2.704   0.023 -3.1408  0.8103  1.2079
 5877SOL    HW229094   1.196   2.726  17.593  2.6737 -0.5539 -2.4632
 5878SOL     OW29095   3.840   3.206   7.304  0.0277  0.6839 -0.0747
 5878SOL    HW129096   3.911   3.249   7.352 -0.0256 -2.5791  2.9028
 5878SOL    HW229097   3.816   3.285   7.255  3.7583  0.9606 -1.4617
 5879SOL     OW29098   1.603   0.518   7.680 -0.2183 -0.7271 -0.2185
 5879SOL    HW129099   1.539   0.538   7.748  2.0774  0.0969  1.7227
 5879SOL    HW229100   1.540   0.502   7.610 -1.0018 -1.6894  0.7096
 5880SOL     OW29101   4.177   3.921   2.107  0.0613 -0.3627  0.2714
 5880SOL    HW129102   4.159   3.834   2.072  1.1760 -0.8955  1.0329
 5880SOL    HW229103   4.186   3.900   2.200 -0.7357 -1.7418  0.0253
 5881SOL     OW29104   2.059   1.460  14.262 -0.0618 -0.1805 -0.4253
 5881SOL    HW129105   2.155   1.460  14.265 -0.0298 -2.0312 -1.7885
 5881SOL    HW229106   2.037   1.503  14.344  2.4749 -1.5093  0.9486
 5882SOL     OW29107   0.393   0.233   5.117 -0.0555 -0.2993 -0.3186
 5882SOL    HW129108   0.327   0.167   5.138 -1.7701  1.2486 -0.8649
 5882SOL    HW229109   0.467   0.187   5.077  0.2194  0.0783 -0.2488
 5883SOL     OW29110   1.423   1.040   6.711  0.0907 -0.4709 -0.3412
 5883SOL    HW129111   1.393   1.120   6.752  2.3382  0.8693 -1.3018
 5883SOL    HW229112   1.340   0.993   6.700  1.6387 -3.2199 -0.3447
 5884SOL     OW29113   2.454   2.016  15.183 -0.2857  0.4082 -0.1346
 5884SOL    HW129114   2.440   2.048  15.273 -3.3544  0.7849 -0.7444
 5884SOL    HW229115   2.461   2.100  15.138  2.0779  0.8004  0.9862
 5885SOL     OW29116   1.696   3.473   8.271 -0.8473 -0.2190 -0.1417
 5885SOL    HW129117   1.623   3.512   8.223 -0.5233  0.2083 -0.2881
 5885SOL    HW229118   1.708   3.553   8.323 -0.2475  0.2393 -0.9950
 5886SOL     OW29119   2.895   1.653   3.390 -0.0775  0.3618  0.0325
 5886SOL    HW129120   2.937   1.711   3.454  1.3123  0.2388 -0.7674
 5886SOL    HW229121   2.886   1.570   3.437 -2.1140 -0.3135 -1.5428
 5887SOL     OW29122   2.311   3.573   2.452 -0.1597  0.5888 -0.5901
 5887SOL    HW129123   2.326   3.507   2.384 -1.2927  0.2919 -0.5565
 5887SOL    HW229124   2.220   3.594   2.431  0.0456  3.0953  1.0852
 5888SOL     OW29125   1.838   4.094   4.171 -0.4490 -0.5728 -0.4642
 5888SOL    HW129126   1.790   4.125   4.093  0.2684 -1.3861 -1.2273
 5888SOL    HW229127   1.880   4.178   4.191  1.1509 -1.8496  1.4843
 5889SOL     OW29128   0.882   1.034  10.257  0.7926 -0.1689  0.3116
 5889SOL    HW129129   0.974   1.060  10.249  0.9663 -0.4226  1.5031
 5889SOL    HW229130   0.833   1.105  10.216 -0.2885 -0.1729  1.5778
 5890SOL     OW29131   1.511   3.872   9.124 -0.0379  0.2815  0.6139
 5890SOL    HW129132   1.516   3.890   9.030  4.1713 -0.7921  0.6303
 5890SOL    HW229133   1.498   3.965   9.147  2.8767  0.1950  2.7205
 5891SOL     OW29134   0.141   0.383   3.755 -0.2697  0.2424 -0.0682
 5891SOL    HW129135   0.082   0.310   3.774 -1.1955  1.0030 -0.0090
 5891SOL    HW229136   0.168   0.414   3.841  0.6303 -1.6072  0.3198
 5892SOL     OW29137   1.165   2.274  16.561 -0.1294  0.1873  0.0310
 5892SOL    HW129138   1.078   2.312  16.571 -0.8023 -1.4716  0.5717
 5892SOL    HW229139   1.221   2.342  16.598 -1.6169  1.7782 -0.6827
 5893SOL     OW29140   4.492   3.672   4.236  0.4149  0.5944  0.5031
 5893SOL    HW129141   4.400   3.680   4.211 -0.1440 -2.6646  1.4879
 5893SOL    HW229142   4.517   3.760   4.263 -0.0679  1.1191 -0.7460
 5894SOL     OW29143   1.287   4.071   9.865  0.0907 -0.0021  0.1218
 5894SOL    HW129144   1.270   4.125   9.788 -0.4651 -0.1852  0.1161
 5894SOL    HW229145   1.238   3.990   9.854  2.5659 -1.4007 -0.5081
 5895SOL     OW29146   1.006   4.651   5.841 -0.3763 -0.1243  0.0531
 5895SOL    HW129147   1.014   4.565   5.800  0.7975  0.0499 -0.0758
 5895SOL    HW229148   1.045   4.711   5.777 -1.2126  1.4688  1.0483
 5896SOL     OW29149   0.771   3.314  12.569 -0.8708  0.6754  0.3165
 5896SOL    HW129150   0.832   3.284  12.636 -1.3767 -1.7919 -0.3279
 5896SOL    HW229151   0.691   3.278  12.608 -1.0653  0.6785 -0.0849
 5897SOL     OW29152   4.237   2.800   6.314  0.4128  0.3258  0.1177
 5897SOL    HW129153   4.219   2.731   6.377 -0.6004  0.1552 -0.3460
 5897SOL    HW229154   4.188   2.769   6.237 -1.7744 -1.7648  2.3456
 5898SOL     OW29155   2.140   0.471   2.107  0.4348  0.4028  0.2699
 5898SOL    HW129156   2.052   0.472   2.070  0.3015 -1.6640  0.4970
 5898SOL    HW229157   2.155   0.565   2.112  0.2127  0.5450 -2.0654
 5899SOL     OW29158   2.302   0.825   0.455 -0.2703  0.1713  0.1096
 5899SOL    HW129159   2.290   0.867   0.370  3.5771  0.8168 -0.1145
 5899SOL    HW229160   2.299   0.898   0.516 -0.3634 -0.4778  0.8882
 5900SOL     OW29161   3.099   1.270  16.348 -0.2404 -0.2818  0.0698
 5900SOL    HW129162   3.005   1.254  16.339 -0.3924  1.4815 -1.3646
 5900SOL    HW229163   3.100   1.320  16.429  1.2136  1.3408 -0.9439
 5901SOL     OW29164   2.768   3.033   8.568  0.4534  0.0437  0.2440
 5901SOL    HW129165   2.728   3.024   8.654 -0.1309 -0.9621 -0.1322
 5901SOL    HW229166   2.713   3.097   8.522  1.1499 -1.1764 -2.3083
 5902SOL     OW29167   1.152   4.554  10.888  0.5299  0.8163  0.2547
 5902SOL    HW129168   1.088   4.564  10.958  0.1094 -1.7793  0.2401
 5902SOL    HW229169   1.138   4.628  10.828 -1.3774  1.6195  1.7151
 5903SOL     OW29170   2.497   2.846   5.076  0.0047 -0.1234 -0.1816
 5903SOL    HW129171   2.495   2.934   5.037  2.5163  0.6049  1.3623
 5903SOL    HW229172   2.584   2.809   5.061  0.6794  1.0879  0.7237
 5904SOL     OW29173   2.645   2.197   9.898  0.1387 -0.2687 -0.4809
 5904SOL    HW129174   2.694   2.255   9.957 -0.7045  0.0742 -0.1125
 5904SOL    HW229175   2.685   2.111   9.907  1.2184  0.4958  1.9879
 5905SOL     OW29176   0.264   4.058   3.663 -0.3577 -0.2024  0.4442
 5905SOL    HW129177   0.211   4.135   3.686 -0.8184 -0.5513  0.5541
 5905SOL    HW229178   0.259   4.009   3.745 -0.8413 -2.1405 -0.7593
 5906SOL     OW29179   4.164   0.846  13.052 -0.5314  0.7952  0.0046
 5906SOL    HW129180   4.252   0.828  13.019 -0.5358  0.3869  0.2168
 5906SOL    HW229181   4.182   0.907  13.124 -1.7496 -0.1934  1.1543
 5907SOL     OW29182   0.377   2.875  13.615  0.6712 -0.0214 -0.7867
 5907SOL    HW129183   0.396   2.964  13.584 -1.1468  1.1537  1.4581
 5907SOL    HW229184   0.312   2.851  13.550 -1.1602  0.5566  0.8266
 5908SOL     OW29185   3.569   4.720   8.492 -0.7712 -0.0785 -0.5903
 5908SOL    HW129186   3.619   4.646   8.460 -0.7449 -0.5855  0.6477
 5908SOL    HW229187   3.599   0.013   8.581 -0.1029  0.3750 -0.9153
 5909SOL     OW29188   0.651   2.815  13.543 -0.3837  0.0387 -0.5801
 5909SOL    HW129189   0.565   2.838  13.577  0.8339  0.3936  2.2828
 5909SOL    HW229190   0.660   2.867  13.463 -2.2129  0.0699 -0.7525
 5910SOL     OW29191   1.123   2.912   5.245 -0.3399  0.1933 -0.1716
 5910SOL    HW129192   1.034   2.885   5.267 -0.0738 -0.0235  0.6636
 5910SOL    HW229193   1.137   2.993   5.294 -0.5248 -1.1034  2.0275
 5911SOL     OW29194   1.549   3.371   7.877  0.2821 -0.3767 -0.3096
 5911SOL    HW129195   1.496   3.354   7.799  1.1431 -1.6569 -0.6117
 5911SOL    HW229196   1.534   3.466   7.882 -0.0973 -0.3076 -2.4643
 5912SOL     OW29197   3.412   2.286   6.330 -0.7786  0.2348  0.0347
 5912SOL    HW129198   3.393   2.376   6.304 -1.3932 -0.2826 -1.3312
 5912SOL    HW229199   3.388   2.296   6.422  0.5975 -0.6892  0.4835
 5913SOL     OW29200   0.191   0.943   0.791  0.9221 -0.8780 -0.1119
 5913SOL    HW129201   0.247   0.882   0.839 -0.1020 -1.5932  0.1625
 5913SOL    HW229202   0.248   0.959   0.715  1.6186  1.9184  1.0071
 5914SOL     OW29203   3.197   3.504  11.282 -0.1916  0.1653 -0.1186
 5914SOL    HW129204   3.243   3.424  11.305 -1.0228 -1.0248 -2.6659
 5914SOL    HW229205   3.273   3.558  11.260  1.6330 -1.4834  2.1110
 5915SOL     OW29206   0.648   3.927   8.821  0.4721  0.5155 -0.3500
 5915SOL    HW129207   0.586   3.899   8.888  2.4960 -1.9757  0.5005
 5915SOL    HW229208   0.618   3.869   8.750 -1.3661  1.2925 -0.1881
 5916SOL     OW29209   0.709   1.007   3.360 -0.9022 -1.2057  0.0953
 5916SOL    HW129210   0.645   0.953   3.314 -1.7144 -1.9588  2.1412
 5916SOL    HW229211   0.651   1.081   3.380  1.9907  0.6595  1.4989
 5917SOL     OW29212   4.264   3.790  17.439  0.5311 -0.3946  0.2150
 5917SOL    HW129213   4.226   3.878  17.439  1.4112 -0.0117  0.4927
 5917SOL    HW229214   4.202   3.739  17.387 -0.8657 -0.5932  2.1116
 5918SOL     OW29215   4.195   2.216   1.341  0.6321  0.0021 -0.3403
 5918SOL    HW129216   4.191   2.236   1.248 -2.5875 -2.1911 -0.6553
 5918SOL    HW229217   4.127   2.151   1.360  1.2146 -0.3951  0.4118
 5919SOL     OW29218   4.502   1.448   6.562 -1.1234 -0.0288 -0.6315
 5919SOL    HW129219   4.597   1.443   6.546 -1.1868 -0.9949 -0.7324
 5919SOL    HW229220   4.469   1.423   6.476  0.5857  0.8805 -1.5449
 5920SOL     OW29221   4.170   2.144  16.121  0.6561  0.0568 -0.3594
 5920SOL    HW129222   4.150   2.052  16.103  1.6638 -0.6049  1.8660
 5920SOL    HW229223   4.172   2.142  16.217  0.8284  0.6494 -0.3516
 5921SOL     OW29224   3.358   1.138   5.615 -0.4117 -0.5340 -0.2123
 5921SOL    HW129225   3.436   1.153   5.668 -3.0617  0.7450  3.3666
 5921SOL    HW229226   3.390   1.153   5.526 -1.0207 -0.6276 -0.4493
 5922SOL     OW29227   4.322   2.254   5.040 -0.0309  0.5390  0.5355
 5922SOL    HW129228   4.337   2.221   4.951  1.2643  0.8730  0.6234
 5922SOL    HW229229   4.402   2.301   5.062  0.7162 -0.8096  0.7261
 5923SOL     OW29230   4.103   4.048   3.580  0.0460 -0.0351  0.7572
 5923SOL    HW129231   4.188   4.053   3.623  0.7262 -1.7693 -0.3574
 5923SOL    HW229232   4.047   4.018   3.651 -0.2340 -1.2753  0.0145
 5924SOL     OW29233   2.201   3.784   9.894  0.5158  0.3453  0.0477
 5924SOL    HW129234   2.107   3.797   9.881  1.1684  4.5092 -0.4150
 5924SOL    HW229235   2.204   3.689   9.909 -2.3020  0.0808 -1.2337
 5925SOL     OW29236   3.857   1.561   0.851 -0.0305 -0.3201  0.5316
 5925SOL    HW129237   3.950   1.551   0.871  0.8449  0.0354 -3.3228
 5925SOL    HW229238   3.857   1.572   0.756 -1.3035  1.1434  0.7059
 5926SOL     OW29239   3.270   2.785   2.887 -0.4056  0.0932 -0.0667
 5926SOL    HW129240   3.292   2.854   2.950  0.4467  0.6313 -0.9646
 5926SOL    HW229241   3.230   2.845   2.824 -1.5135 -1.0847 -0.4836
 5927SOL     OW29242   1.685   3.000   4.436 -0.2041  0.1032 -0.3787
 5927SOL    HW129243   1.701   2.906   4.441  1.6578  0.3523 -1.5942
 5927SOL    HW229244   1.590   3.009   4.428 -0.3279 -1.5209 -0.6603
 5928SOL     OW29245   4.466   2.144   9.109  0.3767  0.5634 -0.4732
 5928SOL    HW129246   4.390   2.119   9.161  0.0843 -0.7550 -1.5151
 5928SOL    HW229247   4.501   2.062   9.074 -1.4151 -0.4997  0.2484
 5929SOL     OW29248   2.425   1.638   9.760  0.0170  0.1995  0.4436
 5929SOL    HW129249   2.332   1.646   9.783 -0.8622 -2.6963 -2.1405
 5929SOL    HW229250   2.469   1.719   9.785 -0.3009 -0.4003  3.0175
 5930SOL     OW29251   1.643   0.158   3.526  0.0202 -0.6469 -0.0474
 5930SOL    HW129252   1.694   0.120   3.455  1.3082  4.1288 -1.6772
 5930SOL    HW229253   1.692   0.236   3.549 -0.5065 -0.5641  0.7892
 5931SOL     OW29254   1.578   0.365  14.791 -0.8299  0.0759  0.2370
 5931SOL    HW129255   1.580   0.283  14.742 -2.0612  1.1230 -1.5436
 5931SOL    HW229256   1.668   0.395  14.809 -1.4368  2.1852 -0.2243
 5932SOL     OW29257   0.970   0.455   8.841  0.1537  0.3229  0.2161
 5932SOL    HW129258   1.060   0.448   8.873 -1.0633 -0.8035  3.4139
 5932SOL    HW229259   0.936   0.373   8.879  0.2609 -0.4948 -1.4411
 5933SOL     OW29260   4.654   1.461   8.126 -0.2703 -0.6370 -0.4394
 5933SOL    HW129261   4.582   1.398   8.125  1.3116 -2.4345 -1.2828
 5933SOL    HW229262   4.653   1.480   8.219  1.9524  0.3239 -0.5908
 5934SOL     OW29263   4.405   4.038   6.889 -0.6268  0.6117  0.0654
 5934SOL    HW129264   4.432   4.083   6.969 -1.9854 -0.2212  0.9917
 5934SOL    HW229265   4.443   4.087   6.816 -1.8838  0.3597 -0.7709
 5935SOL     OW29266   2.962   2.849  11.951  0.0052  0.5014  0.4348
 5935SOL    HW129267   3.002   2.772  11.909  2.0708  1.0134  1.4573
 5935SOL    HW229268   2.901   2.811  12.014 -0.9647  2.6616  0.7807
 5936SOL     OW29269   2.658   3.095  15.654  0.3487  0.1552 -0.3675
 5936SOL    HW129270   2.681   3.006  15.629 -0.7062  0.0421 -0.9516
 5936SOL    HW229271   2.691   3.137  15.575  3.4547  4.5632  3.2471
 5937SOL     OW29272   1.486   0.042   8.819 -0.3241  0.3860 -0.2085
 5937SOL    HW129273   1.498   0.047   8.724  1.1465  1.3537  0.0370
 5937SOL    HW229274   1.391   0.052   8.815 -0.4651 -0.6440  0.4745
 5938SOL     OW29275   3.538   2.351   2.882  0.3266 -0.3973  0.0736
 5938SOL    HW129276   3.535   2.275   2.940  1.8861 -0.0309  0.6397
 5938SOL    HW229277   3.563   2.419   2.944  1.9251 -1.0575  0.1639
 5939SOL     OW29278   1.796   2.886  16.830 -0.5576 -0.1060 -0.1550
 5939SOL    HW129279   1.795   2.948  16.903  1.0978  0.5462 -0.6877
 5939SOL    HW229280   1.704   2.859  16.833 -1.2168  1.9848 -1.8201
 5940SOL     OW29281   0.860   1.560   9.755  0.4432 -0.1275 -0.3568
 5940SOL    HW129282   0.813   1.618   9.695 -1.3068 -2.1976 -0.9661
 5940SOL    HW229283   0.884   1.484   9.701  2.1453 -0.2774  0.6064
 5941SOL     OW29284   4.601   1.004   8.264 -0.5645 -0.2767  0.1553
 5941SOL    HW129285   4.608   1.050   8.348 -0.1918 -1.0027  0.5221
 5941SOL    HW229286   4.645   1.056   8.197  0.0956  2.3208  2.6302
 5942SOL     OW29287   1.492   2.345   4.365 -0.3677  0.1470 -0.0534
 5942SOL    HW129288   1.544   2.347   4.445  1.8343  0.3521 -1.5097
 5942SOL    HW229289   1.417   2.291   4.392 -0.3219 -0.2794 -0.7759
 5943SOL     OW29290   4.026   4.695   5.662 -0.0847  0.2299 -0.4618
 5943SOL    HW129291   3.937   4.715   5.690 -0.3497 -0.9817 -0.4710
 5943SOL    HW229292   4.079   0.010   5.730  0.6321 -0.3041 -0.6947
 5944SOL     OW29293   1.096   3.438   5.577 -0.5957  0.5468  0.4035
 5944SOL    HW129294   1.163   3.402   5.519  0.6251  0.0732  2.1281
 5944SOL    HW229295   1.049   3.358   5.602 -1.5568  1.5496  1.7880
 5945SOL     OW29296   3.749   4.557   7.656 -0.0795  0.1068  0.0376
 5945SOL    HW129297   3.791   4.555   7.742  0.0570  0.8981 -0.0136
 5945SOL    HW229298   3.824   4.564   7.597  0.7290  1.0336  1.1888
 5946SOL     OW29299   1.447   1.570   6.959  0.1311  0.7831 -0.0390
 5946SOL    HW129300   1.523   1.522   6.990 -0.6703 -0.9537 -0.7627
 5946SOL    HW229301   1.431   1.515   6.883  0.7765  0.9340 -0.2843
 5947SOL     OW29302   4.232   0.057   5.807  0.4362 -0.0882  0.5638
 5947SOL    HW129303   4.325   0.054   5.787  0.1784  1.0097 -0.7473
 5947SOL    HW229304   4.240   0.057   5.902 -1.1643 -0.9414  0.7089
 5948SOL     OW29305   1.655   2.663   0.551  0.1840 -0.4306 -0.0567
 5948SOL    HW129306   1.631   2.597   0.616  0.4622 -0.4864 -0.0128
 5948SOL    HW229307   1.635   2.612   0.473  0.0172 -3.9618  2.3034
 5949SOL     OW29308   4.238   1.540   9.490  0.1617 -0.4508 -0.6479
 5949SOL    HW129309   4.242   1.623   9.538 -0.2517 -1.1510  0.6123
 5949SOL    HW229310   4.152   1.516   9.523  0.7642 -0.2653  1.0788
 5950SOL     OW29311   1.162   4.117   6.619 -0.1710  0.6569  0.6104
 5950SOL    HW129312   1.136   4.091   6.531 -0.1301 -1.7307  1.3135
 5950SOL    HW229313   1.225   4.049   6.643  0.3040 -0.0931 -2.7016
 5951SOL     OW29314   2.794   2.551   0.785 -0.0117 -0.6226  0.4845
 5951SOL    HW129315   2.699   2.543   0.772  0.1239  0.3450 -0.9905
 5951SOL    HW229316   2.829   2.499   0.713 -1.4007  0.2058 -0.7838
 5952SOL     OW29317   4.090   2.773   3.957  0.3380  0.5660  0.3598
 5952SOL    HW129318   4.069   2.866   3.961 -1.4327  0.0672  2.3723
 5952SOL    HW229319   4.005   2.738   3.983 -0.0320  2.0079  1.1042
 5953SOL     OW29320   2.505   3.192   7.587  0.1577 -0.4250  0.4960
 5953SOL    HW129321   2.474   3.182   7.677  0.0434  0.7539  0.5917
 5953SOL    HW229322   2.540   3.281   7.580  1.2235 -0.8189  0.8217
 5954SOL     OW29323   4.206   0.534   2.568  0.7515 -0.0318  0.5184
 5954SOL    HW129324   4.147   0.516   2.495 -1.1635  3.6715  1.1481
 5954SOL    HW229325   4.171   0.479   2.638  3.4454 -1.9560  0.3517
 5955SOL     OW29326   4.437   0.407   2.620 -0.2997 -0.2667 -0.2463
 5955SOL    HW129327   4.384   0.476   2.580 -0.0054  0.0673 -0.0561
 5955SOL    HW229328   4.364   0.368   2.667 -0.0882 -2.1437 -1.4804
 5956SOL     OW29329   2.527   4.036   4.860  0.3027 -0.3676  0.2363
 5956SOL    HW129330   2.577   4.025   4.779 -0.7343 -1.2611 -0.2841
 5956SOL    HW229331   2.458   3.970   4.851 -0.7201  0.7222  0.0909
 5957SOL     OW29332   3.841   0.268  17.396  0.2039  0.2692 -0.1624
 5957SOL    HW129333   3.837   0.183  17.354 -0.2116 -0.0558  0.5302
 5957SOL    HW229334   3.755   0.282  17.437 -0.1853  0.8637 -1.1745
 5958SOL     OW29335   4.060   3.952   5.919 -0.3158  0.0850  0.1659
 5958SOL    HW129336   4.080   3.969   6.011  2.0667  0.5305 -0.4471
 5958SOL    HW229337   4.098   4.024   5.869 -0.9250 -0.2873 -0.8273
 5959SOL     OW29338   2.274   1.393  13.628 -0.0030 -0.2434  0.0672
 5959SOL    HW129339   2.278   1.323  13.563  2.1672 -1.1504  1.1698
 5959SOL    HW229340   2.354   1.441  13.607 -0.3620  0.8208  1.1316
 5960SOL     OW29341   2.869   4.158   2.936  0.6228 -0.0573 -0.1002
 5960SOL    HW129342   2.774   4.169   2.927  1.0005  2.7856 -0.9191
 5960SOL    HW229343   2.905   4.221   2.873  0.4217  1.0217  0.8676
 5961SOL     OW29344   0.103   0.785   5.874 -0.2007  0.2092 -0.2089
 5961SOL    HW129345   0.064   0.864   5.836 -0.1744 -0.1017 -0.8710
 5961SOL    HW229346   0.051   0.771   5.953 -1.1475 -0.2165 -0.9106
 5962SOL     OW29347   4.223   2.490   6.181  0.2598 -0.3010 -0.0752
 5962SOL    HW129348   4.183   2.574   6.162 -0.0823 -0.4115  0.1581
 5962SOL    HW229349   4.268   2.506   6.264  1.1352 -0.0358 -0.5996
 5963SOL     OW29350   0.774   2.186  15.481  0.2324 -0.1698 -0.1719
 5963SOL    HW129351   0.789   2.186  15.387 -2.4601 -0.4525 -0.5995
 5963SOL    HW229352   0.679   2.196  15.488  0.4193 -0.2075  2.4718
 5964SOL     OW29353   0.852   3.610   8.804 -0.0990  0.8109  0.0197
 5964SOL    HW129354   0.775   3.664   8.786 -0.0801  0.6807 -0.4515
 5964SOL    HW229355   0.845   3.544   8.736  0.7763 -1.0488  1.7403
 5965SOL     OW29356   2.521   3.457   3.422 -0.3217  0.8089  0.2889
 5965SOL    HW129357   2.612   3.475   3.396  0.3533 -1.0716  1.3487
 5965SOL    HW229358   2.496   3.384   3.365  0.1185  0.5880  0.3754
 5966SOL     OW29359   4.061   2.621   9.900  0.1751  0.4372  0.2175
 5966SOL    HW129360   4.030   2.640   9.989  0.1456  1.0888  0.0635
 5966SOL    HW229361   4.123   2.550   9.918 -0.0566  0.3796  0.8033
 5967SOL     OW29362   4.262   0.838   5.591  0.2753  0.1536  0.1070
 5967SOL    HW129363   4.239   0.931   5.592  0.2585  0.1705 -2.3808
 5967SOL    HW229364   4.333   0.836   5.655  1.2514  1.4306 -0.9544
 5968SOL     OW29365   3.709   1.681   8.503  0.4177  0.4185  0.3386
 5968SOL    HW129366   3.708   1.595   8.546  0.5947 -1.2741 -3.0888
 5968SOL    HW229367   3.776   1.656   8.440  1.1481 -0.9736  1.6529
 5969SOL     OW29368   3.632   4.710   7.219 -0.0918  0.6632 -0.0244
 5969SOL    HW129369   3.691   0.052   7.254 -0.6696  1.1758 -0.0450
 5969SOL    HW229370   3.641   4.639   7.283  0.6162 -2.0010 -3.0903
 5970SOL     OW29371   2.595   2.299   4.858 -0.8192 -0.2309 -0.0714
 5970SOL    HW129372   2.508   2.335   4.838  0.3544  2.3568 -0.6209
 5970SOL    HW229373   2.604   2.318   4.952  0.3724  1.0874 -0.4560
 5971SOL     OW29374   1.989   1.470  13.578  0.3211 -0.0059  0.4359
 5971SOL    HW129375   2.067   1.486  13.630 -0.9785  1.6011  1.9113
 5971SOL    HW229376   2.016   1.517  13.500 -2.7065 -0.5817 -0.9716
 5972SOL     OW29377   3.760   3.008  11.295 -0.1610  0.3040  0.1940
 5972SOL    HW129378   3.799   2.923  11.276 -0.8484 -0.0288  0.2667
 5972SOL    HW229379   3.814   3.031  11.370  1.5206 -0.0706 -0.9173
 5973SOL     OW29380   0.977   2.971   8.141  0.3872  0.1892  0.3528
 5973SOL    HW129381   1.011   3.041   8.196 -0.1966  1.1967 -0.5590
 5973SOL    HW229382   1.057   2.950   8.092  0.4720 -0.8089  0.9286
 5974SOL     OW29383   3.967   2.832  16.033 -0.0428 -0.1080  0.9846
 5974SOL    HW129384   3.874   2.838  16.057 -0.1198 -1.2752  0.9546
 5974SOL    HW229385   3.966   2.779  15.954 -0.3350  0.1665  0.8037
 5975SOL     OW29386   2.452   0.413   6.709 -0.0749 -0.1064 -0.4936
 5975SOL    HW129387   2.430   0.463   6.787 -1.2584  0.9645 -1.5073
 5975SOL    HW229388   2.544   0.395   6.725 -0.7020 -0.7612  2.3511
 5976SOL     OW29389   2.268   1.754   6.051  0.0486 -0.5108  0.2468
 5976SOL    HW129390   2.243   1.826   5.993 -1.0261 -1.8438 -0.9452
 5976SOL    HW229391   2.204   1.764   6.122  0.9160 -1.7510  1.1784
 5977SOL     OW29392   1.189   4.662  16.484 -0.2344  0.7593 -0.5446
 5977SOL    HW129393   1.214   4.654  16.392  0.6052 -0.2937 -0.2130
 5977SOL    HW229394   1.123   4.597  16.506  0.8100 -0.4000 -0.8812
 5978SOL     OW29395   3.769   1.766  11.271 -0.3210  0.2562  0.2722
 5978SOL    HW129396   3.742   1.831  11.336 -0.6152  2.7698 -2.3442
 5978SOL    HW229397   3.805   1.827  11.207  0.5635  0.7808  1.2810
 5979SOL     OW29398   3.003   4.548  12.221  0.3527  0.3980 -0.0871
 5979SOL    HW129399   3.024   4.547  12.314  1.6730  1.5737 -0.3719
 5979SOL    HW229400   3.088   4.577  12.187  0.5343  0.0637  0.0855
 5980SOL     OW29401   0.132   0.043   7.617 -0.0185  0.1700 -0.2907
 5980SOL    HW129402   0.111   0.102   7.690  0.9796 -3.4102  2.8881
 5980SOL    HW229403   0.162   4.690   7.662 -1.0009 -1.2931 -2.2295
 5981SOL     OW29404   2.873   4.570   6.099 -0.3232  0.2177  0.0035
 5981SOL    HW129405   2.904   4.482   6.077  0.0271  0.9010 -2.2891
 5981SOL    HW229406   2.798   4.579   6.040 -0.2969 -0.8652 -0.1972
 5982SOL     OW29407   3.075   2.416   3.999  0.3257 -0.2662  0.6472
 5982SOL    HW129408   3.095   2.492   4.055  0.8896  0.6812 -0.8440
 5982SOL    HW229409   3.002   2.379   4.048 -0.4050 -0.8419 -0.9108
 5983SOL     OW29410   3.841   3.562   2.635 -0.1996 -0.4253 -0.5681
 5983SOL    HW129411   3.819   3.647   2.671  3.1132 -0.0760  0.6331
 5983SOL    HW229412   3.796   3.495   2.687 -0.5816  1.6288  1.7289
 5984SOL     OW29413   2.834   1.166   3.712  0.4129  0.8381 -0.2719
 5984SOL    HW129414   2.853   1.075   3.691  0.6550  1.5649 -3.1403
 5984SOL    HW229415   2.758   1.178   3.655 -1.3760 -2.3437  1.3972
 5985SOL     OW29416   3.914   2.928   1.921 -0.2817 -0.2251  0.0804
 5985SOL    HW129417   3.862   2.990   1.871 -1.2278 -0.9662  0.1390
 5985SOL    HW229418   3.856   2.902   1.993  1.7406  1.6411  2.3826
 5986SOL     OW29419   3.091   1.473   6.109  0.2995 -0.0122  0.9672
 5986SOL    HW129420   3.113   1.421   6.032 -0.7270 -1.2881  1.5455
 5986SOL    HW229421   2.995   1.477   6.107  0.2516 -1.2057  1.3357
 5987SOL     OW29422   3.545   0.481   9.821  0.4996  0.5829  0.0281
 5987SOL    HW129423   3.634   0.513   9.809  0.1243  1.8362  0.5752
 5987SOL    HW229424   3.548   0.429   9.901 -0.3019 -2.1509 -1.7301
 5988SOL     OW29425   0.027   1.412   8.849 -0.8365  0.4144 -0.0632
 5988SOL    HW129426   0.095   1.479   8.842  0.6915 -1.0195  0.7761
 5988SOL    HW229427   0.082   1.342   8.812 -1.3028  0.3899 -0.6946
 5989SOL     OW29428   1.554   3.283  15.820  0.7682  0.9044 -0.3371
 5989SOL    HW129429   1.569   3.353  15.883  1.3388  0.1326  0.3792
 5989SOL    HW229430   1.630   3.303  15.766  0.4474  1.2430 -0.6648
 5990SOL     OW29431   1.364   2.689   7.897 -0.4773 -0.1285 -0.6310
 5990SOL    HW129432   1.282   2.640   7.895 -0.2175 -0.6757  2.4088
 5990SOL    HW229433   1.433   2.634   7.935 -0.5233  0.1043 -0.2155
 5991SOL     OW29434   3.071   0.163   3.883 -0.3104 -0.2481 -0.1900
 5991SOL    HW129435   3.111   0.090   3.930  1.1315 -1.1890 -2.8181
 5991SOL    HW229436   3.146   0.221   3.868 -0.6208  0.0761 -0.5074
 5992SOL     OW29437   4.109   1.663   0.376 -0.0004  0.2548  0.0768
 5992SOL    HW129438   4.117   1.571   0.401 -1.0456 -0.1543 -1.0800
 5992SOL    HW229439   4.144   1.705   0.454  0.2480  0.3455 -0.0844
 5993SOL     OW29440   3.907   3.256   8.143  0.9607  0.2930  0.4755
 5993SOL    HW129441   3.946   3.259   8.230  2.2621 -1.2084 -0.0448
 5993SOL    HW229442   3.949   3.328   8.094  1.9168 -0.2854  0.4454
 5994SOL     OW29443   3.370   4.308   4.214 -0.3554 -0.0991  0.0594
 5994SOL    HW129444   3.346   4.400   4.210 -1.2076 -0.3086  0.1613
 5994SOL    HW229445   3.282   4.273   4.198 -0.4162  0.3882 -0.6845
 5995SOL     OW29446   2.444   1.650   4.002 -0.3505  0.2109  0.0003
 5995SOL    HW129447   2.530   1.693   4.000 -0.4374  0.4709  1.6137
 5995SOL    HW229448   2.383   1.720   4.024  0.3664  1.1985 -1.1800
 5996SOL     OW29449   2.165   3.202   3.290  0.5250 -0.4301 -0.0635
 5996SOL    HW129450   2.087   3.164   3.331  0.8876 -1.0256  0.0854
 5996SOL    HW229451   2.144   3.293   3.268 -1.9603 -1.3065 -1.3659
 5997SOL     OW29452   0.994   1.983   2.467 -0.2749  0.0344 -0.4681
 5997SOL    HW129453   1.058   2.033   2.517 -0.2732 -2.0581  1.6028
 5997SOL    HW229454   1.036   1.975   2.381  1.3919 -1.8249  0.5466
 5998SOL     OW29455   3.431   1.910   4.378  0.2668 -0.0964  0.3203
 5998SOL    HW129456   3.462   1.865   4.300  1.2587  0.9250  0.1163
 5998SOL    HW229457   3.517   1.921   4.421 -0.6283  0.5738  1.9557
 5999SOL     OW29458   2.513   2.542  15.515 -0.4869  0.1101 -0.2040
 5999SOL    HW129459   2.585   2.540  15.578  0.0572 -3.3561 -0.9542
 5999SOL    HW229460   2.549   2.462  15.478  1.8006 -0.2293  2.7552
 6000SOL     OW29461   0.010   1.744   7.652  0.0067 -0.7089 -0.2262
 6000SOL    HW129462   4.690   1.661   7.642 -1.9250  0.5169 -1.4726
 6000SOL    HW229463   4.694   1.776   7.732  0.2624 -0.2273 -0.2842
 6001SOL     OW29464   3.598   1.427   6.714 -0.1776  0.5026  0.4439
 6001SOL    HW129465   3.530   1.479   6.671 -1.6971 -1.2185  0.7290
 6001SOL    HW229466   3.556   1.344   6.736  0.3117  0.2441  0.4061
 6002SOL     OW29467   3.210   0.684   9.374 -0.1328  0.2066 -0.6354
 6002SOL    HW129468   3.203   0.770   9.334  0.9395  1.5313  2.0398
 6002SOL    HW229469   3.274   0.645   9.315 -1.3100 -0.4827 -1.4686
 6003SOL     OW29470   2.988   2.099   0.828 -0.1552  0.2719 -0.0920
 6003SOL    HW129471   2.955   2.009   0.821  2.0668 -0.6159  0.9051
 6003SOL    HW229472   2.923   2.136   0.768  0.0253 -0.1599 -0.5495
 6004SOL     OW29473   3.842   2.022   3.511  0.1094  0.0972 -0.3192
 6004SOL    HW129474   3.900   2.096   3.526  1.1402 -0.8504  0.4211
 6004SOL    HW229475   3.757   2.063   3.499 -1.6934 -2.9129  2.3259
 6005SOL     OW29476   4.597   2.512  16.791 -0.0875  0.0699 -0.1574
 6005SOL    HW129477   4.691   2.523  16.775 -0.0793 -1.6877 -1.3591
 6005SOL    HW229478   4.566   2.600  16.771 -0.0358  0.6725  2.4023
 6006SOL     OW29479   3.814   0.246   6.990  0.5123  0.0426  0.3137
 6006SOL    HW129480   3.864   0.165   7.000  0.4333 -0.1143 -0.5835
 6006SOL    HW229481   3.822   0.279   7.080 -1.1512 -0.8478  0.7816
 6007SOL     OW29482   2.887   4.173   0.635 -0.5636  0.2842 -0.3647
 6007SOL    HW129483   2.846   4.221   0.563  2.1125  1.2381 -1.2590
 6007SOL    HW229484   2.953   4.233   0.668 -2.8981  1.1747  2.7484
 6008SOL     OW29485   0.495   1.095   3.588 -0.4243 -0.6449  0.0475
 6008SOL    HW129486   0.409   1.121   3.621 -0.2853 -0.5123  0.3054
 6008SOL    HW229487   0.498   1.148   3.509  1.9873 -0.4108  0.3099
 6009SOL     OW29488   1.857   0.819  11.711  0.0493  0.2697  0.4862
 6009SOL    HW129489   1.868   0.737  11.759  0.0879  1.3118  2.2424
 6009SOL    HW229490   1.885   0.790  11.624  3.9740 -0.5722  2.0007
 6010SOL     OW29491   0.582   3.917   7.217  0.2154  0.3388 -0.8547
 6010SOL    HW129492   0.507   3.943   7.270  2.1413  0.4420  1.8431
 6010SOL    HW229493   0.635   3.887   7.291 -0.5442 -0.3682 -0.5927
 6011SOL     OW29494   1.134   3.312   4.500 -0.2261 -0.3873  0.1292
 6011SOL    HW129495   1.119   3.384   4.562  0.6189 -0.0765 -0.0198
 6011SOL    HW229496   1.228   3.329   4.497  0.0106 -1.5985  0.5544
 6012SOL     OW29497   1.410   4.031  11.779 -0.0658  0.5604 -0.2722
 6012SOL    HW129498   1.395   4.043  11.685  2.7282  0.4816 -0.7279
 6012SOL    HW229499   1.323   4.000  11.804 -0.0016 -0.8375 -1.7720
 6013SOL     OW29500   3.372   3.223   5.696  0.4694  0.2365  0.0069
 6013SOL    HW129501   3.301   3.160   5.711  0.1031  0.5384 -0.4424
 6013SOL    HW229502   3.443   3.170   5.662 -0.6780 -0.4847 -1.2795
 6014SOL     OW29503   2.916   2.027   8.320  0.3642  0.3214  0.0615
 6014SOL    HW129504   2.942   1.980   8.241 -1.8436  1.2999 -1.2269
 6014SOL    HW229505   2.986   2.093   8.314  1.1531 -0.4001  1.3680
 6015SOL     OW29506   3.859   1.056  12.047  0.0836  0.0154 -0.1243
 6015SOL    HW129507   3.905   1.121  11.995 -1.3616  0.7445 -0.4909
 6015SOL    HW229508   3.803   1.026  11.975 -0.7097 -1.3601  1.0614
 6016SOL     OW29509   3.168   4.085  12.712 -0.3129 -0.5235 -0.1354
 6016SOL    HW129510   3.203   4.038  12.787 -1.3215  1.5456  1.6187
 6016SOL    HW229511   3.119   4.014  12.669 -0.4936 -0.4031 -0.1275
 6017SOL     OW29512   4.021   3.675   4.784  0.1312 -0.1309 -0.0891
 6017SOL    HW129513   3.982   3.671   4.696  0.9547  1.8340 -0.5414
 6017SOL    HW229514   3.938   3.680   4.831 -0.3963 -0.7338 -0.9551
 6018SOL     OW29515   0.939   0.833  17.533  0.3512 -0.4680 -0.4270
 6018SOL    HW129516   0.878   0.851  17.604  0.7944 -1.8938  0.3168
 6018SOL    HW229517   1.020   0.820  17.582 -0.8233 -1.4581  1.2364
 6019SOL     OW29518   0.394   1.886   5.989  0.2478  0.0224  0.1693
 6019SOL    HW129519   0.387   1.965   5.935 -0.7948  0.2438  0.6463
 6019SOL    HW229520   0.337   1.906   6.063 -1.7170 -1.8486 -0.8462
 6020SOL     OW29521   4.663   0.084   4.495 -0.8571  0.6661 -0.2989
 6020SOL    HW129522   4.682   0.026   4.569  0.6455  1.7240  0.1386
 6020SOL    HW229523   4.700   0.161   4.537  0.5337 -0.3168  0.2740
 6021SOL     OW29524   4.632   4.573   7.444 -0.4141 -0.2415 -0.6215
 6021SOL    HW129525   4.562   4.513   7.420  0.5801 -1.7936  0.3796
 6021SOL    HW229526   4.687   4.515   7.496 -1.3392  0.1403  0.8054
 6022SOL     OW29527   0.282   1.530  12.237 -0.7177 -0.0003 -0.4963
 6022SOL    HW129528   0.239   1.475  12.302 -1.7476  1.2076 -0.1433
 6022SOL    HW229529   0.321   1.595  12.295  1.5585 -0.2695 -1.7462
 6023SOL     OW29530   0.602   3.099   8.058 -0.3621 -0.2288 -0.4500
 6023SOL    HW129531   0.525   3.050   8.028  0.0721 -0.1045 -1.7492
 6023SOL    HW229532   0.611   3.157   7.982  0.3798  0.6517  0.3155
 6024SOL     OW29533   2.293   1.978   9.228  0.1837  0.2153 -0.4012
 6024SOL    HW129534   2.204   1.970   9.261  0.4976 -0.5540  0.2863
 6024SOL    HW229535   2.335   2.029   9.298  2.7271 -3.1443  0.5245
 6025SOL     OW29536   3.549   2.151   8.033 -0.5008  0.5121 -0.6505
 6025SOL    HW129537   3.622   2.150   8.095 -1.7023  0.7189  0.7710
 6025SOL    HW229538   3.487   2.195   8.091  0.8409  0.6198  0.7237
 6026SOL     OW29539   0.167   3.011  16.600  0.7990  0.2146  0.0327
 6026SOL    HW129540   0.081   3.033  16.564 -0.4278  0.0092  2.8855
 6026SOL    HW229541   0.190   2.950  16.530 -0.4812 -0.5366  0.2700
 6027SOL     OW29542   4.392   1.304   2.431 -0.0710 -0.4131 -0.6645
 6027SOL    HW129543   4.412   1.397   2.425  2.3322 -0.9111 -0.4504
 6027SOL    HW229544   4.463   1.270   2.485  0.3279  1.7715  0.1734
 6028SOL     OW29545   4.505   1.130   7.884  0.3675  0.0352 -0.0154
 6028SOL    HW129546   4.440   1.071   7.920  1.3239  0.0782  1.7912
 6028SOL    HW229547   4.570   1.075   7.840 -1.1598 -1.7652 -0.0035
 6029SOL     OW29548   3.464   0.594  12.371 -0.0894  0.2306 -0.1979
 6029SOL    HW129549   3.471   0.679  12.327  2.5458 -0.3096 -0.8082
 6029SOL    HW229550   3.553   0.579  12.403  0.3351  3.6783  0.2345
 6030SOL     OW29551   2.540   3.649   9.269 -0.1058  0.1633  0.2977
 6030SOL    HW129552   2.623   3.692   9.287 -0.3169  0.8386 -0.3291
 6030SOL    HW229553   2.560   3.576   9.327  1.0926 -0.0002 -0.3317
 6031SOL     OW29554   2.896   4.188  11.956  0.2026 -0.7514 -0.1254
 6031SOL    HW129555   2.817   4.168  12.007 -2.2405 -0.9161 -3.9498
 6031SOL    HW229556   2.897   4.282  11.972  1.1479 -0.8236  0.2753
 6032SOL     OW29557   2.176   0.381   4.804  0.3053 -0.2062 -0.2281
 6032SOL    HW129558   2.219   0.456   4.846 -1.2312  0.0350  0.8872
 6032SOL    HW229559   2.213   0.306   4.850 -1.1019 -1.1003 -0.5793
 6033SOL     OW29560   2.286   2.498   3.685 -0.2855  0.9003 -0.6331
 6033SOL    HW129561   2.249   2.412   3.663  0.9988 -0.3707  2.2243
 6033SOL    HW229562   2.212   2.559   3.677 -1.2690 -0.5034 -2.3008
 6034SOL     OW29563   4.308   2.403  16.638  0.0140 -0.6494  0.1183
 6034SOL    HW129564   4.360   2.344  16.692  1.5417 -1.9624 -2.8355
 6034SOL    HW229565   4.345   2.396  16.550  0.9616 -0.1411  0.4748
 6035SOL     OW29566   3.493   4.558  10.956  0.1436 -0.4691 -0.6331
 6035SOL    HW129567   3.459   4.518  11.036 -1.1647 -1.8677 -1.8893
 6035SOL    HW229568   3.582   4.576  10.985 -0.5116  1.5263  0.1727
 6036SOL     OW29569   0.194   2.602   7.786  0.1815  0.3149 -0.3124
 6036SOL    HW129570   0.102   2.602   7.760  0.0101 -1.7055  0.3054
 6036SOL    HW229571   0.220   2.538   7.719 -1.4331 -2.3600  1.5862
 6037SOL     OW29572   4.074   1.308   0.044 -0.3726 -0.3030  0.4498
 6037SOL    HW129573   3.985   1.330   0.015 -1.1877 -1.8235  1.7625
 6037SOL    HW229574   4.114   1.395   0.038  0.2848 -0.7397 -1.5842
 6038SOL     OW29575   1.792   3.165   8.638 -0.2846  0.0077 -0.3957
 6038SOL    HW129576   1.778   3.158   8.544  2.1103 -0.2613 -0.7280
 6038SOL    HW229577   1.754   3.090   8.683  1.5059  1.0520  2.8657
 6039SOL     OW29578   3.724   1.744   0.603  0.7393  0.3705 -0.2295
 6039SOL    HW129579   3.795   1.775   0.547  0.8804 -1.1442 -0.8949
 6039SOL    HW229580   3.714   1.651   0.584 -0.7399  0.4067  0.3378
 6040SOL     OW29581   3.051   1.791   2.502  0.4756 -0.2389 -0.4652
 6040SOL    HW129582   3.011   1.728   2.442 -0.3915  0.2229 -0.3662
 6040SOL    HW229583   3.014   1.874   2.473  1.5777  0.3969 -0.0731
 6041SOL     OW29584   0.211   0.874   1.136  0.2796 -0.2092 -0.4383
 6041SOL    HW129585   0.294   0.859   1.091  1.8964  0.3416  2.3471
 6041SOL    HW229586   0.211   0.967   1.115  1.3012 -0.0409  0.2840
 6042SOL     OW29587   2.400   2.124  15.440 -0.5186 -0.0186 -0.0427
 6042SOL    HW129588   2.494   2.133  15.455 -0.3677  0.6906 -1.4156
 6042SOL    HW229589   2.385   2.080  15.524 -0.3778  0.6898  0.3469
 6043SOL     OW29590   2.189   3.993  13.114  0.2277  0.2140 -0.0880
 6043SOL    HW129591   2.216   4.021  13.201 -0.6037  0.1497  0.1882
 6043SOL    HW229592   2.095   4.002  13.131 -0.2613 -1.4663 -1.8478
 6044SOL     OW29593   0.730   3.363   9.747 -0.2410 -0.0452  0.6101
 6044SOL    HW129594   0.812   3.316   9.731 -2.3722 -3.1582 -1.2366
 6044SOL    HW229595   0.696   3.318   9.825 -0.3047  1.6711  1.5691
 6045SOL     OW29596   3.402   3.961   1.904 -0.0006  0.0921  0.0085
 6045SOL    HW129597   3.373   4.033   1.960 -2.0616  0.3601 -1.4556
 6045SOL    HW229598   3.496   3.980   1.914  0.0933 -0.9071  1.0806
 6046SOL     OW29599   2.280   1.251  10.326 -0.1364 -0.1430  0.1928
 6046SOL    HW129600   2.372   1.264  10.347 -0.5921 -1.0300  2.8937
 6046SOL    HW229601   2.291   1.171  10.275  0.8404  0.0533  0.1014
 6047SOL     OW29602   0.763   2.444   7.637 -0.4708 -0.1719 -0.1507
 6047SOL    HW129603   0.749   2.350   7.627 -4.5526  0.3804  0.3521
 6047SOL    HW229604   0.766   2.468   7.544  1.6681 -0.5687 -0.1808
 6048SOL     OW29605   0.222   1.186   5.545  0.4989 -0.1239  0.7095
 6048SOL    HW129606   0.288   1.139   5.596  0.9753  1.5084  1.5785
 6048SOL    HW229607   0.255   1.273   5.565  1.0618  0.1004 -1.2766
 6049SOL     OW29608   2.356   2.972   3.921  0.0945 -0.1208 -0.3676
 6049SOL    HW129609   2.403   2.967   4.004  0.8390  1.1959 -0.7118
 6049SOL    HW229610   2.268   2.996   3.949 -0.2296 -1.2024 -0.4477
 6050SOL     OW29611   4.237   2.250   9.778 -0.1227 -0.7466 -0.1434
 6050SOL    HW129612   4.143   2.243   9.766 -0.1089 -0.6826 -0.2967
 6050SOL    HW229613   4.236   2.309   9.853 -1.6789 -1.2031  0.1734
 6051SOL     OW29614   1.858   2.642  12.678 -0.2794  0.1020  0.0096
 6051SOL    HW129615   1.871   2.701  12.604  1.9728 -1.1503 -0.5973
 6051SOL    HW229616   1.923   2.680  12.738 -0.9577  0.2253  0.6667
 6052SOL     OW29617   2.880   4.321   8.085  0.1012  0.0209 -0.4592
 6052SOL    HW129618   2.952   4.295   8.143 -1.3653 -0.5326  1.1376
 6052SOL    HW229619   2.928   4.313   8.003  1.5062 -1.3864  0.4882
 6053SOL     OW29620   3.712   4.116   6.435 -0.3887  0.0564  0.2008
 6053SOL    HW129621   3.770   4.120   6.359 -0.0136 -1.5615  0.4063
 6053SOL    HW229622   3.763   4.059   6.493 -0.1628  0.4724  0.4116
 6054SOL     OW29623   4.117   1.007   6.518  0.0606  0.1837  0.6033
 6054SOL    HW129624   4.108   0.971   6.606  2.7010 -0.4882  0.5998
 6054SOL    HW229625   4.117   1.099   6.546  2.3642  0.3810  0.0239
 6055SOL     OW29626   3.194   3.207  14.596  0.1928  0.3376  0.2373
 6055SOL    HW129627   3.251   3.133  14.616  1.6253  1.1118 -0.9593
 6055SOL    HW229628   3.105   3.171  14.592  0.1166  0.5559  0.0055
 6056SOL     OW29629   1.918   0.344   5.863  0.0064  0.7512 -0.4846
 6056SOL    HW129630   1.860   0.420   5.863 -2.7590 -1.3610 -2.7996
 6056SOL    HW229631   1.881   0.304   5.942  0.9399  1.8908  0.5308
 6057SOL     OW29632   4.234   1.536   1.271  0.3337 -0.5021 -0.1645
 6057SOL    HW129633   4.268   1.451   1.298  1.4877  0.1594  0.4661
 6057SOL    HW229634   4.267   1.591   1.343 -0.6166  0.9683 -0.8581
 6058SOL     OW29635   2.205   2.994   7.129  0.1389  0.1816  0.0611
 6058SOL    HW129636   2.183   2.943   7.207  0.6561  0.1290  0.1764
 6058SOL    HW229637   2.282   3.042   7.160 -0.0674 -0.6573  1.8928
 6059SOL     OW29638   0.315   3.120  17.455 -0.1564  0.3710  0.5960
 6059SOL    HW129639   0.287   3.070  17.377 -1.1557  1.0560  0.5215
 6059SOL    HW229640   0.337   3.200  17.407  0.6555 -0.4207 -0.3597
 6060SOL     OW29641   0.259   2.803   2.820  0.5315 -0.2153 -0.4271
 6060SOL    HW129642   0.223   2.726   2.776  0.3496  0.0833 -0.8059
 6060SOL    HW229643   0.318   2.834   2.751  1.8692  1.2693  1.3433
 6061SOL     OW29644   4.457   2.644   0.085 -0.0877  0.0930  0.1592
 6061SOL    HW129645   4.374   2.599   0.069 -0.5142  0.8377  0.2359
 6061SOL    HW229646   4.443   2.694   0.165  0.8498  0.4754  0.0756
 6062SOL     OW29647   0.916   0.547  16.960  0.1421 -0.3603  0.0195
 6062SOL    HW129648   0.840   0.524  17.013 -0.3989 -1.5993 -1.2884
 6062SOL    HW229649   0.882   0.632  16.932  1.0970 -0.6300 -2.0113
 6063SOL     OW29650   1.203   4.059   6.250  0.6472  0.4540 -0.6556
 6063SOL    HW129651   1.296   4.081   6.249  0.7409  0.2394  1.8774
 6063SOL    HW229652   1.170   4.149   6.262 -1.3178 -0.4567  0.7813
 6064SOL     OW29653   1.565   1.919   8.840  0.4958  0.0568  0.5020
 6064SOL    HW129654   1.525   1.967   8.912 -0.3240 -1.5873  1.1516
 6064SOL    HW229655   1.493   1.857   8.824 -0.0695  0.7812  0.2044
 6065SOL     OW29656   4.550   3.878   7.308 -0.0331  0.4172 -0.4447
 6065SOL    HW129657   4.492   3.822   7.257  1.2535 -0.5300 -0.8606
 6065SOL    HW229658   4.496   3.939   7.360 -2.7208 -2.2960 -0.0304
 6066SOL     OW29659   1.899   2.551  14.218  0.0133 -0.0536  0.0517
 6066SOL    HW129660   1.912   2.538  14.124  1.2166  0.3330  0.1670
 6066SOL    HW229661   1.982   2.592  14.244  1.7612 -2.2566 -2.0319
 6067SOL     OW29662   2.105   0.776   6.692 -0.5943  0.6440  0.0208
 6067SOL    HW129663   2.199   0.762   6.696 -0.4946  1.5461  0.9217
 6067SOL    HW229664   2.107   0.872   6.695 -1.9403  0.6508  0.9397
 6068SOL     OW29665   2.880   1.405   5.184  0.0726 -0.6042  0.4750
 6068SOL    HW129666   2.821   1.450   5.123 -0.5632  1.2470  2.4394
 6068SOL    HW229667   2.855   1.313   5.172 -0.0230 -0.3978 -0.9117
 6069SOL     OW29668   2.469   2.697   9.371  0.1907 -0.0725  0.2474
 6069SOL    HW129669   2.536   2.629   9.376  0.4147  0.2221  1.3235
 6069SOL    HW229670   2.402   2.648   9.323 -0.4378  0.5328  0.5106
 6070SOL     OW29671   4.683   2.199  16.228  0.2758 -0.4543  0.1025
 6070SOL    HW129672   0.046   2.176  16.256  0.3422  0.6517  0.7598
 6070SOL    HW229673   4.648   2.114  16.256 -0.4718  0.0733  0.7586
 6071SOL     OW29674   0.019   0.026   4.833 -0.6856 -0.3627 -0.4801
 6071SOL    HW129675   0.042   4.685   4.768 -0.0693  0.5230 -1.1682
 6071SOL    HW229676   0.070   0.104   4.809  2.0789 -1.4123  1.9070
 6072SOL     OW29677   1.035   0.935   6.466  0.5946  0.1653  0.2008
 6072SOL    HW129678   0.988   0.993   6.407 -0.4092 -0.2914  0.5458
 6072SOL    HW229679   1.081   0.881   6.402 -1.7661 -3.1687  1.2947
 6073SOL     OW29680   0.514   0.608   6.556  0.1869 -0.6821  0.4858
 6073SOL    HW129681   0.492   0.686   6.607 -0.4497  0.4595 -1.5108
 6073SOL    HW229682   0.429   0.574   6.530  0.2345 -0.5813  0.1996
 6074SOL     OW29683   3.559   1.430   9.181  0.2374  0.7734  0.4377
 6074SOL    HW129684   3.529   1.340   9.167 -0.7261  1.4050 -1.5069
 6074SOL    HW229685   3.542   1.442   9.275 -1.8404 -0.1073  0.1723
 6075SOL     OW29686   1.220   3.714   4.672 -0.0945 -0.4829 -0.1646
 6075SOL    HW129687   1.198   3.628   4.707 -3.4034  1.6303  2.9139
 6075SOL    HW229688   1.214   3.698   4.578 -4.0711  0.2424 -0.0358
 6076SOL     OW29689   2.291   3.415   7.877 -0.1932  0.2237 -0.1383
 6076SOL    HW129690   2.320   3.429   7.967 -2.1761  0.9440  0.3728
 6076SOL    HW229691   2.340   3.335   7.856 -0.4118  0.3767 -1.2603
 6077SOL     OW29692   4.705   1.333   5.550  0.3500 -0.1076  0.3224
 6077SOL    HW129693   0.033   1.256   5.533  1.3530  0.6914 -0.1260
 6077SOL    HW229694   4.636   1.294   5.603  0.8817 -1.8829 -0.2653
 6078SOL     OW29695   1.866   3.273   8.320 -0.2017  0.1588 -0.4339
 6078SOL    HW129696   1.946   3.324   8.309  1.2165 -1.4858  2.0432
 6078SOL    HW229697   1.805   3.346   8.326  2.0774  1.9741  1.0093
 6079SOL     OW29698   3.229   1.406   9.836  0.3904 -0.3481 -0.0395
 6079SOL    HW129699   3.282   1.356   9.898  0.8927 -0.5502 -0.6265
 6079SOL    HW229700   3.250   1.497   9.856 -0.5518 -0.0948 -0.2148
 6080SOL     OW29701   2.388   2.965   7.507  0.2185 -0.4619 -0.1356
 6080SOL    HW129702   2.424   2.915   7.434  0.4275 -2.6834  1.4757
 6080SOL    HW229703   2.442   3.044   7.509  0.0543 -0.3761  1.1563
 6081SOL     OW29704   4.463   2.188  15.050 -0.5383 -0.0722 -0.5989
 6081SOL    HW129705   4.474   2.282  15.042 -2.6999  0.2991  0.6877
 6081SOL    HW229706   4.548   2.172  15.090 -1.2860  0.9082  1.3869
 6082SOL     OW29707   4.238   4.498   6.340  0.0098 -0.3781  0.5758
 6082SOL    HW129708   4.189   4.512   6.421 -3.4146  0.6401 -1.6569
 6082SOL    HW229709   4.315   4.551   6.360 -0.1883  0.3789 -0.5888
 6083SOL     OW29710   1.350   0.294   4.397 -0.1280  0.3805  0.0293
 6083SOL    HW129711   1.352   0.366   4.459  0.3335 -1.0287  1.6391
 6083SOL    HW229712   1.420   0.321   4.338 -0.1594 -0.0575 -0.2130
 6084SOL     OW29713   3.767   3.284  16.084 -0.2937 -0.1070  0.0590
 6084SOL    HW129714   3.840   3.226  16.065 -1.1634 -0.9296 -0.7603
 6084SOL    HW229715   3.700   3.248  16.026  0.3011 -1.6761  0.3335
 6085SOL     OW29716   0.256   2.998   8.665 -0.0852  0.9394 -0.5371
 6085SOL    HW129717   0.212   2.961   8.588  0.6235  3.6237 -2.2290
 6085SOL    HW229718   0.345   3.012   8.631 -0.5578  2.1611 -1.2789
 6086SOL     OW29719   3.300   3.130   7.387 -0.4563  0.1463 -0.3281
 6086SOL    HW129720   3.381   3.135   7.337 -0.8160 -0.0513 -0.9216
 6086SOL    HW229721   3.270   3.040   7.378 -1.0537  0.4455 -1.2826
 6087SOL     OW29722   4.656   4.102  13.179  0.7290  0.1419  0.1797
 6087SOL    HW129723   4.644   4.053  13.097 -2.1669  1.7777 -0.3605
 6087SOL    HW229724   4.577   4.155  13.186  1.9316  1.6906  2.2011
 6088SOL     OW29725   1.026   2.867  14.680  0.7911 -0.0060  0.3073
 6088SOL    HW129726   1.058   2.917  14.755  0.0828  0.5273  0.2578
 6088SOL    HW229727   1.007   2.926  14.607 -0.7346 -0.2234  0.5215
 6089SOL     OW29728   2.841   4.084   9.671 -0.5202  0.3082 -0.4009
 6089SOL    HW129729   2.925   4.102   9.714 -0.1345 -4.0137  0.6706
 6089SOL    HW229730   2.772   4.103   9.735  1.4740 -0.8730  2.0982
 6090SOL     OW29731   2.382   1.239   1.887 -0.3211 -0.1225  0.3804
 6090SOL    HW129732   2.387   1.150   1.853  0.8313 -0.1710  0.6732
 6090SOL    HW229733   2.469   1.245   1.926 -1.0379 -0.3690  2.0195
 6091SOL     OW29734   2.052   1.043  13.294 -0.5089  0.1628 -0.6729
 6091SOL    HW129735   2.067   1.060  13.201  1.1767 -1.3283 -0.6670
 6091SOL    HW229736   2.023   1.130  13.320 -0.3701 -0.1745  0.5949
 6092SOL     OW29737   4.059   0.402  13.738 -0.1427  0.1314 -0.1452
 6092SOL    HW129738   4.069   0.312  13.768 -0.8389 -0.9155 -3.0581
 6092SOL    HW229739   4.140   0.407  13.687  0.8023 -0.6643  1.2745
 6093SOL     OW29740   2.987   0.358  10.252  0.0690  0.0582 -0.3601
 6093SOL    HW129741   3.081   0.372  10.262  0.1124 -0.8896  0.5266
 6093SOL    HW229742   2.946   0.363  10.338  1.2229 -0.3166  0.2118
 6094SOL     OW29743   0.317   0.302   7.986 -0.1421  0.7361  0.3989
 6094SOL    HW129744   0.375   0.245   8.037 -1.1987  1.2887  2.2127
 6094SOL    HW229745   0.365   0.385   7.985  0.4701  0.3914  0.9200
 6095SOL     OW29746   2.386   1.486   8.457 -0.1499 -0.0305 -0.1329
 6095SOL    HW129747   2.386   1.553   8.526  1.1760 -1.2182  1.0112
 6095SOL    HW229748   2.470   1.500   8.414  0.3942 -0.7708  0.6838
 6096SOL     OW29749   3.642   2.787   3.225  0.7289 -0.4712 -0.3633
 6096SOL    HW129750   3.709   2.840   3.269 -1.6676  2.0760  0.2014
 6096SOL    HW229751   3.559   2.825   3.253  1.4716 -0.8995  2.3614
 6097SOL     OW29752   3.927   0.484   4.056  0.0656 -0.0912  0.6712
 6097SOL    HW129753   4.013   0.447   4.036 -0.4529 -0.8057 -0.2154
 6097SOL    HW229754   3.916   0.457   4.147 -1.4743 -0.3574  0.4037
 6098SOL     OW29755   3.003   4.212   8.316 -0.1465 -0.2074 -0.1286
 6098SOL    HW129756   3.089   4.179   8.343 -0.0777 -1.0691 -1.3874
 6098SOL    HW229757   2.987   4.295   8.360  3.2072 -0.4953  1.5943
 6099SOL     OW29758   0.896   3.675   2.156 -0.0785 -0.0010  0.1667
 6099SOL    HW129759   0.866   3.691   2.246 -1.2789  0.3829 -0.3050
 6099SOL    HW229760   0.918   3.582   2.156 -0.4782 -0.0825 -1.6477
 6100SOL     OW29761   4.323   4.579  14.454 -0.2727  0.0316 -0.2808
 6100SOL    HW129762   4.270   4.502  14.437 -2.1914  1.4437 -0.6650
 6100SOL    HW229763   4.306   4.650  14.392  0.5109 -0.8053 -1.4489
 6101SOL     OW29764   4.192   2.188  10.854  0.1859 -0.2109 -0.2861
 6101SOL    HW129765   4.120   2.174  10.793 -0.5831  2.7458 -0.0758
 6101SOL    HW229766   4.255   2.206  10.784  1.7292 -3.2070  0.3354
 6102SOL     OW29767   3.710   1.885   7.497  0.0925  0.0614  0.4038
 6102SOL    HW129768   3.673   1.820   7.438 -0.2509  0.9214 -0.3221
 6102SOL    HW229769   3.801   1.863   7.476  0.3723 -0.0725  1.7146
 6103SOL     OW29770   1.430   3.493   5.147 -0.2705  0.6968  0.2061
 6103SOL    HW129771   1.343   3.484   5.109 -0.0826  0.0603 -0.0690
 6103SOL    HW229772   1.404   3.512   5.237  2.3335  0.7795  0.9560
 6104SOL     OW29773   2.667   2.294   8.111 -0.2639  0.0294 -0.0570
 6104SOL    HW129774   2.753   2.310   8.149 -0.6975  1.8840  0.1600
 6104SOL    HW229775   2.663   2.370   8.053  0.5571  0.3354  0.2984
 6105SOL     OW29776   3.837   2.502   8.694 -0.4370 -0.0583 -0.2033
 6105SOL    HW129777   3.932   2.489   8.699 -0.5917 -1.3402 -0.6604
 6105SOL    HW229778   3.796   2.419   8.671  0.7902 -0.4061 -1.1307
 6106SOL     OW29779   3.660   4.373   3.370 -0.1879 -0.5697  0.0242
 6106SOL    HW129780   3.670   4.280   3.350  0.9446 -0.2401 -0.9791
 6106SOL    HW229781   3.587   4.395   3.312  1.1893  1.4353 -0.9578
 6107SOL     OW29782   0.013   2.246   3.396 -0.8071  0.3822 -0.0432
 6107SOL    HW129783   4.700   2.334   3.392  0.8714  1.2104  1.8262
 6107SOL    HW229784   4.668   2.186   3.374 -0.5382  0.4964 -1.2162
 6108SOL     OW29785   4.005   2.066   0.961 -0.0022  0.0771 -0.2942
 6108SOL    HW129786   4.065   2.017   1.017 -1.1751  0.5411  1.3883
 6108SOL    HW229787   3.957   1.993   0.924 -1.4732 -0.0427  1.8801
 6109SOL     OW29788   1.886   3.759  15.805 -0.4376  0.1404  0.0832
 6109SOL    HW129789   1.830   3.784  15.879 -1.4447  0.1555 -0.6865
 6109SOL    HW229790   1.955   3.714  15.855 -1.2223  0.1214  1.1419
 6110SOL     OW29791   0.661   2.126   2.963 -0.1097  0.1059 -0.0930
 6110SOL    HW129792   0.643   2.188   2.892  0.4364 -0.6170 -0.8595
 6110SOL    HW229793   0.695   2.049   2.917 -2.2857 -0.8099 -0.1899
 6111SOL     OW29794   1.749   1.204   8.460  0.8472 -0.1095  0.1144
 6111SOL    HW129795   1.664   1.165   8.441  1.6641 -0.9400 -1.8954
 6111SOL    HW229796   1.806   1.127   8.462  1.1983  0.1681  0.5757
 6112SOL     OW29797   4.593   1.186  12.211  0.1305 -0.0345  0.0351
 6112SOL    HW129798   4.502   1.168  12.187  0.6020  0.7746 -2.3624
 6112SOL    HW229799   4.579   1.273  12.249  1.3801 -0.2619  1.0180
 6113SOL     OW29800   2.777   3.818   6.315  0.0088  0.2991  0.0824
 6113SOL    HW129801   2.849   3.850   6.369  0.7234 -2.3227  0.6735
 6113SOL    HW229802   2.769   3.728   6.346 -0.8373  0.3489  0.0155
 6114SOL     OW29803   2.580   4.062   4.230 -0.5702  0.6291 -0.4146
 6114SOL    HW129804   2.644   4.120   4.272  1.5843 -1.2212 -1.1281
 6114SOL    HW229805   2.491   4.078   4.262  0.4290 -3.3882  4.4947
 6115SOL     OW29806   2.447   3.356   6.132 -0.0729 -0.1138 -0.8428
 6115SOL    HW129807   2.480   3.269   6.112  0.7886 -0.0948  0.4831
 6115SOL    HW229808   2.517   3.419   6.117 -1.2997  1.4150 -0.2120
 6116SOL     OW29809   0.252   2.667  15.905  0.0249 -0.5664 -0.0478
 6116SOL    HW129810   0.243   2.577  15.874  1.3827 -1.0625  0.9664
 6116SOL    HW229811   0.176   2.716  15.874  0.1751 -0.2949  0.0159
 6117SOL     OW29812   0.116   2.074   9.937 -0.3599  0.4297  0.1772
 6117SOL    HW129813   0.030   2.033   9.933  0.4118 -0.9200 -2.4135
 6117SOL    HW229814   0.146   2.077   9.846 -0.5194  0.0961  0.1155
 6118SOL     OW29815   0.152   0.400  13.154 -0.5143  0.4790 -0.0089
 6118SOL    HW129816   0.124   0.453  13.080  0.9054 -1.8129 -2.1787
 6118SOL    HW229817   0.185   0.323  13.107 -0.7069  0.8548 -0.7506
 6119SOL     OW29818   1.074   0.715   8.894 -0.5735  0.2711 -0.9430
 6119SOL    HW129819   1.090   0.739   8.803 -2.1902 -0.5546 -1.4455
 6119SOL    HW229820   0.995   0.662   8.881  0.7449 -1.1406 -3.2025
 6120SOL     OW29821   3.659   0.707  12.920 -0.0605 -0.1943  0.3700
 6120SOL    HW129822   3.722   0.741  12.984 -0.5719 -0.4648  1.0151
 6120SOL    HW229823   3.596   0.776  12.940 -2.4417 -2.3511  0.3497
 6121SOL     OW29824   1.834   2.957   5.666  0.4814 -0.1379 -0.2661
 6121SOL    HW129825   1.821   3.033   5.610 -2.1180 -0.5000 -0.1665
 6121SOL    HW229826   1.755   2.910   5.639  1.4612 -0.6385 -2.2755
 6122SOL     OW29827   0.453   1.128  13.627 -0.0672  0.0839  0.2009
 6122SOL    HW129828   0.477   1.221  13.630 -1.2353  0.4752 -2.5548
 6122SOL    HW229829   0.511   1.089  13.562  0.3178  0.5382  0.2695
 6123SOL     OW29830   2.017   0.325   3.923  0.0064 -0.3385 -0.1574
 6123SOL    HW129831   2.011   0.417   3.948 -0.2258 -0.7537  1.2913
 6123SOL    HW229832   2.063   0.295   4.001 -0.3469 -4.2938 -1.4666
 6124SOL     OW29833   2.620   2.997  14.308 -0.3949  0.1009  0.6267
 6124SOL    HW129834   2.633   3.031  14.396 -0.8740  2.0084 -0.0367
 6124SOL    HW229835   2.588   2.909  14.323  1.0246 -0.7621 -1.3453
 6125SOL     OW29836   2.374   2.489   9.189  0.5216 -0.4225  0.3289
 6125SOL    HW129837   2.293   2.474   9.238  0.0863 -2.0484 -0.9057
 6125SOL    HW229838   2.432   2.426   9.234 -0.0784 -1.7674 -0.7739
 6126SOL     OW29839   0.423   1.461   3.564 -0.5381  0.4028 -0.4336
 6126SOL    HW129840   0.444   1.526   3.631 -2.4606  0.2288  0.3569
 6126SOL    HW229841   0.330   1.475   3.545 -0.9941 -0.8579  0.8940
 6127SOL     OW29842   1.309   4.245  14.760  0.5652 -0.1843 -0.3414
 6127SOL    HW129843   1.253   4.167  14.756 -0.4407  0.4894  0.5646
 6127SOL    HW229844   1.345   4.246  14.671  1.2359 -0.3640 -0.0680
 6128SOL     OW29845   1.723   0.020   8.148  0.1337 -0.1644  0.0967
 6128SOL    HW129846   1.641   4.701   8.168  0.5538  0.3049  2.9166
 6128SOL    HW229847   1.694   0.096   8.097  2.8849  0.2746 -0.7928
 6129SOL     OW29848   4.047   2.664   2.727  0.1959 -0.1972 -0.6577
 6129SOL    HW129849   4.089   2.586   2.693 -2.2121 -1.3955 -0.9258
 6129SOL    HW229850   4.121   2.709   2.766 -0.2016 -0.7098  0.6839
 6130SOL     OW29851   2.934   3.851  11.114 -0.1568 -0.3624 -0.0492
 6130SOL    HW129852   2.897   3.927  11.070 -0.9215 -0.8723 -0.2809
 6130SOL    HW229853   2.908   3.870  11.204 -0.4525 -0.9183 -0.0223
 6131SOL     OW29854   2.005   3.924   6.539  0.2225 -0.1318 -0.1576
 6131SOL    HW129855   2.012   3.968   6.455 -0.6972  1.1086  0.4145
 6131SOL    HW229856   1.919   3.954   6.570  0.1123  1.0229 -1.5677
 6132SOL     OW29857   4.031   3.199   5.495  0.7064 -0.4130 -0.2998
 6132SOL    HW129858   4.057   3.195   5.586  0.6649  2.2834 -0.1784
 6132SOL    HW229859   4.057   3.115   5.456 -2.3177 -0.5488 -2.0861
 6133SOL     OW29860   3.971   3.955   7.998  0.1949  0.1816  0.1509
 6133SOL    HW129861   4.050   3.982   7.951 -0.7848  1.7498 -0.5887
 6133SOL    HW229862   3.989   3.983   8.088 -0.8437  0.5458  0.2440
 6134SOL     OW29863   2.548   2.065   5.546 -0.0934  0.0605 -0.0802
 6134SOL    HW129864   2.553   2.026   5.458  1.2903  0.6559 -0.2783
 6134SOL    HW229865   2.512   1.992   5.595  0.9421  0.0469  0.6494
 6135SOL     OW29866   0.501   1.917  15.638  0.2796  0.1341 -0.3269
 6135SOL    HW129867   0.463   1.891  15.722 -1.5986  4.5515  0.1961
 6135SOL    HW229868   0.457   2.002  15.629  0.4124  0.1259 -1.0557
 6136SOL     OW29869   2.019   3.440   6.144 -0.5878  0.1727  1.2133
 6136SOL    HW129870   2.086   3.375   6.126  0.8080  1.9330  0.0254
 6136SOL    HW229871   2.067   3.508   6.191  0.1724  0.1097  0.5201
 6137SOL     OW29872   3.710   1.068   6.966  0.6141 -0.1380  0.0069
 6137SOL    HW129873   3.765   1.142   6.993  1.0399 -1.1058  1.8215
 6137SOL    HW229874   3.731   1.060   6.873 -0.5210  1.4443 -0.3947
 6138SOL     OW29875   3.844   0.839   9.136 -0.5449  0.0594  0.5455
 6138SOL    HW129876   3.771   0.860   9.194  0.6092 -0.4107  2.1664
 6138SOL    HW229877   3.912   0.892   9.178  0.1698  0.0833 -0.6439
 6139SOL     OW29878   4.178   2.340  12.875  0.2358  0.3144  1.6492
 6139SOL    HW129879   4.145   2.270  12.819  0.1900  0.9993  0.8245
 6139SOL    HW229880   4.248   2.376  12.821  1.1678  1.7665  3.8284
 6140SOL     OW29881   2.775   1.960   4.602 -0.7162  0.2212  0.0019
 6140SOL    HW129882   2.787   1.869   4.630  0.5981  0.3950  0.0054
 6140SOL    HW229883   2.787   1.947   4.507 -0.1426 -0.4540  0.1657
 6141SOL     OW29884   2.664   4.633   5.842  0.4998  0.3680 -0.1260
 6141SOL    HW129885   2.697   4.635   5.752 -1.2023  0.8953 -0.7551
 6141SOL    HW229886   2.689   4.717   5.880  1.5785  0.7741 -1.7355
 6142SOL     OW29887   0.265   0.137   2.099  0.3201  0.2556 -0.0326
 6142SOL    HW129888   0.356   0.108   2.093 -0.4079 -1.8455 -1.0721
 6142SOL    HW229889   0.278   0.219   2.051  0.6936  0.9573  1.2445
 6143SOL     OW29890   0.546   3.430  13.419 -0.7820  0.1206  0.1088
 6143SOL    HW129891   0.623   3.437  13.362 -1.2966 -0.4270 -0.6513
 6143SOL    HW229892   0.551   3.524  13.433 -0.1441  0.2919 -1.3030
 6144SOL     OW29893   2.509   1.609   6.068 -0.1986  0.4447 -0.4258
 6144SOL    HW129894   2.425   1.655   6.069 -0.7781 -0.6447  1.4445
 6144SOL    HW229895   2.544   1.623   6.156  0.7792  0.1842 -0.7796
 6145SOL     OW29896   2.978   2.614  13.142  0.2463  0.2415  0.1236
 6145SOL    HW129897   2.948   2.538  13.191  0.4097 -0.0139 -0.1750
 6145SOL    HW229898   3.070   2.597  13.124 -0.2843 -0.1441 -2.2858
 6146SOL     OW29899   4.008   3.177  11.794 -0.0045 -0.0596 -1.3200
 6146SOL    HW129900   3.936   3.126  11.831  1.2823 -1.3552 -0.6157
 6146SOL    HW229901   4.081   3.115  11.794  0.7432  0.8231 -3.6380
 6147SOL     OW29902   3.473   2.291  10.536 -0.8368 -0.7641 -0.5544
 6147SOL    HW129903   3.559   2.269  10.572 -0.8445 -0.9224 -0.6323
 6147SOL    HW229904   3.432   2.207  10.557  0.4261 -0.9394  1.2484
 6148SOL     OW29905   3.763   0.608   6.466 -0.5530 -0.1131 -0.5774
 6148SOL    HW129906   3.741   0.692   6.505  0.8750 -0.5583  1.2196
 6148SOL    HW229907   3.857   0.623   6.478 -0.8327  0.2665  1.1345
 6149SOL     OW29908   4.116   1.284   5.832  0.2594  0.6209  0.1316
 6149SOL    HW129909   4.139   1.217   5.767  0.4465  0.5098  0.3096
 6149SOL    HW229910   4.200   1.303   5.874 -0.1117  1.4264  0.5007
 6150SOL     OW29911   4.591   0.406   0.185 -0.0852  0.0203 -0.0249
 6150SOL    HW129912   4.605   0.410   0.090 -2.7505 -0.3423 -0.4434
 6150SOL    HW229913   4.667   0.454   0.215 -0.6608  0.0011  1.4551
 6151SOL     OW29914   2.236   3.318  16.155 -0.2569 -0.4817  0.6114
 6151SOL    HW129915   2.242   3.231  16.195 -0.6769 -0.2249  1.2219
 6151SOL    HW229916   2.265   3.312  16.064 -0.7535  0.3310  0.4016
 6152SOL     OW29917   0.327   0.449   6.193  0.3473  0.6271  0.5157
 6152SOL    HW129918   0.360   0.362   6.172  1.1331  0.9570  0.3604
 6152SOL    HW229919   0.374   0.509   6.135  0.9879  0.3434  0.7392
 6153SOL     OW29920   2.120   4.652   1.343  0.2437  1.2743  0.0772
 6153SOL    HW129921   2.105   4.659   1.249 -0.5229  1.8230  0.2404
 6153SOL    HW229922   2.047   4.698   1.384 -0.3905  0.9010 -0.6573
 6154SOL     OW29923   0.741   3.619   5.435 -0.2820  0.3160  0.3402
 6154SOL    HW129924   0.750   3.607   5.530  0.3472 -0.0593  0.2300
 6154SOL    HW229925   0.820   3.671   5.431  0.6450 -1.0316  1.0078
 6155SOL     OW29926   2.575   0.793   5.176  0.1340 -0.4535 -0.1638
 6155SOL    HW129927   2.645   0.853   5.200 -0.4616  0.3835 -0.5208
 6155SOL    HW229928   2.633   0.717   5.168  0.7333  0.0110 -0.2643
 6156SOL     OW29929   2.727   2.628   4.228  0.8263 -0.5690 -0.0604
 6156SOL    HW129930   2.654   2.568   4.212 -0.1406 -0.1818  2.8895
 6156SOL    HW229931   2.802   2.568   4.231  1.1822 -0.0470  1.3041
 6157SOL     OW29932   4.144   0.661   4.864  0.6223 -0.1959  0.1928
 6157SOL    HW129933   4.084   0.617   4.804 -0.1395  0.3318  0.5750
 6157SOL    HW229934   4.178   0.727   4.804  1.0260  0.8026  1.5352
 6158SOL     OW29935   1.922   1.091   3.450  0.6317 -0.1901 -0.2325
 6158SOL    HW129936   1.882   1.015   3.409 -2.7918  1.6901 -0.4203
 6158SOL    HW229937   1.875   1.100   3.533  2.2888  0.8237  0.5936
 6159SOL     OW29938   2.184   0.813   5.478 -0.1764  0.2797 -0.4114
 6159SOL    HW129939   2.168   0.836   5.569 -2.2655  0.0783 -0.7195
 6159SOL    HW229940   2.250   0.744   5.487 -1.6031 -1.3559 -2.2718
 6160SOL     OW29941   4.437   3.146  15.268  0.2230 -0.0391 -0.3743
 6160SOL    HW129942   4.344   3.124  15.255  0.1925 -0.2148  0.1683
 6160SOL    HW229943   4.431   3.234  15.305 -1.6350 -0.1173 -0.4743
 6161SOL     OW29944   0.151   2.298  15.491 -0.3319 -0.4580 -0.2865
 6161SOL    HW129945   0.101   2.353  15.430 -0.1399  0.9081  0.7971
 6161SOL    HW229946   0.174   2.236  15.422 -3.7638  0.4601 -2.2985
 6162SOL     OW29947   4.103   3.164   0.208 -0.1470  0.6672 -0.1352
 6162SOL    HW129948   4.091   3.234   0.273  0.6773  1.1848 -0.5447
 6162SOL    HW229949   4.059   3.100   0.264  1.7221  0.3004  0.9082
 6163SOL     OW29950   1.448   3.931   2.772  0.0239  0.0502  0.0158
 6163SOL    HW129951   1.536   3.937   2.809  0.6786  3.3041 -2.0179
 6163SOL    HW229952   1.397   3.945   2.851  1.9257 -1.3348  1.4758
 6164SOL     OW29953   3.444   3.966   4.085  0.8374 -0.5420  0.1659
 6164SOL    HW129954   3.503   3.958   4.160  2.4483  1.2937 -0.8934
 6164SOL    HW229955   3.440   3.877   4.049 -0.1700 -0.6950  0.6620
 6165SOL     OW29956   3.737   0.038  14.356  0.4165 -0.2101 -0.0598
 6165SOL    HW129957   3.708   0.052  14.266  1.1153 -0.4062 -0.3098
 6165SOL    HW229958   3.662   4.717  14.393  0.5130 -0.1508  0.2103
 6166SOL     OW29959   1.048   3.137  16.313  0.4519 -0.5485  0.2310
 6166SOL    HW129960   0.978   3.128  16.378 -0.2559 -1.0894 -0.6159
 6166SOL    HW229961   1.126   3.108  16.361  1.9418  1.0851 -1.2042
 6167SOL     OW29962   4.059   3.680  17.305  0.1790 -0.2609  0.8005
 6167SOL    HW129963   4.057   3.586  17.292  1.2037 -0.2613  0.5989
 6167SOL    HW229964   3.974   3.696  17.345  1.0983  1.0219  2.3060
 6168SOL     OW29965   3.771   0.344   6.569 -0.4288  0.2511  0.0911
 6168SOL    HW129966   3.696   0.298   6.605  0.1855 -0.2857  0.6809
 6168SOL    HW229967   3.732   0.419   6.523  0.8458  1.2993  0.6930
 6169SOL     OW29968   0.625   1.623   8.184  0.3678  0.6310 -0.3317
 6169SOL    HW129969   0.697   1.615   8.246  2.7541  0.2056 -3.1553
 6169SOL    HW229970   0.611   1.533   8.155  0.8407  0.6100 -0.4967
 6170SOL     OW29971   3.897   2.483   4.151  0.2264 -0.4163  0.5620
 6170SOL    HW129972   3.815   2.533   4.153 -0.8816 -2.1252 -2.0106
 6170SOL    HW229973   3.909   2.488   4.056 -1.0255  1.7725  0.5198
 6171SOL     OW29974   2.734   0.115   4.508  0.0276 -0.2917  0.1750
 6171SOL    HW129975   2.819   0.131   4.551 -0.1578 -0.0633  0.4587
 6171SOL    HW229976   2.697   0.054   4.571 -0.9440  0.5252  0.4013
 6172SOL     OW29977   3.598   2.939   1.680  0.6306  0.0391  0.3334
 6172SOL    HW129978   3.671   2.996   1.702  0.3888  0.5509 -0.1668
 6172SOL    HW229979   3.639   2.880   1.617  0.4846  2.0167 -1.6334
 6173SOL     OW29980   2.126   2.415   2.210 -0.6199 -0.2580 -0.3292
 6173SOL    HW129981   2.092   2.454   2.129  1.3100  0.5995 -0.7239
 6173SOL    HW229982   2.132   2.498   2.258 -0.2185  0.9545 -2.4387
 6174SOL     OW29983   4.126   3.571  12.443  0.4592  0.4108  0.0421
 6174SOL    HW129984   4.144   3.567  12.349 -0.3426 -2.1762  0.0062
 6174SOL    HW229985   4.187   3.503  12.472  1.0851  0.9877  0.0981
 6175SOL     OW29986   2.795   1.308   1.790 -0.2556  0.0898 -0.5662
 6175SOL    HW129987   2.753   1.230   1.755  1.8991 -0.3519 -2.1209
 6175SOL    HW229988   2.750   1.383   1.752 -0.3691  0.2626 -0.0906
 6176SOL     OW29989   0.260   1.988   2.672 -0.3780 -0.2515 -0.4464
 6176SOL    HW129990   0.356   1.985   2.667 -0.4123 -2.9934  0.8250
 6176SOL    HW229991   0.237   1.994   2.579 -0.7658 -0.1617 -0.3447
 6177SOL     OW29992   3.900   1.187   7.153 -0.1097  0.1304 -0.0314
 6177SOL    HW129993   3.923   1.229   7.070 -0.7828 -1.4358 -1.0041
 6177SOL    HW229994   3.880   1.255   7.218 -1.0263  1.4500 -1.6832
 6178SOL     OW29995   3.450   1.191   6.811 -0.1278 -0.6615 -0.4452
 6178SOL    HW129996   3.456   1.151   6.724 -0.8476 -2.3609  0.2939
 6178SOL    HW229997   3.422   1.122   6.871  1.0225 -0.3757  0.4189
 6179SOL     OW29998   2.501   1.376   9.660  0.0325 -0.3313  0.0331
 6179SOL    HW129999   2.483   1.368   9.754  0.1679 -1.7320 -0.0664
 6179SOL    HW230000   2.479   1.469   9.658  0.1081 -0.2951  0.8746
 6180SOL     OW30001   2.337   1.667   5.552 -0.3048  0.4676  0.2079
 6180SOL    HW130002   2.382   1.603   5.607 -1.6900  0.6394  1.5376
 6180SOL    HW230003   2.328   1.740   5.614 -0.2246  0.1723  0.5640
 6181SOL     OW30004   2.202   0.625   1.260 -0.6520 -0.6124  0.4674
 6181SOL    HW130005   2.247   0.548   1.295  1.2285  0.1671 -0.2413
 6181SOL    HW230006   2.117   0.581   1.261 -1.2371  0.5401  0.5785
 6182SOL     OW30007   1.487   3.406  14.390  0.0633  0.2987 -0.3022
 6182SOL    HW130008   1.578   3.429  14.412  0.9020 -1.0189 -2.3564
 6182SOL    HW230009   1.493   3.310  14.399 -1.9140  0.2707  0.4907
 6183SOL     OW30010   1.246   0.434   3.063  0.2680 -0.5736 -0.4727
 6183SOL    HW130011   1.247   0.346   3.025  0.0938 -0.7349 -0.1089
 6183SOL    HW230012   1.297   0.482   2.998 -1.2669  0.2563 -1.0602
 6184SOL     OW30013   4.592   4.004   5.333 -0.7131 -0.0714 -0.3593
 6184SOL    HW130014   4.568   4.046   5.250 -0.7835 -1.4498 -1.0286
 6184SOL    HW230015   4.530   4.046   5.392  0.5863 -0.1618  1.0717
 6185SOL     OW30016   4.548   1.386   8.596  0.5301  0.0631  0.9340
 6185SOL    HW130017   4.518   1.436   8.672 -0.1224 -0.1822  0.8451
 6185SOL    HW230018   4.628   1.434   8.575  0.6124 -0.5903 -0.2620
 6186SOL     OW30019   1.527   1.995  16.710  0.4896  0.1327 -0.3908
 6186SOL    HW130020   1.610   1.958  16.682 -0.1027 -1.2307 -0.3550
 6186SOL    HW230021   1.545   2.085  16.736  2.3124 -0.1408 -0.7015
 6187SOL     OW30022   3.035   3.056   6.255  0.0953 -0.1118 -0.2515
 6187SOL    HW130023   3.014   3.118   6.324  1.5410  0.9066 -0.7297
 6187SOL    HW230024   3.110   3.101   6.217 -1.1609  0.3579 -2.1322
 6188SOL     OW30025   1.538   1.046   8.308  0.3851  0.3510 -0.3529
 6188SOL    HW130026   1.511   1.044   8.217 -1.0306 -0.7408  0.0812
 6188SOL    HW230027   1.571   0.957   8.295 -1.3538 -0.4256  0.4696
 6189SOL     OW30028   0.860   3.032   2.874  0.2983 -0.0666  0.2519
 6189SOL    HW130029   0.794   2.967   2.850 -1.2004  1.2039  0.9393
 6189SOL    HW230030   0.917   2.984   2.934  1.4706  1.7773  0.6202
 6190SOL     OW30031   2.947   4.651  16.412  0.0048  0.0371  0.1016
 6190SOL    HW130032   2.960   4.678  16.503  3.2266 -1.3170  0.0224
 6190SOL    HW230033   2.950   4.556  16.420 -0.5072 -0.1844 -2.2543
 6191SOL     OW30034   4.479   2.056   3.977 -0.7822  0.1272 -0.3479
 6191SOL    HW130035   4.567   2.029   4.004 -0.1182  1.5540 -1.1123
 6191SOL    HW230036   4.424   2.027   4.050  3.1756  1.2982  3.1024
 6192SOL     OW30037   4.182   2.293   0.555  0.1385 -0.2915 -0.6091
 6192SOL    HW130038   4.229   2.242   0.489  0.5510  1.2289 -1.4732
 6192SOL    HW230039   4.098   2.246   0.552  0.2461 -0.5832  0.8010
 6193SOL     OW30040   0.508   3.080   8.922 -0.0325  0.2270 -0.1129
 6193SOL    HW130041   0.580   3.047   8.976 -0.7372 -0.5214  0.3715
 6193SOL    HW230042   0.537   3.037   8.842 -1.8040 -1.3678  0.0923
 6194SOL     OW30043   4.180   1.239   6.639 -0.0365  0.6485 -0.0141
 6194SOL    HW130044   4.138   1.317   6.603  0.5724  1.6211  1.3979
 6194SOL    HW230045   4.273   1.258   6.635  0.3922 -1.3375  0.4904
 6195SOL     OW30046   1.043   2.060   7.145 -0.0605  0.1550  0.5979
 6195SOL    HW130047   1.045   2.009   7.226  0.1345  0.0855  0.5503
 6195SOL    HW230048   1.045   2.151   7.176  1.2389  0.6388 -0.8943
 6196SOL     OW30049   0.172   2.969  17.255 -0.1107  0.1537 -0.0193
 6196SOL    HW130050   0.163   2.874  17.248 -0.2289  0.1419  0.3046
 6196SOL    HW230051   0.082   2.995  17.275  0.0064  0.8557 -0.3852
 6197SOL     OW30052   3.114   2.924  13.637 -0.4516  0.1726 -0.3544
 6197SOL    HW130053   3.116   2.829  13.626 -3.0276 -0.0083  0.6876
 6197SOL    HW230054   3.190   2.948  13.585 -0.4798 -0.9854 -0.9369
 6198SOL     OW30055   3.316   0.554  11.921 -0.6165 -0.1593 -0.3399
 6198SOL    HW130056   3.259   0.516  11.988  1.0835 -1.5964  0.2823
 6198SOL    HW230057   3.345   0.637  11.959  3.4613 -2.2331  1.0277
 6199SOL     OW30058   1.157   0.587  15.194 -0.0385 -0.1840  0.0053
 6199SOL    HW130059   1.137   0.567  15.286  0.3857  0.2209  0.1882
 6199SOL    HW230060   1.066   0.610  15.180 -0.0497  0.6952  1.4655
 6200SOL     OW30061   4.471   1.737   7.113  0.1655 -0.4092 -0.4524
 6200SOL    HW130062   4.387   1.773   7.083  1.4218  3.5511  0.8089
 6200SOL    HW230063   4.460   1.642   7.123  3.4099 -0.6486  0.8549
 6201SOL     OW30064   1.168   0.960   6.707  0.2248  0.0508 -0.2709
 6201SOL    HW130065   1.120   0.932   6.629  1.9039 -3.0230 -0.1935
 6201SOL    HW230066   1.162   1.053   6.685  1.4004  0.2717  0.3464
 6202SOL     OW30067   2.616   3.204   6.920 -0.0693  0.2018 -0.2503
 6202SOL    HW130068   2.679   3.220   6.990 -1.7810  2.0845  0.8511
 6202SOL    HW230069   2.658   3.261   6.855  0.4089  0.5868  0.3913
 6203SOL     OW30070   4.024   4.506   0.108  0.2782 -0.1241 -0.2858
 6203SOL    HW130071   4.078   4.558   0.167 -0.3824  0.3649 -0.1127
 6203SOL    HW230072   4.063   4.420   0.122 -2.3141 -1.4135 -0.9650
 6204SOL     OW30073   0.312   1.003   6.318  0.3244 -0.2954 -0.5236
 6204SOL    HW130074   0.265   0.922   6.303  1.8712 -1.0472 -1.3095
 6204SOL    HW230075   0.305   1.062   6.243 -3.0661 -0.0854 -0.0391
 6205SOL     OW30076   4.582   1.828   2.114 -0.1662 -0.2111 -0.4172
 6205SOL    HW130077   4.529   1.899   2.078 -2.7667 -2.2391 -0.6257
 6205SOL    HW230078   4.518   1.765   2.149 -0.7453 -0.0535 -1.1864
 6206SOL     OW30079   2.545   1.289   3.029  0.0893  0.3477  0.5408
 6206SOL    HW130080   2.520   1.245   2.948 -0.9712  1.7042  0.1223
 6206SOL    HW230081   2.618   1.343   2.999 -0.1701  1.0081  1.1106
 6207SOL     OW30082   2.548   4.439   2.764 -0.5409  0.3894 -0.4950
 6207SOL    HW130083   2.638   4.471   2.767 -0.5590  0.5712 -1.6280
 6207SOL    HW230084   2.564   4.359   2.813 -0.5732  1.5182  1.3745
 6208SOL     OW30085   2.031   2.298   2.638 -0.2251  0.4129  0.4610
 6208SOL    HW130086   2.043   2.204   2.648 -1.1327  0.7318  4.4672
 6208SOL    HW230087   2.047   2.341   2.722  1.7951  0.3979  0.0709
 6209SOL     OW30088   3.746   0.223   3.562 -0.8690 -0.6781 -0.7607
 6209SOL    HW130089   3.717   0.186   3.479 -0.3041  0.1511 -1.3218
 6209SOL    HW230090   3.693   0.303   3.568  2.1049  1.3032 -1.0805
 6210SOL     OW30091   3.001   2.561   6.176 -0.1747 -0.8773 -0.2741
 6210SOL    HW130092   2.957   2.644   6.187 -1.3475 -1.6408  0.7318
 6210SOL    HW230093   2.978   2.508   6.252 -0.8356  1.1348  0.8977
 6211SOL     OW30094   3.672   3.236   9.538 -0.4972  0.5633  0.5892
 6211SOL    HW130095   3.702   3.192   9.617  1.4468 -0.8933 -0.9336
 6211SOL    HW230096   3.584   3.263   9.565 -0.4337  2.1345 -0.7679
 6212SOL     OW30097   1.641   1.373   9.085  0.0389  0.3844 -0.4074
 6212SOL    HW130098   1.577   1.437   9.051  1.2213  1.8368  0.0866
 6212SOL    HW230099   1.624   1.371   9.179 -1.0582  0.0201 -0.6160
 6213SOL     OW30100   4.484   4.599   1.998  0.1383 -0.2701 -0.2634
 6213SOL    HW130101   4.463   4.693   1.993 -1.1384 -0.3834  3.1173
 6213SOL    HW230102   4.475   4.586   2.092 -2.0199  1.2830 -0.2435
 6214SOL     OW30103   4.332   2.508   7.352  0.3211  0.4557  0.2283
 6214SOL    HW130104   4.343   2.603   7.349 -3.4805  0.8288 -2.2315
 6214SOL    HW230105   4.255   2.495   7.407 -0.2777 -2.1391 -1.2062
 6215SOL     OW30106   4.297   0.358  13.340 -0.2301  0.4320 -0.2669
 6215SOL    HW130107   4.255   0.284  13.297 -1.1130  1.2595 -0.8383
 6215SOL    HW230108   4.304   0.308  13.421  0.9028  0.6296 -0.2485
 6216SOL     OW30109   0.687   3.236   3.686 -0.1410  0.3073 -0.0166
 6216SOL    HW130110   0.618   3.295   3.716  1.1238  1.2940  0.9493
 6216SOL    HW230111   0.721   3.202   3.769 -0.7530  1.4074  0.6912
 6217SOL     OW30112   0.876   0.700   5.082 -0.2542 -0.2673  0.0782
 6217SOL    HW130113   0.780   0.702   5.089 -0.2172 -0.4032  0.5695
 6217SOL    HW230114   0.883   0.762   5.009 -0.8052 -0.1556  0.1142
 6218SOL     OW30115   1.327   2.179   7.300  0.1721  0.4052 -0.6068
 6218SOL    HW130116   1.279   2.134   7.370  1.6322  0.0369  0.1651
 6218SOL    HW230117   1.264   2.247   7.277 -0.8865  0.1296  1.5135
 6219SOL     OW30118   4.133   3.521   6.299  0.4868 -0.0371  0.7195
 6219SOL    HW130119   4.133   3.435   6.342 -0.3392  0.2396  1.2634
 6219SOL    HW230120   4.079   3.515   6.220  1.8895  0.8804 -0.3172
 6220SOL     OW30121   3.993   3.087  16.150 -0.5857 -0.0624  0.3842
 6220SOL    HW130122   3.992   3.061  16.242  0.0385  0.1085  0.4406
 6220SOL    HW230123   3.973   3.005  16.105 -3.0006  1.6292 -1.6442
 6221SOL     OW30124   3.663   3.144   8.336  0.4059 -0.1242 -0.4069
 6221SOL    HW130125   3.744   3.152   8.286  0.8693  2.5026  0.7495
 6221SOL    HW230126   3.615   3.087   8.276 -1.8676  1.9369 -0.5729
 6222SOL     OW30127   1.642   2.087   5.502 -0.3961 -0.5764 -0.3148
 6222SOL    HW130128   1.664   2.158   5.562 -1.3668 -0.2834 -0.2958
 6222SOL    HW230129   1.729   2.073   5.466 -0.5824 -0.1003 -0.9620
 6223SOL     OW30130   1.711   0.943  12.294  0.0187  0.6357 -0.0851
 6223SOL    HW130131   1.781   0.994  12.253  0.0038  0.7530  0.0377
 6223SOL    HW230132   1.657   0.923  12.217  0.2328 -1.7027  0.3560
 6224SOL     OW30133   1.898   3.504   4.920 -0.1332  0.2941 -0.2292
 6224SOL    HW130134   1.840   3.471   4.852  0.8864  0.1149 -1.0118
 6224SOL    HW230135   1.917   3.428   4.975  0.1035  0.6929  0.2360
 6225SOL     OW30136   0.476   3.685   2.401 -0.4578 -0.0223 -0.1921
 6225SOL    HW130137   0.399   3.655   2.353  0.4030  0.6556 -2.0105
 6225SOL    HW230138   0.514   3.760   2.353  0.0300  0.4934  1.0069
 6226SOL     OW30139   3.760   2.904  15.270  0.3113 -0.1138  0.0103
 6226SOL    HW130140   3.799   2.824  15.306 -1.3663 -1.5990 -1.4498
 6226SOL    HW230141   3.683   2.919  15.325  0.1446  1.7046 -0.7245
 6227SOL     OW30142   3.161   2.284  16.607  0.1263  0.3491 -0.1990
 6227SOL    HW130143   3.206   2.231  16.541 -0.5191  0.4576 -0.7167
 6227SOL    HW230144   3.160   2.369  16.563  0.0893  0.0442 -0.7881
 6228SOL     OW30145   1.607   1.639   5.516  0.0009  0.1275  0.0126
 6228SOL    HW130146   1.633   1.684   5.436 -0.2052  0.4525  0.1290
 6228SOL    HW230147   1.528   1.593   5.487 -0.5493  0.1151  1.5283
 6229SOL     OW30148   4.580   3.914   4.377 -0.1412  0.8073 -0.4406
 6229SOL    HW130149   4.648   3.963   4.330 -1.1750  2.1973 -0.4731
 6229SOL    HW230150   4.625   3.918   4.461  0.1829  0.9902 -0.6196
 6230SOL     OW30151   0.905   1.608   4.126  0.6225  0.3999 -0.1538
 6230SOL    HW130152   0.895   1.586   4.219 -1.1496 -0.1053 -0.4640
 6230SOL    HW230153   0.821   1.648   4.102  0.8499  1.7726  1.3130
 6231SOL     OW30154   3.169   0.300   8.052  0.5916 -0.0274 -0.4021
 6231SOL    HW130155   3.196   0.390   8.066 -2.2479  0.7716 -0.0333
 6231SOL    HW230156   3.074   0.312   8.055  0.7025  0.8166 -0.4181
 6232SOL     OW30157   2.517   2.008   7.437 -0.4146 -0.1336  0.0906
 6232SOL    HW130158   2.454   2.044   7.499 -0.8188 -1.4798  0.4572
 6232SOL    HW230159   2.550   2.090   7.400  1.6082 -0.8424  0.2729
 6233SOL     OW30160   4.256   3.559  15.378 -0.6901  0.0494  0.6059
 6233SOL    HW130161   4.186   3.507  15.419 -1.1550  1.6343  1.8621
 6233SOL    HW230162   4.332   3.501  15.375 -1.4137 -0.7849 -1.1935
 6234SOL     OW30163   4.291   2.191   0.331 -0.4427  0.1108  0.7032
 6234SOL    HW130164   4.369   2.244   0.346 -1.2759  2.0458 -1.8342
 6234SOL    HW230165   4.327   2.102   0.328  0.5802  0.5890 -1.1252
 6235SOL     OW30166   2.396   2.507   5.370  0.2969  0.0885  0.5870
 6235SOL    HW130167   2.371   2.452   5.444  0.4000 -0.0410  0.5259
 6235SOL    HW230168   2.319   2.563   5.361  0.3902  0.2561  0.8281
 6236SOL     OW30169   0.643   3.358   4.374  0.1104  0.0549 -0.5298
 6236SOL    HW130170   0.639   3.387   4.465 -0.6678  0.9623 -0.8516
 6236SOL    HW230171   0.669   3.440   4.331  2.3824  0.0959  0.9322
 6237SOL     OW30172   4.358   4.005   0.423  0.0924 -0.0250  0.0459
 6237SOL    HW130173   4.338   4.041   0.509  1.1148 -2.1229  1.1637
 6237SOL    HW230174   4.280   4.034   0.376 -0.7871 -0.5745  1.1831
 6238SOL     OW30175   1.794   2.284   3.252  0.0621 -0.5055 -0.1603
 6238SOL    HW130176   1.724   2.221   3.236 -1.8389  1.7907 -0.8303
 6238SOL    HW230177   1.827   2.296   3.163 -0.7433 -1.4180 -0.5705
 6239SOL     OW30178   2.633   2.148   3.181 -0.0614  0.5121 -0.1341
 6239SOL    HW130179   2.598   2.089   3.114  1.0750 -0.3593  0.0611
 6239SOL    HW230180   2.550   2.194   3.197 -0.2901 -0.1787  0.6341
 6240SOL     OW30181   3.947   4.329   3.543 -0.1535  0.2106  0.5011
 6240SOL    HW130182   3.890   4.406   3.553 -0.9196 -0.3439  0.3890
 6240SOL    HW230183   3.935   4.280   3.624  0.7977 -1.9918 -0.6973
 6241SOL     OW30184   2.192   3.502  16.811  0.3001 -0.2515  0.6030
 6241SOL    HW130185   2.186   3.434  16.878 -1.1652 -0.4527  0.2543
 6241SOL    HW230186   2.217   3.455  16.731  1.0808  1.1714 -0.0003
 6242SOL     OW30187   0.584   0.381   8.472  0.3138 -0.1150  0.0496
 6242SOL    HW130188   0.546   0.452   8.523 -1.9386 -0.4588 -1.1346
 6242SOL    HW230189   0.651   0.426   8.420  1.4507 -1.0791  0.6794
 6243SOL     OW30190   1.907   2.079  14.532  0.1481  0.0836  0.0903
 6243SOL    HW130191   1.943   2.004  14.485  0.6604  0.7196 -0.5225
 6243SOL    HW230192   1.917   2.143  14.462  1.7094  1.5616  1.6670
 6244SOL     OW30193   1.282   0.018   8.368 -0.2386  0.4065 -0.4198
 6244SOL    HW130194   1.204   4.709   8.324  0.9971  2.5317 -4.2657
 6244SOL    HW230195   1.278   0.102   8.322  0.1636  0.6886  0.0672
 6245SOL     OW30196   2.109   1.928  13.418 -0.5877 -0.7450  0.6440
 6245SOL    HW130197   2.099   1.960  13.508  0.6677  3.2848 -0.6727
 6245SOL    HW230198   2.204   1.932  13.408 -0.6783 -2.1059 -0.7487
 6246SOL     OW30199   3.776   4.534   5.589  0.2956 -0.3671 -0.6242
 6246SOL    HW130200   3.776   4.453   5.539  1.2873 -0.5889 -0.2671
 6246SOL    HW230201   3.714   4.502   5.655 -0.3544  0.0955 -1.0146
 6247SOL     OW30202   1.724   4.438   2.818 -0.2516  0.0651 -0.1488
 6247SOL    HW130203   1.818   4.452   2.803 -0.2801  0.5988  0.1972
 6247SOL    HW230204   1.682   4.506   2.766 -0.0385 -0.1758 -0.6362
 6248SOL     OW30205   1.726   0.806   1.193  0.3682  0.0707  0.0380
 6248SOL    HW130206   1.718   0.715   1.221  0.5966 -0.0964 -0.4409
 6248SOL    HW230207   1.758   0.840   1.277 -0.6554  0.3121  0.3229
 6249SOL     OW30208   3.463   3.233   9.019  0.2469 -0.0543  0.2520
 6249SOL    HW130209   3.443   3.283   9.098 -0.5116  0.5041 -0.3070
 6249SOL    HW230210   3.532   3.175   9.052 -0.2203 -0.2212  0.9452
 6250SOL     OW30211   0.909   0.764   7.045  0.4075 -0.5932 -0.3520
 6250SOL    HW130212   0.992   0.811   7.056  0.4482 -0.7292 -0.0714
 6250SOL    HW230213   0.925   0.721   6.962 -1.1792  0.3557 -1.1555
 6251SOL     OW30214   1.196   0.858   8.251 -0.2339  0.1099  0.5776
 6251SOL    HW130215   1.201   0.952   8.267  0.1571  0.2972 -0.6601
 6251SOL    HW230216   1.270   0.830   8.304 -0.0001 -0.2170  0.0812
 6252SOL     OW30217   0.287   1.734   7.682  0.1510 -0.5472  0.5012
 6252SOL    HW130218   0.191   1.732   7.674  0.3196 -1.3108 -1.4822
 6252SOL    HW230219   0.303   1.650   7.724  2.8287 -1.4333 -2.3448
 6253SOL     OW30220   0.910   4.112   3.639  0.2079 -0.1111  0.1230
 6253SOL    HW130221   0.967   4.108   3.562 -0.4366  0.2186 -0.3705
 6253SOL    HW230222   0.966   4.144   3.710 -0.1156 -0.2323  0.4340
 6254SOL     OW30223   4.328   0.091   8.406 -0.5956 -0.0810 -0.2839
 6254SOL    HW130224   4.266   0.159   8.432 -0.7320 -0.1487 -0.4312
 6254SOL    HW230225   4.311   0.083   8.312 -2.9422 -0.1598  0.1486
 6255SOL     OW30226   0.723   0.028   1.269  0.9123 -0.3952  0.3250
 6255SOL    HW130227   0.740   4.686   1.204  2.0073 -1.1421  1.4061
 6255SOL    HW230228   0.630   0.044   1.252  0.5186 -3.4418 -0.3146
 6256SOL     OW30229   1.387   1.794   1.782 -0.4151  0.1035  0.7693
 6256SOL    HW130230   1.408   1.748   1.863  1.4808  1.8599  1.2757
 6256SOL    HW230231   1.473   1.813   1.745  0.2653 -0.5352  2.0305
 6257SOL     OW30232   4.720   1.377   2.515 -0.1779 -0.4439 -0.1619
 6257SOL    HW130233   4.700   1.284   2.507  0.4987 -0.6657  0.7051
 6257SOL    HW230234   4.714   1.410   2.425 -1.5583 -1.1203 -0.3120
 6258SOL     OW30235   2.009   0.725   4.371  0.5925 -0.3895 -0.0195
 6258SOL    HW130236   1.914   0.717   4.377  0.6189  0.5140  1.5392
 6258SOL    HW230237   2.046   0.647   4.329  1.9327 -1.4344  3.0946
 6259SOL     OW30238   1.229   3.176   7.642  0.4002 -0.0852  0.0182
 6259SOL    HW130239   1.249   3.083   7.639  0.1144 -0.1774  0.8141
 6259SOL    HW230240   1.144   3.165   7.685  1.6733 -1.2935  2.1941
 6260SOL     OW30241   3.900   3.186   5.954  0.0601  0.6856 -0.8411
 6260SOL    HW130242   3.904   3.115   6.017  1.5909 -0.7206 -2.5219
 6260SOL    HW230243   3.877   3.262   6.008 -1.7535 -0.4995  0.0902
 6261SOL     OW30244   0.514   2.897   5.007  0.4482  0.4034  0.6949
 6261SOL    HW130245   0.608   2.892   4.994  0.2195 -0.6876 -0.5683
 6261SOL    HW230246   0.475   2.922   4.923  0.3960  1.5716  1.0737
 6262SOL     OW30247   1.505   0.746   8.236  0.3629  0.2794 -0.1556
 6262SOL    HW130248   1.450   0.689   8.183 -0.4611 -0.2630  1.2925
 6262SOL    HW230249   1.520   0.699   8.318  0.0653 -0.9343 -0.7939
 6263SOL     OW30250   0.695   4.345   2.531  0.4026  0.0555 -0.3105
 6263SOL    HW130251   0.625   4.290   2.497 -0.1234  0.7005 -0.2573
 6263SOL    HW230252   0.689   4.427   2.483  0.5709  0.8409  1.0119
 6264SOL     OW30253   4.616   2.514   0.569 -0.0667 -0.2030  0.0413
 6264SOL    HW130254   4.530   2.552   0.588 -1.0399 -2.2249 -0.2969
 6264SOL    HW230255   4.665   2.592   0.595  1.0231 -1.1722  0.8951
 6265SOL     OW30256   0.803   1.405   4.825 -0.3990 -0.2674 -0.0492
 6265SOL    HW130257   0.787   1.411   4.731  1.2573  0.1639 -0.3138
 6265SOL    HW230258   0.896   1.429   4.829 -0.0450 -1.5322 -0.5471
 6266SOL     OW30259   3.345   3.591   2.065  0.3462  1.5155  0.6284
 6266SOL    HW130260   3.297   3.632   2.137  1.0289 -0.4245  2.2090
 6266SOL    HW230261   3.345   3.499   2.094  0.7484  0.7361 -1.8279
 6267SOL     OW30262   4.639   4.386   2.253 -0.0197 -0.1780  0.1067
 6267SOL    HW130263   4.545   4.367   2.251 -0.0125 -0.2836  0.9051
 6267SOL    HW230264   4.643   4.388   2.157 -1.5463 -0.1992  0.0493
 6268SOL     OW30265   3.507   2.995   1.929  0.0834 -0.4186 -0.6136
 6268SOL    HW130266   3.564   2.935   1.977 -2.5682 -1.7703  0.8646
 6268SOL    HW230267   3.529   2.971   1.839 -0.4155  0.2710 -0.9203
 6269SOL     OW30268   3.113   0.078   6.724 -0.2181 -0.3545  0.5486
 6269SOL    HW130269   3.184   0.136   6.751  0.6621 -1.4371  0.5250
 6269SOL    HW230270   3.112   0.098   6.631 -0.8087 -2.8332  0.0210
 6270SOL     OW30271   0.862   3.281   9.419  0.0363 -0.1240 -0.1564
 6270SOL    HW130272   0.837   3.304   9.330  0.0948 -2.6730 -0.8422
 6270SOL    HW230273   0.780   3.264   9.464 -1.4509  1.6750 -2.1942
 6271SOL     OW30274   3.452   3.502   3.362  0.4351 -0.4248 -0.2493
 6271SOL    HW130275   3.402   3.556   3.301  1.0430 -0.1447 -0.4920
 6271SOL    HW230276   3.401   3.491   3.443  1.0502  3.2042  0.6390
 6272SOL     OW30277   0.793   4.436   5.277  0.0954  0.1094  0.0342
 6272SOL    HW130278   0.786   4.531   5.281 -0.4179  0.0711  0.0292
 6272SOL    HW230279   0.744   4.415   5.198 -0.7472 -1.1068  0.8868
 6273SOL     OW30280   2.248   4.181  15.625 -0.1127  0.3661  0.3373
 6273SOL    HW130281   2.215   4.268  15.647 -3.3996 -0.3448 -1.7037
 6273SOL    HW230282   2.180   4.119  15.655 -2.1124  1.9872 -0.8522
 6274SOL     OW30283   1.943   0.624   6.548 -0.1563  0.0178  0.3050
 6274SOL    HW130284   2.002   0.673   6.605  1.6619 -1.2872 -0.4338
 6274SOL    HW230285   2.001   0.623   6.472 -0.2451 -1.4539  0.2502
 6275SOL     OW30286   4.003   1.593   8.033  0.3579  0.3644 -0.4924
 6275SOL    HW130287   3.931   1.634   7.984 -0.2372 -0.3111 -0.1829
 6275SOL    HW230288   3.969   1.591   8.122 -1.5167 -0.7924 -1.2222
 6276SOL     OW30289   3.150   1.199   7.216  0.0957 -0.1003 -0.2114
 6276SOL    HW130290   3.243   1.180   7.204  0.2856  0.4733  0.3329
 6276SOL    HW230291   3.116   1.112   7.198  0.5414 -0.2371 -0.3810
 6277SOL     OW30292   1.415   3.626  17.502  0.4054 -0.2216 -0.1591
 6277SOL    HW130293   1.346   3.631  17.437 -1.2935  3.5995  1.9256
 6277SOL    HW230294   1.420   3.530  17.502 -1.5142 -0.2888 -2.0938
 6278SOL     OW30295   0.180   3.697   4.017 -0.3453  0.6332  0.1461
 6278SOL    HW130296   0.175   3.663   4.106 -1.8610  0.5325  0.0259
 6278SOL    HW230297   0.250   3.761   4.023  0.7162 -0.3017 -2.3266
 6279SOL     OW30298   4.378   0.655   2.180 -0.3887 -0.2293 -0.0256
 6279SOL    HW130299   4.306   0.650   2.117 -1.6030  0.7561  1.3070
 6279SOL    HW230300   4.337   0.700   2.254 -0.1115  1.7557 -1.0916
 6280SOL     OW30301   4.537   2.416   9.555  0.3357  0.2926  0.1334
 6280SOL    HW130302   4.472   2.475   9.594 -0.5054  0.0576 -0.8945
 6280SOL    HW230303   4.515   2.426   9.463 -0.6463  2.2046  0.5850
 6281SOL     OW30304   2.926   4.443   0.989  0.6610 -0.1657 -0.6383
 6281SOL    HW130305   2.932   4.371   1.052  1.9438 -0.5538 -1.2069
 6281SOL    HW230306   2.847   4.420   0.939  1.5122 -1.8212 -1.2344
 6282SOL     OW30307   1.548   1.505   0.730 -0.3631 -0.2678 -0.8050
 6282SOL    HW130308   1.542   1.517   0.824 -1.2490  1.3585 -1.0775
 6282SOL    HW230309   1.498   1.425   0.717 -0.6905 -0.3166  0.7583
 6283SOL     OW30310   2.947   0.486   2.150  0.0413  0.1699 -0.2256
 6283SOL    HW130311   3.006   0.503   2.224 -0.4204 -0.4721  0.2916
 6283SOL    HW230312   2.954   0.572   2.108 -4.3036  0.7233  0.1851
 6284SOL     OW30313   4.632   1.119   6.741  0.5587 -0.0173 -0.2571
 6284SOL    HW130314   4.695   1.170   6.690 -0.7016  0.0223 -1.7792
 6284SOL    HW230315   4.579   1.184   6.787  2.2999  0.8435  0.5520
 6285SOL     OW30316   3.377   0.962   3.703  0.1186 -0.1046 -0.2372
 6285SOL    HW130317   3.455   1.008   3.735 -0.0136 -0.1912  0.2179
 6285SOL    HW230318   3.411   0.888   3.653  0.5884 -0.2304  0.2583
 6286SOL     OW30319   3.617   1.359   1.423 -0.8198  0.4559  1.0206
 6286SOL    HW130320   3.583   1.444   1.394  2.8956  1.0768 -1.6212
 6286SOL    HW230321   3.569   1.296   1.370 -0.7118  0.0173  1.4440
 6287SOL     OW30322   1.275   2.823   9.356  0.4143  0.2504 -0.0434
 6287SOL    HW130323   1.200   2.821   9.297 -0.6545  0.0215  1.3364
 6287SOL    HW230324   1.300   2.915   9.348 -1.6374  0.8172  0.1608
 6288SOL     OW30325   3.337   4.094   9.345 -0.3727 -0.7781  0.2531
 6288SOL    HW130326   3.332   4.012   9.395  0.6751 -1.1749 -0.3001
 6288SOL    HW230327   3.279   4.070   9.273 -1.6016  1.1346  0.5969
 6289SOL     OW30328   1.774   2.817  11.335 -0.4798  0.0187 -0.0326
 6289SOL    HW130329   1.860   2.784  11.310 -0.5583  0.6641 -1.1225
 6289SOL    HW230330   1.759   2.772  11.418  1.6813 -0.6372 -0.0172
 6290SOL     OW30331   3.935   3.524   0.413  0.1055 -0.4321 -0.3415
 6290SOL    HW130332   3.986   3.535   0.333 -0.5777  2.6979 -0.3769
 6290SOL    HW230333   3.979   3.576   0.480 -0.0469  0.1538 -0.6904
 6291SOL     OW30334   3.062   1.230  10.779  0.6317 -0.2731 -0.2400
 6291SOL    HW130335   3.125   1.242  10.708 -0.7093 -4.2108 -2.0974
 6291SOL    HW230336   3.099   1.162  10.836  1.4101 -0.2504 -0.7215
 6292SOL     OW30337   2.004   1.973  16.255 -0.6619 -0.2535 -0.0029
 6292SOL    HW130338   2.025   1.890  16.298  1.1993 -1.2645 -2.8973
 6292SOL    HW230339   2.057   2.033  16.307 -0.8026  0.4910 -0.7231
 6293SOL     OW30340   0.353   4.318   5.058  0.1951  0.1206  0.1614
 6293SOL    HW130341   0.329   4.342   4.969 -1.3934 -1.3914  0.1642
 6293SOL    HW230342   0.333   4.224   5.050  0.4632  0.1697 -1.1319
 6294SOL     OW30343   1.046   1.804   4.522 -0.2388  0.0707  0.1352
 6294SOL    HW130344   1.141   1.796   4.532 -0.1404  0.2292 -0.6995
 6294SOL    HW230345   1.010   1.858   4.593 -1.2977  1.0410 -1.1320
 6295SOL     OW30346   2.602   0.266  14.441 -0.2725  0.3586  0.7320
 6295SOL    HW130347   2.695   0.278  14.420 -0.0814 -1.4803  0.5537
 6295SOL    HW230348   2.562   0.253  14.355  0.3996 -0.1871  0.4991
 6296SOL     OW30349   2.496   1.537   2.781 -0.5294 -0.2349  0.2784
 6296SOL    HW130350   2.430   1.579   2.836  0.1223  1.9282 -0.5725
 6296SOL    HW230351   2.571   1.597   2.785 -0.4911 -0.2460 -0.2420
 6297SOL     OW30352   0.654   3.876  14.300 -0.1905 -0.4692 -0.1096
 6297SOL    HW130353   0.667   3.840  14.213 -2.2840 -2.8351  0.5679
 6297SOL    HW230354   0.639   3.798  14.353  0.4843 -0.5741 -0.0686
 6298SOL     OW30355   4.331   0.724   4.486  0.4255  0.6980  0.4537
 6298SOL    HW130356   4.328   0.772   4.569  1.5258 -0.1745  0.9979
 6298SOL    HW230357   4.242   0.728   4.451  0.8298  0.3971 -0.6018
 6299SOL     OW30358   0.516   1.660  16.329  0.4570 -0.8762  0.1167
 6299SOL    HW130359   0.594   1.713  16.309  0.6066 -1.1784 -0.1091
 6299SOL    HW230360   0.560   1.576  16.336  0.4557 -0.9512 -0.8158
 6300SOL     OW30361   2.494   0.015   7.479 -0.0748 -0.1694 -0.2996
 6300SOL    HW130362   2.561   4.674   7.488  0.2668  0.6787  3.2678
 6300SOL    HW230363   2.429   4.708   7.540  0.9652  1.4033  1.6619
 6301SOL     OW30364   2.751   4.706   0.517 -0.7093 -0.2434  0.3445
 6301SOL    HW130365   2.681   4.649   0.486 -1.0142 -0.5966  1.6638
 6301SOL    HW230366   2.721   0.058   0.469  1.8775 -0.8400 -2.2297
 6302SOL     OW30367   4.216   4.474   1.736 -0.1803  0.6933 -0.4695
 6302SOL    HW130368   4.161   4.401   1.766  0.6093  0.0051 -0.6885
 6302SOL    HW230369   4.265   4.427   1.668  0.6224  0.4441  0.2869
 6303SOL     OW30370   1.085   3.207  14.718  0.0457  0.0404 -0.2240
 6303SOL    HW130371   1.164   3.210  14.664 -0.8566 -0.9725 -1.6298
 6303SOL    HW230372   1.118   3.259  14.790  0.4741  0.0972 -0.4665
 6304SOL     OW30373   3.284   0.595   5.201  0.2660 -0.3555 -0.1392
 6304SOL    HW130374   3.195   0.618   5.175  0.3388 -0.5378 -0.5426
 6304SOL    HW230375   3.310   0.555   5.118  0.0932 -0.5320 -0.1107
 6305SOL     OW30376   0.835   0.590   4.336  0.0243 -0.0628 -0.2036
 6305SOL    HW130377   0.777   0.647   4.285 -0.6080 -0.2799  0.2766
 6305SOL    HW230378   0.792   0.587   4.421 -1.0071  0.7745 -0.6927
 6306SOL     OW30379   0.200   1.775   4.583  0.2286 -0.3094  1.1611
 6306SOL    HW130380   0.120   1.754   4.632 -0.5836  0.0056 -0.0151
 6306SOL    HW230381   0.262   1.749   4.651  3.1408 -0.1935 -1.4656
 6307SOL     OW30382   2.378   3.996   5.925 -0.1632 -0.0627  0.5423
 6307SOL    HW130383   2.384   4.082   5.882  1.6403 -0.2580  0.4283
 6307SOL    HW230384   2.469   3.967   5.921  0.5749  2.2637  0.4541
 6308SOL     OW30385   4.456   3.627   9.423 -0.2916  0.0685 -0.0291
 6308SOL    HW130386   4.515   3.574   9.477  0.1870  0.2897 -0.3247
 6308SOL    HW230387   4.511   3.641   9.346  1.1615 -0.2737  0.9447
 6309SOL     OW30388   0.563   0.085  15.800  0.2428  0.0741 -0.0553
 6309SOL    HW130389   0.637   0.079  15.740  0.7311  0.7272  0.4796
 6309SOL    HW230390   0.579   0.173  15.834  0.5202  0.2331 -0.6044
 6310SOL     OW30391   2.508   2.396   9.748 -0.4128  0.0038  0.3942
 6310SOL    HW130392   2.532   2.320   9.801  2.0840 -1.3183 -2.7021
 6310SOL    HW230393   2.595   2.422   9.720 -0.8871  0.6312 -0.4817
 6311SOL     OW30394   1.063   4.066   7.036  0.0856 -0.1613 -0.2281
 6311SOL    HW130395   1.012   4.024   6.967 -1.0853  2.5899 -1.0011
 6311SOL    HW230396   1.147   4.025   7.016  0.7872  1.0801  0.1908
 6312SOL     OW30397   1.251   2.468  13.099 -0.6342  0.0600  0.5623
 6312SOL    HW130398   1.302   2.404  13.148 -0.6885  0.7542  1.5268
 6312SOL    HW230399   1.273   2.448  13.009 -1.7920  2.9199 -0.3695
 6313SOL     OW30400   2.208   1.268   3.082  0.4664 -0.5646  0.0501
 6313SOL    HW130401   2.206   1.287   2.988 -1.4149 -1.9092 -0.1918
 6313SOL    HW230402   2.140   1.203   3.101 -0.9991  0.6841 -0.9077
 6314SOL     OW30403   3.953   3.742   1.512  0.8108  0.0429 -0.0277
 6314SOL    HW130404   3.976   3.666   1.565  0.1328 -0.2336 -0.1287
 6314SOL    HW230405   3.861   3.721   1.496  0.9924 -1.3485  0.7710
 6315SOL     OW30406   1.838   3.639  15.104 -0.0318  0.1269  0.6440
 6315SOL    HW130407   1.930   3.661  15.089 -0.7966  3.9162  1.5566
 6315SOL    HW230408   1.849   3.577  15.177  1.6710 -1.4291 -0.9148
 6316SOL     OW30409   3.408   1.226   1.271  0.1010  0.2903 -0.0033
 6316SOL    HW130410   3.366   1.144   1.245 -1.9332  1.4295 -0.3541
 6316SOL    HW230411   3.389   1.275   1.191  1.2249 -1.6460 -1.4447
 6317SOL     OW30412   4.003   3.251  12.688 -0.3562  0.9103  0.1822
 6317SOL    HW130413   4.016   3.163  12.722 -0.0950  0.9063  0.0670
 6317SOL    HW230414   4.040   3.241  12.601  0.8748 -1.2813  0.9653
 6318SOL     OW30415   2.630   3.042  14.597  0.2811  0.4287 -0.7067
 6318SOL    HW130416   2.619   2.989  14.676 -1.0441  1.0747 -0.4530
 6318SOL    HW230417   2.537   3.059  14.580 -1.0622 -2.4878  3.4965
 6319SOL     OW30418   1.068   0.923  13.204  0.3130 -0.3743 -0.0162
 6319SOL    HW130419   1.124   1.000  13.203  0.8794 -0.8112 -1.2244
 6319SOL    HW230420   1.110   0.873  13.135  0.8329  0.7544 -0.5069
 6320SOL     OW30421   2.601   1.401  16.238 -0.2190 -0.0366  0.5665
 6320SOL    HW130422   2.576   1.309  16.248 -1.4126  0.1338 -0.7557
 6320SOL    HW230423   2.605   1.421  16.144 -0.1663 -0.0757  0.5603
 6321SOL     OW30424   3.915   1.890   1.576 -0.1805  0.9292 -0.3576
 6321SOL    HW130425   3.920   1.798   1.604  0.4086  1.0339 -0.1247
 6321SOL    HW230426   3.890   1.936   1.656  0.3420 -0.7320  0.7544
 6322SOL     OW30427   2.926   3.559   5.982 -0.0889 -0.5252  0.7767
 6322SOL    HW130428   2.889   3.596   5.902  0.7835  0.5775  0.8778
 6322SOL    HW230429   2.910   3.465   5.980  2.0988 -0.9116  1.5966
 6323SOL     OW30430   4.599   0.894  12.227  0.3221 -0.2267  0.4209
 6323SOL    HW130431   4.694   0.887  12.215  0.1872 -0.7442 -0.3814
 6323SOL    HW230432   4.586   0.986  12.203 -1.2282 -1.0123 -1.7792
 6324SOL     OW30433   0.602   2.514  11.284 -0.1655  0.4561  0.3753
 6324SOL    HW130434   0.637   2.540  11.198  1.1989  0.2080  0.8590
 6324SOL    HW230435   0.637   2.428  11.305  0.0359  0.8387  1.5701
 6325SOL     OW30436   2.653   2.770   7.916  0.1643  0.8860 -0.1048
 6325SOL    HW130437   2.675   2.792   7.826  0.2316  2.7097  0.3446
 6325SOL    HW230438   2.700   2.839   7.964 -1.0229  1.1451  0.7020
 6326SOL     OW30439   3.192   2.265   3.149 -0.4578 -0.1036  0.0809
 6326SOL    HW130440   3.172   2.255   3.056 -0.0503 -1.7049  0.1526
 6326SOL    HW230441   3.177   2.176   3.181  0.8518  0.0790  1.2228
 6327SOL     OW30442   1.048   2.985   3.697 -0.2668  0.1878 -0.0891
 6327SOL    HW130443   0.981   2.919   3.678  1.1704 -1.2605 -0.0492
 6327SOL    HW230444   1.096   2.942   3.767 -1.0730  0.5687  0.7019
 6328SOL     OW30445   1.907   0.650  13.167  0.3227  0.5847 -0.0554
 6328SOL    HW130446   1.820   0.686  13.152 -0.6546 -3.3400 -3.6918
 6328SOL    HW230447   1.922   0.600  13.087  0.7686 -1.0233  1.0247
 6329SOL     OW30448   3.348   2.940   6.841  0.4249  0.0655  0.1026
 6329SOL    HW130449   3.394   2.856   6.846 -0.1598 -0.3481 -1.2931
 6329SOL    HW230450   3.422   2.999   6.855  0.9631 -0.1558 -1.7803
 6330SOL     OW30451   0.492   0.775   8.987  0.4824 -0.0227 -0.0763
 6330SOL    HW130452   0.489   0.871   8.981  2.1517  0.2149  2.8598
 6330SOL    HW230453   0.438   0.761   9.064  0.1719  0.6106 -0.1766
 6331SOL     OW30454   1.844   0.180  16.764  0.3778 -0.2214  0.2582
 6331SOL    HW130455   1.753   0.206  16.779  0.4461 -0.6063  1.3257
 6331SOL    HW230456   1.852   0.206  16.672 -1.4632  3.4536  1.1257
 6332SOL     OW30457   2.293   0.122   1.669  0.0900  0.1383  0.2288
 6332SOL    HW130458   2.271   0.036   1.633 -0.3074  0.1635  0.4097
 6332SOL    HW230459   2.316   0.089   1.756  0.7319 -0.3146 -0.1114
 6333SOL     OW30460   0.785   1.398   7.829 -0.0825  0.5561 -0.5168
 6333SOL    HW130461   0.704   1.353   7.850 -0.6735  1.8543 -0.0219
 6333SOL    HW230462   0.842   1.322   7.839 -0.4893  0.1570 -1.2311
 6334SOL     OW30463   1.586   0.173   9.210  0.1035 -0.5952 -0.0452
 6334SOL    HW130464   1.563   0.266   9.201  0.0903 -0.5750  0.1843
 6334SOL    HW230465   1.636   0.172   9.292  1.3275  0.9436 -0.7577
 6335SOL     OW30466   1.159   0.269   2.831  0.0625  0.6369 -0.3372
 6335SOL    HW130467   1.085   0.329   2.826 -1.8383 -1.6947 -0.5726
 6335SOL    HW230468   1.114   0.184   2.830 -3.3646  2.4753 -0.2648
 6336SOL     OW30469   3.184   4.169   8.688 -0.4379 -0.1559 -0.3922
 6336SOL    HW130470   3.221   4.255   8.669  3.1648 -1.6169  0.0588
 6336SOL    HW230471   3.233   4.141   8.765  1.1984 -0.3311 -1.5030
 6337SOL     OW30472   4.424   4.457  10.581  0.1468  0.1841  0.2767
 6337SOL    HW130473   4.404   4.439  10.673 -2.1587 -0.2202 -0.2774
 6337SOL    HW230474   4.352   4.407  10.541  0.9252  0.2359 -1.1883
 6338SOL     OW30475   0.465   0.798   7.763 -0.3920 -0.4219  0.6944
 6338SOL    HW130476   0.525   0.802   7.838 -0.1602  0.4902  0.4640
 6338SOL    HW230477   0.463   0.705   7.743 -0.5369 -0.3283  0.2709
 6339SOL     OW30478   0.981   3.490   7.099 -0.0626  0.2528 -0.1191
 6339SOL    HW130479   0.941   3.462   7.182 -0.5762 -0.7693 -0.7186
 6339SOL    HW230480   0.913   3.466   7.037 -0.4063  1.7114 -0.3100
 6340SOL     OW30481   2.428   0.798   3.967 -0.3232 -0.7066  0.1322
 6340SOL    HW130482   2.417   0.710   4.002 -3.3422 -0.5214 -0.3269
 6340SOL    HW230483   2.523   0.811   3.971 -0.4240  0.0460  0.0164
 6341SOL     OW30484   3.878   0.926  11.418  0.0482 -0.5598 -0.1748
 6341SOL    HW130485   3.790   0.934  11.382  0.3615 -0.1666 -0.8589
 6341SOL    HW230486   3.932   0.890  11.347 -1.5647  0.5775 -1.9597
 6342SOL     OW30487   4.453   1.900   7.449 -0.6182 -0.3563  0.0263
 6342SOL    HW130488   4.535   1.872   7.410 -0.8178 -0.3232 -0.4150
 6342SOL    HW230489   4.412   1.814   7.456 -2.0149  0.2875 -0.1376
 6343SOL     OW30490   3.190   4.480   2.755 -0.4325  0.0002  0.9049
 6343SOL    HW130491   3.214   4.489   2.662  0.0879  0.0390  1.0399
 6343SOL    HW230492   3.258   4.418   2.783  0.6577  1.3639  1.2666
 6344SOL     OW30493   3.857   0.560   9.197  0.3659 -0.2036 -0.2321
 6344SOL    HW130494   3.860   0.654   9.185  0.6769 -0.1710  0.0777
 6344SOL    HW230495   3.819   0.558   9.285 -0.1186  0.0852 -0.4326
 6345SOL     OW30496   0.001   0.867  15.206  0.1195 -0.2516  0.3190
 6345SOL    HW130497   4.645   0.917  15.212  0.3015  0.3391 -2.0104
 6345SOL    HW230498   4.700   0.802  15.140 -0.7642 -1.4285  1.8261
 6346SOL     OW30499   4.191   3.896   6.402 -0.0589  0.4437 -0.5054
 6346SOL    HW130500   4.155   3.946   6.475  0.2624  1.5861 -1.1184
 6346SOL    HW230501   4.280   3.930   6.387  0.7879 -0.4699  2.5901
 6347SOL     OW30502   2.119   3.403   7.656 -0.3291  0.1585  0.2726
 6347SOL    HW130503   2.181   3.406   7.729  1.1442  1.0615 -0.9961
 6347SOL    HW230504   2.033   3.393   7.697  0.3113 -0.5953  1.4195
 6348SOL     OW30505   2.067   0.050   9.878 -0.1693  0.0696  0.5276
 6348SOL    HW130506   2.000   0.118   9.870 -1.6733 -1.3695  0.9132
 6348SOL    HW230507   2.026   4.694   9.848  1.6934  0.0136 -1.8251
 6349SOL     OW30508   3.178   0.635   3.074 -0.2081 -0.0103 -0.0536
 6349SOL    HW130509   3.243   0.570   3.049 -0.6171 -0.1123 -0.8445
 6349SOL    HW230510   3.128   0.648   2.994 -0.1483  0.3167 -0.0383
 6350SOL     OW30511   2.953   3.292  11.634  0.3050  0.5388  0.0680
 6350SOL    HW130512   2.903   3.359  11.680  1.4735 -1.0128  3.6500
 6350SOL    HW230513   2.947   3.217  11.694  1.5496  0.9673  0.7219
 6351SOL     OW30514   0.122   4.504   8.801  0.3310  0.1776 -1.0190
 6351SOL    HW130515   0.049   4.514   8.862  0.9859  2.9796 -0.6811
 6351SOL    HW230516   0.175   4.442   8.850 -0.1321  2.2200  2.0912
 6352SOL     OW30517   4.018   1.055  12.272 -0.1846  0.0413  0.1194
 6352SOL    HW130518   3.952   1.020  12.213  1.1279 -1.3327 -0.5229
 6352SOL    HW230519   3.964   1.097  12.339  1.2176 -0.5553  1.6294
 6353SOL     OW30520   4.378   2.792   1.464  0.5281  0.3835  0.4098
 6353SOL    HW130521   4.283   2.792   1.453  0.8101 -1.5351 -2.0970
 6353SOL    HW230522   4.382   2.822   1.555 -0.5185 -1.5945  1.1221
 6354SOL     OW30523   3.650   2.277  14.033  0.0175 -0.4489  0.0252
 6354SOL    HW130524   3.665   2.321  13.949 -1.0375 -0.3087 -0.0873
 6354SOL    HW230525   3.625   2.189  14.006  1.7987  0.3862 -4.3845
 6355SOL     OW30526   2.706   4.225  15.837  0.0947 -0.1771 -0.1159
 6355SOL    HW130527   2.614   4.228  15.813  0.1271  0.0660 -0.2187
 6355SOL    HW230528   2.707   4.150  15.896 -2.2640 -0.7589 -0.8367
 6356SOL     OW30529   0.119   2.957   4.749  0.3052  0.1423 -0.1586
 6356SOL    HW130530   0.078   2.972   4.664 -0.0303 -3.6670 -0.7046
 6356SOL    HW230531   0.053   2.927   4.812  0.8104  2.1474  1.3084
 6357SOL     OW30532   0.470   4.639   3.235  0.0375  0.5093  0.1653
 6357SOL    HW130533   0.433   4.679   3.314 -0.5176  0.5860 -0.1381
 6357SOL    HW230534   0.504   4.557   3.271  0.7336  0.8515  0.2739
 6358SOL     OW30535   0.210   4.513  13.917 -0.1364  0.5670  0.1148
 6358SOL    HW130536   0.160   4.564  13.981 -2.0049 -0.6704 -0.3382
 6358SOL    HW230537   0.244   4.443  13.973 -0.9631  0.9051  1.0477
 6359SOL     OW30538   0.271   3.200   7.569 -0.3725  0.3187  0.4985
 6359SOL    HW130539   0.343   3.144   7.595 -1.4366 -0.4459  1.7562
 6359SOL    HW230540   0.196   3.142   7.555  1.9819 -3.3317  3.0886
 6360SOL     OW30541   3.892   2.967   5.083  0.1063  0.1370 -0.6173
 6360SOL    HW130542   3.874   3.011   5.000 -0.8985  0.9507  0.0280
 6360SOL    HW230543   3.831   3.007   5.144  0.7669  1.3210 -0.7191
 6361SOL     OW30544   4.562   2.787   5.646 -0.2118  0.1928  0.1399
 6361SOL    HW130545   4.563   2.789   5.742  1.2424  0.5159  0.1177
 6361SOL    HW230546   4.490   2.845   5.623  1.0419  1.5064 -0.4825
 6362SOL     OW30547   1.223   0.447   5.079 -1.0541  0.1910 -0.6244
 6362SOL    HW130548   1.292   0.505   5.048  0.5223 -1.0996  0.4476
 6362SOL    HW230549   1.232   0.470   5.171 -1.0384  0.0244 -0.5836
 6363SOL     OW30550   4.624   4.379   5.189 -0.0321  0.1118 -0.3618
 6363SOL    HW130551   4.555   4.423   5.240  0.1303 -2.2452  1.8501
 6363SOL    HW230552   4.678   4.455   5.168  0.6907 -0.9151 -2.1888
 6364SOL     OW30553   0.221   0.239  13.403 -0.3821 -0.0648  0.0568
 6364SOL    HW130554   0.153   0.195  13.352 -0.1923  0.6007 -0.7841
 6364SOL    HW230555   0.240   0.177  13.473 -0.1390 -1.4880 -1.2782
 6365SOL     OW30556   0.270   2.870   5.255  0.2247  0.4441  0.2394
 6365SOL    HW130557   0.255   2.820   5.175  0.8668 -1.0350  1.0452
 6365SOL    HW230558   0.195   2.929   5.259 -0.2469 -0.0943 -0.6338
 6366SOL     OW30559   2.140   3.035   2.371  0.3431 -0.1355  0.2340
 6366SOL    HW130560   2.062   2.997   2.330 -0.5065  0.3429  1.3844
 6366SOL    HW230561   2.178   2.947   2.381 -0.7789 -0.5227  1.1163
 6367SOL     OW30562   3.054   0.278   6.080 -0.1047  0.2176 -0.2863
 6367SOL    HW130563   3.074   0.300   5.990  1.3750 -2.0206 -0.5058
 6367SOL    HW230564   3.071   0.184   6.071  0.2058  0.3019 -0.5812
 6368SOL     OW30565   3.220   4.141  16.255  0.4171  0.4542 -0.0764
 6368SOL    HW130566   3.141   4.144  16.310  0.8622 -0.2464  0.6027
 6368SOL    HW230567   3.271   4.217  16.282 -1.6764  1.9147 -0.2485
 6369SOL     OW30568   4.503   1.941  12.090 -0.0429  0.1397  0.4201
 6369SOL    HW130569   4.465   1.893  12.016  0.6480  0.1681  0.0448
 6369SOL    HW230570   4.430   1.989  12.130 -1.3077 -1.5718  0.1501
 6370SOL     OW30571   0.613   2.539   7.824  0.2619 -0.0591  0.3810
 6370SOL    HW130572   0.661   2.497   7.752  3.0299  2.4116  0.8235
 6370SOL    HW230573   0.633   2.628   7.798 -1.8586 -0.2249 -1.8245
 6371SOL     OW30574   0.571   3.164  12.673 -0.1636 -0.1717  0.1083
 6371SOL    HW130575   0.572   3.144  12.767  0.8819  0.8301  0.3100
 6371SOL    HW230576   0.599   3.085  12.628  0.1067  0.5585 -1.0042
 6372SOL     OW30577   4.025   4.622   2.661 -0.5838 -0.1837 -0.0009
 6372SOL    HW130578   3.994   4.711   2.677  1.8355  0.7854 -0.7206
 6372SOL    HW230579   4.037   4.588   2.750  0.2684 -1.5755 -0.6498
 6373SOL     OW30580   0.659   2.766   0.866 -0.8904  0.4080  0.4407
 6373SOL    HW130581   0.604   2.708   0.919  0.6096 -1.3711  0.0553
 6373SOL    HW230582   0.716   2.798   0.937  1.8079 -0.4603 -1.3510
 6374SOL     OW30583   1.810   4.462   1.797  0.1807  0.1286 -0.3207
 6374SOL    HW130584   1.814   4.546   1.750 -2.0313 -0.3563 -1.4069
 6374SOL    HW230585   1.778   4.493   1.881  0.5928  0.6744 -0.3687
 6375SOL     OW30586   4.011   2.149  11.406  0.3116  0.2458  0.1639
 6375SOL    HW130587   3.965   2.192  11.334  2.3780  0.3509 -1.0772
 6375SOL    HW230588   4.106   2.151  11.397  0.5189  0.0342  2.2849
 6376SOL     OW30589   3.827   0.910   3.922  0.0297 -0.3138  0.1523
 6376SOL    HW130590   3.774   0.849   3.974  1.8283 -3.2799 -1.5254
 6376SOL    HW230591   3.910   0.918   3.969 -0.2474  1.5729  0.3142
 6377SOL     OW30592   1.525   1.150   3.464 -0.0380 -0.1195 -0.4049
 6377SOL    HW130593   1.430   1.160   3.465 -0.0418 -0.3804  1.9867
 6377SOL    HW230594   1.521   1.055   3.480 -0.8650 -0.1950 -1.0715
 6378SOL     OW30595   1.606   1.655  10.079 -0.1783  0.5448 -0.2505
 6378SOL    HW130596   1.655   1.610  10.148 -0.6664  2.3321  1.2596
 6378SOL    HW230597   1.665   1.717  10.037  0.4000 -0.4952 -0.9639
 6379SOL     OW30598   1.384   1.265   5.249 -0.0931 -0.2950 -0.4564
 6379SOL    HW130599   1.443   1.325   5.203  3.5478 -0.7907  3.5636
 6379SOL    HW230600   1.441   1.189   5.260  0.7421  0.4157  0.0867
 6380SOL     OW30601   2.402   1.760  15.029 -0.6268 -0.1360 -0.1432
 6380SOL    HW130602   2.357   1.824  14.974 -2.4699 -0.5001  0.9471
 6380SOL    HW230603   2.331   1.695  15.036 -2.5189  1.7556 -1.4774
 6381SOL     OW30604   1.602   3.027   6.295 -0.6346 -0.0059  0.0043
 6381SOL    HW130605   1.622   3.120   6.285  0.7072 -0.5499 -2.3660
 6381SOL    HW230606   1.530   3.021   6.232 -1.1966  1.3209  0.5388
 6382SOL     OW30607   0.022   1.424   7.857 -0.3115  0.1892 -0.3770
 6382SOL    HW130608   0.016   1.450   7.949 -0.1497 -0.9781 -0.0361
 6382SOL    HW230609   0.110   1.447   7.829 -0.1263  0.3108  0.2868
 6383SOL     OW30610   3.898   1.936   0.095 -0.1151  0.0151  0.3741
 6383SOL    HW130611   3.907   2.024   0.132 -0.8104  0.5102 -0.6605
 6383SOL    HW230612   3.987   1.901   0.106 -1.2998 -2.4050  2.1104
 6384SOL     OW30613   0.375   1.731   1.056  0.3391 -0.4478  0.0379
 6384SOL    HW130614   0.307   1.687   1.107  1.4990 -0.1720  1.7784
 6384SOL    HW230615   0.457   1.707   1.098  0.1670 -1.1118  0.0075
 6385SOL     OW30616   3.290   3.050   8.957  0.2568  0.2185 -0.0979
 6385SOL    HW130617   3.288   3.053   8.862  2.7746 -0.5764 -0.1927
 6385SOL    HW230618   3.351   3.123   8.971 -2.3710  2.6452 -1.4326
 6386SOL     OW30619   2.789   0.661   4.509 -0.4635 -0.4492  0.9880
 6386SOL    HW130620   2.803   0.596   4.439 -4.5835 -0.1613 -0.0948
 6386SOL    HW230621   2.779   0.599   4.581 -1.7045 -1.7787 -0.3498
 6387SOL     OW30622   1.629   2.390   7.593  0.0403 -0.0185 -0.1146
 6387SOL    HW130623   1.655   2.342   7.514 -1.5070 -0.5291 -0.3126
 6387SOL    HW230624   1.715   2.408   7.629  0.4612  0.7543 -1.5028
 6388SOL     OW30625   0.349   3.871   3.133 -0.3641  0.0228 -0.4372
 6388SOL    HW130626   0.364   3.916   3.216  0.6493 -1.8455  0.3856
 6388SOL    HW230627   0.345   3.784   3.173 -2.2191  0.0596 -0.5411
 6389SOL     OW30628   3.828   1.821  17.380  0.1764  0.0206 -0.1536
 6389SOL    HW130629   3.868   1.788  17.300 -1.3036 -0.4935 -0.6930
 6389SOL    HW230630   3.796   1.907  17.354  2.1006  0.9785  0.6328
 6390SOL     OW30631   0.953   1.213  13.356 -0.0364  0.1926 -0.1093
 6390SOL    HW130632   1.006   1.218  13.436  0.7873 -0.3157 -0.6302
 6390SOL    HW230633   1.005   1.155  13.301 -0.0193  1.2557 -1.2074
 6391SOL     OW30634   0.409   0.895  15.514  0.2134  0.8453  0.4199
 6391SOL    HW130635   0.430   0.832  15.446 -2.0799 -0.2162  0.6960
 6391SOL    HW230636   0.436   0.979  15.476  1.2737  0.5508  0.5455
 6392SOL     OW30637   1.174   0.964   3.678  0.5773  0.3161 -0.1416
 6392SOL    HW130638   1.169   0.938   3.587 -1.0273 -3.4628  1.0305
 6392SOL    HW230639   1.081   0.984   3.693  0.6272  0.4132  0.0389
 6393SOL     OW30640   2.682   2.036   9.180 -0.0036 -0.0762 -0.1810
 6393SOL    HW130641   2.627   2.038   9.101  1.4574 -2.2825 -1.2647
 6393SOL    HW230642   2.730   1.955   9.161 -0.9329 -0.6511 -0.1043
 6394SOL     OW30643   4.097   1.596   2.380 -0.0690  0.1929  0.5389
 6394SOL    HW130644   4.141   1.629   2.458 -0.1412  0.4204  0.4829
 6394SOL    HW230645   4.060   1.519   2.422  0.6162 -0.4211  0.0362
 6395SOL     OW30646   0.346   1.895   5.041  0.2579  0.5063 -0.1606
 6395SOL    HW130647   0.292   1.973   5.030 -1.9504 -1.2055 -1.4433
 6395SOL    HW230648   0.395   1.907   5.122 -0.6898  0.2031  0.4594
 6396SOL     OW30649   3.837   2.795   4.303  0.5219 -0.0781 -0.2112
 6396SOL    HW130650   3.870   2.783   4.214  2.1789  1.8312  0.1558
 6396SOL    HW230651   3.755   2.844   4.293 -0.5407 -2.4087 -2.6634
 6397SOL     OW30652   0.417   0.653   1.838 -0.1535 -0.0185 -0.3044
 6397SOL    HW130653   0.350   0.609   1.891 -1.2851  1.9984 -0.0540
 6397SOL    HW230654   0.433   0.580   1.779  2.3487  0.3349 -0.0668
 6398SOL     OW30655   3.504   4.534  11.446 -0.0172  0.0461 -0.1422
 6398SOL    HW130656   3.568   4.597  11.415  0.1484 -0.8434 -1.6202
 6398SOL    HW230657   3.555   4.483  11.509  1.3619 -0.2999 -1.5391
 6399SOL     OW30658   3.965   1.082   8.974  0.6347 -0.2939 -0.0102
 6399SOL    HW130659   4.046   1.032   8.966  1.0961  0.5072 -0.3615
 6399SOL    HW230660   3.983   1.151   9.037  0.2836  0.0703 -0.3047
 6400SOL     OW30661   0.890   4.479   8.215  0.4420  0.5101 -0.1237
 6400SOL    HW130662   0.808   4.439   8.244  0.0679  1.4930  0.1879
 6400SOL    HW230663   0.931   4.396   8.189  1.0753  0.6807  0.3202
 6401SOL     OW30664   3.355   0.161   5.196  0.2593  0.0283 -0.0412
 6401SOL    HW130665   3.440   0.122   5.175  0.5977  0.5361  0.3910
 6401SOL    HW230666   3.308   0.085   5.229  0.2222 -0.1896 -0.5883
 6402SOL     OW30667   0.810   2.668   1.707  0.2641 -0.1382 -0.3179
 6402SOL    HW130668   0.810   2.693   1.799  0.2509 -1.7061  0.1094
 6402SOL    HW230669   0.837   2.576   1.706  2.0851  0.4194 -4.5719
 6403SOL     OW30670   2.656   4.417   6.341 -0.8930 -0.1171  0.8454
 6403SOL    HW130671   2.610   4.396   6.422 -1.7226  0.8245  0.6126
 6403SOL    HW230672   2.746   4.438   6.366 -0.4493 -1.4278  0.3180
 6404SOL     OW30673   2.507   2.014   8.987  0.2901  0.2454 -0.2584
 6404SOL    HW130674   2.450   1.960   9.042 -0.9929  2.2266  0.3629
 6404SOL    HW230675   2.446   2.042   8.919  0.0904  2.8233  0.9527
 6405SOL     OW30676   3.143   0.912  14.549  0.5646  0.0583 -0.1762
 6405SOL    HW130677   3.232   0.890  14.577  0.6710  3.8839  2.6122
 6405SOL    HW230678   3.165   0.896  14.458 -1.1219  0.3250 -0.6218
 6406SOL     OW30679   3.123   2.181   6.852  0.4428  0.4644 -0.4590
 6406SOL    HW130680   3.159   2.125   6.784  2.0568  1.2808 -0.2857
 6406SOL    HW230681   3.037   2.140   6.860  0.7778 -0.2662 -0.6152
 6407SOL     OW30682   4.182   0.955   8.833 -0.5362 -0.0427 -0.5717
 6407SOL    HW130683   4.211   0.873   8.872  0.1717  0.2324 -0.5163
 6407SOL    HW230684   4.257   0.984   8.781 -1.4183  0.7757 -1.3911
 6408SOL     OW30685   4.321   2.935  15.023 -0.2811  0.2601  0.4390
 6408SOL    HW130686   4.288   3.021  14.999  0.8560  1.3809  2.8550
 6408SOL    HW230687   4.246   2.899  15.069  0.7867  0.9050  2.7103
 6409SOL     OW30688   3.898   2.889   8.795 -0.2867  0.3913  0.3819
 6409SOL    HW130689   3.804   2.899   8.777  0.0892  0.2481 -1.6291
 6409SOL    HW230690   3.911   2.939   8.876  3.2240 -0.1263  0.1373
 6410SOL     OW30691   1.562   2.504   6.801 -0.5475  0.5072  0.3555
 6410SOL    HW130692   1.642   2.471   6.761 -0.1809 -1.4684  2.7307
 6410SOL    HW230693   1.504   2.436   6.768  1.2178 -1.3533  1.0998
 6411SOL     OW30694   2.736   3.686   4.006  0.8843  0.2653  0.8918
 6411SOL    HW130695   2.758   3.613   3.949  0.3416  1.1958 -0.5159
 6411SOL    HW230696   2.678   3.740   3.951  0.6978 -1.2986 -0.4372
 6412SOL     OW30697   4.681   2.513   4.688 -0.0604  0.3260  0.1602
 6412SOL    HW130698   4.638   2.595   4.664 -1.6394 -1.2003 -2.2297
 6412SOL    HW230699   4.615   2.456   4.647  0.3894  0.0267 -0.1433
 6413SOL     OW30700   0.255   4.413   5.305 -0.0767 -0.1503  0.0346
 6413SOL    HW130701   0.271   4.352   5.233 -2.6548 -0.4936 -0.2452
 6413SOL    HW230702   0.160   4.406   5.311 -0.2485  0.9968 -1.6228
 6414SOL     OW30703   0.357   0.911   5.858 -0.3565  0.4234 -0.3629
 6414SOL    HW130704   0.262   0.910   5.869 -0.2345  2.3915  1.0791
 6414SOL    HW230705   0.375   0.997   5.820  1.8806  0.3003  0.4101
 6415SOL     OW30706   4.710   2.725  16.258 -0.0559  0.1239  0.1098
 6415SOL    HW130707   4.692   2.677  16.177  2.7724 -0.8845  0.0803
 6415SOL    HW230708   4.653   2.798  16.234  0.1586 -0.1436 -1.1955
 6416SOL     OW30709   0.028   3.673  10.505  0.4349 -0.3230 -0.3679
 6416SOL    HW130710   0.017   3.693  10.598  1.4297  1.3738 -0.6183
 6416SOL    HW230711   0.001   3.582  10.512  0.0877 -0.3391 -2.0051
 6417SOL     OW30712   0.543   2.102   4.786 -0.3630  0.0770 -0.2024
 6417SOL    HW130713   0.562   2.096   4.880  0.2972  0.4006 -0.3123
 6417SOL    HW230714   0.470   2.161   4.803 -1.0122 -0.8051  0.0656
 6418SOL     OW30715   4.315   4.112  14.022 -0.1844  0.3874  0.4140
 6418SOL    HW130716   4.271   4.036  14.061 -0.8853  0.5702 -0.0155
 6418SOL    HW230717   4.259   4.181  14.058 -1.6001 -0.8703  0.6477
 6419SOL     OW30718   0.514   0.821  13.346  0.4963  0.2012  0.0469
 6419SOL    HW130719   0.523   0.869  13.264  0.4013  0.5935  0.2633
 6419SOL    HW230720   0.590   0.764  13.360  2.3468  2.8136  0.7531
 6420SOL     OW30721   2.143   0.706  13.001 -0.5365 -0.0024 -0.4427
 6420SOL    HW130722   2.209   0.742  13.060  1.7152 -0.4122 -2.7199
 6420SOL    HW230723   2.070   0.766  13.016 -3.0042 -2.8645 -0.9977
 6421SOL     OW30724   1.777   1.433  13.755 -0.1228 -0.1997  0.1778
 6421SOL    HW130725   1.777   1.518  13.799 -0.9043 -0.5750  0.9163
 6421SOL    HW230726   1.862   1.428  13.712 -0.2476 -0.6139 -0.0177
 6422SOL     OW30727   1.203   4.579  14.710 -0.5374  0.0061  0.0035
 6422SOL    HW130728   1.223   4.492  14.746  2.0689  0.5032 -0.2266
 6422SOL    HW230729   1.257   4.635  14.766  2.2374 -1.5167 -1.1190
 6423SOL     OW30730   2.490   2.836   6.262 -0.4640  0.0339 -0.3774
 6423SOL    HW130731   2.514   2.796   6.346 -2.4967 -1.2428 -0.4063
 6423SOL    HW230732   2.422   2.899   6.284 -2.0938 -1.3425 -1.4381
 6424SOL     OW30733   2.667   0.986   2.983 -0.2808  0.5307  0.0151
 6424SOL    HW130734   2.688   0.893   2.974 -0.7296  0.8197 -3.9586
 6424SOL    HW230735   2.596   0.995   2.919 -1.5376  0.0263  1.3531
 6425SOL     OW30736   3.108   4.396   5.626  0.1885  0.3474 -0.2476
 6425SOL    HW130737   3.163   4.430   5.696 -1.3348  2.7757 -0.2163
 6425SOL    HW230738   3.148   4.310   5.615 -1.9424 -0.7580  0.4269
 6426SOL     OW30739   4.276   2.313   8.950  0.6961  0.1320  0.4382
 6426SOL    HW130740   4.274   2.296   9.045 -0.8300 -2.5626 -0.0760
 6426SOL    HW230741   4.213   2.385   8.949  2.0681  1.3550  1.5248
 6427SOL     OW30742   3.634   1.728  11.976 -0.6945 -0.3831 -0.2926
 6427SOL    HW130743   3.682   1.654  12.012  0.5729 -0.1773 -1.5748
 6427SOL    HW230744   3.695   1.796  12.005  0.7922 -1.6806 -0.3855
 6428SOL     OW30745   3.555   4.524   4.012 -0.0290  0.1076 -0.6832
 6428SOL    HW130746   3.604   4.553   4.090 -0.6295  1.1674 -0.6925
 6428SOL    HW230747   3.477   4.480   4.047 -0.5885  2.6421  1.3236
 6429SOL     OW30748   2.950   3.082  14.541 -0.3127  0.6055 -0.2075
 6429SOL    HW130749   2.954   3.103  14.447 -1.0649  0.0888 -0.3608
 6429SOL    HW230750   2.855   3.075  14.550 -0.1754 -0.5121  0.3223
 6430SOL     OW30751   1.243   3.564  14.431 -0.2322  0.4846  0.4789
 6430SOL    HW130752   1.310   3.496  14.436 -2.0496 -1.4932 -1.7859
 6430SOL    HW230753   1.160   3.517  14.421  0.8265 -0.9848 -1.6121
 6431SOL     OW30754   3.064   4.360   5.239 -0.5306 -0.1350 -0.3815
 6431SOL    HW130755   3.025   4.316   5.163  0.4754  1.3854 -1.7840
 6431SOL    HW230756   3.068   4.288   5.302  0.2677  0.3330  0.0849
 6432SOL     OW30757   2.205   1.883   8.391 -0.1969 -0.0206 -0.2085
 6432SOL    HW130758   2.229   1.793   8.368 -1.3933 -0.3760 -0.0933
 6432SOL    HW230759   2.142   1.863   8.460  0.7525  0.6802  0.8676
 6433SOL     OW30760   2.869   2.026  15.745 -0.7501 -0.0400  0.2288
 6433SOL    HW130761   2.868   2.004  15.652  1.1406  0.2007  0.1703
 6433SOL    HW230762   2.871   1.941  15.789  0.4230 -0.4459 -0.6088
 6434SOL     OW30763   0.514   1.384   8.408  0.0521 -0.2367  0.7079
 6434SOL    HW130764   0.514   1.368   8.313 -0.7274  0.9351  0.4969
 6434SOL    HW230765   0.582   1.451   8.413 -0.2012 -0.1862  3.1224
 6435SOL     OW30766   2.339   0.581   0.515  0.1021  0.5461 -0.1998
 6435SOL    HW130767   2.342   0.676   0.502 -2.1872  0.4393 -1.4079
 6435SOL    HW230768   2.403   0.566   0.585  1.0564  0.6170 -1.0535
 6436SOL     OW30769   2.984   0.549   4.233  0.3987 -0.0249  0.4722
 6436SOL    HW130770   3.041   0.625   4.231  1.4009 -0.7214  2.3804
 6436SOL    HW230771   2.933   0.566   4.154  0.0986  1.1385  0.9284
 6437SOL     OW30772   0.761   0.807   6.140 -0.3373 -0.1842  0.1919
 6437SOL    HW130773   0.842   0.759   6.127 -0.1649  0.0818  0.2890
 6437SOL    HW230774   0.730   0.766   6.220 -1.9226  0.4017 -0.0991
 6438SOL     OW30775   0.264   4.570   6.013  0.2305 -0.6135  0.4306
 6438SOL    HW130776   0.240   4.605   5.927 -1.0313 -0.0378  1.0256
 6438SOL    HW230777   0.358   4.561   5.993 -0.1258 -3.1415 -0.2053
 6439SOL     OW30778   3.476   2.428   7.178  0.5847  0.0282  0.0022
 6439SOL    HW130779   3.415   2.398   7.111  0.2719  1.0426 -0.1693
 6439SOL    HW230780   3.425   2.496   7.222  0.9457 -0.7774  1.6902
 6440SOL     OW30781   1.241   2.493   2.039 -0.7632  0.1237  0.0848
 6440SOL    HW130782   1.164   2.464   1.989 -0.1392 -0.9656 -0.2356
 6440SOL    HW230783   1.289   2.531   1.966 -0.4309  0.1083  0.3001
 6441SOL     OW30784   0.519   2.349  17.116  0.3492  0.5426  0.0154
 6441SOL    HW130785   0.584   2.298  17.163 -0.3208 -0.8962 -0.6027
 6441SOL    HW230786   0.557   2.436  17.114 -0.9006  1.0584 -2.3402
 6442SOL     OW30787   2.223   1.113   9.237  0.3431  0.7298  0.3519
 6442SOL    HW130788   2.201   1.205   9.219 -0.2479  1.0165  2.5335
 6442SOL    HW230789   2.234   1.114   9.332 -1.2325 -1.7844  0.5388
 6443SOL     OW30790   3.938   3.792  15.520 -0.8022  0.5545  0.0586
 6443SOL    HW130791   3.851   3.829  15.529 -0.9933 -0.5959  3.2236
 6443SOL    HW230792   3.981   3.820  15.601  2.4483  0.1607 -1.5341
 6444SOL     OW30793   2.963   3.233  10.567  0.1830  0.3639  0.7857
 6444SOL    HW130794   3.007   3.160  10.611 -0.6711 -0.9830 -0.5965
 6444SOL    HW230795   2.872   3.205  10.571 -0.1944  1.1336 -2.2561
 6445SOL     OW30796   1.153   0.657   9.125 -0.0600 -0.6583  0.5251
 6445SOL    HW130797   1.229   0.705   9.156 -0.2049 -0.4479  0.5514
 6445SOL    HW230798   1.148   0.677   9.031  1.0910  0.8675  0.7916
 6446SOL     OW30799   4.192   1.531  15.864  0.3572  0.1257 -0.8900
 6446SOL    HW130800   4.225   1.481  15.789  1.3234 -0.9502  0.2548
 6446SOL    HW230801   4.135   1.595  15.822  0.3215  2.2050  2.2860
 6447SOL     OW30802   2.212   2.659   6.134 -0.3186  0.4991 -0.3904
 6447SOL    HW130803   2.155   2.653   6.211  1.1913 -2.9443  0.4699
 6447SOL    HW230804   2.297   2.664   6.179  0.1410  0.0595 -1.2135
 6448SOL     OW30805   2.082   4.668   4.180 -0.6118 -0.0716  0.0789
 6448SOL    HW130806   1.987   4.661   4.193 -0.5615  2.1449  1.5696
 6448SOL    HW230807   2.090   4.654   4.085 -0.9706 -0.0663  0.0452
 6449SOL     OW30808   4.432   0.868  14.269  0.1753  0.2853 -0.0555
 6449SOL    HW130809   4.391   0.794  14.225  0.8438 -0.2821  0.2806
 6449SOL    HW230810   4.402   0.947  14.224  1.9309  1.2538  0.4781
 6450SOL     OW30811   3.416   4.068  11.547 -0.0362  0.4562  0.0133
 6450SOL    HW130812   3.499   4.080  11.592 -1.0861  3.5351  1.1331
 6450SOL    HW230813   3.376   4.000  11.602 -2.5438  3.4457  1.9167
 6451SOL     OW30814   4.515   3.343   2.889  0.0687  0.5903 -0.6876
 6451SOL    HW130815   4.531   3.418   2.831 -0.1094  2.0123  1.0802
 6451SOL    HW230816   4.541   3.270   2.833 -2.1772  0.3074 -1.3706
 6452SOL     OW30817   1.093   1.031   5.129 -0.3147 -0.1146  0.3842
 6452SOL    HW130818   1.067   1.074   5.048 -0.3110 -0.5002  0.1801
 6452SOL    HW230819   1.182   1.065   5.142 -1.0802  2.0615 -0.1507
 6453SOL     OW30820   4.037   3.590   7.466  0.3079  0.6362  0.0445
 6453SOL    HW130821   4.009   3.680   7.449 -0.0213  0.5183 -0.0449
 6453SOL    HW230822   4.015   3.577   7.558 -0.6030  3.1939  0.1933
 6454SOL     OW30823   3.429   2.830   6.231  0.3591  0.2890 -0.6997
 6454SOL    HW130824   3.416   2.911   6.280 -2.0012  1.1339 -2.7658
 6454SOL    HW230825   3.353   2.847   6.176  0.2836  1.2470 -0.3037
 6455SOL     OW30826   4.205   0.310   7.136 -0.3326 -0.4244 -0.1160
 6455SOL    HW130827   4.289   0.345   7.108 -0.1294  0.4088  1.5450
 6455SOL    HW230828   4.211   0.231   7.082  1.3717 -0.0628 -0.4426
 6456SOL     OW30829   3.143   0.213   2.843 -0.0984  0.2513 -0.0211
 6456SOL    HW130830   3.111   0.130   2.880 -2.7752  1.3769  0.2108
 6456SOL    HW230831   3.153   0.267   2.921 -1.1814  2.8905 -1.7316
 6457SOL     OW30832   3.559   2.690   1.032  0.5587  0.2391  0.0771
 6457SOL    HW130833   3.491   2.630   1.063 -0.3986 -0.1381 -2.7186
 6457SOL    HW230834   3.552   2.673   0.938 -1.5924  0.8040  0.1169
 6458SOL     OW30835   2.490   1.006   9.523 -0.0417 -0.1790 -0.0737
 6458SOL    HW130836   2.418   1.067   9.538  1.3872  1.2189  1.0559
 6458SOL    HW230837   2.558   1.046   9.577 -1.9196 -0.5893  2.6030
 6459SOL     OW30838   0.264   2.295   6.828  0.3678  0.0818 -0.1390
 6459SOL    HW130839   0.269   2.311   6.922  1.2510  0.9362 -0.3341
 6459SOL    HW230840   0.351   2.264   6.803  0.1355 -1.1972  0.6043
 6460SOL     OW30841   3.087   1.013  10.484  0.3154 -0.6838  0.2204
 6460SOL    HW130842   3.115   1.103  10.500 -1.1348  0.0015 -1.1749
 6460SOL    HW230843   2.992   1.013  10.497 -0.0039  0.3936 -2.0486
 6461SOL     OW30844   4.210   1.936  17.555 -0.1361 -0.2191 -0.0255
 6461SOL    HW130845   4.188   1.872  17.623  1.1462 -0.8951 -0.2457
 6461SOL    HW230846   4.269   1.888  17.497 -1.1920 -0.2655 -1.0531
 6462SOL     OW30847   3.668   3.367   3.641  0.3266  0.3263  0.0904
 6462SOL    HW130848   3.585   3.413   3.654 -1.4076 -2.4496 -1.1721
 6462SOL    HW230849   3.692   3.381   3.549  1.9401 -2.1404  0.1476
 6463SOL     OW30850   3.330   4.324   5.209  0.7652  0.2753 -0.2158
 6463SOL    HW130851   3.314   4.304   5.117 -1.6231  1.1884  0.0033
 6463SOL    HW230852   3.247   4.366   5.235 -0.5322 -1.7605 -1.0909
 6464SOL     OW30853   2.948   3.230  12.021  0.9682 -0.6802  0.3254
 6464SOL    HW130854   3.040   3.236  11.995  0.5411  3.3353 -0.2862
 6464SOL    HW230855   2.902   3.202  11.942  0.3892  3.0946 -0.6786
 6465SOL     OW30856   3.089   4.011   2.207 -0.0088  0.5749  0.2950
 6465SOL    HW130857   3.179   4.025   2.237  0.2302  0.3453 -0.3248
 6465SOL    HW230858   3.099   3.935   2.150  1.7195  2.4849 -1.9175
 6466SOL     OW30859   4.482   4.631   6.388  0.3268 -0.3161 -0.4614
 6466SOL    HW130860   4.528   4.574   6.450  2.2919 -1.0316 -2.5791
 6466SOL    HW230861   4.547   4.654   6.323 -1.8391  3.8923 -1.1469
 6467SOL     OW30862   0.219   0.221  12.936 -0.2535 -0.4373  0.1412
 6467SOL    HW130863   0.198   0.220  12.842  0.9661 -3.1177 -0.1005
 6467SOL    HW230864   0.295   0.164  12.930  1.3547  1.7038  0.2546
 6468SOL     OW30865   4.499   2.602  12.758 -0.0598 -0.0170 -0.3304
 6468SOL    HW130866   4.522   2.689  12.726  0.6874  0.3540  1.1992
 6468SOL    HW230867   4.532   2.600  12.848  1.0030 -0.3079 -0.7345
 6469SOL     OW30868   1.877   0.733   9.401 -0.0648 -0.0591  0.3032
 6469SOL    HW130869   1.903   0.807   9.456 -2.4250  0.3944  0.8238
 6469SOL    HW230870   1.799   0.771   9.360 -0.1324  1.2944  1.6876
 6470SOL     OW30871   0.982   3.199   9.686  0.1368  0.2351  0.0044
 6470SOL    HW130872   1.022   3.155   9.761  3.2697  0.8580 -1.3094
 6470SOL    HW230873   1.052   3.212   9.622  2.5942  1.1300  2.8619
 6471SOL     OW30874   2.621   3.641   7.858  0.5036 -0.2350  0.2373
 6471SOL    HW130875   2.562   3.651   7.933 -0.0770  1.1373 -0.3909
 6471SOL    HW230876   2.711   3.634   7.888  0.8511  2.4779 -0.2149
 6472SOL     OW30877   0.126   2.490   7.105  0.7518  0.2528 -0.2373
 6472SOL    HW130878   0.042   2.496   7.059  0.6595  1.2268  0.0749
 6472SOL    HW230879   0.136   2.584   7.118 -1.3317  0.6173 -1.3150
 6473SOL     OW30880   3.447   3.657   4.649 -0.2965 -0.2816 -0.0438
 6473SOL    HW130881   3.490   3.709   4.581 -1.5435  1.2938  0.3642
 6473SOL    HW230882   3.521   3.644   4.709  0.1612 -0.7628 -0.7134
 6474SOL     OW30883   2.502   0.513   2.231  0.4780  0.1296 -0.0713
 6474SOL    HW130884   2.572   0.565   2.192 -0.4381  1.0958 -0.4080
 6474SOL    HW230885   2.464   0.475   2.152  2.5581 -0.8877 -0.5669
 6475SOL     OW30886   4.245   2.848   8.050 -0.9529 -0.0540 -0.4115
 6475SOL    HW130887   4.182   2.880   8.114  1.3225  0.0877  1.7476
 6475SOL    HW230888   4.213   2.763   8.020 -0.8853 -1.0107  2.2590
 6476SOL     OW30889   1.450   2.288   6.696  0.1020 -0.0207  0.3627
 6476SOL    HW130890   1.420   2.239   6.619  0.9531  0.0096  0.0183
 6476SOL    HW230891   1.416   2.242   6.773 -1.0734  1.3695  0.6947
 6477SOL     OW30892   2.840   0.077   2.754  0.1988 -0.6605 -0.5479
 6477SOL    HW130893   2.828   0.103   2.846  2.2284 -3.8768  0.6303
 6477SOL    HW230894   2.795   4.718   2.755  3.1549 -2.2475 -0.2407
 6478SOL     OW30895   2.867   3.716  13.862 -0.4315 -0.1375 -0.6013
 6478SOL    HW130896   2.806   3.646  13.886  0.3714 -0.0929  1.5259
 6478SOL    HW230897   2.837   3.735  13.773 -0.8642 -1.4804 -0.7408
 6479SOL     OW30898   1.555   4.499   6.571  0.1803  0.1980  0.0565
 6479SOL    HW130899   1.476   4.549   6.595 -0.4063 -0.6216 -0.1453
 6479SOL    HW230900   1.566   4.527   6.481  1.1806  1.1189  0.4673
 6480SOL     OW30901   0.538   2.749   5.909  0.3072 -0.2365 -0.0194
 6480SOL    HW130902   0.466   2.716   5.963  0.9434 -1.2730  0.1801
 6480SOL    HW230903   0.532   2.684   5.839 -0.8323 -0.5462  0.3717
 6481SOL     OW30904   4.633   2.652   8.827 -0.4056 -0.0837 -0.0085
 6481SOL    HW130905   4.691   2.577   8.838 -1.4277 -0.9941 -0.8066
 6481SOL    HW230906   4.627   2.659   8.732 -1.0459 -3.4890 -0.2139
 6482SOL     OW30907   3.155   3.272   6.704  0.2093 -0.1397 -0.4244
 6482SOL    HW130908   3.199   3.287   6.788 -0.7675 -0.0278  0.0653
 6482SOL    HW230909   3.229   3.257   6.645  0.0800 -1.5685 -0.2229
 6483SOL     OW30910   0.465   4.443   5.507 -0.4583 -0.3070 -0.3282
 6483SOL    HW130911   0.454   4.531   5.470 -0.6867 -1.1163 -2.1646
 6483SOL    HW230912   0.390   4.411   5.457 -0.0093 -0.4954 -0.8820
 6484SOL     OW30913   2.048   0.118   5.446  0.1858 -0.0388 -0.0788
 6484SOL    HW130914   2.101   0.047   5.411 -1.3818 -0.8894 -0.7215
 6484SOL    HW230915   2.026   0.166   5.366  2.3868  0.5469 -0.3410
 6485SOL     OW30916   2.636   1.918   7.983 -0.2747 -0.1925  0.1841
 6485SOL    HW130917   2.648   1.853   7.913  2.5316 -0.9010  1.3345
 6485SOL    HW230918   2.542   1.922   7.967 -0.3554 -2.1319  0.1007
 6486SOL     OW30919   2.014   1.810  13.203 -0.2735  0.4604 -0.5937
 6486SOL    HW130920   2.026   1.898  13.167  0.8274 -0.1709 -1.7691
 6486SOL    HW230921   2.046   1.837  13.289  0.4058  0.0693 -0.7158
 6487SOL     OW30922   2.123   3.406  15.808  0.0412  0.0417 -0.1919
 6487SOL    HW130923   2.084   3.488  15.838 -2.4233 -0.1710 -2.7439
 6487SOL    HW230924   2.190   3.390  15.874 -0.9226  4.0331  1.7540
 6488SOL     OW30925   3.811   1.926   4.950  0.2610  0.5920  0.4529
 6488SOL    HW130926   3.818   1.876   4.868  0.9515  1.4320 -0.0028
 6488SOL    HW230927   3.878   1.992   4.931  1.2235 -0.3245  0.7304
 6489SOL     OW30928   4.385   4.419   7.484  0.2752  0.0285  0.2117
 6489SOL    HW130929   4.294   4.396   7.465  0.4995  0.0640 -0.8807
 6489SOL    HW230930   4.391   4.413   7.579  1.3862  2.4900  0.2961
 6490SOL     OW30931   0.606   4.395   5.073 -0.8912  0.4307  0.4628
 6490SOL    HW130932   0.630   4.364   4.985 -1.6573 -0.3058  0.5251
 6490SOL    HW230933   0.513   4.374   5.077 -0.6009 -0.6580  1.3252
 6491SOL     OW30934   1.583   1.153   6.509  0.4045  0.4798  0.3549
 6491SOL    HW130935   1.542   1.235   6.534  0.5617  1.6559 -3.3272
 6491SOL    HW230936   1.535   1.099   6.572 -0.2554 -0.5662 -1.0487
 6492SOL     OW30937   2.131   1.468   4.105 -0.0921 -0.0777 -0.1834
 6492SOL    HW130938   2.104   1.507   4.022 -1.3811  0.0401  0.2900
 6492SOL    HW230939   2.198   1.408   4.072 -0.6286  0.3591 -2.0942
 6493SOL     OW30940   3.759   1.474  14.146  0.4300 -0.1694 -0.2180
 6493SOL    HW130941   3.770   1.418  14.069  0.8461 -1.3498  0.7010
 6493SOL    HW230942   3.703   1.539  14.103 -0.1711  1.6085  3.2348
 6494SOL     OW30943   2.872   3.881  12.046  0.2529 -0.0316  0.3021
 6494SOL    HW130944   2.921   3.898  12.127  1.5978  0.5913 -0.6468
 6494SOL    HW230945   2.898   3.792  12.022 -2.1299  0.3445 -3.5529
 6495SOL     OW30946   1.091   2.344   7.293  0.5847 -0.1302 -0.4213
 6495SOL    HW130947   1.118   2.431   7.264  0.8669  0.1028  0.5589
 6495SOL    HW230948   1.104   2.368   7.385  1.4028 -0.0765 -0.5493
 6496SOL     OW30949   3.307   4.580   7.576 -0.0920  0.4216 -0.4255
 6496SOL    HW130950   3.308   4.494   7.618  1.8306  0.7511  0.1991
 6496SOL    HW230951   3.222   4.607   7.612 -0.4149 -0.8821 -0.2154
 6497SOL     OW30952   2.288   0.598   4.911 -0.1917 -0.1252  0.1160
 6497SOL    HW130953   2.380   0.616   4.897  0.3647 -2.3189  0.8057
 6497SOL    HW230954   2.257   0.687   4.898  1.3616  0.5422  1.0240
 6498SOL     OW30955   2.197   0.691   8.438 -0.2461 -0.1438 -0.0170
 6498SOL    HW130956   2.141   0.631   8.488  1.0086 -0.8329  0.5632
 6498SOL    HW230957   2.173   0.780   8.466 -0.7116 -0.8322  1.8221
 6499SOL     OW30958   1.303   1.266   2.052  0.1912 -0.3756 -0.4787
 6499SOL    HW130959   1.370   1.218   2.003 -1.3770 -1.3418 -1.6947
 6499SOL    HW230960   1.249   1.304   1.982 -1.2148 -2.6088 -0.6096
 6500SOL     OW30961   1.498   4.640   8.224 -0.2004 -0.1674 -0.3779
 6500SOL    HW130962   1.461   4.560   8.187  2.7063 -1.0686 -1.3254
 6500SOL    HW230963   1.419   4.683   8.255 -0.2507 -0.5435  0.0159
 6501SOL     OW30964   4.475   1.319   5.175  0.8022  0.2333  0.1475
 6501SOL    HW130965   4.529   1.265   5.117  0.2938  0.4953 -0.5722
 6501SOL    HW230966   4.387   1.314   5.137 -0.0443  1.1850  1.9836
 6502SOL     OW30967   2.147   2.941   5.129  0.3780  0.0079 -0.0331
 6502SOL    HW130968   2.153   3.015   5.188 -0.6995 -2.3025  2.9598
 6502SOL    HW230969   2.143   2.984   5.043  0.3324 -1.0583 -0.5661
 6503SOL     OW30970   4.012   3.863   7.570  0.7188 -0.3786  0.0692
 6503SOL    HW130971   4.056   3.919   7.506 -0.0924  2.1359  1.7277
 6503SOL    HW230972   4.070   3.846   7.644  2.1833  2.4357 -0.4436
 6504SOL     OW30973   3.342   4.288   9.519 -0.2196  0.4736  0.1236
 6504SOL    HW130974   3.335   4.200   9.482 -0.3910  1.0350 -1.1766
 6504SOL    HW230975   3.265   4.275   9.574 -0.2716  1.1563  0.2208
 6505SOL     OW30976   0.805   4.003   0.954  0.5003  0.1002 -0.1807
 6505SOL    HW130977   0.808   3.919   1.000  2.4111  0.0569 -0.4088
 6505SOL    HW230978   0.743   4.045   1.015 -0.4870 -0.8570 -0.5207
 6506SOL     OW30979   3.504   0.865   5.008  0.1227 -0.0041  0.5771
 6506SOL    HW130980   3.570   0.801   5.036  1.3669  0.2951 -1.5676
 6506SOL    HW230981   3.555   0.924   4.952  1.7098  0.5743  2.6641
 6507SOL     OW30982   0.724   4.179   7.276  0.0859  0.3680  0.2077
 6507SOL    HW130983   0.799   4.126   7.250 -1.1211 -0.8802 -0.7117
 6507SOL    HW230984   0.647   4.157   7.223  0.7525 -1.8820  0.2024
 6508SOL     OW30985   1.224   1.173   9.563 -0.6895 -0.2401 -0.3091
 6508SOL    HW130986   1.318   1.171   9.584 -1.1366  0.5469  1.7302
 6508SOL    HW230987   1.185   1.130   9.640  0.7156 -1.0995 -0.0533
 6509SOL     OW30988   0.286   3.715   9.091  0.2191  0.0924 -0.7117
 6509SOL    HW130989   0.317   3.780   9.153 -0.9931  0.4082 -0.4415
 6509SOL    HW230990   0.226   3.664   9.145 -0.2553 -0.0344 -1.3500
 6510SOL     OW30991   3.233   0.597   8.603  0.1929  0.3638  0.2541
 6510SOL    HW130992   3.291   0.557   8.538  0.3816  0.8178  0.1476
 6510SOL    HW230993   3.281   0.601   8.686  1.7613 -1.1171 -0.5870
 6511SOL     OW30994   1.666   2.357   2.181 -0.5778 -0.0380  0.2929
 6511SOL    HW130995   1.674   2.356   2.086 -1.0984 -1.5904  0.2618
 6511SOL    HW230996   1.573   2.344   2.202 -0.5146 -1.4100 -0.2387
 6512SOL     OW30997   1.676   4.647   0.308  0.0948  0.0077  0.5749
 6512SOL    HW130998   1.588   4.612   0.321  0.1445 -0.4294 -0.2272
 6512SOL    HW230999   1.722   4.565   0.290  4.1305  2.0123  1.9489
 6513SOL     OW31000   2.519   3.967   3.444  0.6354  0.1959 -0.3904
 6513SOL    HW131001   2.541   3.955   3.537  0.6853  0.6352 -0.3476
 6513SOL    HW231002   2.608   3.952   3.414  0.8880 -0.8666  0.8589
 6514SOL     OW31003   2.165   0.187   4.572  0.0415 -0.2363  0.0631
 6514SOL    HW131004   2.150   0.152   4.660 -0.6218 -0.3662 -0.1027
 6514SOL    HW231005   2.188   0.278   4.586 -2.4971  0.9538 -3.6126
 6515SOL     OW31006   3.815   0.713  12.692  0.9182  0.2263  0.2718
 6515SOL    HW131007   3.745   0.725  12.756  0.9141 -0.1366  0.3379
 6515SOL    HW231008   3.819   0.803  12.662 -1.2477  0.2548  0.0488
 6516SOL     OW31009   3.598   4.682   6.006 -0.1328  0.2843 -0.2811
 6516SOL    HW131010   3.522   4.650   6.053 -0.5053 -0.6252 -1.5123
 6516SOL    HW231011   3.562   4.680   5.917 -0.5165 -0.1661 -0.1134
 6517SOL     OW31012   3.073   2.353   8.720  0.1171  0.4163 -0.0444
 6517SOL    HW131013   3.131   2.390   8.653 -0.9902  1.3253 -0.5040
 6517SOL    HW231014   2.991   2.398   8.699 -0.5844 -0.4945  0.7424
 6518SOL     OW31015   4.271   1.920   9.208  0.8800  0.3948 -0.0420
 6518SOL    HW131016   4.247   1.965   9.289  0.6118  1.1411 -0.5461
 6518SOL    HW231017   4.346   1.864   9.229  1.4755  1.6666  1.2301
 6519SOL     OW31018   0.748   4.400   7.022  0.0025  0.1602  0.1296
 6519SOL    HW131019   0.696   4.349   6.960 -0.5703 -1.2820  1.7920
 6519SOL    HW231020   0.840   4.371   7.016 -0.0419 -0.9139  4.6506
 6520SOL     OW31021   4.402   1.890  11.426  0.0522  0.0619  0.3853
 6520SOL    HW131022   4.391   1.866  11.518  0.6467  0.2367  0.4963
 6520SOL    HW231023   4.476   1.845  11.387 -0.6472 -0.8451  0.0943
 6521SOL     OW31024   2.431   0.516   6.965 -0.7366  0.0551 -0.2555
 6521SOL    HW131025   2.365   0.473   7.017  0.6420 -0.4043  1.1113
 6521SOL    HW231026   2.507   0.493   7.018 -0.6944 -0.6705 -0.6354
 6522SOL     OW31027   0.597   2.601   5.662 -0.3805 -0.0764 -0.1883
 6522SOL    HW131028   0.680   2.634   5.629  0.1364  0.2177  1.4166
 6522SOL    HW231029   0.602   2.511   5.630  2.2902  1.1288 -3.1077
 6523SOL     OW31030   0.883   1.054   6.284  0.6162  0.1396 -0.3652
 6523SOL    HW131031   0.789   1.045   6.300  0.5299 -0.3553 -1.1339
 6523SOL    HW231032   0.892   1.005   6.202 -1.3207 -0.4592 -0.2157
 6524SOL     OW31033   2.502   2.224  15.704  0.8287  0.1638 -0.0814
 6524SOL    HW131034   2.509   2.196  15.795 -1.2508 -0.4711 -0.1150
 6524SOL    HW231035   2.555   2.303  15.695 -1.4795  1.7383  0.3677
 6525SOL     OW31036   1.871   2.260   7.729 -0.4473 -0.3939 -0.2490
 6525SOL    HW131037   1.907   2.338   7.773 -0.4324 -0.0343 -0.8968
 6525SOL    HW231038   1.868   2.197   7.801  0.7495 -1.0064 -0.7346
 6526SOL     OW31039   1.927   3.803   2.097 -0.3035  0.6800 -0.2341
 6526SOL    HW131040   1.902   3.876   2.153  0.4177  1.3207 -0.7546
 6526SOL    HW231041   1.882   3.820   2.015  1.1958 -0.3162 -1.2716
 6527SOL     OW31042   0.215   4.475   9.883 -0.4058  0.2785  0.3308
 6527SOL    HW131043   0.217   4.448   9.975  2.7012 -0.3868  0.0659
 6527SOL    HW231044   0.302   4.447   9.853 -0.4446  0.7625 -0.2340
 6528SOL     OW31045   3.082   2.792  16.382 -0.0578 -0.3252 -0.1672
 6528SOL    HW131046   3.136   2.753  16.313  0.2019 -0.2472 -0.0065
 6528SOL    HW231047   3.128   2.875  16.391 -0.2258 -0.1554 -0.8503
 6529SOL     OW31048   1.007   0.661   4.684 -0.1277  0.6047 -0.3208
 6529SOL    HW131049   0.996   0.718   4.760  0.4218 -0.1410  0.3305
 6529SOL    HW231050   1.022   0.721   4.611  1.0224  1.2525  0.4383
 6530SOL     OW31051   1.241   3.631   9.238 -0.4824  0.6350 -0.7093
 6530SOL    HW131052   1.180   3.612   9.168  0.0049  1.4577 -1.3599
 6530SOL    HW231053   1.238   3.548   9.285  0.4898  1.8785  1.5629
 6531SOL     OW31054   3.952   2.750   2.484 -0.6723 -0.4057 -0.7392
 6531SOL    HW131055   3.898   2.830   2.482  1.5525  1.1297  0.4449
 6531SOL    HW231056   3.975   2.747   2.577 -2.1228  0.5992 -0.3371
 6532SOL     OW31057   3.069   2.654   3.259 -0.5863 -0.3523  0.4482
 6532SOL    HW131058   3.071   2.623   3.168  1.0419  2.9844 -0.6148
 6532SOL    HW231059   3.050   2.570   3.301 -1.1464  1.0786  3.0059
 6533SOL     OW31060   4.056   3.554   4.260 -0.0400 -0.1635  0.0021
 6533SOL    HW131061   4.142   3.560   4.302  0.3190  0.6217 -0.8616
 6533SOL    HW231062   4.056   3.617   4.188  1.0886 -1.7282 -1.3608
 6534SOL     OW31063   0.050   1.957   1.552 -0.0530  0.3944 -0.8319
 6534SOL    HW131064   0.057   1.999   1.637 -0.1878 -0.9453 -0.1665
 6534SOL    HW231065   4.683   1.938   1.565  0.0238  0.4488 -0.2174
 6535SOL     OW31066   2.441   0.957   8.706 -0.1606  0.1280 -0.1141
 6535SOL    HW131067   2.497   0.976   8.782  2.3607  0.2404 -2.0022
 6535SOL    HW231068   2.358   0.957   8.753  1.4463 -0.2294  2.7791
 6536SOL     OW31069   3.378   1.095   0.458  0.1604  0.3316  0.3490
 6536SOL    HW131070   3.420   1.056   0.535  0.3045  0.1801  0.1950
 6536SOL    HW231071   3.395   1.188   0.470 -0.7508  0.7822 -1.7121
 6537SOL     OW31072   0.836   1.647  11.495 -0.0387 -0.1637 -0.2306
 6537SOL    HW131073   0.747   1.622  11.472 -0.2996  2.2011 -1.7705
 6537SOL    HW231074   0.853   1.601  11.577 -1.2008 -0.6088 -0.2335
 6538SOL     OW31075   3.590   0.465   7.625 -0.4240  0.1467 -0.0632
 6538SOL    HW131076   3.571   0.447   7.717  1.6810 -0.2364  0.3090
 6538SOL    HW231077   3.619   0.380   7.592 -1.9117 -0.2814 -0.2560
 6539SOL     OW31078   3.788   3.400   4.642  0.4445  0.3456 -0.3962
 6539SOL    HW131079   3.809   3.437   4.557 -0.7982 -2.1355 -1.7828
 6539SOL    HW231080   3.722   3.335   4.619  0.3023 -0.1448  1.3699
 6540SOL     OW31081   3.103   3.672   1.604 -0.7211 -0.2531 -0.0610
 6540SOL    HW131082   3.034   3.619   1.642 -0.7448 -0.0404  0.1927
 6540SOL    HW231083   3.161   3.698   1.676 -0.9413 -0.4922  0.2011
 6541SOL     OW31084   4.503   1.565   2.401 -0.0524 -0.2399 -0.3702
 6541SOL    HW131085   4.591   1.572   2.365 -0.1048 -0.5096 -0.5472
 6541SOL    HW231086   4.450   1.626   2.349 -1.2261 -0.7095  0.2653
 6542SOL     OW31087   0.877   1.349   2.910  0.3807  0.1255  0.2262
 6542SOL    HW131088   0.957   1.297   2.912  0.7505  0.7009  0.4177
 6542SOL    HW231089   0.859   1.345   2.816  0.9742 -2.7867  0.2364
 6543SOL     OW31090   2.791   3.066   9.100 -0.1666  0.3920 -0.2774
 6543SOL    HW131091   2.735   3.000   9.059  0.8301 -0.1799 -0.6925
 6543SOL    HW231092   2.871   3.049   9.052  1.0953 -2.7938  3.0016
 6544SOL     OW31093   3.656   0.353   7.265 -0.0217 -0.7425  0.2650
 6544SOL    HW131094   3.652   0.448   7.280  1.1803 -0.4649 -1.1849
 6544SOL    HW231095   3.687   0.314   7.347 -0.4471 -2.5441 -0.4239
 6545SOL     OW31096   3.563   2.730   7.875  0.4376  0.2502  0.4440
 6545SOL    HW131097   3.618   2.656   7.900  2.1892  1.1463 -0.7127
 6545SOL    HW231098   3.631   2.790   7.846  0.2837 -0.3345 -1.0968
 6546SOL     OW31099   3.993   4.270   4.632 -0.4633  0.0936 -0.0297
 6546SOL    HW131100   3.942   4.230   4.562 -1.1426 -0.8482  0.9985
 6546SOL    HW231101   4.029   4.193   4.678 -2.9367 -0.6411  0.7045
 6547SOL     OW31102   0.132   2.496  16.713  0.0449  0.0217  0.0195
 6547SOL    HW131103   0.133   2.402  16.695 -0.2366  0.5485 -2.8052
 6547SOL    HW231104   0.118   2.532  16.625 -0.1377  3.6532  1.5311
 6548SOL     OW31105   1.497   4.281  17.114  0.1605 -0.0724  0.2208
 6548SOL    HW131106   1.494   4.326  17.198 -1.6153 -2.6025  1.4807
 6548SOL    HW231107   1.416   4.232  17.124  1.3356 -1.5962  2.2466
 6549SOL     OW31108   0.854   1.358   2.640 -0.3282 -0.1772 -0.2007
 6549SOL    HW131109   0.834   1.393   2.554 -2.3358 -0.9614 -0.0413
 6549SOL    HW231110   0.876   1.271   2.605 -1.9962 -1.0940  1.0745
 6550SOL     OW31111   0.030   1.821  14.754 -0.2853 -0.3128 -0.0434
 6550SOL    HW131112   4.688   1.754  14.746 -0.6728  0.2725 -1.7012
 6550SOL    HW231113   4.713   1.895  14.711 -1.5963 -0.0809  1.6433
 6551SOL     OW31114   4.042   4.455   4.400 -0.1744 -0.2203  0.2660
 6551SOL    HW131115   4.036   4.426   4.491  1.1705  0.0712  0.4375
 6551SOL    HW231116   4.131   4.435   4.371 -0.6351  1.9163 -2.5661
 6552SOL     OW31117   3.242   4.530   0.170 -0.1525  0.0235 -0.2572
 6552SOL    HW131118   3.301   4.474   0.220 -0.4103  0.8374  0.9523
 6552SOL    HW231119   3.197   4.468   0.112 -0.1940  1.0993 -1.3908
 6553SOL     OW31120   1.916   0.533   1.624 -0.2104 -0.3169  0.0238
 6553SOL    HW131121   1.937   0.450   1.665 -1.4366 -0.9551 -0.6361
 6553SOL    HW231122   1.997   0.582   1.639 -0.3886  0.0712 -0.2618
 6554SOL     OW31123   3.004   2.812   7.778 -0.1896 -0.0901  0.2713
 6554SOL    HW131124   3.010   2.730   7.827  0.6169  1.0949  2.1472
 6554SOL    HW231125   2.923   2.803   7.729  0.2512 -1.4017 -0.2157
 6555SOL     OW31126   2.320   0.861  13.133  0.4444  0.5619 -0.0240
 6555SOL    HW131127   2.281   0.944  13.108  1.8845  0.7497 -1.6466
 6555SOL    HW231128   2.407   0.877  13.169  0.6662 -2.6731  0.9040
 6556SOL     OW31129   0.579   3.031   4.053  0.1537 -0.2779  0.5781
 6556SOL    HW131130   0.556   3.110   4.103 -0.5558 -0.8182  1.0930
 6556SOL    HW231131   0.501   3.022   3.998  0.6257 -0.2509 -0.0931
 6557SOL     OW31132   1.047   4.556  16.173 -0.4120  0.6715 -0.4129
 6557SOL    HW131133   1.051   4.543  16.078  1.6656  1.1174 -0.4049
 6557SOL    HW231134   0.960   4.594  16.172 -1.0148 -0.6738  0.8765
 6558SOL     OW31135   2.182   1.972  10.420  0.2465  0.4638  0.6236
 6558SOL    HW131136   2.128   2.015  10.486 -2.1752 -2.0462  0.2903
 6558SOL    HW231137   2.239   1.917  10.474 -2.2988 -0.9954  1.8149
 6559SOL     OW31138   3.973   1.139   5.103 -0.6040  0.5863 -0.2041
 6559SOL    HW131139   3.903   1.201   5.084 -1.8404 -0.6305  0.4571
 6559SOL    HW231140   4.022   1.140   5.021  0.3215 -0.3573  0.3391
 6560SOL     OW31141   3.557   2.996   0.149 -0.0516 -0.4203  0.5880
 6560SOL    HW131142   3.492   2.956   0.208  0.2127 -1.2528  0.3186
 6560SOL    HW231143   3.511   3.071   0.113 -1.1547 -1.5472 -0.3457
 6561SOL     OW31144   1.096   2.999  13.962 -0.2885 -0.0316 -0.0542
 6561SOL    HW131145   1.119   3.092  13.965 -1.8060  0.3687 -0.9680
 6561SOL    HW231146   1.159   2.965  13.900 -0.2312  2.7161 -1.5053
 6562SOL     OW31147   2.908   0.353   7.591  0.4497  0.2412  0.0418
 6562SOL    HW131148   2.840   0.342   7.524 -0.6846  0.1590  1.1991
 6562SOL    HW231149   2.990   0.365   7.543  0.8076 -3.2956 -0.1878
 6563SOL     OW31150   1.139   4.702   5.048 -0.6122  1.0201  0.5888
 6563SOL    HW131151   1.191   4.622   5.054  0.9368  1.9975  0.2599
 6563SOL    HW231152   1.212   0.034   5.027  1.4183 -2.2247 -1.1970
 6564SOL     OW31153   1.796   1.545   0.889 -0.1165  0.5189  0.6093
 6564SOL    HW131154   1.733   1.538   0.817  1.1215 -0.2226 -0.4041
 6564SOL    HW231155   1.789   1.456   0.922 -3.3545  0.2947 -0.7049
 6565SOL     OW31156   0.185   1.323   6.738  0.2063 -0.0769  0.1578
 6565SOL    HW131157   0.264   1.365   6.773  0.4256  0.1098 -0.5646
 6565SOL    HW231158   0.230   1.241   6.715 -0.3423 -0.7072  1.3498
 6566SOL     OW31159   3.548   2.597  15.731 -0.8405  0.1862  0.0901
 6566SOL    HW131160   3.563   2.506  15.705  1.0435  0.2701  0.8575
 6566SOL    HW231161   3.634   2.632  15.757  0.7578 -1.8654 -2.4710
 6567SOL     OW31162   1.792   0.265  16.492  0.6743  0.1238  0.4433
 6567SOL    HW131163   1.757   0.319  16.421 -2.2164 -1.0822  0.9244
 6567SOL    HW231164   1.711   0.244  16.539  0.6034  0.6226  0.5496
 6568SOL     OW31165   1.099   3.235  13.421  0.1770  0.0485  1.3188
 6568SOL    HW131166   1.165   3.302  13.403 -0.6449  0.3226 -0.7322
 6568SOL    HW231167   1.165   3.165  13.421 -0.9073 -0.9882 -0.0660
 6569SOL     OW31168   0.841   3.844  15.213  0.1304 -0.5713  0.0344
 6569SOL    HW131169   0.782   3.775  15.242 -1.0420  0.5637  0.3152
 6569SOL    HW231170   0.779   3.901  15.168  0.8803  0.5934  0.4612
 6570SOL     OW31171   1.886   0.309   7.492  0.3200 -0.0851 -0.3321
 6570SOL    HW131172   1.844   0.302   7.578  1.3161  1.1802  0.2537
 6570SOL    HW231173   1.949   0.239   7.507  0.7013  0.1994 -0.6243
 6571SOL     OW31174   3.041   0.418   0.860 -0.7968 -0.1971 -0.1680
 6571SOL    HW131175   3.085   0.495   0.895  0.6119 -0.4131 -1.4804
 6571SOL    HW231176   3.038   0.445   0.769 -0.4962  0.9339  0.1547
 6572SOL     OW31177   3.978   3.279   5.157 -0.2840  0.0456 -0.2512
 6572SOL    HW131178   3.948   3.228   5.232  1.9988  1.7564  1.8106
 6572SOL    HW231179   4.050   3.223   5.129  0.5462 -0.5944  3.1758
 6573SOL     OW31180   3.327   2.027   4.096  0.1911  0.7143 -0.0879
 6573SOL    HW131181   3.382   2.102   4.077  0.6665  0.1056 -1.0691
 6573SOL    HW231182   3.309   1.996   4.008 -0.9800 -0.1951  0.4659
 6574SOL     OW31183   1.736   0.160   9.442 -0.2979  0.4048 -0.5811
 6574SOL    HW131184   1.776   0.216   9.508 -0.6705  0.5980 -0.5171
 6574SOL    HW231185   1.683   0.099   9.494  1.6191  0.3248  1.3015
 6575SOL     OW31186   2.717   0.453   4.648  0.5273 -0.0256 -0.0870
 6575SOL    HW131187   2.732   0.358   4.653  0.0010 -0.1248 -0.4254
 6575SOL    HW231188   2.627   0.471   4.621 -0.2221 -0.7131  2.0114
 6576SOL     OW31189   3.050   2.478   6.845  0.0994  0.1954 -0.3609
 6576SOL    HW131190   3.082   2.541   6.780  0.4572 -0.5203 -0.8860
 6576SOL    HW231191   3.078   2.398   6.800 -0.1411 -0.3009  0.3725
 6577SOL     OW31192   2.177   0.919   8.787 -0.1234  0.0162  0.2743
 6577SOL    HW131193   2.102   0.977   8.777 -1.8729 -2.1494  0.9264
 6577SOL    HW231194   2.193   0.919   8.882 -1.9916  0.4819  0.5801
 6578SOL     OW31195   2.592   4.415   8.850  0.7092  0.5595  0.0092
 6578SOL    HW131196   2.531   4.488   8.863 -0.9681 -0.8455  0.0748
 6578SOL    HW231197   2.645   4.458   8.784 -0.7209  1.9000 -0.2675
 6579SOL     OW31198   1.123   1.042  15.513  0.1647  0.0575 -0.1599
 6579SOL    HW131199   1.031   1.037  15.540  0.8089 -0.2789  1.9131
 6579SOL    HW231200   1.140   1.135  15.530  2.4292 -0.4663  0.4027
 6580SOL     OW31201   0.558   1.440   3.970  0.5395 -0.4276  0.0295
 6580SOL    HW131202   0.564   1.493   4.049 -1.1709 -1.8998  1.1485
 6580SOL    HW231203   0.469   1.405   3.965 -0.0739  1.1509  0.0568
 6581SOL     OW31204   4.619   4.370   2.547 -0.7524 -0.2766 -0.7796
 6581SOL    HW131205   4.642   4.422   2.470  1.2833  1.0373  0.7225
 6581SOL    HW231206   4.569   4.297   2.510 -2.8630  0.7208  0.1023
 6582SOL     OW31207   2.287   2.345   0.612 -0.9385 -0.2199  0.0562
 6582SOL    HW131208   2.337   2.427   0.601 -0.6479 -0.4694 -0.5078
 6582SOL    HW231209   2.258   2.358   0.702  1.3250 -1.7574  1.0207
 6583SOL     OW31210   4.326   4.250   3.125  0.3423  0.0964  0.1214
 6583SOL    HW131211   4.248   4.252   3.070  0.5021 -1.2356 -0.1605
 6583SOL    HW231212   4.287   4.267   3.210 -0.8540  1.0471 -0.6209
 6584SOL     OW31213   3.044   2.599  16.599  0.5553 -0.0845 -0.4150
 6584SOL    HW131214   3.117   2.654  16.625  1.8739 -2.3727  0.6772
 6584SOL    HW231215   3.073   2.586  16.508  1.4297 -0.4067 -0.0859
 6585SOL     OW31216   2.743   4.588   1.209 -0.0637 -0.1314 -0.1117
 6585SOL    HW131217   2.729   4.683   1.216  0.1663 -0.0311 -1.0355
 6585SOL    HW231218   2.691   4.555   1.136  1.2767  1.6952 -1.8938
 6586SOL     OW31219   2.857   3.182   7.707  0.4516 -0.1088 -0.7356
 6586SOL    HW131220   2.793   3.227   7.762  1.0733 -0.7175  0.4748
 6586SOL    HW231221   2.879   3.251   7.644 -1.0491  1.5749  0.5815
 6587SOL     OW31222   0.950   4.643  15.615 -0.2591 -0.4273 -0.4344
 6587SOL    HW131223   0.877   4.592  15.578 -0.3057 -1.2314  0.7755
 6587SOL    HW231224   1.033   4.602  15.589  0.0953 -0.7664  1.2238
 6588SOL     OW31225   3.694   2.196   2.431  0.1695 -0.5960 -0.5241
 6588SOL    HW131226   3.757   2.145   2.481  1.0116 -0.2198 -1.2147
 6588SOL    HW231227   3.641   2.252   2.489  2.4835  2.4313 -1.3374
 6589SOL     OW31228   3.613   3.564   6.714  0.9702  0.5467  0.6400
 6589SOL    HW131229   3.576   3.591   6.630 -1.0182 -0.3793  1.2398
 6589SOL    HW231230   3.708   3.567   6.698  0.6066 -1.2640 -1.8670
 6590SOL     OW31231   0.182   1.558   1.808  0.1202 -0.1249  0.7771
 6590SOL    HW131232   0.218   1.642   1.836  0.4561 -0.8220  2.4652
 6590SOL    HW231233   0.120   1.590   1.743  1.0280  1.2372  0.5849
 6591SOL     OW31234   0.704   1.149   4.250  0.2354 -0.6109 -0.0924
 6591SOL    HW131235   0.705   1.059   4.284  2.2593 -0.5512 -0.0193
 6591SOL    HW231236   0.651   1.134   4.172  1.6714  2.3175 -1.6134
 6592SOL     OW31237   1.447   1.436   3.168  0.2433 -0.5487 -0.0125
 6592SOL    HW131238   1.390   1.477   3.234 -0.1777  0.2669 -0.8794
 6592SOL    HW231239   1.411   1.464   3.084 -2.0040 -0.7212  0.8943
 6593SOL     OW31240   2.900   0.863   5.167 -0.6817 -0.8428  0.0805
 6593SOL    HW131241   2.944   0.835   5.087 -0.3006 -2.7613  0.9569
 6593SOL    HW231242   2.941   0.802   5.228  1.1433 -0.1883 -0.5134
 6594SOL     OW31243   1.131   1.480   6.717 -0.0583  0.4235 -0.1358
 6594SOL    HW131244   1.086   1.546   6.664 -0.5783  2.5824  3.0355
 6594SOL    HW231245   1.083   1.496   6.798 -3.6562 -1.8627 -1.8587
 6595SOL     OW31246   1.983   3.270  11.190  0.6292 -0.0794  0.3125
 6595SOL    HW131247   1.963   3.227  11.107 -1.3139  1.9797 -0.2819
 6595SOL    HW231248   1.895   3.300  11.211  0.5001  1.1737 -2.0408
 6596SOL     OW31249   2.902   0.144   7.799 -0.1127 -0.4512 -0.1595
 6596SOL    HW131250   2.817   0.104   7.780  0.0695  0.9024 -3.9069
 6596SOL    HW231251   2.912   0.220   7.742 -1.0051 -1.3565 -1.5166
 6597SOL     OW31252   4.427   4.343   7.795  0.5103  0.5859 -0.2551
 6597SOL    HW131253   4.479   4.412   7.836  0.1537  1.4506 -1.2677
 6597SOL    HW231254   4.341   4.364   7.829  0.3155 -1.1633  0.3294
 6598SOL     OW31255   3.313   4.332   7.705  0.0537  0.0146  0.5943
 6598SOL    HW131256   3.319   4.273   7.630 -0.5719 -0.9622  1.3154
 6598SOL    HW231257   3.405   4.347   7.725 -0.1518  1.6155  0.3867
 6599SOL     OW31258   2.453   1.431   7.566  0.3489  0.1188 -0.4583
 6599SOL    HW131259   2.508   1.510   7.576 -0.7980  0.7972  0.5091
 6599SOL    HW231260   2.454   1.394   7.654  1.4102 -0.3341 -0.6528
 6600SOL     OW31261   3.581   1.361   0.294  0.2178  0.7897  0.2187
 6600SOL    HW131262   3.516   1.340   0.361  1.8648 -1.0847  1.2721
 6600SOL    HW231263   3.553   1.444   0.256 -1.5098 -0.3852 -1.0592
 6601SOL     OW31264   0.721   3.058   3.488  0.3824 -0.0271 -0.1028
 6601SOL    HW131265   0.715   3.114   3.565 -2.6080  0.8399 -0.9382
 6601SOL    HW231266   0.719   3.131   3.426 -0.3273  1.4474  1.6473
 6602SOL     OW31267   4.066   0.946   8.516  0.3534  0.6012  0.1566
 6602SOL    HW131268   4.054   1.039   8.498  2.8689  1.1867  1.5273
 6602SOL    HW231269   4.157   0.941   8.546  0.5463  0.4458 -0.4752
 6603SOL     OW31270   0.650   4.587   7.403  0.1133 -0.5849 -0.1411
 6603SOL    HW131271   0.702   4.653   7.449 -1.0973  0.0549  0.3225
 6603SOL    HW231272   0.628   4.632   7.322  2.4639 -1.1060 -1.0746
 6604SOL     OW31273   3.877   0.035  14.703 -0.5729 -0.1773  0.6933
 6604SOL    HW131274   3.885   0.108  14.641 -1.7908  1.2788  2.2647
 6604SOL    HW231275   3.926   4.696  14.652 -1.2878  0.2737 -0.5854
 6605SOL     OW31276   0.292   2.134   8.306  0.5823  0.4760  0.1485
 6605SOL    HW131277   0.349   2.188   8.360  1.5709  0.9570 -1.4005
 6605SOL    HW231278   0.312   2.044   8.332 -0.5152  0.0305 -0.5546
 6606SOL     OW31279   1.514   2.634   6.350 -0.0461 -0.6050 -0.1812
 6606SOL    HW131280   1.455   2.691   6.301  0.4399  0.6493  0.7105
 6606SOL    HW231281   1.462   2.596   6.421 -1.1635 -0.6059 -1.0058
 6607SOL     OW31282   4.140   4.339   8.672  0.1861 -0.2300  0.6083
 6607SOL    HW131283   4.068   4.395   8.702 -0.8471 -1.6874  0.8321
 6607SOL    HW231284   4.174   4.335   8.761 -1.3098 -1.2611  1.1351
 6608SOL     OW31285   3.976   3.457   3.825 -0.5454  0.8897 -0.2763
 6608SOL    HW131286   3.913   3.399   3.868 -0.0567  1.9249  1.8501
 6608SOL    HW231287   4.049   3.472   3.885  0.6640 -0.6428 -1.3817
 6609SOL     OW31288   1.948   3.360   5.659  0.7098 -0.2032  0.0929
 6609SOL    HW131289   1.967   3.446   5.697  0.5348 -0.2831  0.3612
 6609SOL    HW231290   2.001   3.365   5.579  0.2512  0.2556 -0.1810
 6610SOL     OW31291   2.290   3.850   3.672 -0.2049  0.1693  0.0911
 6610SOL    HW131292   2.264   3.786   3.739  0.3673 -0.7884 -0.6063
 6610SOL    HW231293   2.258   3.822   3.586 -3.0431  1.4093  0.7378
 6611SOL     OW31294   0.330   4.453   8.629 -0.0131  0.1949 -0.1971
 6611SOL    HW131295   0.301   4.526   8.683 -2.8320 -1.1490  0.1406
 6611SOL    HW231296   0.246   4.426   8.592  0.8413  0.0641 -2.0723
 6612SOL     OW31297   2.725   1.877   4.144  0.0806 -0.1090 -0.0089
 6612SOL    HW131298   2.649   1.934   4.158  2.6241  2.5771  3.0301
 6612SOL    HW231299   2.718   1.864   4.050 -1.1968 -3.1810  0.5283
 6613SOL     OW31300   1.235   1.257   3.722 -0.7085 -0.3110  0.1388
 6613SOL    HW131301   1.225   1.162   3.716 -0.4672 -0.3222 -0.1145
 6613SOL    HW231302   1.290   1.271   3.799 -0.6083 -0.8225  0.1602
 6614SOL     OW31303   1.178   2.514   3.674  0.4189 -0.6192 -0.1135
 6614SOL    HW131304   1.253   2.458   3.693  0.7059 -0.0895  0.3260
 6614SOL    HW231305   1.200   2.534   3.583  2.8298 -1.3680  0.2938
 6615SOL     OW31306   2.119   3.788   5.290 -0.1585  0.0667 -0.3401
 6615SOL    HW131307   2.062   3.806   5.216 -0.2949 -0.7065 -0.4195
 6615SOL    HW231308   2.167   3.710   5.261  1.2326  0.5604  0.6335
 6616SOL     OW31309   4.545   4.145   5.105 -1.0884 -0.0795  0.0037
 6616SOL    HW131310   4.573   4.227   5.145  2.2052 -0.9038 -0.6385
 6616SOL    HW231311   4.450   4.150   5.090 -1.3446 -1.6471  1.0733
 6617SOL     OW31312   0.088   2.987   3.009 -0.0732 -0.2508 -0.5946
 6617SOL    HW131313   0.104   2.894   3.025  1.3996  0.1877  0.3784
 6617SOL    HW231314   0.132   3.004   2.926 -0.0292 -2.0774 -0.9625
 6618SOL     OW31315   1.657   3.957   8.560 -0.3823 -0.1843 -0.2235
 6618SOL    HW131316   1.568   3.945   8.526 -0.7454 -0.1028  0.6810
 6618SOL    HW231317   1.651   4.050   8.579  2.5849  0.2856 -1.6759
 6619SOL     OW31318   3.913   4.696   4.387  0.1963  0.4548 -0.5926
 6619SOL    HW131319   3.822   4.670   4.377  0.2402  0.1043 -0.0463
 6619SOL    HW231320   3.954   4.610   4.383  0.5213  0.6028 -0.5192
 6620SOL     OW31321   0.951   0.780  15.012  0.0747  0.0035  0.0047
 6620SOL    HW131322   0.864   0.763  14.976  0.5639 -0.1053 -1.1224
 6620SOL    HW231323   0.928   0.852  15.071 -0.1893  0.3358 -0.4984
 6621SOL     OW31324   4.310   2.738  14.633  0.2898  0.1094  0.1884
 6621SOL    HW131325   4.347   2.800  14.695  1.1662  0.2668 -0.4886
 6621SOL    HW231326   4.269   2.797  14.569 -0.1781  0.3305  0.6901
 6622SOL     OW31327   3.695   4.257   4.720 -0.0823 -0.0872  0.1828
 6622SOL    HW131328   3.762   4.321   4.701 -0.6804  0.0574 -1.3909
 6622SOL    HW231329   3.713   4.184   4.661 -0.1672 -0.8276  1.0657
 6623SOL     OW31330   4.091   1.917   5.183 -0.3660  0.2668 -0.2964
 6623SOL    HW131331   4.164   1.955   5.231  0.3799 -1.2676 -0.2230
 6623SOL    HW231332   4.082   1.973   5.106  2.8345 -1.5750 -1.9710
 6624SOL     OW31333   4.163   2.968  17.246  0.1260  0.6264  0.5581
 6624SOL    HW131334   4.150   2.909  17.171  0.7729  2.1710 -0.7707
 6624SOL    HW231335   4.152   2.902  17.314  3.7792  0.3076  0.8300
 6625SOL     OW31336   4.494   0.209   2.902  0.0129 -0.0652 -0.1895
 6625SOL    HW131337   4.427   0.149   2.935 -1.2629  1.3290 -0.2727
 6625SOL    HW231338   4.466   0.221   2.811  2.1386  1.7471 -0.6130
 6626SOL     OW31339   4.089   2.520   1.625 -0.1941  0.4265  0.3296
 6626SOL    HW131340   4.007   2.516   1.575 -0.5684 -0.0619  0.9682
 6626SOL    HW231341   4.055   2.577   1.694 -1.2767 -0.8007  0.8267
 6627SOL     OW31342   1.656   0.602   6.517  0.1826  0.0067  0.0972
 6627SOL    HW131343   1.712   0.675   6.493  0.6805 -0.0221  1.1689
 6627SOL    HW231344   1.701   0.554   6.586 -1.6521  0.1152  1.3944
 6628SOL     OW31345   1.300   0.301   7.989 -0.2222  0.1807 -0.6000
 6628SOL    HW131346   1.282   0.387   7.952  0.7751 -0.3068 -2.2095
 6628SOL    HW231347   1.243   0.249   7.932  1.1922 -2.6809  0.5489
 6629SOL     OW31348   0.816   3.552   4.770  0.1563  0.1426 -0.1548
 6629SOL    HW131349   0.731   3.578   4.805  0.4281  0.1113  0.5227
 6629SOL    HW231350   0.839   3.616   4.702  2.0396  1.1824  1.4599
 6630SOL     OW31351   4.481   1.764   9.238  0.3599 -0.3797 -0.0524
 6630SOL    HW131352   4.550   1.806   9.289 -1.2007  1.8961  0.2086
 6630SOL    HW231353   4.518   1.679   9.214 -1.4433 -0.7266 -1.5924
 6631SOL     OW31354   4.103   2.957   9.572  0.1149 -0.4416 -0.2508
 6631SOL    HW131355   4.045   2.980   9.499 -0.5745 -1.4733 -0.0441
 6631SOL    HW231356   4.047   2.941   9.648 -0.8051 -1.3179 -1.1090
 6632SOL     OW31357   1.014   3.724   8.604  0.5465 -0.2085  0.4863
 6632SOL    HW131358   0.986   3.806   8.645  1.2307  0.7865 -1.0045
 6632SOL    HW231359   0.962   3.663   8.656 -0.7525  0.2265 -0.2912
 6633SOL     OW31360   2.425   0.420   8.996  0.1165 -0.3634 -0.3636
 6633SOL    HW131361   2.369   0.362   9.049  0.0418  0.5729  0.5871
 6633SOL    HW231362   2.418   0.381   8.909  0.8680  0.0159 -0.5943
 6634SOL     OW31363   1.033   0.697   1.470  0.6290  0.1239  0.0903
 6634SOL    HW131364   1.096   0.738   1.410 -0.5910  1.1115 -0.5222
 6634SOL    HW231365   0.980   0.639   1.416  0.4588  1.6859 -1.4099
 6635SOL     OW31366   3.035   0.634  12.536 -0.2752 -0.0930 -0.1645
 6635SOL    HW131367   3.078   0.634  12.451  0.7989  0.6386  0.3850
 6635SOL    HW231368   3.108   0.674  12.582 -0.2678  0.5443 -0.7308
 6636SOL     OW31369   1.029   0.061   5.406 -0.3163  0.5126 -0.4459
 6636SOL    HW131370   1.034   0.141   5.458 -0.7371  0.4767 -0.3484
 6636SOL    HW231371   1.109   0.065   5.354 -0.2225 -0.5801 -0.3954
 6637SOL     OW31372   3.681   2.952   7.709 -0.3299  0.1927  0.6876
 6637SOL    HW131373   3.768   2.929   7.676 -0.3454  0.2852  0.5808
 6637SOL    HW231374   3.704   3.014   7.779  1.8519  0.4496 -0.2557
 6638SOL     OW31375   4.650   2.596   6.814  0.3986  0.1876  0.0479
 6638SOL    HW131376   4.682   2.673   6.860 -0.1501  1.5071 -1.7710
 6638SOL    HW231377   4.587   2.555   6.874  1.7703 -0.5883  0.9522
 6639SOL     OW31378   4.004   4.348  15.055  0.9865  0.0119  0.2281
 6639SOL    HW131379   4.089   4.360  15.012  0.4390  0.2553 -0.7751
 6639SOL    HW231380   3.994   4.256  15.077 -0.3934 -0.4153 -2.2105
 6640SOL     OW31381   4.686   2.666   2.648  0.3044  0.1952 -0.3555
 6640SOL    HW131382   0.033   2.684   2.588  1.3412 -0.1572  0.7960
 6640SOL    HW231383   4.640   2.599   2.596  1.1015 -1.6014  1.2261
 6641SOL     OW31384   3.075   1.905   2.803  0.4167  0.5745 -0.1493
 6641SOL    HW131385   3.058   1.859   2.720 -1.5189  3.6129 -1.4414
 6641SOL    HW231386   3.135   1.968   2.763  0.2541  0.0568 -1.2042
 6642SOL     OW31387   0.767   0.530   4.615  0.4018  0.4383  0.4050
 6642SOL    HW131388   0.733   0.521   4.704 -0.2897 -1.3633 -0.0475
 6642SOL    HW231389   0.855   0.566   4.623  0.5026  0.0724  0.8853
 6643SOL     OW31390   3.192   4.720   9.962 -0.7489 -0.1303  0.6676
 6643SOL    HW131391   3.219   4.676  10.043  1.0307 -0.7094 -0.2191
 6643SOL    HW231392   3.204   4.650   9.898  0.1877  0.0412  0.6549
 6644SOL     OW31393   0.076   3.037   6.870 -0.1850 -0.6416  0.5308
 6644SOL    HW131394   0.135   3.110   6.884 -0.3465 -0.8924  2.4605
 6644SOL    HW231395   4.717   3.047   6.913 -1.1918 -2.1569 -1.0707
 6645SOL     OW31396   2.182   3.626  14.769 -0.1235 -0.1116  0.2827
 6645SOL    HW131397   2.267   3.639  14.726  0.1539  1.2916  1.2751
 6645SOL    HW231398   2.199   3.538  14.802  0.3733 -0.1721 -0.1167
 6646SOL     OW31399   3.558   0.229   6.025  0.1768  0.2426  0.2418
 6646SOL    HW131400   3.573   0.134   6.031 -0.5156  0.1968  1.1541
 6646SOL    HW231401   3.633   0.253   6.078 -2.6106  3.1405  2.8628
 6647SOL     OW31402   1.587   1.419   3.483 -0.3112  0.1975  0.0950
 6647SOL    HW131403   1.576   1.334   3.443  1.5973 -0.3660  0.7740
 6647SOL    HW231404   1.555   1.476   3.413 -3.8019 -1.5655  0.2613
 6648SOL     OW31405   1.466   3.464   4.821  0.1694  0.9000 -0.1955
 6648SOL    HW131406   1.513   3.539   4.858 -1.4249  2.2895 -0.9724
 6648SOL    HW231407   1.385   3.510   4.800  0.1172  1.4540  1.2042
 6649SOL     OW31408   3.385   1.801  12.840 -0.9154 -0.0878 -0.0509
 6649SOL    HW131409   3.444   1.747  12.891 -0.9861  0.3713  0.5220
 6649SOL    HW231410   3.440   1.823  12.765 -1.3775  0.1176 -0.3306
 6650SOL     OW31411   0.667   2.251   1.061  0.8555  0.1574 -0.0159
 6650SOL    HW131412   0.724   2.293   0.997  0.1462 -1.9808 -2.0453
 6650SOL    HW231413   0.636   2.331   1.103  0.0809 -0.7389  1.1025
 6651SOL     OW31414   0.889   2.782  16.260  0.3228 -0.0630  0.1496
 6651SOL    HW131415   0.871   2.856  16.317  0.1621  0.0982 -0.1121
 6651SOL    HW231416   0.820   2.797  16.195  0.4838 -1.2992 -0.3184
 6652SOL     OW31417   4.438   2.162   9.642  0.4288  0.0294 -0.1974
 6652SOL    HW131418   4.368   2.204   9.692  0.1177  2.5810 -2.7764
 6652SOL    HW231419   4.456   2.243   9.594  0.7462 -0.4762 -0.9222
 6653SOL     OW31420   0.206   3.335  14.911  0.1251  0.1868 -0.1175
 6653SOL    HW131421   0.187   3.375  14.996  1.5613  1.0438 -0.2014
 6653SOL    HW231422   0.176   3.249  14.940 -0.8617  0.9644  1.1687
 6654SOL     OW31423   0.913   1.034   3.601 -0.0543  0.0257 -0.1756
 6654SOL    HW131424   0.882   1.124   3.596  2.5214  0.9074  0.2093
 6654SOL    HW231425   0.868   0.988   3.529 -2.1147  0.8546  0.6017
 6655SOL     OW31426   4.566   2.566   5.232  0.1700  0.5162 -0.6677
 6655SOL    HW131427   4.479   2.550   5.268  0.8445 -1.9390 -0.1520
 6655SOL    HW231428   4.556   2.508   5.157  3.6215 -0.0842 -0.6827
 6656SOL     OW31429   0.918   3.963   2.298 -0.7294 -0.2018 -0.0816
 6656SOL    HW131430   0.909   4.054   2.327  0.1597 -0.3836  0.7677
 6656SOL    HW231431   0.882   3.915   2.373  1.6304 -0.3556  0.9485
 6657SOL     OW31432   0.614   3.377   8.514  0.4218  0.2699 -0.0520
 6657SOL    HW131433   0.709   3.373   8.514  0.3778 -0.8692  0.2949
 6657SOL    HW231434   0.604   3.387   8.609 -1.5207 -1.6687 -0.0235
 6658SOL     OW31435   3.751   2.374   2.216 -0.0489  0.0178  0.0524
 6658SOL    HW131436   3.838   2.337   2.202 -0.0383 -0.5187  1.5859
 6658SOL    HW231437   3.711   2.319   2.283  1.4769 -0.8659  0.2469
 6659SOL     OW31438   0.930   1.502  14.020  0.3534  0.6862 -0.2488
 6659SOL    HW131439   0.969   1.451  14.091  0.7838 -1.2866 -1.8944
 6659SOL    HW231440   0.868   1.436  13.986  3.3228 -2.6590  0.8330
 6660SOL     OW31441   1.822   4.041  12.012  0.4343 -0.2041  0.5794
 6660SOL    HW131442   1.748   4.056  11.952  0.1422 -0.1162  0.9601
 6660SOL    HW231443   1.786   4.003  12.092  1.3857 -1.3336  0.4726
 6661SOL     OW31444   2.085   2.201  14.938  0.2828  0.3553  0.4055
 6661SOL    HW131445   2.055   2.282  14.896  1.0100 -0.4317 -1.6146
 6661SOL    HW231446   2.173   2.188  14.904 -1.0023 -1.9094 -2.0347
 6662SOL     OW31447   3.722   1.469   9.753 -0.9640 -0.1668 -0.0567
 6662SOL    HW131448   3.778   1.391   9.761 -1.6776 -0.5467  1.2765
 6662SOL    HW231449   3.673   1.458   9.835  0.3676  1.3146  0.9421
 6663SOL     OW31450   4.431   4.354   1.905 -0.1534 -0.0469 -0.2794
 6663SOL    HW131451   4.437   4.443   1.941 -0.5135  0.1886 -0.8081
 6663SOL    HW231452   4.389   4.376   1.822 -0.1289  0.3143 -0.1973
 6664SOL     OW31453   1.294   3.474   8.315  0.2922  0.7963 -0.3135
 6664SOL    HW131454   1.200   3.457   8.308  0.4377  0.3693 -1.2639
 6664SOL    HW231455   1.301   3.485   8.410 -0.2568 -0.2755 -0.1500
 6665SOL     OW31456   0.284   1.408   8.546 -0.1338 -0.4456  0.1180
 6665SOL    HW131457   0.320   1.478   8.602 -0.2230  0.1204 -0.5338
 6665SOL    HW231458   0.350   1.409   8.477  2.5922 -2.1430  2.6721
 6666SOL     OW31459   0.682   1.439  12.203 -0.5289 -0.5474  0.4786
 6666SOL    HW131460   0.761   1.412  12.251  0.9828  0.3514 -1.4934
 6666SOL    HW231461   0.682   1.531  12.231 -1.3551 -0.0923 -1.0180
 6667SOL     OW31462   4.165   0.701   3.844  0.0540 -0.0107  0.1274
 6667SOL    HW131463   4.092   0.718   3.785 -0.5442  0.6619  1.0645
 6667SOL    HW231464   4.184   0.787   3.882 -0.6018 -0.5314  1.6198
 6668SOL     OW31465   3.021   1.448   9.529  0.6120 -0.4492 -0.3932
 6668SOL    HW131466   3.035   1.359   9.499 -1.4424 -0.7265 -0.4774
 6668SOL    HW231467   2.955   1.437   9.597  1.9086 -2.9654  0.4734
 6669SOL     OW31468   1.468   4.169   5.962 -0.0551 -0.3392 -0.6325
 6669SOL    HW131469   1.450   4.136   6.050 -3.6613 -0.3603 -1.3501
 6669SOL    HW231470   1.560   4.190   5.977  0.4178 -3.7508  1.3147
 6670SOL     OW31471   2.862   3.784  13.170 -0.0831  0.1319  0.2119
 6670SOL    HW131472   2.864   3.863  13.223  0.8115 -1.4811  2.5871
 6670SOL    HW231473   2.836   3.817  13.084  1.0216 -0.3995 -0.3311
 6671SOL     OW31474   3.326   1.221   1.535  0.2980 -0.2508 -0.2157
 6671SOL    HW131475   3.326   1.314   1.555 -0.6896 -0.4450  0.7003
 6671SOL    HW231476   3.346   1.235   1.443  3.7054  0.5060  0.6466
 6672SOL     OW31477   1.908   0.065  11.664 -0.3619 -0.1639 -0.1205
 6672SOL    HW131478   1.820   0.033  11.681  0.0770  0.7431  3.8555
 6672SOL    HW231479   1.965   4.714  11.669  0.1377  0.0864 -1.8313
 6673SOL     OW31480   4.469   1.248   3.372  0.2045 -0.0759  0.5358
 6673SOL    HW131481   4.497   1.179   3.432  0.0142 -1.5971 -1.1167
 6673SOL    HW231482   4.415   1.190   3.318  1.1863  0.5288 -1.1257
 6674SOL     OW31483   1.820   2.038   6.620  0.2820  0.7549  0.1230
 6674SOL    HW131484   1.873   1.983   6.678  0.8986  1.3491  0.1230
 6674SOL    HW231485   1.730   2.011   6.637  0.3557 -0.6057 -1.6663
 6675SOL     OW31486   4.194   2.185  13.107  0.2562  0.3279  0.0812
 6675SOL    HW131487   4.178   2.246  13.179 -1.7253 -2.5076  1.9911
 6675SOL    HW231488   4.202   2.243  13.031 -0.3212  0.2680 -0.0218
 6676SOL     OW31489   4.370   4.563  17.561  0.7090  0.2976  0.5155
 6676SOL    HW131490   4.374   4.552  17.656 -0.5553  1.9506  0.7570
 6676SOL    HW231491   4.286   4.524  17.536 -0.1481  1.4822  1.5296
 6677SOL     OW31492   2.068   4.454   2.223 -0.2331 -0.1765  0.0496
 6677SOL    HW131493   2.061   4.547   2.244  1.1961  0.0203 -0.3670
 6677SOL    HW231494   2.140   4.451   2.160  2.4682  1.6220  3.0715
 6678SOL     OW31495   0.714   1.322   3.183 -0.1693 -0.1243  0.3023
 6678SOL    HW131496   0.755   1.345   3.099 -0.7057  3.2523  0.9372
 6678SOL    HW231497   0.653   1.258   3.148 -0.1576 -0.0093  0.0648
 6679SOL     OW31498   3.522   1.289   2.162  0.0614  0.2719  0.0654
 6679SOL    HW131499   3.572   1.368   2.182 -1.6458  1.5430 -0.7238
 6679SOL    HW231500   3.559   1.272   2.075 -2.3932  2.4829 -1.3848
 6680SOL     OW31501   4.491   1.583   2.667  0.2524  0.4957  0.2608
 6680SOL    HW131502   4.502   1.577   2.572  1.2681 -0.0104  0.4128
 6680SOL    HW231503   4.499   1.494   2.702 -0.5656  0.3408  0.0659
 6681SOL     OW31504   0.884   0.481   3.736  0.0049  0.0978 -0.2736
 6681SOL    HW131505   0.899   0.553   3.798  0.9211 -1.2625  1.0692
 6681SOL    HW231506   0.932   0.409   3.776  0.3822  0.7879  0.5159
 6682SOL     OW31507   0.645   1.782   8.649  0.0053 -0.3882 -0.2029
 6682SOL    HW131508   0.679   1.870   8.663 -0.2707 -0.3793  0.4363
 6682SOL    HW231509   0.722   1.727   8.639  0.8210  0.7791 -0.3590
 6683SOL     OW31510   1.385   3.387   4.429 -0.1544  0.1557 -0.0344
 6683SOL    HW131511   1.471   3.375   4.470 -0.3243 -1.6457 -0.2225
 6683SOL    HW231512   1.402   3.452   4.360  1.8537 -0.7566 -0.4191
 6684SOL     OW31513   4.025   1.877   8.703  0.4299 -0.2077 -0.3353
 6684SOL    HW131514   3.997   1.893   8.793  2.5127 -1.2626  0.4890
 6684SOL    HW231515   3.999   1.786   8.699  1.0864 -0.3817 -0.7145
 6685SOL     OW31516   3.071   2.666   9.073 -0.0991  0.0841 -0.5049
 6685SOL    HW131517   3.086   2.587   9.021 -0.8487  0.6845 -1.6263
 6685SOL    HW231518   3.158   2.684   9.109 -0.3393  0.5671 -0.1679
 6686SOL     OW31519   2.698   1.777   4.391  0.3124 -0.1072 -0.0473
 6686SOL    HW131520   2.698   1.684   4.414  1.1174 -0.4304 -1.3739
 6686SOL    HW231521   2.737   1.774   4.304 -0.9749 -2.8060 -0.5311
 6687SOL     OW31522   0.631   4.175  13.462  0.5456  0.1009  0.0788
 6687SOL    HW131523   0.691   4.231  13.413 -0.3810  0.9422 -0.0928
 6687SOL    HW231524   0.697   4.137  13.520 -0.6969 -0.4388  1.1330
 6688SOL     OW31525   0.854   4.490   8.635 -0.3251  0.1706  0.1140
 6688SOL    HW131526   0.890   4.491   8.723 -2.0085 -2.8516  0.8350
 6688SOL    HW231527   0.768   4.523   8.659 -0.2994  0.4327 -0.1523
 6689SOL     OW31528   4.062   1.265  15.911  0.4509 -0.1267 -0.0269
 6689SOL    HW131529   3.986   1.262  15.853 -0.7572  0.7825  1.5052
 6689SOL    HW231530   4.037   1.335  15.971  2.1606 -0.2874  0.8723
 6690SOL     OW31531   4.385   4.320   1.611 -0.3016  0.5681  0.1651
 6690SOL    HW131532   4.479   4.334   1.595  0.1163 -2.1819  0.0914
 6690SOL    HW231533   4.358   4.270   1.534 -1.5762  0.9122  0.3910
 6691SOL     OW31534   3.957   1.069   6.312  0.6620 -0.8094 -0.1695
 6691SOL    HW131535   4.002   1.068   6.228  1.2855  0.5795  0.1382
 6691SOL    HW231536   4.013   1.018   6.371  1.1286  0.9675  0.9291
 6692SOL     OW31537   2.935   3.420  12.506  0.4053 -0.5419  0.8122
 6692SOL    HW131538   2.896   3.500  12.542  0.4085 -0.4809  0.6803
 6692SOL    HW231539   2.978   3.394  12.587  0.4269 -3.2856 -0.0941
 6693SOL     OW31540   4.049   3.300   4.154  0.1975 -0.0998  0.0564
 6693SOL    HW131541   4.097   3.254   4.222  1.8815  1.5509 -0.0129
 6693SOL    HW231542   4.054   3.392   4.180 -1.0778  0.8975 -3.2996
 6694SOL     OW31543   1.468   4.358   7.506  0.7321 -0.3085  0.0713
 6694SOL    HW131544   1.399   4.397   7.561  1.7430  0.9999  0.4006
 6694SOL    HW231545   1.460   4.266   7.533  0.1427 -0.1162  0.5514
 6695SOL     OW31546   1.960   1.524  15.626 -0.3032 -0.0871 -0.0564
 6695SOL    HW131547   2.038   1.580  15.633 -0.4556  0.3587 -1.9204
 6695SOL    HW231548   1.981   1.498  15.536 -0.3585  0.5969 -0.2662
 6696SOL     OW31549   0.291   3.348  12.868  0.3823 -0.1181 -0.3607
 6696SOL    HW131550   0.381   3.323  12.887  1.1457  2.9949  0.0887
 6696SOL    HW231551   0.266   3.412  12.934  1.0131 -0.4571  0.2003
 6697SOL     OW31552   0.360   0.721   8.404 -0.0551  0.0789 -0.0250
 6697SOL    HW131553   0.398   0.807   8.418  2.3639 -1.1188  0.7907
 6697SOL    HW231554   0.370   0.683   8.492  3.0199 -1.3606 -1.0068
 6698SOL     OW31555   1.571   4.492   5.177 -0.2027 -0.1470 -0.1352
 6698SOL    HW131556   1.564   4.433   5.252 -0.9209 -0.6932 -0.6338
 6698SOL    HW231557   1.484   4.526   5.157  0.3540  0.9574 -0.6885
 6699SOL     OW31558   0.370   4.005   4.563 -0.2375 -0.0259  0.2264
 6699SOL    HW131559   0.333   4.037   4.480 -1.3827 -0.9266  0.3916
 6699SOL    HW231560   0.311   4.045   4.627 -0.2492 -1.0347  0.8367
 6700SOL     OW31561   3.629   1.171   9.382 -0.2698 -0.4045 -0.1089
 6700SOL    HW131562   3.606   1.158   9.474 -0.6632 -2.1470 -0.4470
 6700SOL    HW231563   3.724   1.160   9.373  0.0394  0.5346  2.0016
 6701SOL     OW31564   1.686   0.584   8.930 -0.1328  0.0406 -0.0753
 6701SOL    HW131565   1.592   0.593   8.950 -0.4512  0.0511 -1.5719
 6701SOL    HW231566   1.698   0.490   8.945 -2.7711 -0.6773 -2.4168
 6702SOL     OW31567   1.716   3.488   7.274 -0.2712 -0.6343  0.5526
 6702SOL    HW131568   1.662   3.550   7.224  1.1567 -1.2122 -1.6649
 6702SOL    HW231569   1.782   3.470   7.208 -2.1054 -1.3761 -1.0622
 6703SOL     OW31570   0.654   0.363  11.154 -0.1231 -1.0033  0.7424
 6703SOL    HW131571   0.635   0.456  11.167  1.0029 -0.8937  1.5696
 6703SOL    HW231572   0.605   0.319  11.224  1.3866 -0.1522  2.3308
 6704SOL     OW31573   1.283   1.086   4.708 -0.0759 -0.3977 -0.0114
 6704SOL    HW131574   1.324   1.138   4.638  0.6436  0.4050  0.9990
 6704SOL    HW231575   1.220   1.150   4.741  0.3231 -0.1516  0.2841
 6705SOL     OW31576   3.518   3.100   0.461 -0.0687 -0.1194 -0.0495
 6705SOL    HW131577   3.521   3.041   0.536 -2.2917 -0.0755  0.0858
 6705SOL    HW231578   3.480   3.038   0.399  0.0816  0.0144 -0.2773
 6706SOL     OW31579   2.244   1.229   5.379 -0.1770 -0.0644 -0.2539
 6706SOL    HW131580   2.253   1.252   5.471 -0.1080  1.2665 -0.5823
 6706SOL    HW231581   2.190   1.302   5.349 -1.9200 -0.6703  1.4022
 6707SOL     OW31582   3.580   2.771   8.191  0.5062 -0.0449  0.4606
 6707SOL    HW131583   3.675   2.781   8.195  0.7588 -2.0273 -0.4172
 6707SOL    HW231584   3.553   2.852   8.148  1.3889 -0.1074 -0.2073
 6708SOL     OW31585   1.555   1.160   7.694  0.2339 -0.3679 -0.5283
 6708SOL    HW131586   1.630   1.151   7.635  0.4165  0.2654 -0.3883
 6708SOL    HW231587   1.512   1.074   7.689  0.4948 -0.5780  1.1628
 6709SOL     OW31588   3.905   0.075   1.153  0.0180  0.3201 -0.2818
 6709SOL    HW131589   3.922   0.058   1.061 -0.6390 -2.5315  0.1289
 6709SOL    HW231590   3.820   0.040   1.180 -0.2675  0.0383 -1.5542
 6710SOL     OW31591   0.889   0.096  16.495 -0.7339 -0.2235  0.2581
 6710SOL    HW131592   0.929   0.020  16.537  0.6496  0.1225 -0.4383
 6710SOL    HW231593   0.971   0.143  16.481 -1.5387  1.1454  0.2313
 6711SOL     OW31594   1.425   1.145  11.003  0.4341 -0.3846  0.0778
 6711SOL    HW131595   1.381   1.224  11.033  1.6663 -1.0768  3.7446
 6711SOL    HW231596   1.349   1.093  10.974  0.1265 -0.6222  1.3108
 6712SOL     OW31597   2.071   2.982   7.372 -0.1803  0.3013 -0.4717
 6712SOL    HW131598   1.979   2.999   7.394 -0.1908  1.9706 -1.7958
 6712SOL    HW231599   2.106   3.071   7.375 -1.3974  0.7701  0.2906
 6713SOL     OW31600   2.993   1.312   9.867  0.4864  0.6192 -0.0326
 6713SOL    HW131601   2.936   1.376   9.824  0.5934 -0.6587 -2.0954
 6713SOL    HW231602   3.075   1.361   9.871 -0.0499  1.4843  0.3348
 6714SOL     OW31603   1.690   4.369   6.280 -0.2381 -0.1880  0.1602
 6714SOL    HW131604   1.674   4.310   6.354  0.7468 -0.1101  0.4286
 6714SOL    HW231605   1.644   4.450   6.302  0.4617 -0.2821  1.9294
 6715SOL     OW31606   1.483   2.861   0.521 -0.6706  0.7235  0.9012
 6715SOL    HW131607   1.533   2.783   0.546 -0.9376  0.5613  0.9324
 6715SOL    HW231608   1.494   2.864   0.426  0.8206  0.8692  1.0828
 6716SOL     OW31609   0.008   4.663   5.567  0.2280  0.1661  0.2832
 6716SOL    HW131610   0.011   4.574   5.534  5.3811  0.7083 -0.6074
 6716SOL    HW231611   0.086   4.700   5.527 -1.0759  0.1554 -2.2599
 6717SOL     OW31612   1.727   3.850   9.299  0.5485 -0.1455 -0.1391
 6717SOL    HW131613   1.676   3.882   9.225  1.3385 -0.4813 -0.8205
 6717SOL    HW231614   1.688   3.896   9.374  0.4687  0.8655 -0.8003
 6718SOL     OW31615   4.013   0.061   8.690  0.2528 -0.2122 -0.1723
 6718SOL    HW131616   4.048   0.140   8.732 -1.0316 -0.6989  1.7882
 6718SOL    HW231617   4.076   0.047   8.619  0.4429 -0.0809 -0.0305
 6719SOL     OW31618   0.217   2.404   7.565 -0.5067 -0.3483 -0.4033
 6719SOL    HW131619   0.164   2.330   7.536 -0.8653 -0.8691  1.6332
 6719SOL    HW231620   0.298   2.353   7.570  0.8451  1.6648 -1.6090
 6720SOL     OW31621   4.155   4.442   7.633 -0.2388  0.1850  0.0525
 6720SOL    HW131622   4.134   4.448   7.540  0.0660  3.2384  0.1664
 6720SOL    HW231623   4.103   4.367   7.660  0.4836 -0.4296 -0.2660
 6721SOL     OW31624   4.308   3.133   3.522  0.9039  0.2042 -0.5880
 6721SOL    HW131625   4.369   3.059   3.528  1.2605  0.6903  2.0437
 6721SOL    HW231626   4.248   3.086   3.465  1.6513  1.2675 -2.2663
 6722SOL     OW31627   1.868   2.773   4.597  0.1229 -0.3903  0.3471
 6722SOL    HW131628   1.802   2.727   4.649 -1.5843 -0.4010 -1.8222
 6722SOL    HW231629   1.945   2.780   4.653 -0.9709  2.8395  1.4685
 6723SOL     OW31630   0.405   2.764  16.126  0.1340  0.1107 -0.6487
 6723SOL    HW131631   0.349   2.841  16.125 -0.4276 -0.2882 -0.2734
 6723SOL    HW231632   0.358   2.702  16.070 -3.0770  1.4988  0.5490
 6724SOL     OW31633   4.526   1.651   6.056 -0.2539  0.3594 -0.0494
 6724SOL    HW131634   4.549   1.581   5.996 -0.0409 -0.7507  1.3083
 6724SOL    HW231635   4.431   1.638   6.055 -0.2312  0.3075 -1.0931
 6725SOL     OW31636   2.718   3.760   7.348 -0.7808 -0.0931 -0.2047
 6725SOL    HW131637   2.737   3.780   7.440 -0.6227 -2.7235  0.3312
 6725SOL    HW231638   2.717   3.665   7.351  0.8072 -0.1159 -0.2003
 6726SOL     OW31639   3.858   2.784   8.172 -0.4526  0.0858 -0.4391
 6726SOL    HW131640   3.922   2.855   8.176 -1.1597  0.5661  3.1459
 6726SOL    HW231641   3.891   2.737   8.096 -1.9167  1.4245 -1.8958
 6727SOL     OW31642   4.260   3.891   4.638 -0.0782 -0.4229 -0.5621
 6727SOL    HW131643   4.341   3.851   4.668  0.2479  0.7253  0.0850
 6727SOL    HW231644   4.245   3.953   4.709  0.5844 -0.4726 -0.3792
 6728SOL     OW31645   4.319   0.523   3.736  0.2879 -0.1972  0.1884
 6728SOL    HW131646   4.285   0.537   3.648  0.3370  0.4600  0.2692
 6728SOL    HW231647   4.256   0.576   3.785 -0.7368 -0.0291 -1.3436
 6729SOL     OW31648   0.959   3.578   3.861  0.3118 -0.3901  0.2689
 6729SOL    HW131649   1.040   3.581   3.910 -0.2983 -1.2499  1.3245
 6729SOL    HW231650   0.914   3.512   3.914  0.1975  0.7612  1.6068
 6730SOL     OW31651   2.299   3.113  14.346 -0.1636 -0.0184 -0.1706
 6730SOL    HW131652   2.339   3.141  14.263  0.4517 -1.9328 -0.5153
 6730SOL    HW231653   2.214   3.153  14.328  0.0540  0.1750 -0.7883
 6731SOL     OW31654   4.049   1.269   9.168  0.0859 -0.0655 -0.0343
 6731SOL    HW131655   4.096   1.347   9.196  0.4143 -0.2304 -0.1264
 6731SOL    HW231656   3.996   1.249   9.246 -0.2251  0.0592 -0.2131
 6732SOL     OW31657   3.323   3.433   6.891 -0.1977 -0.0749  0.1938
 6732SOL    HW131658   3.246   3.486   6.913 -0.5292  0.7851 -2.9499
 6732SOL    HW231659   3.364   3.415   6.976  0.0080  0.2729  0.1686
 6733SOL     OW31660   1.715   1.811   5.292  0.0587  0.2633  0.1113
 6733SOL    HW131661   1.770   1.885   5.318 -0.0240  0.2302  0.3816
 6733SOL    HW231662   1.782   1.751   5.259  2.8451  2.1542  2.3079
 6734SOL     OW31663   0.712   2.480   8.081 -0.1177 -0.0203 -0.1240
 6734SOL    HW131664   0.667   2.520   8.007 -0.5654  2.0005  1.2620
 6734SOL    HW231665   0.681   2.535   8.153  0.2031  3.3095 -2.5308
 6735SOL     OW31666   3.136   4.228   2.022  0.1766 -0.4176  0.1375
 6735SOL    HW131667   3.213   4.179   2.051  0.4185 -0.9233 -1.3551
 6735SOL    HW231668   3.071   4.166   2.054 -0.9592 -0.5796 -2.5306
 6736SOL     OW31669   2.343   1.266   2.473  0.3077 -0.1959 -0.0562
 6736SOL    HW131670   2.254   1.276   2.439  1.0867 -1.3321 -2.4188
 6736SOL    HW231671   2.390   1.344   2.445 -2.3650  1.3888 -0.0727
 6737SOL     OW31672   2.495   3.907   0.214  0.1918 -0.1512 -0.1401
 6737SOL    HW131673   2.583   3.890   0.247  0.5011 -0.3825 -1.0706
 6737SOL    HW231674   2.504   3.983   0.156 -0.9238 -1.1613 -1.6748
 6738SOL     OW31675   1.728   3.817   7.764  0.2775 -0.7524 -0.4073
 6738SOL    HW131676   1.705   3.757   7.693  0.8659 -0.7829 -0.5679
 6738SOL    HW231677   1.653   3.876   7.754  0.5912 -0.2229  0.3374
 6739SOL     OW31678   1.730   2.776   6.657  0.0648  0.0482 -0.5969
 6739SOL    HW131679   1.823   2.764   6.676 -0.1860  0.6216  0.9858
 6739SOL    HW231680   1.730   2.751   6.564  2.5923 -1.0374 -0.2903
 6740SOL     OW31681   2.943   2.347   7.082  0.2342 -0.1391 -0.2363
 6740SOL    HW131682   3.012   2.317   7.022 -0.2641 -0.0798 -0.8437
 6740SOL    HW231683   2.915   2.258   7.103  1.5362 -0.1962  1.2462
 6741SOL     OW31684   2.942   2.586   7.929 -0.1987  0.4655 -0.0392
 6741SOL    HW131685   2.850   2.585   7.957 -0.0767  2.7021  0.4854
 6741SOL    HW231686   2.965   2.495   7.946  0.1069  0.8281  1.4832
 6742SOL     OW31687   1.232   1.787   3.665  0.2629 -0.2707  0.1204
 6742SOL    HW131688   1.281   1.869   3.670 -0.4071  0.2124 -1.0918
 6742SOL    HW231689   1.299   1.720   3.677  0.4574 -0.1249 -0.1509
 6743SOL     OW31690   3.049   1.184   4.572 -0.0386  0.2431 -0.4177
 6743SOL    HW131691   3.027   1.162   4.663  0.2058  0.0247 -0.4127
 6743SOL    HW231692   3.002   1.268   4.578 -0.3797 -0.0766  1.5013
 6744SOL     OW31693   1.937   1.321   7.925  0.6667  0.6219 -0.1202
 6744SOL    HW131694   2.004   1.252   7.930 -0.2073 -0.2708 -0.6315
 6744SOL    HW231695   1.855   1.275   7.944  2.1038 -1.5978  0.7518
 6745SOL     OW31696   3.105   0.666   2.305  0.6528 -0.1188  0.6111
 6745SOL    HW131697   3.167   0.676   2.378  2.3587 -0.7611 -0.7448
 6745SOL    HW231698   3.166   0.650   2.233  0.2538 -1.0262  0.4742
 6746SOL     OW31699   3.555   3.246   4.538 -1.1698 -0.4294 -0.0559
 6746SOL    HW131700   3.505   3.238   4.619  0.2809 -2.1809  0.6533
 6746SOL    HW231701   3.494   3.295   4.482 -1.6214 -1.1492 -0.1828
 6747SOL     OW31702   2.852   3.305   5.200  0.0501  0.1841  0.2952
 6747SOL    HW131703   2.848   3.373   5.268  1.7038 -0.6142  1.1867
 6747SOL    HW231704   2.758   3.289   5.187  0.1466  1.0148 -1.4652
 6748SOL     OW31705   3.265   4.547   9.771 -0.3675  0.2163 -0.0240
 6748SOL    HW131706   3.359   4.529   9.768 -0.4272  0.0949 -0.9701
 6748SOL    HW231707   3.224   4.468   9.736  0.3831  0.2893 -1.0549
 6749SOL     OW31708   0.072   2.815  16.931  0.0421  0.2535 -0.2442
 6749SOL    HW131709   0.021   2.788  17.008 -0.0989 -1.8151 -1.0661
 6749SOL    HW231710   0.136   2.744  16.930  1.6126  1.6938 -1.9771
 6750SOL     OW31711   4.033   3.195  17.075 -0.5643  0.1675  0.0171
 6750SOL    HW131712   4.081   3.153  17.146 -3.1361 -0.9538  1.1221
 6750SOL    HW231713   4.029   3.288  17.097  1.3403  1.1363 -3.6863
 6751SOL     OW31714   2.998   4.195   2.498  0.7658 -0.0898 -0.0206
 6751SOL    HW131715   2.981   4.240   2.416  0.3203  2.3934  1.4282
 6751SOL    HW231716   3.054   4.121   2.472 -1.0695 -1.0106 -1.2978
 6752SOL     OW31717   3.454   0.926  10.676 -0.2731 -0.6908  0.0813
 6752SOL    HW131718   3.512   0.963  10.608  0.1493 -0.9289  0.3123
 6752SOL    HW231719   3.436   1.000  10.733 -0.8618 -2.3879  2.0833
 6753SOL     OW31720   3.977   0.843   8.243 -0.2558  0.0610 -0.3547
 6753SOL    HW131721   4.048   0.791   8.205 -0.3546  1.2371 -2.1594
 6753SOL    HW231722   4.014   0.931   8.236 -4.4196  1.7082 -1.7405
 6754SOL     OW31723   0.055   3.029   4.447  0.6961 -0.6405 -0.0338
 6754SOL    HW131724   0.027   2.942   4.419 -2.6848  0.6025 -0.4674
 6754SOL    HW231725   0.095   3.055   4.364  2.5964  0.6438  1.2769
 6755SOL     OW31726   4.172   1.461   3.413 -0.0307 -0.6927  0.8902
 6755SOL    HW131727   4.226   1.404   3.359 -1.0223 -1.0607  0.2905
 6755SOL    HW231728   4.216   1.545   3.398  0.8217 -1.9080 -3.3759
 6756SOL     OW31729   2.732   2.791   6.751  0.5555 -0.1279 -0.3402
 6756SOL    HW131730   2.746   2.710   6.800 -2.7146 -0.5941 -0.2362
 6756SOL    HW231731   2.777   2.768   6.670 -0.6663 -1.7584 -0.5517
 6757SOL     OW31732   1.094   1.593  12.265 -0.4493  0.4991  0.0245
 6757SOL    HW131733   1.083   1.686  12.246  2.2867  1.3593  2.5994
 6757SOL    HW231734   1.171   1.581  12.209 -1.6444 -0.6096 -1.3694
 6758SOL     OW31735   0.377   4.553   3.577  0.0103  0.2689 -0.1895
 6758SOL    HW131736   0.351   4.643   3.560  0.7090  0.1951 -1.5937
 6758SOL    HW231737   0.348   4.502   3.502  0.8008  0.6733 -0.7632
 6759SOL     OW31738   2.810   1.563   9.911  0.2262  0.9434 -0.5166
 6759SOL    HW131739   2.823   1.658   9.905 -1.9658  1.2190 -0.6698
 6759SOL    HW231740   2.844   1.542   9.998 -0.3830  0.4965 -0.3869
 6760SOL     OW31741   3.540   2.201  14.789 -0.6430 -0.3313  0.3116
 6760SOL    HW131742   3.545   2.280  14.843 -1.4116  1.2318 -1.9470
 6760SOL    HW231743   3.547   2.138  14.861  0.4492  0.7145  1.1258
 6761SOL     OW31744   1.302   1.505   3.381  0.7300  0.2656 -0.3234
 6761SOL    HW131745   1.235   1.567   3.353  2.1125  1.3462 -1.2261
 6761SOL    HW231746   1.259   1.448   3.444  1.7205 -1.3455 -1.0963
 6762SOL     OW31747   3.711   0.580  15.171 -0.9373  0.2791 -0.7155
 6762SOL    HW131748   3.750   0.659  15.133 -0.5721 -0.7682 -2.5130
 6762SOL    HW231749   3.716   0.520  15.096 -3.3405  0.2755 -0.8550
 6763SOL     OW31750   0.440   2.245   8.534  0.0842 -0.4201  0.3916
 6763SOL    HW131751   0.433   2.340   8.540  2.8323 -0.0681 -1.9667
 6763SOL    HW231752   0.515   2.227   8.592 -0.0293 -0.9170  0.3849
 6764SOL     OW31753   3.627   2.308   7.423  0.0649  0.5926  0.5945
 6764SOL    HW131754   3.721   2.327   7.419  0.0775  0.7040  1.4663
 6764SOL    HW231755   3.618   2.274   7.334  1.6222 -1.4525  1.2129
 6765SOL     OW31756   1.444   2.742   3.715 -0.1853  0.4204  0.3612
 6765SOL    HW131757   1.532   2.735   3.680 -0.9946  2.1314 -2.0548
 6765SOL    HW231758   1.465   2.728   3.807 -1.1302 -0.6892  0.4039
 6766SOL     OW31759   3.676   1.781   9.400  0.4636 -0.0882 -0.4944
 6766SOL    HW131760   3.756   1.732   9.421 -0.1338 -0.9659 -0.2425
 6766SOL    HW231761   3.681   1.848   9.468  0.8895  0.1655 -0.7716
 6767SOL     OW31762   3.432   0.267  12.255 -0.0303 -0.5447  0.7485
 6767SOL    HW131763   3.486   0.295  12.329  0.9007 -0.6052  0.0917
 6767SOL    HW231764   3.364   0.234  12.314 -0.3560 -0.4681  0.4158
 6768SOL     OW31765   3.002   3.683   9.833 -0.0389 -0.5904 -0.1299
 6768SOL    HW131766   2.923   3.736   9.842  0.4938  0.5155 -1.9216
 6768SOL    HW231767   3.025   3.697   9.741 -1.0746  1.0254 -0.1384
 6769SOL     OW31768   0.598   3.545   7.368 -0.0446  0.0273 -0.5564
 6769SOL    HW131769   0.548   3.590   7.300  2.6468  3.2472 -0.3775
 6769SOL    HW231770   0.650   3.619   7.398  2.1618 -1.3894 -0.9093
 6770SOL     OW31771   3.477   2.020   9.246  0.1176  0.0434 -0.2928
 6770SOL    HW131772   3.440   2.101   9.280  1.2903  0.7067 -0.5928
 6770SOL    HW231773   3.406   1.985   9.192 -0.7153  0.4490  0.5464
 6771SOL     OW31774   0.143   4.352   6.099  0.0945  0.0192  0.0471
 6771SOL    HW131775   0.183   4.427   6.055 -0.8795  1.2120  1.2129
 6771SOL    HW231776   0.131   4.290   6.026 -1.2653  1.4571 -0.9596
 6772SOL     OW31777   0.358   1.716   8.422  0.1798 -0.3682  0.2400
 6772SOL    HW131778   0.362   1.668   8.340  0.5995  0.6335 -0.3202
 6772SOL    HW231779   0.432   1.777   8.417 -0.2588 -0.0253 -2.1570
 6773SOL     OW31780   2.641   2.448  11.207 -0.6246  0.1456  0.1593
 6773SOL    HW131781   2.606   2.415  11.124 -0.4600  0.7262 -0.1423
 6773SOL    HW231782   2.561   2.465  11.256  0.7183 -0.3521  2.5073
 6774SOL     OW31783   2.206   2.183   2.390  0.0877 -0.2413 -0.2710
 6774SOL    HW131784   2.142   2.218   2.452  1.0506  2.0661 -0.5775
 6774SOL    HW231785   2.191   2.245   2.319 -0.9819 -0.7856 -0.5150
 6775SOL     OW31786   0.835   2.715  11.751  0.9415  0.0962  0.9464
 6775SOL    HW131787   0.850   2.649  11.683  1.3033 -1.0797  2.1744
 6775SOL    HW231788   0.923   2.752  11.760  0.0071  2.7741 -0.8444
 6776SOL     OW31789   0.389   1.128   1.341  0.0415 -0.2519  0.2760
 6776SOL    HW131790   0.301   1.150   1.309  0.8175  1.2332 -0.8794
 6776SOL    HW231791   0.432   1.104   1.260 -1.9600 -2.7934 -0.0415
 6777SOL     OW31792   3.177   2.131   2.644  0.4932  0.4061  0.0113
 6777SOL    HW131793   3.200   2.208   2.696 -0.2075 -2.6517  4.8362
 6777SOL    HW231794   3.260   2.119   2.599  0.1089 -0.2523 -0.5182
 6778SOL     OW31795   0.442   3.613  15.563 -0.0867  0.0100  0.1621
 6778SOL    HW131796   0.418   3.705  15.570 -0.7373 -0.1866  0.4955
 6778SOL    HW231797   0.536   3.616  15.542 -0.5350 -0.4910 -1.8674
 6779SOL     OW31798   1.020   2.915   5.855  0.2432  0.2423 -0.0006
 6779SOL    HW131799   1.040   2.906   5.762  1.0847 -0.2295  0.2215
 6779SOL    HW231800   0.926   2.912   5.871  0.6583 -1.0200  2.2813
 6780SOL     OW31801   3.473   3.339  12.740 -0.0874 -0.1802  0.2588
 6780SOL    HW131802   3.484   3.326  12.834 -0.3748  0.8102  0.4194
 6780SOL    HW231803   3.514   3.257  12.711  0.5138  0.7207 -1.3993
 6781SOL     OW31804   3.928   1.298  17.097  0.1418  0.6756 -0.1260
 6781SOL    HW131805   3.961   1.221  17.052 -1.0723  0.4956 -0.7141
 6781SOL    HW231806   4.009   1.349  17.099 -0.1574  1.1708 -1.1351
 6782SOL     OW31807   4.349   1.427   4.629  0.2829 -0.0111  0.2779
 6782SOL    HW131808   4.424   1.427   4.570  0.2142 -0.7035  0.1910
 6782SOL    HW231809   4.292   1.487   4.582 -0.8275 -0.3452  1.1936
 6783SOL     OW31810   0.147   4.217   6.986  0.9283 -0.0802 -0.7179
 6783SOL    HW131811   0.199   4.241   7.062 -2.1869  0.3910  1.2529
 6783SOL    HW231812   0.068   4.197   7.036 -0.9113  3.6632 -2.1451
 6784SOL     OW31813   0.692   3.630   3.123 -0.1827 -0.2086  0.8920
 6784SOL    HW131814   0.736   3.623   3.207  0.6099  0.3979  0.5405
 6784SOL    HW231815   0.602   3.614   3.150 -0.0854  0.3476  1.5538
 6785SOL     OW31816   1.746   1.426   8.305  0.7732 -0.0908 -0.1502
 6785SOL    HW131817   1.756   1.354   8.367  0.7856 -0.1593 -0.2316
 6785SOL    HW231818   1.655   1.448   8.324  0.8035  0.1100 -0.2409
 6786SOL     OW31819   1.764   4.210  16.975  0.6631  0.3680  0.2026
 6786SOL    HW131820   1.803   4.130  17.009 -0.1039  0.2132  0.7211
 6786SOL    HW231821   1.694   4.228  17.038  0.9065 -0.2809  0.6576
 6787SOL     OW31822   1.600   1.495   4.841 -0.2123 -0.2706 -0.0859
 6787SOL    HW131823   1.535   1.432   4.871  0.4621 -1.3760 -0.9403
 6787SOL    HW231824   1.674   1.437   4.825 -0.2735 -1.0090  2.3803
 6788SOL     OW31825   1.902   2.872   5.248  0.6372  0.3181  0.1189
 6788SOL    HW131826   1.940   2.801   5.299 -1.1053 -0.6475  0.0813
 6788SOL    HW231827   1.975   2.890   5.188 -0.3558  2.0548 -0.5940
 6789SOL     OW31828   1.250   0.035   2.570  0.1160 -0.0389  0.0671
 6789SOL    HW131829   1.297   0.118   2.561  0.1871 -0.1336 -0.4502
 6789SOL    HW231830   1.317   4.705   2.609 -1.9620 -2.3809  0.2979
 6790SOL     OW31831   2.325   0.839   4.737 -0.3634  0.0172 -0.4176
 6790SOL    HW131832   2.408   0.842   4.785 -1.0546 -1.7172  0.9058
 6790SOL    HW231833   2.352   0.800   4.653  1.6895 -1.2282  0.8262
 6791SOL     OW31834   3.684   0.180   2.158 -0.1746  0.3580 -0.1625
 6791SOL    HW131835   3.753   0.179   2.091  2.7341 -3.2010  2.9517
 6791SOL    HW231836   3.642   0.265   2.143 -2.8405 -0.9972 -0.4440
 6792SOL     OW31837   2.527   2.467  10.661 -0.0369 -0.3119  0.0018
 6792SOL    HW131838   2.471   2.390  10.656 -3.5286  2.3439 -2.1196
 6792SOL    HW231839   2.482   2.528  10.720  1.1418  0.9959 -0.4278
 6793SOL     OW31840   0.395   4.708   5.807 -0.0981  0.0196 -0.2850
 6793SOL    HW131841   0.480   4.667   5.825 -0.3574 -0.7421 -0.7790
 6793SOL    HW231842   0.384   0.052   5.872 -1.5295  0.3018 -0.8377
 6794SOL     OW31843   0.233   1.296   8.134 -0.7774 -0.3304  0.3679
 6794SOL    HW131844   0.201   1.274   8.222  1.7991  1.3256  1.7400
 6794SOL    HW231845   0.181   1.230   8.090 -0.0156 -0.0771 -0.8935
 6795SOL     OW31846   2.998   0.131  10.560 -0.1690 -0.2814 -0.1058
 6795SOL    HW131847   2.970   0.134  10.651 -0.5684  1.1450 -0.2786
 6795SOL    HW231848   2.948   0.206  10.528  1.6008  0.2645 -1.5540
 6796SOL     OW31849   2.758   4.241   4.363  0.8443  0.3228 -0.0232
 6796SOL    HW131850   2.835   4.297   4.352 -0.9639  2.6882 -0.7506
 6796SOL    HW231851   2.684   4.300   4.346  1.0722  0.7112  0.3444
 6797SOL     OW31852   2.978   4.531   6.675 -0.0376 -0.0429 -0.2008
 6797SOL    HW131853   3.036   4.486   6.614 -0.7701  0.8927 -1.5856
 6797SOL    HW231854   3.013   4.620   6.669  1.1479 -0.5398 -0.5765
 6798SOL     OW31855   2.511   0.418   7.487  0.0403  0.0349  0.6392
 6798SOL    HW131856   2.566   0.364   7.430  0.9424  0.4801  1.0870
 6798SOL    HW231857   2.426   0.381   7.463  0.9705 -1.1392 -0.8885
 6799SOL     OW31858   4.390   4.707   8.130  0.3470  0.2194  0.0841
 6799SOL    HW131859   4.474   4.662   8.125  0.3744  0.4007 -1.2647
 6799SOL    HW231860   4.410   0.071   8.102  3.1665 -0.0076  1.3794
 6800SOL     OW31861   2.054   0.830   2.830  0.0992 -0.1823 -0.5657
 6800SOL    HW131862   2.082   0.850   2.740 -0.9765 -0.3513 -0.9430
 6800SOL    HW231863   2.045   0.914   2.873  0.0770 -0.9245  0.8748
 6801SOL     OW31864   4.097   0.437   2.827  0.5580 -0.8053 -0.1038
 6801SOL    HW131865   4.136   0.511   2.874 -3.9456  2.4208 -1.4147
 6801SOL    HW231866   4.005   0.461   2.834  0.5512 -1.5409  2.3495
 6802SOL     OW31867   1.997   4.214   0.801 -0.1234  0.1244  0.2442
 6802SOL    HW131868   1.933   4.244   0.736 -1.6310 -1.0839  1.1706
 6802SOL    HW231869   2.008   4.120   0.791  0.4376  0.2182  0.0072
 6803SOL     OW31870   2.712   0.723   5.569 -0.2520  0.4736  0.4476
 6803SOL    HW131871   2.726   0.748   5.661  0.9478 -1.7543  0.8740
 6803SOL    HW231872   2.718   0.629   5.585 -0.9117  0.4074  0.2750
 6804SOL     OW31873   4.479   4.148   7.128  0.5781 -0.3062  0.5480
 6804SOL    HW131874   4.447   4.133   7.216  1.5363 -0.8137  0.8098
 6804SOL    HW231875   4.570   4.121   7.131  1.1732  1.4561 -1.2420
 6805SOL     OW31876   0.230   0.440   5.022  0.1956 -0.2550  0.0598
 6805SOL    HW131877   0.150   0.410   5.065  2.0828 -1.4608  2.7285
 6805SOL    HW231878   0.289   0.374   5.058  0.0852  0.6193  1.7948
 6806SOL     OW31879   1.784   3.048   3.588 -0.3193  0.1391 -0.2410
 6806SOL    HW131880   1.847   3.073   3.655  0.7819  0.2961 -1.3204
 6806SOL    HW231881   1.822   2.963   3.566  1.0654 -0.0107  2.7464
 6807SOL     OW31882   2.194   1.437  11.204 -0.1665 -0.2447 -0.0369
 6807SOL    HW131883   2.199   1.422  11.299  2.4117  1.6004  0.1122
 6807SOL    HW231884   2.283   1.471  11.191 -0.8991  1.3559 -0.8061
 6808SOL     OW31885   4.047   3.568   8.853 -0.1632 -0.5997 -0.5498
 6808SOL    HW131886   3.981   3.563   8.922  0.9354  0.8043  0.6086
 6808SOL    HW231887   4.004   3.624   8.789  0.0337 -0.4831 -0.5786
 6809SOL     OW31888   3.797   4.048  13.052 -0.5075 -0.3293  0.4895
 6809SOL    HW131889   3.830   4.120  12.999  2.1382 -0.4166  2.0270
 6809SOL    HW231890   3.727   4.021  12.992  0.5147 -1.1622 -0.3406
 6810SOL     OW31891   0.466   0.101   7.612  0.1817 -0.0186  0.3408
 6810SOL    HW131892   0.388   0.133   7.658  0.4256  1.1153 -0.0307
 6810SOL    HW231893   0.531   0.115   7.682  1.3034 -5.5498  0.4119
 6811SOL     OW31894   0.270   3.586   2.936 -0.1684 -0.2114 -0.2024
 6811SOL    HW131895   0.363   3.609   2.943 -0.1891  0.4371 -2.0123
 6811SOL    HW231896   0.250   3.616   2.847  1.0668  0.4516 -0.2606
 6812SOL     OW31897   2.176   0.101   7.826 -0.1834 -0.1525  0.1313
 6812SOL    HW131898   2.106   0.109   7.891 -0.0115  2.1406  0.0518
 6812SOL    HW231899   2.224   0.181   7.845 -0.2146 -0.2536  0.6238
 6813SOL     OW31900   4.606   2.097   0.149 -0.0376 -0.0793 -0.0766
 6813SOL    HW131901   4.613   2.107   0.054  0.7538 -0.5334 -0.0626
 6813SOL    HW231902   4.574   2.182   0.181  0.2244 -0.2166  0.5374
 6814SOL     OW31903   1.373   1.535   5.097 -0.5272 -0.3876  0.7412
 6814SOL    HW131904   1.409   1.621   5.117 -1.4242  0.3645 -0.8840
 6814SOL    HW231905   1.420   1.511   5.017 -0.6566  1.1745  0.2040
 6815SOL     OW31906   0.723   0.600   3.536 -0.2187 -0.0631 -0.0448
 6815SOL    HW131907   0.751   0.552   3.614  1.8097  2.5631  0.8519
 6815SOL    HW231908   0.668   0.673   3.563 -0.3155  0.6383 -2.1677
 6816SOL     OW31909   0.761   3.868   1.802 -0.0220  0.0132  0.6437
 6816SOL    HW131910   0.851   3.879   1.834 -0.0775  1.3540  0.3434
 6816SOL    HW231911   0.716   3.898   1.881 -1.7160 -0.3296 -0.1876
 6817SOL     OW31912   2.942   3.090   6.629 -1.1710 -0.1061 -0.3545
 6817SOL    HW131913   2.850   3.111   6.609 -0.7360  2.3933  0.1797
 6817SOL    HW231914   2.993   3.169   6.608 -1.4292 -0.0260 -0.6816
 6818SOL     OW31915   3.755   3.856   4.818  0.1285 -0.5101  0.2175
 6818SOL    HW131916   3.731   3.768   4.789  1.9250 -1.5759  1.9124
 6818SOL    HW231917   3.758   3.857   4.914  0.0817  1.7773  0.1846
 6819SOL     OW31918   3.173   3.807  10.005 -0.6075 -0.0158 -0.5611
 6819SOL    HW131919   3.095   3.795   9.952 -0.5572 -0.0223 -0.6341
 6819SOL    HW231920   3.131   3.784  10.088  0.7882  1.8049  0.6616
 6820SOL     OW31921   4.492   1.507   1.601 -0.0161  0.4916  0.0502
 6820SOL    HW131922   4.428   1.570   1.567  0.0441  1.1740  1.1780
 6820SOL    HW231923   4.573   1.554   1.577  0.4094 -1.3729 -2.1463
 6821SOL     OW31924   2.769   1.241   7.365  0.0754 -0.4518 -0.2785
 6821SOL    HW131925   2.759   1.153   7.402  1.6272  0.6598  2.8130
 6821SOL    HW231926   2.683   1.243   7.325 -0.5323  0.6737  1.0851
 6822SOL     OW31927   1.697   1.293   6.817 -0.1488  0.1110 -0.3643
 6822SOL    HW131928   1.755   1.263   6.747 -2.3461 -1.4829 -1.5363
 6822SOL    HW231929   1.647   1.355   6.763 -2.6973 -2.7038 -1.2547
 6823SOL     OW31930   3.450   0.905   6.939  0.0407 -0.4114  0.6680
 6823SOL    HW131931   3.480   0.829   6.889 -0.6010  0.7159 -1.4390
 6823SOL    HW231932   3.533   0.953   6.944 -0.4711  0.4002  1.2026
 6824SOL     OW31933   4.170   3.776   8.997 -0.1109 -0.5693 -0.1594
 6824SOL    HW131934   4.118   3.702   8.966 -1.0199  0.4905 -1.1582
 6824SOL    HW231935   4.243   3.727   9.033  0.2080 -0.2898 -0.4315
 6825SOL     OW31936   3.009   3.918  12.538  0.3513  0.1899 -0.3289
 6825SOL    HW131937   2.920   3.948  12.519 -0.1567  0.3991  2.4284
 6825SOL    HW231938   2.990   3.854  12.607  1.3112  1.8847  1.5245
 6826SOL     OW31939   1.808   1.381  14.945 -0.2460  0.3602 -0.6202
 6826SOL    HW131940   1.714   1.390  14.958 -0.0164  0.8046  0.8372
 6826SOL    HW231941   1.813   1.291  14.913  1.3670 -0.4731  1.9333
 6827SOL     OW31942   1.589   2.702   6.983  0.2245  0.3499  0.2297
 6827SOL    HW131943   1.619   2.631   6.925 -0.3543 -0.7422  1.2621
 6827SOL    HW231944   1.619   2.662   7.065  2.0892  2.4746  0.5969
 6828SOL     OW31945   4.335   1.667   3.307  0.3049  0.1214 -0.7126
 6828SOL    HW131946   4.382   1.747   3.333  1.7080 -0.8870 -0.1627
 6828SOL    HW231947   4.394   1.624   3.245 -1.0642  0.7185 -2.4496
 6829SOL     OW31948   0.495   1.891   2.634 -0.1078  0.2198  0.2703
 6829SOL    HW131949   0.539   1.815   2.672 -2.2845 -0.9904  0.3123
 6829SOL    HW231950   0.560   1.916   2.568 -1.6747  1.6790 -0.6899
 6830SOL     OW31951   1.412   3.024  16.384  0.6407 -0.1846 -0.1701
 6830SOL    HW131952   1.336   3.061  16.429  0.8477 -1.4404  1.2243
 6830SOL    HW231953   1.459   3.107  16.375 -0.8731  0.5497 -1.3129
 6831SOL     OW31954   4.258   2.828   8.832  0.7005 -0.1767  0.0341
 6831SOL    HW131955   4.254   2.733   8.845 -0.7349 -0.2198 -0.7250
 6831SOL    HW231956   4.178   2.854   8.878  0.4026  0.4203 -0.8159
 6832SOL     OW31957   3.266   3.095   4.509  0.3168  0.1252 -0.6340
 6832SOL    HW131958   3.312   3.015   4.535  0.5633  1.4342  2.8378
 6832SOL    HW231959   3.183   3.052   4.489  0.7246 -1.1381  0.4062
 6833SOL     OW31960   3.309   0.027   7.321 -0.1434  0.3023 -0.4811
 6833SOL    HW131961   3.404   0.019   7.313  0.0614  3.8954 -1.4878
 6833SOL    HW231962   3.296   4.680   7.382 -1.1594 -1.0420 -2.2994
 6834SOL     OW31963   0.253   4.642   7.116  0.7121  0.0386  0.2759
 6834SOL    HW131964   0.328   4.687   7.077 -0.5458  0.0721 -2.1145
 6834SOL    HW231965   0.250   4.689   7.199  1.4723 -0.3714  0.5303
 6835SOL     OW31966   4.495   0.698   4.243  0.0421  0.2982  0.2134
 6835SOL    HW131967   4.466   0.724   4.331  0.3611  1.7518 -0.1219
 6835SOL    HW231968   4.414   0.664   4.206  0.0613 -1.2734  1.5770
 6836SOL     OW31969   1.200   2.685  13.471 -0.1704  0.6239 -0.9412
 6836SOL    HW131970   1.276   2.740  13.450 -0.6751  0.5981 -2.8096
 6836SOL    HW231971   1.221   2.602  13.513  0.2731  1.1658 -0.0837
 6837SOL     OW31972   1.249   0.368   8.839  0.5128 -0.1264  0.6064
 6837SOL    HW131973   1.203   0.284   8.841 -1.1365  0.7318 -1.5817
 6837SOL    HW231974   1.329   0.340   8.795 -0.3225  0.1888 -1.0962
 6838SOL     OW31975   2.863   2.501  16.765  0.6737 -0.3708 -0.3577
 6838SOL    HW131976   2.931   2.551  16.720  1.3506 -3.7161 -3.0996
 6838SOL    HW231977   2.909   2.421  16.794 -1.5032 -0.8817  1.6412
 6839SOL     OW31978   0.861   1.454  10.193 -0.2433  0.2130 -0.5938
 6839SOL    HW131979   0.878   1.461  10.287  2.6850 -1.4849 -0.9845
 6839SOL    HW231980   0.770   1.426  10.192 -0.8719  2.3207 -1.0520
 6840SOL     OW31981   0.031   1.118   8.036  0.5898 -0.3753 -0.4167
 6840SOL    HW131982   0.036   1.046   7.974 -0.3731  0.3464 -1.3352
 6840SOL    HW231983   0.008   1.190   7.978 -2.0282 -1.6686 -0.9721
 6841SOL     OW31984   2.887   0.654   6.652 -0.4886 -0.4546  0.0814
 6841SOL    HW131985   2.908   0.675   6.561 -1.4460 -0.6641 -0.1853
 6841SOL    HW231986   2.974   0.669   6.690 -1.3490  0.0787  1.8343
 6842SOL     OW31987   0.292   1.012  15.981  0.1599  0.2202  0.4276
 6842SOL    HW131988   0.226   0.946  15.960 -0.6816  1.3756 -0.5406
 6842SOL    HW231989   0.257   1.080  15.923 -1.0940 -1.4068 -0.6979
 6843SOL     OW31990   3.077   1.834   6.981 -0.0426  0.0107  0.5607
 6843SOL    HW131991   2.989   1.829   6.942 -0.3148 -3.2570  1.5156
 6843SOL    HW231992   3.086   1.742   7.007  3.0294 -0.0404 -0.7793
 6844SOL     OW31993   3.421   1.424   5.182 -0.3121 -0.4954  0.2757
 6844SOL    HW131994   3.413   1.479   5.260  3.1608  1.0273 -0.4565
 6844SOL    HW231995   3.329   1.397   5.185 -0.7555  0.9191 -0.6680
 6845SOL     OW31996   0.287   0.792  13.881  0.4357  0.1060  0.8103
 6845SOL    HW131997   0.289   0.876  13.926 -2.2112  0.5056  0.1526
 6845SOL    HW231998   0.192   0.783  13.882  0.7868 -3.4333  0.9297
 6846SOL     OW31999   3.240   2.585  13.109 -0.5870  0.0751  0.7311
 6846SOL    HW132000   3.219   2.493  13.124 -0.4740  0.1150  1.1202
 6846SOL    HW232001   3.319   2.593  13.162  0.7256  0.2885 -1.2409
 6847SOL     OW32002   1.983   4.582  16.182 -0.2004  0.2135  0.0918
 6847SOL    HW132003   1.921   4.649  16.211 -1.2326 -0.0296 -1.5516
 6847SOL    HW232004   2.035   4.580  16.262  0.2824 -0.7870 -0.2436
 6848SOL     OW32005   4.207   1.132   7.553 -0.0785  0.5626  0.1118
 6848SOL    HW132006   4.243   1.102   7.469  0.3974  0.2001  0.4469
 6848SOL    HW232007   4.186   1.053   7.604 -1.1482  0.0525 -1.1022
 6849SOL     OW32008   2.096   1.093   6.962 -1.0429  0.6026 -0.5491
 6849SOL    HW132009   2.149   1.173   6.958 -0.7878  0.3592 -2.2028
 6849SOL    HW232010   2.062   1.098   7.051 -0.3751  1.7715 -0.3602
 6850SOL     OW32011   3.898   2.941   2.926  0.2450  0.8807  0.1427
 6850SOL    HW132012   3.988   2.954   2.955  0.1891 -0.0570  0.7288
 6850SOL    HW232013   3.849   3.018   2.955  0.9963  0.8526  1.4394
 6851SOL     OW32014   3.144   2.911   4.910  0.1018  0.0022  0.0522
 6851SOL    HW132015   3.200   2.983   4.939 -0.0866 -1.3850  3.8694
 6851SOL    HW232016   3.211   2.845   4.889 -1.5645 -0.5376 -3.7010
 6852SOL     OW32017   4.278   3.731   6.206 -0.1587 -0.0146 -0.5650
 6852SOL    HW132018   4.247   3.792   6.274 -0.7713  0.1160 -0.9602
 6852SOL    HW232019   4.254   3.649   6.249  1.9193  0.5578  1.6824
 6853SOL     OW32020   1.597   3.681   4.909 -0.3772 -0.4523  0.1012
 6853SOL    HW132021   1.565   3.752   4.965  1.3421  0.7687 -0.4738
 6853SOL    HW232022   1.638   3.728   4.837 -2.4533  3.2331  1.2827
 6854SOL     OW32023   3.221   0.070  16.130 -0.0299  0.1762  0.1562
 6854SOL    HW132024   3.234   0.145  16.188 -0.8315 -1.8710  2.9979
 6854SOL    HW232025   3.233   4.716  16.181  0.4580 -0.2711 -0.6500
 6855SOL     OW32026   1.505   1.939   7.842 -0.5876 -0.1027  0.2104
 6855SOL    HW132027   1.490   1.939   7.937 -1.2960  0.5451  0.1057
 6855SOL    HW232028   1.516   2.032   7.819 -1.9138 -0.2084 -0.8147
 6856SOL     OW32029   1.432   2.931   6.511  0.4937 -0.2198  0.1150
 6856SOL    HW132030   1.447   2.870   6.584 -1.2146  1.0348  1.5269
 6856SOL    HW232031   1.519   2.956   6.480 -0.0683 -0.3188 -1.5104
 6857SOL     OW32032   0.943   2.266   7.811  0.7734 -0.2186  0.0883
 6857SOL    HW132033   0.893   2.339   7.776  0.6848 -1.1045 -1.6346
 6857SOL    HW232034   1.029   2.272   7.768  0.2778  0.3138 -0.8206
 6858SOL     OW32035   3.087   0.625   7.341 -0.3646  0.1854  0.0726
 6858SOL    HW132036   3.108   0.666   7.425 -0.4237  0.2200  0.0707
 6858SOL    HW232037   3.113   0.535   7.358  0.9777  0.4520 -0.5600
 6859SOL     OW32038   2.804   2.263   9.487  0.3178 -0.4432  0.1782
 6859SOL    HW132039   2.782   2.342   9.536  1.1955 -0.3155  0.3789
 6859SOL    HW232040   2.818   2.297   9.398  0.3967 -1.5190 -0.2148
 6860SOL     OW32041   3.389   4.381   8.698 -0.3796  0.3118 -0.1966
 6860SOL    HW132042   3.359   4.464   8.736  0.5818  0.6408 -0.1559
 6860SOL    HW232043   3.450   4.354   8.767  1.0203  1.3886 -1.0118
 6861SOL     OW32044   3.793   0.999   0.469 -0.9546 -0.3625  0.7730
 6861SOL    HW132045   3.836   0.925   0.512  1.0005 -0.4361 -1.3031
 6861SOL    HW232046   3.800   0.975   0.376  0.3576 -2.0838  1.3105
 6862SOL     OW32047   0.187   3.408  15.170  0.2320 -0.2168 -0.2899
 6862SOL    HW132048   0.251   3.352  15.213  1.3811  1.0513 -0.3412
 6862SOL    HW232049   0.122   3.429  15.237  1.1273  1.3986  0.0765
 6863SOL     OW32050   3.564   3.658   9.783  0.2291  0.1521 -0.3100
 6863SOL    HW132051   3.622   3.710   9.840  0.2550 -0.7448  0.4838
 6863SOL    HW232052   3.518   3.606   9.848  1.2999 -0.3702  0.0362
 6864SOL     OW32053   4.021   1.766   5.492 -0.1116  0.4157 -0.0703
 6864SOL    HW132054   3.961   1.725   5.429 -0.1017  0.8239 -0.3514
 6864SOL    HW232055   4.103   1.764   5.443 -0.2274  1.8101 -0.3176
 6865SOL     OW32056   3.198   3.044  13.976  0.3480 -0.3321  0.4724
 6865SOL    HW132057   3.214   3.052  14.070  1.4249  3.7305 -0.0735
 6865SOL    HW232058   3.285   3.010  13.957  0.3229 -1.0874  1.7064
 6866SOL     OW32059   3.608   2.225   9.746  0.3942  0.5087  0.5683
 6866SOL    HW132060   3.687   2.177   9.772 -0.2070  1.2354  3.6773
 6866SOL    HW232061   3.544   2.186   9.806 -0.3554 -1.5721 -1.5653
 6867SOL     OW32062   1.438   1.833   3.255  0.1289  0.4026  0.2263
 6867SOL    HW132063   1.471   1.899   3.315  0.4532  0.5215 -0.0780
 6867SOL    HW232064   1.506   1.851   3.190  0.1590  2.6075  0.8560
 6868SOL     OW32065   3.340   3.567   9.954  0.1275  0.0916  0.3882
 6868SOL    HW132066   3.329   3.499  10.020 -1.3049  0.8890  0.9804
 6868SOL    HW232067   3.296   3.641   9.996  1.3296  0.7005  0.5757
 6869SOL     OW32068   0.739   1.533  15.480 -0.1374 -0.4586  0.1886
 6869SOL    HW132069   0.755   1.453  15.431 -1.9669 -0.3504 -0.5980
 6869SOL    HW232070   0.655   1.557  15.439 -1.3947 -3.4051  1.0529
 6870SOL     OW32071   0.649   0.885   8.020  0.0951 -0.3190  0.5073
 6870SOL    HW132072   0.649   0.846   8.107  0.5854 -0.1611  0.5791
 6870SOL    HW232073   0.745   0.889   8.012 -0.0216  0.1248 -0.6329
 6871SOL     OW32074   2.926   4.247   4.802 -0.1412  0.0918 -0.0359
 6871SOL    HW132075   2.900   4.218   4.714  1.4300  1.8326 -1.0656
 6871SOL    HW232076   2.970   4.327   4.774 -0.1474  0.8680  2.1619
 6872SOL     OW32077   0.303   1.501   5.581 -0.4276 -0.1227 -0.2136
 6872SOL    HW132078   0.237   1.540   5.523 -0.4099  0.1070 -0.0822
 6872SOL    HW232079   0.367   1.572   5.569  1.0806 -1.4318  0.1430
 6873SOL     OW32080   1.257   0.141   4.727 -0.1818  0.2230  0.0683
 6873SOL    HW132081   1.311   0.146   4.806  0.5182  0.1666 -0.4071
 6873SOL    HW232082   1.277   0.230   4.700  2.0439 -0.7404 -1.5426
 6874SOL     OW32083   4.272   2.243   6.495 -0.3828  0.2261 -0.1678
 6874SOL    HW132084   4.210   2.170   6.490 -0.5650  0.3258  0.6973
 6874SOL    HW232085   4.209   2.313   6.481 -0.7229 -0.2883 -1.2041
 6875SOL     OW32086   3.911   2.445  13.341  0.0924  0.2165  0.8457
 6875SOL    HW132087   3.886   2.353  13.333  0.3730  0.0312  2.1923
 6875SOL    HW232088   3.995   2.443  13.295  0.0918 -0.2440  0.8678
 6876SOL     OW32089   4.323   1.724  14.990 -0.5429  0.5134 -0.3200
 6876SOL    HW132090   4.281   1.719  14.904 -1.9222 -0.7324  0.4397
 6876SOL    HW232091   4.242   1.749  15.035  0.9139 -0.6468  2.9267
 6877SOL     OW32092   3.467   1.664   2.760 -0.6416 -0.1150 -0.8971
 6877SOL    HW132093   3.427   1.719   2.693 -1.0488  0.5920 -0.0761
 6877SOL    HW232094   3.545   1.631   2.716  0.8033  0.5949  1.0778
 6878SOL     OW32095   3.238   3.491  14.820 -0.0102 -0.2794  0.2359
 6878SOL    HW132096   3.291   3.462  14.746 -0.6522 -0.5202 -0.1258
 6878SOL    HW232097   3.298   3.555  14.859 -0.2658  0.4113 -0.5105
 6879SOL     OW32098   3.942   2.490   3.879 -0.2448  0.2846  0.1711
 6879SOL    HW132099   4.036   2.485   3.897 -0.3887 -0.0403  0.8255
 6879SOL    HW232100   3.933   2.512   3.786  0.1448 -0.8814 -0.1453
 6880SOL     OW32101   2.527   2.952   9.363 -0.2496  0.1238  0.3258
 6880SOL    HW132102   2.514   2.858   9.357 -0.8663  0.2542 -0.3958
 6880SOL    HW232103   2.612   2.962   9.406  1.0299  1.3494 -2.4184
 6881SOL     OW32104   2.151   3.315   6.470  0.1601  0.5535 -0.1321
 6881SOL    HW132105   2.186   3.301   6.382  0.6796  0.0177  0.1531
 6881SOL    HW232106   2.078   3.374   6.455  0.5900  1.1798  0.2477
 6882SOL     OW32107   0.165   3.607   4.270 -0.5323  0.1106 -0.2920
 6882SOL    HW132108   0.253   3.597   4.306 -0.2880  0.8076 -0.6848
 6882SOL    HW232109   0.155   3.699   4.297 -0.7807 -0.0881  0.3035
 6883SOL     OW32110   0.163   4.411   2.410  0.3226 -0.4806 -0.1553
 6883SOL    HW132111   0.163   4.500   2.445 -0.8134 -1.7691  3.1463
 6883SOL    HW232112   0.089   4.419   2.350  1.7728  1.1530 -1.7404
 6884SOL     OW32113   1.738   4.261  14.459  0.5163 -0.0032  0.6129
 6884SOL    HW132114   1.681   4.188  14.436 -0.8140  1.1513  0.2243
 6884SOL    HW232115   1.719   4.281  14.551 -0.8705 -1.0916  0.5559
 6885SOL     OW32116   3.507   4.423   5.427  0.2509  0.1784 -0.3034
 6885SOL    HW132117   3.600   4.409   5.407  0.1979 -0.2431 -0.2558
 6885SOL    HW232118   3.450   4.395   5.355  0.5239  0.1989 -0.5266
 6886SOL     OW32119   0.351   0.158   3.082  0.0042  0.7883 -0.0531
 6886SOL    HW132120   0.386   0.090   3.139 -0.5460  1.9105  1.6056
 6886SOL    HW232121   0.367   0.239   3.131  0.6565 -0.1306  1.2329
 6887SOL     OW32122   4.410   0.362   6.536 -0.6910  0.1012  0.0341
 6887SOL    HW132123   4.462   0.342   6.614  2.0123  0.2815 -1.7174
 6887SOL    HW232124   4.402   0.457   6.534  2.4266  0.3731 -0.5106
 6888SOL     OW32125   0.661   2.631   6.162  0.4744  0.4974  0.1338
 6888SOL    HW132126   0.621   2.696   6.105 -0.8416  0.1905  0.7166
 6888SOL    HW232127   0.579   2.598   6.199 -0.0672  0.7636 -0.8349
 6889SOL     OW32128   0.714   0.209  17.233 -0.1807  0.6372  0.5541
 6889SOL    HW132129   0.653   0.144  17.267 -2.4325  2.2787 -0.3782
 6889SOL    HW232130   0.756   0.162  17.160  0.5455  0.9462  0.7734
 6890SOL     OW32131   4.411   1.069   3.128 -0.2479  0.1716  0.4289
 6890SOL    HW132132   4.435   1.091   3.038  1.0793 -0.9250  0.5176
 6890SOL    HW232133   4.350   1.139   3.150 -1.2960 -0.7552  0.4694
 6891SOL     OW32134   3.326   3.475  15.625 -0.1874 -0.0605 -0.8374
 6891SOL    HW132135   3.234   3.499  15.631  0.4733  1.6443  2.5390
 6891SOL    HW232136   3.349   3.476  15.718 -1.2261  0.2244 -0.5893
 6892SOL     OW32137   0.560   3.579   4.866 -0.2701 -0.4302  0.4360
 6892SOL    HW132138   0.504   3.652   4.840 -0.1049 -0.1963  0.7275
 6892SOL    HW232139   0.499   3.507   4.853 -1.7763  1.0419 -0.5541
 6893SOL     OW32140   4.413   0.717   3.367  0.3433 -0.1613  0.2887
 6893SOL    HW132141   4.444   0.767   3.442 -1.0509  0.1561  0.6538
 6893SOL    HW232142   4.351   0.784   3.337  0.3225 -0.0294  0.6247
 6894SOL     OW32143   3.984   0.303  15.899  0.1147 -0.4278  0.0912
 6894SOL    HW132144   4.044   0.229  15.893 -0.6631 -1.0848  0.3818
 6894SOL    HW232145   3.899   0.266  15.921 -0.0301  0.6082  1.2802
 6895SOL     OW32146   1.167   3.869   7.482 -0.4610 -0.0850  0.2733
 6895SOL    HW132147   1.258   3.895   7.491 -0.9573  1.2049  1.5813
 6895SOL    HW232148   1.170   3.810   7.407 -0.7654  1.4268 -0.9340
 6896SOL     OW32149   3.831   1.540   3.081  0.2237 -0.0595  0.4871
 6896SOL    HW132150   3.742   1.526   3.050  0.7043 -1.8137 -0.0491
 6896SOL    HW232151   3.809   1.625   3.121 -3.4625 -0.9226  0.2765
 6897SOL     OW32152   1.728   3.716   6.136  0.1494 -0.3801  0.5275
 6897SOL    HW132153   1.808   3.769   6.134 -0.1073 -0.0164 -0.0704
 6897SOL    HW232154   1.718   3.697   6.043  0.4568 -2.3826  0.9035
 6898SOL     OW32155   3.425   1.882  17.225 -0.3544 -0.5742  0.5025
 6898SOL    HW132156   3.519   1.871  17.242 -0.4874 -1.1787  0.8453
 6898SOL    HW232157   3.415   1.975  17.243  1.4563 -0.4481  0.8783
 6899SOL     OW32158   3.890   1.615   3.769 -1.0373 -0.4654 -0.0232
 6899SOL    HW132159   3.920   1.535   3.727 -1.4968 -0.2814 -0.6941
 6899SOL    HW232160   3.819   1.631   3.707 -3.0351 -2.2979  1.8105
 6900SOL     OW32161   0.661   1.999  10.523  0.1376 -0.0563  0.0827
 6900SOL    HW132162   0.750   2.032  10.513  1.2991 -3.1428  0.3531
 6900SOL    HW232163   0.652   1.993  10.618 -0.6435  1.1645  0.0906
 6901SOL     OW32164   0.835   4.192   6.670 -0.6285 -0.0778  0.1286
 6901SOL    HW132165   0.784   4.178   6.590  0.3992  0.6662 -0.6547
 6901SOL    HW232166   0.770   4.250   6.710 -1.0166 -0.8771  0.6574
 6902SOL     OW32167   2.144   1.270  17.186  0.1757  0.0914 -0.4227
 6902SOL    HW132168   2.230   1.234  17.208 -0.2525 -0.4758  0.2961
 6902SOL    HW232169   2.079   1.201  17.200 -0.7861  1.1453  0.2509
 6903SOL     OW32170   3.665   3.967   3.048 -0.0229 -0.2455  0.1642
 6903SOL    HW132171   3.739   3.948   3.106 -0.0951 -1.5706 -0.1828
 6903SOL    HW232172   3.652   3.882   3.007  1.5756 -1.0059  1.2270
 6904SOL     OW32173   4.182   4.641   2.449 -0.8213 -0.4898  0.1524
 6904SOL    HW132174   4.129   4.658   2.527 -1.7541 -2.7258  0.0171
 6904SOL    HW232175   4.208   4.549   2.460  2.6857  0.1951 -2.3615
 6905SOL     OW32176   2.238   2.221   3.591 -0.3039 -0.5255 -0.1983
 6905SOL    HW132177   2.254   2.127   3.592  1.1715 -0.2683  1.4347
 6905SOL    HW232178   2.162   2.216   3.533 -1.1164 -0.3137  0.8684
 6906SOL     OW32179   2.380   3.993   2.329  0.3774 -0.3236  0.1960
 6906SOL    HW132180   2.406   3.905   2.357 -0.2874 -0.7833 -0.6249
 6906SOL    HW232181   2.322   3.980   2.254  1.7589  3.3269 -1.4899
 6907SOL     OW32182   1.450   0.124   7.412  0.7841 -0.4407  0.0188
 6907SOL    HW132183   1.370   0.071   7.413  2.2425 -2.6139  1.5132
 6907SOL    HW232184   1.411   0.211   7.416  2.0366  0.1424 -0.4441
 6908SOL     OW32185   1.595   3.108   9.393  0.8757  0.4245 -0.8955
 6908SOL    HW132186   1.549   3.054   9.328  0.3326  2.9556 -2.6268
 6908SOL    HW232187   1.598   3.191   9.346 -2.2107  0.8946 -0.2420
 6909SOL     OW32188   3.219   1.775  15.728 -0.7616  0.2242 -0.0744
 6909SOL    HW132189   3.135   1.754  15.687  1.5100  0.0354 -4.6713
 6909SOL    HW232190   3.262   1.827  15.660 -1.4236  0.4090 -0.3502
 6910SOL     OW32191   1.937   0.107   4.420 -0.1391 -0.3410  0.6141
 6910SOL    HW132192   1.981   0.120   4.504  0.9545 -1.3023  0.1886
 6910SOL    HW232193   2.009   0.089   4.360 -1.4411  0.0858 -1.0544
 6911SOL     OW32194   2.460   3.152  14.128  0.4833 -0.3079  0.3333
 6911SOL    HW132195   2.528   3.100  14.172  0.7052 -0.6709 -0.4349
 6911SOL    HW232196   2.433   3.079  14.073 -2.1551  2.2176 -1.7050
 6912SOL     OW32197   3.496   3.523   8.626 -0.6834  0.2618 -0.9572
 6912SOL    HW132198   3.448   3.559   8.552  0.1671 -0.5873 -1.9193
 6912SOL    HW232199   3.504   3.429   8.608 -0.7523 -0.7010  4.0278
 6913SOL     OW32200   4.256   2.602   1.940  0.3509 -0.5985 -0.1459
 6913SOL    HW132201   4.172   2.618   1.897  0.6667 -0.7184 -0.8110
 6913SOL    HW232202   4.289   2.519   1.907  0.6954 -0.5518  0.0795
 6914SOL     OW32203   1.775   1.954  16.624  0.0165  0.1211 -0.2547
 6914SOL    HW132204   1.827   1.874  16.621 -0.5575 -0.1831 -2.1750
 6914SOL    HW232205   1.756   1.961  16.530  1.3061 -0.8662 -0.5821
 6915SOL     OW32206   3.270   3.138   1.562  0.2804  0.0949  0.2455
 6915SOL    HW132207   3.247   3.230   1.562 -0.4345 -0.0870 -0.5393
 6915SOL    HW232208   3.269   3.124   1.657 -0.5000  2.1736  0.5466
 6916SOL     OW32209   3.357   3.618   8.344  0.0966 -0.3659 -0.6999
 6916SOL    HW132210   3.358   3.711   8.320  0.5863  0.4510  2.3775
 6916SOL    HW232211   3.441   3.588   8.312  1.1137 -0.3808  1.9489
 6917SOL     OW32212   1.930   1.670  14.885 -0.0688 -0.1823  0.4582
 6917SOL    HW132213   1.863   1.603  14.872  0.9157 -1.8325  4.2412
 6917SOL    HW232214   1.931   1.708  14.796 -0.6225 -0.3143  0.3968
 6918SOL     OW32215   2.381   3.011   5.973 -0.4621  0.4131 -0.1951
 6918SOL    HW132216   2.351   2.920   5.963 -1.4592  0.4934  2.2819
 6918SOL    HW232217   2.382   3.036   5.880  0.3501  1.1126  0.0088
 6919SOL     OW32218   4.554   2.421   6.217  0.0832 -0.0782 -0.1326
 6919SOL    HW132219   4.498   2.345   6.206 -1.1934  1.0381 -1.3907
 6919SOL    HW232220   4.622   2.410   6.151  0.8971  1.9846  0.3666
 6920SOL     OW32221   3.562   0.754   3.980  0.0489  0.4403 -0.2484
 6920SOL    HW132222   3.480   0.704   3.972  1.7459 -2.2330 -0.9884
 6920SOL    HW232223   3.626   0.699   3.935 -0.7213  0.1740 -1.0188
 6921SOL     OW32224   0.376   1.008  16.855  0.2727 -0.1800  0.0961
 6921SOL    HW132225   0.381   1.077  16.920 -1.2262 -0.2616  0.2961
 6921SOL    HW232226   0.469   0.987  16.844  0.1803 -0.0434 -1.0216
 6922SOL     OW32227   0.765   2.731   3.227  0.3725  0.4225 -0.0587
 6922SOL    HW132228   0.714   2.680   3.164  0.9397 -0.8671  0.4996
 6922SOL    HW232229   0.725   2.816   3.214 -2.3863 -0.6430  1.3628
 6923SOL     OW32230   0.646   3.872   7.731  0.1166 -0.1201 -0.2963
 6923SOL    HW132231   0.689   3.796   7.770  1.4083  0.7838  0.0363
 6923SOL    HW232232   0.556   3.854   7.757 -0.5368  0.2780 -2.3404
 6924SOL     OW32233   3.417   4.345  17.590  0.1210 -0.0235  0.0653
 6924SOL    HW132234   3.486   4.310  17.647  0.2761 -0.3692 -0.3382
 6924SOL    HW232235   3.339   4.354  17.646 -1.7618 -0.8748 -2.4484
 6925SOL     OW32236   1.174   1.025   7.918  0.0083  0.6996  0.0792
 6925SOL    HW132237   1.156   0.937   7.952  0.0049  0.0327 -1.6440
 6925SOL    HW232238   1.259   1.041   7.959  0.5551  1.6963 -1.4674
 6926SOL     OW32239   4.018   0.425   2.072  0.0449  0.4397 -0.2953
 6926SOL    HW132240   4.052   0.389   2.154  0.0057 -3.3765 -1.9750
 6926SOL    HW232241   3.962   0.351   2.046 -1.4879  0.8173  1.8619
 6927SOL     OW32242   2.673   2.478   6.527 -0.1238  0.0349  0.7646
 6927SOL    HW132243   2.652   2.472   6.434  0.4981 -0.6970  0.6743
 6927SOL    HW232244   2.736   2.549   6.511  0.5487 -0.5080  0.9933
 6928SOL     OW32245   1.948   4.323   3.976 -0.1652  0.0227 -0.2063
 6928SOL    HW132246   2.025   4.287   3.932 -0.6923 -1.9792  0.5155
 6928SOL    HW232247   1.986   4.333   4.064 -0.3635 -0.3785 -0.0711
 6929SOL     OW32248   1.648   3.406  11.495 -0.1084 -0.0110  0.4271
 6929SOL    HW132249   1.610   3.318  11.488  0.0541 -0.0201 -0.2834
 6929SOL    HW232250   1.651   3.421  11.590  1.2026 -0.7221  0.5018
 6930SOL     OW32251   1.272   0.087   4.063  0.4831 -0.1014 -0.8753
 6930SOL    HW132252   1.306   0.032   3.993 -2.0935 -2.5373 -0.2141
 6930SOL    HW232253   1.315   0.170   4.040  2.5487 -0.6617  0.9455
 6931SOL     OW32254   2.953   3.913   6.499 -0.1551 -0.0657  1.0398
 6931SOL    HW132255   2.932   3.998   6.539  0.9057  1.0295 -0.6935
 6931SOL    HW232256   3.015   3.942   6.432 -1.0582 -2.6024 -0.8776
 6932SOL     OW32257   3.800   1.127  12.932 -0.1422  0.0787 -0.5646
 6932SOL    HW132258   3.786   1.213  12.972 -1.4542 -0.8201  0.8869
 6932SOL    HW232259   3.887   1.132  12.892  0.4222 -0.6318  0.5867
 6933SOL     OW32260   4.339   4.719   7.514 -0.1201  0.2628  0.7211
 6933SOL    HW132261   4.356   4.625   7.504  0.4370  0.4888 -0.4922
 6933SOL    HW232262   4.255   0.002   7.468 -0.5733 -0.9599  1.2964
 6934SOL     OW32263   2.257   0.260  16.949  0.0682  0.2331 -0.0487
 6934SOL    HW132264   2.350   0.278  16.961 -0.5867  4.2585 -1.0081
 6934SOL    HW232265   2.245   0.266  16.854  1.3640  1.2045 -0.1632
 6935SOL     OW32266   3.839   1.319   6.596  0.6715  0.2018 -0.1700
 6935SOL    HW132267   3.778   1.392   6.601  0.7980  0.3936 -1.2875
 6935SOL    HW232268   3.910   1.371   6.559 -1.1934  3.5229  0.9250
 6936SOL     OW32269   2.721   4.562   8.397  0.2322 -0.4920 -0.0099
 6936SOL    HW132270   2.660   4.502   8.355 -0.7829  0.5793 -0.0832
 6936SOL    HW232271   2.689   4.644   8.359 -0.7536 -0.3370  1.1638
 6937SOL     OW32272   2.557   1.289   9.937 -0.0108 -0.2355 -0.0291
 6937SOL    HW132273   2.507   1.348   9.992 -0.7293 -0.4764 -0.4186
 6937SOL    HW232274   2.632   1.269   9.993  1.2781  0.5804 -1.4628
 6938SOL     OW32275   3.803   0.287   5.128 -0.2072 -0.0962 -0.3424
 6938SOL    HW132276   3.860   0.284   5.206  1.0357  0.6821 -1.2122
 6938SOL    HW232277   3.855   0.349   5.077  0.6069 -0.0506  0.5261
 6939SOL     OW32278   3.906   2.432  15.722 -0.2622 -0.1292 -0.4066
 6939SOL    HW132279   3.942   2.361  15.776  0.5969 -0.0226 -0.8268
 6939SOL    HW232280   3.817   2.400  15.714  0.2000 -1.6268  0.2946
 6940SOL     OW32281   3.218   1.355   2.004 -0.1975 -0.2532  0.9884
 6940SOL    HW132282   3.294   1.408   1.978 -2.5256  2.4691 -0.2238
 6940SOL    HW232283   3.140   1.399   1.969  0.7620 -0.9110 -2.0150
 6941SOL     OW32284   2.631   3.353   5.442  0.1769 -0.4090  0.4503
 6941SOL    HW132285   2.606   3.261   5.432  0.0882 -0.2843 -0.4992
 6941SOL    HW232286   2.601   3.368   5.532 -0.4588 -0.8192  0.3025
 6942SOL     OW32287   2.384   2.086   5.885 -0.1444 -0.2004  0.4903
 6942SOL    HW132288   2.369   2.089   5.979 -0.6935  1.0165  0.3718
 6942SOL    HW232289   2.413   2.176   5.872  0.6058 -0.8103 -2.1312
 6943SOL     OW32290   1.362   3.176   4.775 -0.2839  0.3495  0.7778
 6943SOL    HW132291   1.353   3.118   4.699 -3.4571  1.2333  0.4625
 6943SOL    HW232292   1.407   3.255   4.745  0.5749  0.0135  1.2062
 6944SOL     OW32293   0.947   1.759   6.713  0.0561  0.1866  0.0189
 6944SOL    HW132294   0.879   1.708   6.757  1.7756  0.3149  2.8695
 6944SOL    HW232295   0.972   1.820   6.783  2.0309 -1.3825  0.6823
 6945SOL     OW32296   3.931   4.524   8.756 -0.6357 -0.3531 -0.3142
 6945SOL    HW132297   3.889   4.542   8.840 -0.9126 -0.8405 -0.3484
 6945SOL    HW232298   3.978   4.607   8.745  0.0131 -0.4326  1.7588
 6946SOL     OW32299   0.171   1.582   2.879 -0.0755  0.0765  0.0697
 6946SOL    HW132300   0.248   1.640   2.875  0.8099 -1.2393 -2.1627
 6946SOL    HW232301   0.189   1.539   2.962 -1.3166 -2.7445 -1.1145
 6947SOL     OW32302   3.273   4.021   5.104 -0.0039 -0.1233 -0.0401
 6947SOL    HW132303   3.280   4.101   5.053 -1.8089  0.0015 -0.0608
 6947SOL    HW232304   3.183   3.994   5.086  0.0628 -0.6669  0.4203
 6948SOL     OW32305   0.495   1.364   8.122 -0.1528 -0.5562 -0.4092
 6948SOL    HW132306   0.409   1.323   8.126 -0.0369 -0.5278  2.2653
 6948SOL    HW232307   0.525   1.339   8.034 -1.9825 -0.0318 -1.1869
 6949SOL     OW32308   2.850   1.108  16.332  0.2288  0.2076  0.2415
 6949SOL    HW132309   2.874   1.142  16.418  1.5638 -1.1639  0.4078
 6949SOL    HW232310   2.755   1.120  16.333  0.0846 -0.8515 -0.3783
 6950SOL     OW32311   0.372   0.399  10.347  0.3204  0.3515 -0.6177
 6950SOL    HW132312   0.358   0.427  10.437 -0.1869 -1.1061 -0.2432
 6950SOL    HW232313   0.283   0.392  10.310  1.0623  0.5064 -2.4371
 6951SOL     OW32314   2.498   2.841   0.204  0.0510  0.7693 -0.2659
 6951SOL    HW132315   2.515   2.907   0.137  1.2667 -0.3680 -1.0794
 6951SOL    HW232316   2.590   2.817   0.209 -0.5368 -1.0160  1.7475
 6952SOL     OW32317   3.152   2.691   4.425 -0.3574  0.1774  0.5933
 6952SOL    HW132318   3.124   2.667   4.337 -0.2568  0.3958  0.5009
 6952SOL    HW232319   3.152   2.610   4.476 -1.3802  0.1786  0.5942
 6953SOL     OW32320   0.281   3.219   6.131  0.0420  0.1566 -0.4739
 6953SOL    HW132321   0.213   3.205   6.197  1.9858 -1.1151  1.2472
 6953SOL    HW232322   0.233   3.199   6.051 -0.4036 -2.5678  0.4864
 6954SOL     OW32323   4.103   0.798  10.858  0.2701  0.4140  0.3118
 6954SOL    HW132324   4.089   0.863  10.789  1.5367 -0.1643 -0.4877
 6954SOL    HW232325   4.013   0.786  10.888  1.0883 -1.8920  1.8543
 6955SOL     OW32326   1.825   2.423   6.393  0.2136  0.2967 -0.0127
 6955SOL    HW132327   1.895   2.380   6.343  0.4187  0.2394  0.3249
 6955SOL    HW232328   1.821   2.394   6.484  2.2540  0.2894  0.0848
 6956SOL     OW32329   1.433   1.234  12.521 -0.1144  0.5663 -0.3038
 6956SOL    HW132330   1.497   1.222  12.450  1.1474 -0.4046  0.9968
 6956SOL    HW232331   1.404   1.323  12.499  0.4776  0.8007 -0.1457
 6957SOL     OW32332   0.085   3.188   6.295  0.0172  0.3965  0.0881
 6957SOL    HW132333   0.049   3.128   6.361  0.0246  2.6154  2.0723
 6957SOL    HW232334   0.006   3.241   6.282  0.1189  1.1044  2.3566
 6958SOL     OW32335   4.227   3.893   7.025 -0.1497 -0.3206 -0.3108
 6958SOL    HW132336   4.294   3.844   7.072 -1.3765 -0.7918  0.9391
 6958SOL    HW232337   4.292   3.954   6.991  1.2006 -1.1799  0.7531
 6959SOL     OW32338   1.127   3.500  11.633 -0.0728  0.5350 -0.4385
 6959SOL    HW132339   1.136   3.445  11.711  3.1025 -0.0065 -1.1756
 6959SOL    HW232340   1.063   3.454  11.579 -0.0052  0.6514 -0.6182
 6960SOL     OW32341   2.573   3.700   1.020  0.1475  0.1696  0.0801
 6960SOL    HW132342   2.616   3.736   0.942 -1.5038  1.6682 -0.1486
 6960SOL    HW232343   2.615   3.615   1.034  1.5396  0.3919 -2.8285
 6961SOL     OW32344   1.819   3.548  15.629  0.0369 -0.5611  0.0193
 6961SOL    HW132345   1.739   3.544  15.681 -1.1008  1.5970 -1.5876
 6961SOL    HW232346   1.854   3.628  15.668 -1.4165 -0.1375  0.4366
 6962SOL     OW32347   3.953   0.398   5.351 -0.2861 -0.3103  0.3875
 6962SOL    HW132348   4.005   0.477   5.335  0.4142 -1.1783 -1.6138
 6962SOL    HW232349   3.870   0.443   5.372  1.3161  1.2754  3.2535
 6963SOL     OW32350   1.739   0.485  16.281 -0.1838  0.0209  0.0124
 6963SOL    HW132351   1.645   0.497  16.263 -0.4514  0.8246  1.9421
 6963SOL    HW232352   1.774   0.568  16.251 -0.7416  1.1029  2.3511
 6964SOL     OW32353   3.172   2.372  15.565 -0.2148  0.1311 -0.0046
 6964SOL    HW132354   3.097   2.362  15.507 -1.6504  1.8564  1.5804
 6964SOL    HW232355   3.156   2.299  15.625 -0.9095  0.5503  0.3071
 6965SOL     OW32356   1.024   3.718   8.316 -0.3414  0.2371 -0.3412
 6965SOL    HW132357   0.932   3.736   8.334 -0.0098  2.3943 -0.7791
 6965SOL    HW232358   1.040   3.698   8.408  0.4544  0.9616 -0.3254
 6966SOL     OW32359   3.738   2.984   0.839  0.2627  0.1923 -0.3603
 6966SOL    HW132360   3.679   2.953   0.770 -2.5346  2.3431  1.0843
 6966SOL    HW232361   3.792   2.905   0.845  1.4357  1.1673  1.8041
 6967SOL     OW32362   3.765   3.378   6.120 -0.3779  0.3972  0.0768
 6967SOL    HW132363   3.708   3.407   6.048 -1.1059 -0.9500  0.1019
 6967SOL    HW232364   3.806   3.461   6.143 -0.3178  0.2751  0.4090
 6968SOL     OW32365   2.369   1.881   6.297 -0.1271  0.3638  0.6621
 6968SOL    HW132366   2.393   1.843   6.212  3.7352  1.1866  1.3482
 6968SOL    HW232367   2.374   1.799   6.347 -0.8021 -0.7412 -1.0761
 6969SOL     OW32368   0.040   0.513   6.212  0.4885  0.2581 -0.1657
 6969SOL    HW132369   0.077   0.518   6.124  3.7711  2.2737  1.3258
 6969SOL    HW232370   0.094   0.445   6.252  0.2183  1.3386  2.0251
 6970SOL     OW32371   1.308   4.008  12.844 -0.1006  0.2887  0.3793
 6970SOL    HW132372   1.289   3.916  12.864  1.0698  0.1010  0.5870
 6970SOL    HW232373   1.346   4.039  12.926  0.2255  0.9444 -0.0239
 6971SOL     OW32374   1.337   2.978   4.965  0.4432 -1.0701 -0.0646
 6971SOL    HW132375   1.389   3.025   4.900 -0.6827 -1.7707 -1.4667
 6971SOL    HW232376   1.403   2.914   4.990 -0.2838 -1.2855  1.2995
 6972SOL     OW32377   0.660   4.350   8.322  0.0894 -0.3643 -0.1925
 6972SOL    HW132378   0.593   4.362   8.254 -1.1919 -0.3595  1.0649
 6972SOL    HW232379   0.611   4.347   8.405  2.3227 -2.7312  1.0314
 6973SOL     OW32380   2.992   0.181  11.965 -0.4729  0.2725  0.0974
 6973SOL    HW132381   2.981   0.251  11.901  2.2994  1.0339  0.4624
 6973SOL    HW232382   2.902   0.152  11.982  0.1733 -2.7473 -1.6738
 6974SOL     OW32383   1.152   4.460  15.517 -0.2155 -0.0184 -0.7265
 6974SOL    HW132384   1.179   4.427  15.431  0.7622 -0.8590 -0.0909
 6974SOL    HW232385   1.227   4.519  15.526 -0.7515  0.3374  1.2693
 6975SOL     OW32386   2.546   0.624   9.673  0.3391 -0.6273  0.2247
 6975SOL    HW132387   2.586   0.694   9.726 -0.5763  1.8081 -2.3255
 6975SOL    HW232388   2.584   0.545   9.713 -0.0955 -1.3640 -0.8286
 6976SOL     OW32389   1.206   3.821   6.061  0.4788 -0.3130 -0.2194
 6976SOL    HW132390   1.233   3.893   6.118 -1.7437  0.1387  0.2564
 6976SOL    HW232391   1.286   3.797   6.014  0.3523  0.3768 -0.7790
 6977SOL     OW32392   1.948   4.357   4.272 -0.1922 -0.5220  0.1465
 6977SOL    HW132393   1.932   4.449   4.252  0.1938 -0.7563 -1.2327
 6977SOL    HW232394   2.032   4.359   4.318  0.5420  2.0435 -1.3197
 6978SOL     OW32395   3.679   3.406   1.214 -0.1802 -0.6902 -0.0600
 6978SOL    HW132396   3.595   3.420   1.257 -0.4633 -0.1444 -0.7944
 6978SOL    HW232397   3.679   3.453   1.131  1.0354 -1.7589 -0.6812
 6979SOL     OW32398   1.209   1.756   6.232  0.1389 -0.3522 -0.1953
 6979SOL    HW132399   1.277   1.755   6.300  0.3575  0.1961 -0.4068
 6979SOL    HW232400   1.153   1.811   6.286  0.1762 -1.3750  0.8862
 6980SOL     OW32401   1.034   2.960   0.847  0.1488  0.1162  0.1874
 6980SOL    HW132402   0.997   3.042   0.814  0.4652 -0.0596 -0.6024
 6980SOL    HW232403   0.996   2.906   0.777 -0.4776  0.6999  0.0786
 6981SOL     OW32404   3.176   4.534   3.173 -0.4929  0.2647  0.1810
 6981SOL    HW132405   3.209   4.459   3.124 -0.0473  1.6186 -1.5951
 6981SOL    HW232406   3.174   4.498   3.261  2.4612 -1.5102 -0.5007
 6982SOL     OW32407   0.954   1.835  16.910 -0.7083 -0.3543  0.2178
 6982SOL    HW132408   0.894   1.882  16.852  0.5922 -0.6525 -1.3607
 6982SOL    HW232409   1.016   1.904  16.930  0.1286 -1.1032  0.2379
 6983SOL     OW32410   3.953   1.817   7.183  0.3670  0.1498  0.0635
 6983SOL    HW132411   3.942   1.727   7.215 -2.1479  0.5465  0.3083
 6983SOL    HW232412   3.923   1.812   7.093 -2.0322  0.0588  0.8679
 6984SOL     OW32413   1.001   0.105   1.974 -0.2148  0.1278  0.1659
 6984SOL    HW132414   0.977   0.180   2.029  0.8385 -0.2924  1.1916
 6984SOL    HW232415   1.014   0.136   1.884 -2.1963 -1.1841 -0.5776
 6985SOL     OW32416   2.200   1.235   4.792  0.0981  0.2142 -0.4074
 6985SOL    HW132417   2.217   1.292   4.867 -0.4909  0.7501 -0.6838
 6985SOL    HW232418   2.211   1.292   4.716 -1.7413 -1.2855 -1.7858
 6986SOL     OW32419   3.579   2.364   9.509  0.0956  0.3914  0.8788
 6986SOL    HW132420   3.575   2.327   9.597  1.3842 -4.0489 -0.9144
 6986SOL    HW232421   3.673   2.378   9.502 -0.2027  1.6038 -0.8167
 6987SOL     OW32422   3.900   2.782  10.884 -0.5437 -0.0113  0.1631
 6987SOL    HW132423   3.891   2.793  10.790  1.2371  0.0226 -0.0119
 6987SOL    HW232424   3.888   2.687  10.885 -0.0039 -0.0529  2.5791
 6988SOL     OW32425   3.208   3.952   9.119 -0.0365 -0.1808 -0.3389
 6988SOL    HW132426   3.179   3.873   9.074  1.0001  0.8736 -2.9017
 6988SOL    HW232427   3.128   3.971   9.167 -0.2919 -0.0768 -0.8030
 6989SOL     OW32428   2.113   4.479  12.666  0.2006 -0.4273  0.6274
 6989SOL    HW132429   2.187   4.469  12.606  1.2790  1.6488  1.6484
 6989SOL    HW232430   2.074   4.564  12.647 -1.1696 -1.0530  0.5979
 6990SOL     OW32431   2.237   1.735   4.370  0.1421  0.1422  0.0047
 6990SOL    HW132432   2.168   1.800   4.383 -1.5056 -1.6612  0.2628
 6990SOL    HW232433   2.313   1.788   4.347  1.7771 -1.8862  0.7555
 6991SOL     OW32434   1.227   2.769   0.923 -0.0122  0.3292 -0.7432
 6991SOL    HW132435   1.164   2.836   0.897 -2.8880 -2.0162  0.2399
 6991SOL    HW232436   1.224   2.786   1.017 -1.4524  0.6921 -0.8595
 6992SOL     OW32437   0.456   1.130   7.552  0.3941 -0.3949 -0.1777
 6992SOL    HW132438   0.551   1.119   7.541  0.9127  2.2740  1.5146
 6992SOL    HW232439   0.425   1.053   7.504  0.5443 -1.0585  0.7804
 6993SOL     OW32440   2.231   1.476   2.180  0.5414  0.0797  0.1323
 6993SOL    HW132441   2.321   1.509   2.178 -0.2725  2.2616 -0.7852
 6993SOL    HW232442   2.183   1.549   2.217  0.9878 -0.1099  1.0876
 6994SOL     OW32443   4.302   4.265   9.917 -0.4664 -0.3550 -0.2435
 6994SOL    HW132444   4.299   4.275   9.822  0.6143  0.2648 -0.2143
 6994SOL    HW232445   4.265   4.177   9.923  0.2844 -0.5552  1.3446
 6995SOL     OW32446   3.570   1.472   8.917 -0.0797 -0.1743 -0.6719
 6995SOL    HW132447   3.585   1.450   9.009  2.0832  2.0702 -0.4752
 6995SOL    HW232448   3.639   1.538   8.903  1.4512 -1.1999  1.9279
 6996SOL     OW32449   3.761   1.019   4.848  0.2032  0.4258 -0.2332
 6996SOL    HW132450   3.813   0.977   4.917  2.3212  0.3539 -1.8819
 6996SOL    HW232451   3.799   0.978   4.771 -0.4857 -1.2354  0.3043
 6997SOL     OW32452   3.935   2.056   5.825 -0.2388 -0.2613 -0.4275
 6997SOL    HW132453   3.873   2.095   5.763  0.3966 -0.3155 -1.0974
 6997SOL    HW232454   3.938   2.121   5.896  2.4013  0.3883 -1.1253
 6998SOL     OW32455   0.506   1.640   6.639  0.3687  0.2695  0.0237
 6998SOL    HW132456   0.489   1.558   6.684 -1.7731 -0.6212 -2.3920
 6998SOL    HW232457   0.595   1.664   6.667  0.2227 -1.4607  1.9608
 6999SOL     OW32458   3.730   0.285  16.798 -0.3997  0.1153 -0.6023
 6999SOL    HW132459   3.811   0.233  16.801  1.0640  2.4237 -0.2118
 6999SOL    HW232460   3.686   0.246  16.873  2.3120  1.8135  1.8363
 7000SOL     OW32461   3.510   1.430  11.919 -0.6975 -0.4319 -0.1456
 7000SOL    HW132462   3.566   1.420  11.997 -2.1963 -3.4638  0.5782
 7000SOL    HW232463   3.455   1.505  11.939  0.7740  0.2241  1.4431
 7001SOL     OW32464   2.371   2.495   3.075 -0.7081 -0.2951  0.2849
 7001SOL    HW132465   2.344   2.420   3.023  0.8019 -0.4359 -0.3078
 7001SOL    HW232466   2.299   2.513   3.135 -1.1849  0.7685 -0.6129
 7002SOL     OW32467   0.904   2.328   8.863  0.7594  0.3659 -0.1879
 7002SOL    HW132468   0.809   2.317   8.852  0.5525  1.1078  0.8384
 7002SOL    HW232469   0.911   2.274   8.942  0.4226 -0.4745 -0.7224
 7003SOL     OW32470   1.175   1.879   3.207 -0.4162 -0.1959  0.6968
 7003SOL    HW132471   1.134   1.793   3.200  0.8566 -0.6149 -1.4809
 7003SOL    HW232472   1.266   1.857   3.223 -0.6848 -0.9794  1.1598
 7004SOL     OW32473   0.316   0.091   8.434  0.0615 -0.0076  0.3932
 7004SOL    HW132474   0.276   0.083   8.521  0.9561  1.3235  0.9218
 7004SOL    HW232475   0.242   0.116   8.378 -1.1997  1.1006  2.5430
 7005SOL     OW32476   3.830   4.577   8.505  0.1557 -0.6726 -0.2630
 7005SOL    HW132477   3.910   4.596   8.457  0.2969 -0.5143  0.0337
 7005SOL    HW232478   3.872   4.577   8.591 -0.4860 -1.1194  0.0526
 7006SOL     OW32479   1.674   0.207   6.404  0.5507 -0.2865  0.1850
 7006SOL    HW132480   1.694   0.154   6.327 -2.1931  0.0461 -0.7373
 7006SOL    HW232481   1.653   0.292   6.366  0.4925 -0.4747 -0.1991
 7007SOL     OW32482   1.975   0.488   1.336  0.6230  0.0297  0.0656
 7007SOL    HW132483   1.922   0.533   1.402  2.2791  1.6632  0.2819
 7007SOL    HW232484   1.908   0.455   1.276  1.4237 -1.4548 -0.0383
 7008SOL     OW32485   0.454   0.663   8.145 -0.4299 -0.5163  0.1279
 7008SOL    HW132486   0.437   0.647   8.237 -1.9163  1.4759  0.2002
 7008SOL    HW232487   0.548   0.675   8.152 -0.1080 -2.3469 -0.8783
 7009SOL     OW32488   1.378   0.713   9.726 -0.3046 -0.2334  0.3243
 7009SOL    HW132489   1.322   0.676   9.657 -0.8288  1.3376 -0.0910
 7009SOL    HW232490   1.462   0.705   9.681 -1.0000  1.3879 -1.2930
 7010SOL     OW32491   1.658   1.177   5.877 -0.2250  0.3568 -0.5429
 7010SOL    HW132492   1.747   1.214   5.871  1.3426 -3.3427 -0.0286
 7010SOL    HW232493   1.609   1.252   5.911 -3.0778 -1.1297 -1.3870
 7011SOL     OW32494   2.331   0.166   9.905  0.8590 -0.2153  0.1809
 7011SOL    HW132495   2.252   0.113   9.897  1.8426 -1.8839  1.6471
 7011SOL    HW232496   2.293   0.253   9.892  1.0222 -0.0168  1.0721
 7012SOL     OW32497   1.499   1.684   6.078  0.6881  0.2612 -0.0257
 7012SOL    HW132498   1.579   1.693   6.027 -0.6795 -0.4307 -2.3055
 7012SOL    HW232499   1.475   1.777   6.087  0.1924  0.2671 -1.3415
 7013SOL     OW32500   4.129   1.882   2.831 -0.2379 -0.1880 -0.6911
 7013SOL    HW132501   4.144   1.846   2.918 -0.5842  0.4973 -0.3528
 7013SOL    HW232502   4.173   1.966   2.835 -1.6351  0.4925  0.2111
 7014SOL     OW32503   3.232   4.066   1.539  0.1083 -0.6521  0.0489
 7014SOL    HW132504   3.274   4.074   1.454  0.2067 -0.0684  0.1509
 7014SOL    HW232505   3.251   4.154   1.571 -1.8868  0.0744 -0.7360
 7015SOL     OW32506   1.551   0.946   5.525 -0.3154  0.0576  0.8247
 7015SOL    HW132507   1.497   0.908   5.594  0.2732 -2.9314 -0.3527
 7015SOL    HW232508   1.638   0.915   5.549  0.4076  1.7990  0.4613
 7016SOL     OW32509   0.420   0.679   6.077 -0.2277 -0.6884  0.3983
 7016SOL    HW132510   0.456   0.701   6.163  0.7348  0.7629 -0.3744
 7016SOL    HW232511   0.408   0.762   6.030 -0.0915  0.1848  1.9143
 7017SOL     OW32512   4.715   3.864   6.324 -0.0888  0.5456 -0.2591
 7017SOL    HW132513   0.043   3.891   6.249 -0.7932  1.0866 -0.5720
 7017SOL    HW232514   4.627   3.846   6.290  0.1544 -1.3966  0.1378
 7018SOL     OW32515   1.093   3.619   2.512  0.2597  0.3432 -0.1794
 7018SOL    HW132516   1.149   3.642   2.437 -1.8190  1.6920 -1.3011
 7018SOL    HW232517   1.167   3.603   2.571 -1.4143 -1.5253  1.4151
 7019SOL     OW32518   4.144   3.447  11.459  0.1971  0.1866 -0.3352
 7019SOL    HW132519   4.100   3.500  11.526 -1.5154  1.0240 -2.0935
 7019SOL    HW232520   4.102   3.481  11.380 -0.6721 -1.3653 -0.5593
 7020SOL     OW32521   1.681   4.586   5.900  0.7587  0.0738 -0.0578
 7020SOL    HW132522   1.634   4.608   5.820  2.7219  3.1569 -0.3641
 7020SOL    HW232523   1.617   4.549   5.961  0.6580 -1.0178 -0.8256
 7021SOL     OW32524   2.490   1.497   2.517 -0.0950  0.1681  0.0167
 7021SOL    HW132525   2.495   1.483   2.612  0.0854  0.1182  0.0007
 7021SOL    HW232526   2.584   1.517   2.510  0.4503 -1.5087  2.4121
 7022SOL     OW32527   3.403   0.579  16.226 -0.8096 -0.3971  0.1875
 7022SOL    HW132528   3.334   0.631  16.184  0.2399 -0.9520 -2.1934
 7022SOL    HW232529   3.431   0.639  16.296  0.0115 -0.4928 -0.0607
 7023SOL     OW32530   2.104   2.295  16.598 -0.8626  0.4316 -0.7668
 7023SOL    HW132531   2.053   2.229  16.645  0.4617  0.2009  0.3600
 7023SOL    HW232532   2.123   2.367  16.659 -1.2801 -1.7132  1.8898
 7024SOL     OW32533   2.436   2.061  16.444  0.3526 -0.3570  0.3225
 7024SOL    HW132534   2.459   1.975  16.407 -0.0897 -0.5545  0.5121
 7024SOL    HW232535   2.462   2.066  16.536  1.2798 -1.7536  0.1369
 7025SOL     OW32536   4.070   2.499   9.017 -0.4088  0.0514 -0.8503
 7025SOL    HW132537   4.028   2.580   9.048 -0.2701 -0.3692  0.4428
 7025SOL    HW232538   4.009   2.440   9.061  0.5443 -0.8081 -0.6888
 7026SOL     OW32539   2.609   0.788   1.664  0.7628  0.2129  0.0174
 7026SOL    HW132540   2.607   0.700   1.701 -1.1593  1.2937  2.4978
 7026SOL    HW232541   2.585   0.774   1.572 -1.0920 -0.1599  0.5626
 7027SOL     OW32542   1.463   3.406   1.013 -0.6536  0.1450 -0.0695
 7027SOL    HW132543   1.497   3.333   0.962  0.9956  0.1276  1.0726
 7027SOL    HW232544   1.392   3.427   0.952 -0.9188 -1.7088 -0.4052
 7028SOL     OW32545   4.551   2.652  15.802 -0.0494 -0.3447 -0.2217
 7028SOL    HW132546   4.564   2.582  15.738  0.5817  0.7177 -1.2455
 7028SOL    HW232547   4.636   2.692  15.813  0.4557 -0.8770 -2.1353
 7029SOL     OW32548   4.588   2.794   4.428  0.2080 -0.5673  0.4482
 7029SOL    HW132549   4.519   2.808   4.492  0.7818 -0.1662  0.9747
 7029SOL    HW232550   4.582   2.700   4.410  0.6320 -0.4699 -0.2185
 7030SOL     OW32551   2.768   2.849  16.409  0.6219  0.6062 -0.2437
 7030SOL    HW132552   2.769   2.930  16.358 -1.5383 -0.1177 -1.4052
 7030SOL    HW232553   2.862   2.847  16.428  0.6103 -0.0158 -0.2685
 7031SOL     OW32554   3.043   1.403  16.598 -0.1307  0.2663  0.2137
 7031SOL    HW132555   3.098   1.405  16.676  0.4287  1.8866 -0.2326
 7031SOL    HW232556   3.047   1.494  16.570  1.3261  0.8979  2.5433
 7032SOL     OW32557   1.021   4.526  15.893 -0.3469 -0.1641 -0.0164
 7032SOL    HW132558   1.000   4.437  15.865  1.1236 -0.8506  1.0676
 7032SOL    HW232559   1.046   4.558  15.807  0.2188  1.5480  0.7779
 7033SOL     OW32560   2.570   0.277  17.366 -0.3721 -0.1560 -0.2499
 7033SOL    HW132561   2.582   0.237  17.452 -1.0970  2.4063  1.0696
 7033SOL    HW232562   2.525   0.358  17.391  1.3125  0.6960  0.0060
 7034SOL     OW32563   2.397   1.983   3.889 -0.4596 -0.0920 -0.3359
 7034SOL    HW132564   2.309   1.996   3.924 -0.3258  0.6877 -0.3006
 7034SOL    HW232565   2.388   2.014   3.799 -0.1850 -1.4951 -0.8511
 7035SOL     OW32566   3.091   4.514   7.382 -0.6235  0.1162  0.3984
 7035SOL    HW132567   3.022   4.460   7.422 -1.5841  1.0514 -0.0209
 7035SOL    HW232568   3.137   4.556   7.455 -0.3444  0.0652  0.2557
 7036SOL     OW32569   0.505   2.883   9.998  0.0357  0.7446  0.2716
 7036SOL    HW132570   0.523   2.854   9.909  1.5599  0.2488  0.7505
 7036SOL    HW232571   0.438   2.950   9.982 -1.2324  0.0694  2.8147
 7037SOL     OW32572   4.135   0.256   8.467 -0.0056 -0.0894 -0.4238
 7037SOL    HW132573   4.115   0.343   8.431  2.1933  1.3620  1.8730
 7037SOL    HW232574   4.049   0.218   8.451 -0.6881  0.8925  0.9139
 7038SOL     OW32575   3.174   3.706  12.392  0.6221  0.4103  0.4529
 7038SOL    HW132576   3.249   3.687  12.449  0.4555 -2.9706 -0.4370
 7038SOL    HW232577   3.103   3.695  12.455 -1.8146  1.6149 -2.1149
 7039SOL     OW32578   2.570   0.063  15.459 -0.1915 -0.5274  0.3904
 7039SOL    HW132579   2.574   0.071  15.364 -2.1739 -2.2924  0.1645
 7039SOL    HW232580   2.482   0.031  15.479 -0.1044 -0.2721  1.1707
 7040SOL     OW32581   3.030   2.278   2.922  0.0120  0.3772  0.2379
 7040SOL    HW132582   3.090   2.324   2.863  0.6826 -1.6394 -0.6909
 7040SOL    HW232583   2.986   2.345   2.974 -0.1798 -0.4426  1.1402
 7041SOL     OW32584   3.279   4.197  11.310  0.5866 -0.1825  0.9450
 7041SOL    HW132585   3.331   4.184  11.389 -0.7142 -2.6887  1.4007
 7041SOL    HW232586   3.193   4.213  11.349 -1.2272  1.1233 -3.6016
 7042SOL     OW32587   3.997   2.141   8.341 -0.1719 -0.4467 -0.4785
 7042SOL    HW132588   3.936   2.127   8.413  1.6811  0.3654  1.2212
 7042SOL    HW232589   4.021   2.233   8.354  0.4401 -0.8626  1.2135
 7043SOL     OW32590   3.406   3.093   6.334  0.2920  0.1315  0.6640
 7043SOL    HW132591   3.486   3.145   6.339  0.8750 -0.3623 -3.0450
 7043SOL    HW232592   3.345   3.156   6.295  0.4519 -0.5002 -0.6155
 7044SOL     OW32593   1.408   0.634   8.916 -0.3521  0.3381  0.1126
 7044SOL    HW132594   1.389   0.720   8.877  0.1503 -0.2293 -1.3865
 7044SOL    HW232595   1.322   0.609   8.948  0.0128 -0.0017  0.8145
 7045SOL     OW32596   3.904   2.393   0.645  0.3142 -0.2092  0.3615
 7045SOL    HW132597   3.816   2.406   0.681 -0.5087 -0.9736 -1.3597
 7045SOL    HW232598   3.884   2.384   0.552  1.3015  0.0651  0.1236
 7046SOL     OW32599   0.826   2.551  15.384  0.1783 -0.2605 -0.1606
 7046SOL    HW132600   0.756   2.487  15.375  0.2863 -0.3172 -0.6204
 7046SOL    HW232601   0.785   2.633  15.356  1.4400  0.1666 -0.7861
 7047SOL     OW32602   1.473   2.244   8.693  0.0284 -0.5672  0.2206
 7047SOL    HW132603   1.528   2.168   8.710 -1.4997 -1.2971  1.9835
 7047SOL    HW232604   1.525   2.298   8.634  1.1531 -1.1736  0.6559
 7048SOL     OW32605   1.272   3.110   5.840  0.2127  0.1837  0.2098
 7048SOL    HW132606   1.234   3.024   5.822  1.2440 -0.1410 -0.4393
 7048SOL    HW232607   1.218   3.129   5.917 -0.0663  0.7715 -0.1366
 7049SOL     OW32608   1.590   3.943   9.530 -0.1996  0.4107 -0.1892
 7049SOL    HW132609   1.590   3.887   9.608 -0.0297  0.2867 -0.2780
 7049SOL    HW232610   1.507   3.906   9.498 -0.9587  2.0568 -0.1345
 7050SOL     OW32611   3.945   0.863   3.373 -0.4418  0.2591 -0.5929
 7050SOL    HW132612   3.919   0.885   3.463 -3.2883 -0.4583 -1.2496
 7050SOL    HW232613   3.883   0.907   3.316  0.1466  1.4526 -0.3068
 7051SOL     OW32614   2.994   3.180   9.781  0.1804  0.1078 -0.1083
 7051SOL    HW132615   2.923   3.116   9.791 -1.8384  1.8156 -3.2882
 7051SOL    HW232616   2.969   3.264   9.820 -1.0688  0.3331 -1.3636
 7052SOL     OW32617   2.793   1.970   9.890 -0.4813 -0.0766  0.1201
 7052SOL    HW132618   2.845   2.034   9.840 -0.7782 -0.4286 -0.6447
 7052SOL    HW232619   2.783   1.904   9.821 -0.6035  0.0268  0.0382
 7053SOL     OW32620   4.408   1.703   1.431  0.3889 -0.4593 -0.2971
 7053SOL    HW132621   4.446   1.776   1.478 -1.6879 -0.3341  1.2047
 7053SOL    HW232622   4.435   1.727   1.342 -1.7503  1.0250 -0.5474
 7054SOL     OW32623   1.916   2.552   7.043 -0.2736  0.7492 -0.5632
 7054SOL    HW132624   1.841   2.577   7.097  2.0331  0.5228  2.7289
 7054SOL    HW232625   1.912   2.457   7.047  3.1097  0.5965 -0.8226
 7055SOL     OW32626   1.079   3.129   7.058 -0.4792 -0.0193 -0.0876
 7055SOL    HW132627   1.109   3.040   7.072 -1.3360 -0.3276 -0.2015
 7055SOL    HW232628   1.098   3.131   6.964 -2.0023 -0.8351 -0.4184
 7056SOL     OW32629   3.212   3.062   7.027 -0.1709 -0.2718 -0.0273
 7056SOL    HW132630   3.128   3.033   6.991  0.4600 -2.2529  0.0623
 7056SOL    HW232631   3.258   3.028   6.951  1.2417 -1.6510  1.4187
 7057SOL     OW32632   0.825   2.864  13.090  0.2609 -0.4218 -0.1396
 7057SOL    HW132633   0.851   2.946  13.050 -0.8349  0.2758  0.5669
 7057SOL    HW232634   0.837   2.801  13.019 -0.2445  0.2466 -0.8044
 7058SOL     OW32635   3.759   3.599   6.455  0.4192 -0.6208 -0.3205
 7058SOL    HW132636   3.840   3.603   6.505  0.1441  0.6848  0.0226
 7058SOL    HW232637   3.775   3.658   6.381 -1.4222 -0.5791 -0.6795
 7059SOL     OW32638   0.727   0.908   6.930 -0.1697  0.3871 -0.0422
 7059SOL    HW132639   0.780   0.858   6.992  0.6880  1.1675 -0.1497
 7059SOL    HW232640   0.638   0.885   6.956 -0.1586 -0.2514 -0.5518
 7060SOL     OW32641   1.097   1.988  11.872 -0.1454  0.2070 -0.0536
 7060SOL    HW132642   1.044   1.913  11.845  1.4635 -0.8633 -0.2103
 7060SOL    HW232643   1.187   1.955  11.879  1.4818  4.8084  1.0212
 7061SOL     OW32644   1.916   2.633   8.695 -0.3871 -0.1062 -0.0449
 7061SOL    HW132645   1.917   2.699   8.626 -1.0184  0.5641  0.5869
 7061SOL    HW232646   1.945   2.554   8.649 -1.0252 -0.2649 -0.1781
 7062SOL     OW32647   0.175   2.977   2.125  0.2218  0.2446  1.2331
 7062SOL    HW132648   0.116   2.907   2.096 -0.5833  0.3293  2.6236
 7062SOL    HW232649   0.201   3.005   2.038 -0.0641 -1.4918  0.6026
 7063SOL     OW32650   3.080   3.713   8.996 -0.1146 -0.0583  0.0176
 7063SOL    HW132651   3.023   3.683   8.926  1.0266  0.8997 -1.3166
 7063SOL    HW232652   3.091   3.628   9.039 -0.0477 -1.6810 -3.2574
 7064SOL     OW32653   2.229   3.736   2.802  0.5329 -1.0223  0.1332
 7064SOL    HW132654   2.230   3.795   2.726  0.2267 -0.8622  0.2542
 7064SOL    HW232655   2.188   3.656   2.768 -0.8261  0.2319 -1.1609
 7065SOL     OW32656   0.401   2.164   5.349  0.3773 -0.1437  0.4788
 7065SOL    HW132657   0.456   2.087   5.335 -1.5009 -1.3196 -0.4857
 7065SOL    HW232658   0.414   2.193   5.258 -1.5454 -0.9481 -0.0595
 7066SOL     OW32659   3.631   1.316   1.728 -0.0881  0.0008  0.0652
 7066SOL    HW132660   3.689   1.367   1.672  0.5711  0.8584  1.5110
 7066SOL    HW232661   3.691   1.243   1.745  0.3057  0.1141 -0.8112
 7067SOL     OW32662   4.368   1.197   2.887  0.4002 -0.2384  0.4011
 7067SOL    HW132663   4.300   1.263   2.874 -0.7266 -1.2190  1.2518
 7067SOL    HW232664   4.446   1.252   2.887  0.4700 -0.3056 -1.8542
 7068SOL     OW32665   1.200   2.975   9.608 -0.1650  0.3769 -0.4963
 7068SOL    HW132666   1.235   2.887   9.593 -3.5536 -0.8503 -1.0621
 7068SOL    HW232667   1.185   3.013   9.521 -2.8545 -0.9487 -0.5774
 7069SOL     OW32668   0.482   4.201   6.785  0.3804  0.3031  0.1150
 7069SOL    HW132669   0.493   4.136   6.855 -0.9732  0.8375  0.8301
 7069SOL    HW232670   0.414   4.260   6.816 -1.1969 -0.9693 -0.9103
 7070SOL     OW32671   2.364   1.232  13.210  0.6458  0.0604 -0.2933
 7070SOL    HW132672   2.358   1.303  13.147 -0.4677 -0.7244 -1.0792
 7070SOL    HW232673   2.420   1.176  13.157 -1.7820 -2.4189 -0.2453
 7071SOL     OW32674   2.163   3.836   5.862  0.2133  0.4206  0.4866
 7071SOL    HW132675   2.106   3.906   5.831  0.4906  0.8787  1.0192
 7071SOL    HW232676   2.241   3.883   5.889  1.8581 -2.1560  0.1957
 7072SOL     OW32677   0.211   3.876  13.552  0.5752  0.0092  0.4412
 7072SOL    HW132678   0.242   3.966  13.556 -0.7179  0.4411  0.7759
 7072SOL    HW232679   0.134   3.879  13.609 -0.7759 -1.0278 -1.3250
 7073SOL     OW32680   4.015   0.625   6.854 -0.4258 -0.1980 -0.1774
 7073SOL    HW132681   4.087   0.578   6.812  0.8800  3.3027 -1.8450
 7073SOL    HW232682   3.945   0.562   6.840 -0.3724 -0.6135  1.4224
 7074SOL     OW32683   1.923   2.219   1.575 -0.0086  0.3357  0.0354
 7074SOL    HW132684   1.841   2.210   1.623  1.1242  0.6054  2.0129
 7074SOL    HW232685   1.883   2.212   1.488  0.2381 -0.8528  0.0099
 7075SOL     OW32686   3.303   2.727   8.443  0.4910 -0.1379  0.0225
 7075SOL    HW132687   3.353   2.803   8.413  0.1428  0.8103  1.8733
 7075SOL    HW232688   3.231   2.760   8.496  0.6744 -1.4424  1.0810
 7076SOL     OW32689   2.780   1.018   9.889  0.3638 -0.3338  0.0184
 7076SOL    HW132690   2.836   1.056   9.957  1.3053 -0.7028 -0.5579
 7076SOL    HW232691   2.737   0.957   9.950 -0.3209  2.3025  2.1823
 7077SOL     OW32692   2.065   2.399   4.019 -0.2861 -0.2185  0.1203
 7077SOL    HW132693   2.076   2.331   3.952  0.2473 -1.8725  1.8838
 7077SOL    HW232694   2.156   2.426   4.034 -0.3909 -0.3987  1.0726
 7078SOL     OW32695   1.814   4.138   3.778  0.7334  0.6710 -0.0350
 7078SOL    HW132696   1.770   4.213   3.818  0.4588  0.7160 -0.4223
 7078SOL    HW232697   1.765   4.121   3.698  1.5772  1.0187 -0.6174
 7079SOL     OW32698   3.156   0.996   5.360 -0.0429 -0.1818 -0.4109
 7079SOL    HW132699   3.230   1.004   5.301 -0.3292  0.6989 -0.6470
 7079SOL    HW232700   3.203   0.956   5.433 -0.4270 -0.2024 -0.1717
 7080SOL     OW32701   3.702   0.554  12.477  0.5108  0.3500 -0.2388
 7080SOL    HW132702   3.763   0.488  12.509 -1.3813 -1.2676  0.0146
 7080SOL    HW232703   3.731   0.629  12.529  0.5571 -1.0294  1.7042
 7081SOL     OW32704   4.331   3.898   1.451  0.3920  0.0183 -0.5788
 7081SOL    HW132705   4.298   3.921   1.538  1.1319  0.9024 -0.5274
 7081SOL    HW232706   4.373   3.978   1.419  1.1343 -0.7481 -1.4849
 7082SOL     OW32707   0.697   2.116   6.157  0.4728  0.2772  0.1295
 7082SOL    HW132708   0.649   2.146   6.079 -0.3527 -0.0281  0.5232
 7082SOL    HW232709   0.678   2.023   6.158 -2.1721  0.8393  2.4706
 7083SOL     OW32710   0.919   1.467   6.902 -0.1006  0.3063  0.2611
 7083SOL    HW132711   0.855   1.410   6.946 -0.5852 -0.8190 -1.9380
 7083SOL    HW232712   0.998   1.448   6.953 -0.8120  0.2597  1.3603
 7084SOL     OW32713   1.095   4.418   5.763  0.0218 -0.0940 -0.5326
 7084SOL    HW132714   1.186   4.390   5.774 -0.0350 -0.4322 -0.9347
 7084SOL    HW232715   1.053   4.341   5.801 -0.1673  0.3255  0.1307
 7085SOL     OW32716   1.344   0.389  15.127  0.0313  0.6002  0.1195
 7085SOL    HW132717   1.431   0.429  15.132  0.6745 -0.7931  0.1009
 7085SOL    HW232718   1.284   0.459  15.152  0.2732  1.2805 -1.2326
 7086SOL     OW32719   4.249   3.821  16.255 -0.0358 -0.2653 -0.1661
 7086SOL    HW132720   4.214   3.737  16.223 -2.0322  0.0344  1.2553
 7086SOL    HW232721   4.212   3.888  16.198 -1.4850 -0.1971  0.8639
 7087SOL     OW32722   1.148   1.620   2.191 -0.4684 -0.6377 -0.0435
 7087SOL    HW132723   1.215   1.572   2.239  0.8049  0.2151 -0.9940
 7087SOL    HW232724   1.074   1.579   2.236  1.1726 -1.0129  2.3134
 7088SOL     OW32725   2.708   3.308  11.079  0.5041 -0.0688 -0.6290
 7088SOL    HW132726   2.707   3.281  11.171  1.6271 -2.0114 -1.1726
 7088SOL    HW232727   2.648   3.245  11.039  0.7704  0.6275 -2.1029
 7089SOL     OW32728   0.782   4.495  12.565  0.1422 -0.0488  0.2542
 7089SOL    HW132729   0.726   4.523  12.638 -0.8270 -1.1963 -0.0568
 7089SOL    HW232730   0.821   4.413  12.596  0.6277  0.1130  0.0697
 7090SOL     OW32731   0.679   2.843  16.118 -0.1454 -0.9308  0.0965
 7090SOL    HW132732   0.617   2.915  16.135  1.2885  0.3903 -0.2707
 7090SOL    HW232733   0.669   2.843  16.023 -0.9866  1.4494  0.1781
 7091SOL     OW32734   2.643   0.240   4.117 -0.2533  0.2080  0.0019
 7091SOL    HW132735   2.655   0.151   4.084 -0.9548  0.6386 -1.3969
 7091SOL    HW232736   2.734   0.269   4.113 -0.2654  0.1985 -0.3436
 7092SOL     OW32737   0.804   3.876   4.821  0.6309 -0.2292  0.4977
 7092SOL    HW132738   0.714   3.903   4.837  0.8551  0.9574 -0.1674
 7092SOL    HW232739   0.833   3.852   4.909 -1.8987 -0.9621  1.1116
 7093SOL     OW32740   1.947   1.079   2.855 -0.0314  0.3127 -0.0242
 7093SOL    HW132741   1.909   1.167   2.860 -0.2340  0.1552  1.2222
 7093SOL    HW232742   1.882   1.039   2.796  1.0919 -0.3833 -0.7938
 7094SOL     OW32743   2.300   4.385   7.727  0.3508 -0.5713 -0.2109
 7094SOL    HW132744   2.212   4.349   7.717  0.0430  0.2788 -0.5558
 7094SOL    HW232745   2.324   4.389   7.634  0.0902  0.0911 -0.2501
 7095SOL     OW32746   3.967   1.214  10.357  0.0218  0.1206  0.5536
 7095SOL    HW132747   4.036   1.155  10.327  0.1216  0.9262 -0.7839
 7095SOL    HW232748   3.891   1.156  10.351 -0.7273  1.1843 -0.1307
 7096SOL     OW32749   2.243   4.654   3.468 -0.2334  0.0569  0.0789
 7096SOL    HW132750   2.314   4.616   3.520  2.3948  1.4957 -2.4691
 7096SOL    HW232751   2.225   0.010   3.515 -1.4279  0.3444 -0.8932
 7097SOL     OW32752   4.391   0.793  12.883 -0.1321 -0.3354  0.7572
 7097SOL    HW132753   4.441   0.719  12.916  2.0353  1.2569  1.0445
 7097SOL    HW232754   4.367   0.771  12.793  1.4983  2.4323 -0.3605
 7098SOL     OW32755   1.581   0.300   6.735 -0.1406  0.0740 -0.3079
 7098SOL    HW132756   1.596   0.213   6.698 -0.0000 -1.3991  3.2086
 7098SOL    HW232757   1.666   0.340   6.719 -0.3365  0.6210  0.0333
 7099SOL     OW32758   4.312   1.258   8.826 -0.5189  0.1877 -0.4105
 7099SOL    HW132759   4.331   1.294   8.912 -2.1565  0.9227 -0.3474
 7099SOL    HW232760   4.401   1.229   8.807 -0.8946 -1.6107  0.5836
 7100SOL     OW32761   0.498   2.510   6.876  0.2896  1.0178 -0.1665
 7100SOL    HW132762   0.518   2.419   6.855  1.6819  0.4354  3.9027
 7100SOL    HW232763   0.461   2.493   6.962  0.2215  1.3234 -0.1362
 7101SOL     OW32764   3.464   2.321   5.128  0.3572  0.5899 -0.5444
 7101SOL    HW132765   3.421   2.338   5.044 -0.5498  0.6755 -0.0670
 7101SOL    HW232766   3.490   2.228   5.130 -0.0110  0.4821 -0.8284
 7102SOL     OW32767   1.352   3.596   6.961 -0.0126  0.3314  0.4576
 7102SOL    HW132768   1.314   3.569   6.877  0.2547 -1.7909  1.0093
 7102SOL    HW232769   1.326   3.523   7.017  2.5854  0.2487  1.5242
 7103SOL     OW32770   2.135   4.079  12.877 -0.6384  0.2292 -0.0843
 7103SOL    HW132771   2.172   4.058  12.963  0.0230 -0.7012 -0.5879
 7103SOL    HW232772   2.105   4.168  12.894  1.3055  1.2107 -1.7137
 7104SOL     OW32773   2.746   4.296   7.768  0.0101  0.1453  0.1369
 7104SOL    HW132774   2.664   4.252   7.793  0.8740 -1.9630 -0.7391
 7104SOL    HW232775   2.801   4.218   7.772  1.9159  1.4127 -1.4144
 7105SOL     OW32776   4.304   1.349   5.424 -0.2019  0.3474 -0.6510
 7105SOL    HW132777   4.228   1.315   5.376 -0.1902 -0.4239 -0.1290
 7105SOL    HW232778   4.372   1.345   5.356  0.9843  0.1421  0.5480
 7106SOL     OW32779   4.415   2.187   4.773  0.0559  0.1852  0.3895
 7106SOL    HW132780   4.359   2.110   4.768  0.2542  0.2527 -3.3549
 7106SOL    HW232781   4.495   2.141   4.797 -0.0854  0.3290  1.1240
 7107SOL     OW32782   4.324   3.038  17.535 -0.4408  0.1308 -0.2220
 7107SOL    HW132783   4.331   3.133  17.520 -0.4349  0.4635  1.8114
 7107SOL    HW232784   4.411   3.008  17.509 -0.7749 -1.5606  0.6716
 7108SOL     OW32785   3.435   3.343  10.843  0.4755 -0.3057 -0.3625
 7108SOL    HW132786   3.417   3.379  10.930  0.6155  0.5816 -0.6953
 7108SOL    HW232787   3.345   3.322  10.819  0.8872 -3.1860  0.6604
 7109SOL     OW32788   0.918   2.560   5.845 -0.3279  0.5966 -0.6334
 7109SOL    HW132789   0.863   2.570   5.768 -0.1411  1.5116 -0.6505
 7109SOL    HW232790   0.863   2.502   5.898  0.5733  1.2712  1.0501
 7110SOL     OW32791   0.764   2.908   5.890 -0.5216 -0.3318  0.9271
 7110SOL    HW132792   0.725   2.995   5.879  2.3830  0.7607 -0.6420
 7110SOL    HW232793   0.690   2.848   5.881  0.3688 -0.8467 -2.9006
 7111SOL     OW32794   0.835   1.993   4.672  0.8834  0.3981 -0.2165
 7111SOL    HW132795   0.910   2.051   4.659  3.0426 -1.5735  3.4159
 7111SOL    HW232796   0.792   2.052   4.734 -1.3633 -0.9507 -0.4820
 7112SOL     OW32797   4.303   1.912   4.722  0.3206 -0.2442  0.0664
 7112SOL    HW132798   4.352   1.860   4.787 -1.7076  0.9157  2.5215
 7112SOL    HW232799   4.376   1.917   4.661 -0.5151  2.9200 -0.6522
 7113SOL     OW32800   3.511   1.100   8.738 -0.2526 -0.4130 -0.1900
 7113SOL    HW132801   3.464   1.162   8.795  0.1222  1.2253 -1.6701
 7113SOL    HW232802   3.552   1.041   8.801  1.6882  2.1339  0.9738
 7114SOL     OW32803   2.091   1.752   8.641 -0.2985 -0.0967  0.3098
 7114SOL    HW132804   2.103   1.720   8.730 -0.1941  1.4052  0.8299
 7114SOL    HW232805   2.101   1.673   8.588 -0.0518 -0.0110  0.2281
 7115SOL     OW32806   3.908   4.475   8.135 -0.3654 -0.8097 -0.2792
 7115SOL    HW132807   3.979   4.533   8.164  0.9152 -2.6166  0.1956
 7115SOL    HW232808   3.838   4.522   8.180 -1.0585 -0.5343 -1.6565
 7116SOL     OW32809   4.397   0.029  15.558 -0.0953  0.8329 -0.0801
 7116SOL    HW132810   4.357   0.093  15.499  1.6278  0.0747 -2.0537
 7116SOL    HW232811   4.388   0.067  15.646 -2.0396  1.5385 -0.5902
 7117SOL     OW32812   2.065   0.053   4.762  0.4375 -0.0946 -0.5286
 7117SOL    HW132813   2.086   0.033   4.853  1.9859 -2.0159 -1.3139
 7117SOL    HW232814   2.101   4.703   4.717  0.7123 -0.7945  0.8872
 7118SOL     OW32815   1.789   2.363   6.718  0.3419 -0.3744  0.4904
 7118SOL    HW132816   1.746   2.279   6.700 -0.4739  0.7899 -2.8679
 7118SOL    HW232817   1.852   2.338   6.786 -1.2416 -2.7024  1.1196
 7119SOL     OW32818   1.591   0.973   6.129  0.2430 -0.1564 -0.6624
 7119SOL    HW132819   1.607   1.027   6.052 -0.4019 -1.2725 -1.5828
 7119SOL    HW232820   1.656   1.011   6.188 -1.7551  2.6606 -0.2727
 7120SOL     OW32821   2.882   0.805   9.435 -0.2252  0.6101 -0.2039
 7120SOL    HW132822   2.886   0.896   9.407  0.5050  1.0909  1.4702
 7120SOL    HW232823   2.871   0.754   9.355  0.1994 -0.1628  0.2231
 7121SOL     OW32824   3.706   2.825   2.760  0.0346  0.3563 -0.3205
 7121SOL    HW132825   3.789   2.839   2.805 -0.2202 -0.1680  0.3245
 7121SOL    HW232826   3.648   2.897   2.785 -1.2391 -1.1850  1.1645
 7122SOL     OW32827   1.397   0.683   4.301  0.1497  0.3998 -0.1994
 7122SOL    HW132828   1.303   0.680   4.319 -0.1330  0.8280 -1.5562
 7122SOL    HW232829   1.436   0.636   4.374 -1.5413  1.8598  1.6380
 7123SOL     OW32830   3.637   0.431   5.531 -0.0355 -0.2376  0.1575
 7123SOL    HW132831   3.594   0.368   5.473  0.2172 -1.1831  0.9942
 7123SOL    HW232832   3.581   0.433   5.608  1.3047  1.6921  1.0594
 7124SOL     OW32833   1.938   4.119   9.149  0.4635  0.0021 -0.2479
 7124SOL    HW132834   1.882   4.065   9.093  0.7397 -0.3626 -0.1681
 7124SOL    HW232835   1.951   4.189   9.085  1.0871 -1.2165 -1.4553
 7125SOL     OW32836   0.909   4.550  12.218  0.0173 -0.0932  0.6966
 7125SOL    HW132837   0.830   4.509  12.254  0.2500 -1.9728 -0.9589
 7125SOL    HW232838   0.971   4.531  12.289 -0.0033 -0.1355  0.7035
 7126SOL     OW32839   1.549   1.302   7.260  0.4508 -0.8875  0.3927
 7126SOL    HW132840   1.581   1.349   7.184  0.0406 -0.8055  0.2703
 7126SOL    HW232841   1.630   1.274   7.303  1.5551  0.7612 -0.6548
 7127SOL     OW32842   0.579   3.258   7.831 -0.2448  0.5674 -0.7198
 7127SOL    HW132843   0.537   3.343   7.848 -1.8057 -0.0767 -1.3079
 7127SOL    HW232844   0.645   3.286   7.767  0.9645  0.6558  0.5672
 7128SOL     OW32845   1.564   2.667   9.105  0.4377  0.0818  0.1854
 7128SOL    HW132846   1.622   2.700   9.036 -1.6906  1.8220 -0.8038
 7128SOL    HW232847   1.513   2.745   9.127 -0.7949 -1.0514  1.3214
 7129SOL     OW32848   3.149   0.101  12.185 -0.2324  0.1312 -0.5091
 7129SOL    HW132849   3.094   0.129  12.112 -0.9519  0.2747  0.0917
 7129SOL    HW232850   3.207   0.039  12.141 -1.0607 -1.9474  1.3455
 7130SOL     OW32851   2.316   1.345   7.324  0.6632 -0.0358 -0.3079
 7130SOL    HW132852   2.327   1.382   7.412 -0.7054  1.0836 -0.6255
 7130SOL    HW232853   2.299   1.424   7.273  0.8886  0.5288  0.4820
 7131SOL     OW32854   3.483   1.084   5.368  0.3521 -0.0489  0.1902
 7131SOL    HW132855   3.454   1.110   5.281 -1.5509  1.5749  1.2933
 7131SOL    HW232856   3.489   0.991   5.351  0.1535 -0.2383  1.1471
 7132SOL     OW32857   1.383   1.899   4.872 -0.1494 -0.7102  0.1240
 7132SOL    HW132858   1.422   1.821   4.832  2.3505  1.4157 -1.5274
 7132SOL    HW232859   1.442   1.920   4.945  0.9564 -0.7676 -0.7428
 7133SOL     OW32860   0.059   0.261   9.884  0.0842  0.5662  0.3937
 7133SOL    HW132861   0.053   0.265   9.789  2.6943  0.9278  0.2400
 7133SOL    HW232862   0.101   0.176   9.896  1.0554  0.6728 -2.2796
 7134SOL     OW32863   2.464   1.884   5.719 -0.9696 -0.4502  0.4355
 7134SOL    HW132864   2.520   1.848   5.788  0.3165  0.0960 -0.3055
 7134SOL    HW232865   2.420   1.949   5.773  1.7997  0.5313  1.5338
 7135SOL     OW32866   3.439   4.616   5.074 -0.2950  0.2627  0.3315
 7135SOL    HW132867   3.504   4.669   5.121  1.0407  0.5224 -1.7797
 7135SOL    HW232868   3.490   4.547   5.031 -2.3862  0.1534 -1.9708
 7136SOL     OW32869   2.365   2.678   7.024 -0.1912  0.5218  0.0838
 7136SOL    HW132870   2.432   2.746   7.025 -1.6272  1.9183  1.3365
 7136SOL    HW232871   2.288   2.733   7.039 -1.1351 -0.8682  0.4357
 7137SOL     OW32872   1.832   1.851   2.934  0.0732  0.3063 -0.2164
 7137SOL    HW132873   1.853   1.883   2.846  0.0729  1.3248  0.1552
 7137SOL    HW232874   1.864   1.761   2.925  0.9167  0.5930 -0.0695
 7138SOL     OW32875   1.617   0.709   7.183  0.3712 -0.1717  0.1150
 7138SOL    HW132876   1.651   0.631   7.229  0.1828 -0.7645 -0.7629
 7138SOL    HW232877   1.704   0.740   7.158 -0.1940  0.9884 -0.3588
 7139SOL     OW32878   4.482   2.615   1.304 -0.2980  0.0938  0.3727
 7139SOL    HW132879   4.410   2.561   1.336  0.0783 -0.4890  0.2330
 7139SOL    HW232880   4.466   2.696   1.352  0.3186 -0.4138  1.4230
 7140SOL     OW32881   0.552   0.361  15.886  0.2038  0.0159  0.5055
 7140SOL    HW132882   0.513   0.447  15.875 -2.0066 -0.7480  2.3389
 7140SOL    HW232883   0.590   0.383  15.971 -0.4761 -0.7242  1.0042
 7141SOL     OW32884   2.371   3.131   1.899  0.4364  0.1814  0.0886
 7141SOL    HW132885   2.370   3.166   1.988 -1.8859  0.0782  0.1130
 7141SOL    HW232886   2.280   3.113   1.874  0.4837 -0.2431  0.2244
 7142SOL     OW32887   2.582   3.635   4.568 -0.2990 -0.1563  0.3945
 7142SOL    HW132888   2.632   3.618   4.488 -0.2435 -0.6163  0.5236
 7142SOL    HW232889   2.531   3.554   4.574 -1.3685  0.4725 -0.1036
 7143SOL     OW32890   2.650   0.424   7.141 -0.4194 -0.0988  0.1025
 7143SOL    HW132891   2.719   0.408   7.077 -0.7962  0.5356 -0.4649
 7143SOL    HW232892   2.639   0.339   7.184  0.1009 -0.4045 -0.3821
 7144SOL     OW32893   2.304   1.726   6.876  0.6391 -0.1251  0.1125
 7144SOL    HW132894   2.304   1.637   6.911  0.4478  0.0563  0.5742
 7144SOL    HW232895   2.233   1.762   6.930  1.2558  1.5219 -0.1726
 7145SOL     OW32896   4.700   0.449   2.576 -0.0230  0.3883 -0.0815
 7145SOL    HW132897   4.681   0.459   2.483  2.8722  1.1626 -0.5869
 7145SOL    HW232898   4.620   0.405   2.605 -0.7167  0.3360 -2.1069
 7146SOL     OW32899   2.440   0.780   4.489  0.1020 -0.3300 -0.0787
 7146SOL    HW132900   2.532   0.777   4.463 -0.1241  0.9986 -0.9824
 7146SOL    HW232901   2.405   0.694   4.465  0.8297 -0.3648 -0.9873
 7147SOL     OW32902   3.757   3.747   5.523 -0.2935  0.6282  0.0235
 7147SOL    HW132903   3.704   3.807   5.469  1.0988  0.9497 -0.9766
 7147SOL    HW232904   3.709   3.673   5.487 -0.6249  0.6191  0.4812
 7148SOL     OW32905   3.949   3.563   5.608  0.2517  0.1777 -0.3559
 7148SOL    HW132906   3.917   3.484   5.565  1.5775 -0.6875  0.2462
 7148SOL    HW232907   3.867   3.610   5.594  1.0649  1.6902 -0.1380
 7149SOL     OW32908   1.836   2.061   7.971  0.7174  0.5796  0.1654
 7149SOL    HW132909   1.891   2.039   8.046 -0.4464 -0.1541  0.7926
 7149SOL    HW232910   1.767   2.116   8.007 -1.3402 -1.3886 -0.7644
 7150SOL     OW32911   3.928   0.534  15.755  0.3996  0.4531 -0.3070
 7150SOL    HW132912   3.911   0.446  15.789  0.4032 -0.1353 -1.8027
 7150SOL    HW232913   3.990   0.508  15.686  1.0747  1.7377 -0.1878
 7151SOL     OW32914   3.293   3.868  15.665  0.0337 -0.1198 -0.1087
 7151SOL    HW132915   3.315   3.917  15.586 -0.0600  0.0621 -0.0207
 7151SOL    HW232916   3.260   3.783  15.633  0.8760 -0.1274 -0.9604
 7152SOL     OW32917   0.777   2.709   9.190 -0.1253 -0.0692 -0.1204
 7152SOL    HW132918   0.813   2.660   9.264  1.3616  0.2690 -0.6255
 7152SOL    HW232919   0.751   2.628   9.146  4.1304 -0.5056 -1.7897
 7153SOL     OW32920   3.556   3.053   2.836 -0.0860 -0.0148 -0.3674
 7153SOL    HW132921   3.571   3.085   2.925 -0.8684  0.4534 -0.4088
 7153SOL    HW232922   3.463   3.073   2.824 -0.4907 -0.2853  2.1974
 7154SOL     OW32923   4.228   0.559  15.579  0.1996 -0.2991  0.0154
 7154SOL    HW132924   4.242   0.485  15.637 -0.5631 -1.1643 -0.8959
 7154SOL    HW232925   4.286   0.625  15.617 -1.2560  1.5927 -1.0345
 7155SOL     OW32926   1.199   2.724   4.476  1.1228  0.0381  0.0155
 7155SOL    HW132927   1.106   2.707   4.486  0.9846 -0.0775 -1.5014
 7155SOL    HW232928   1.209   2.737   4.382  1.9403  0.4876  0.1615
 7156SOL     OW32929   0.951   1.624   1.313  0.5636  0.2783  0.2687
 7156SOL    HW132930   0.934   1.694   1.376 -1.6954 -1.1661  1.2744
 7156SOL    HW232931   0.887   1.638   1.244  0.7648  2.0614  0.4542
 7157SOL     OW32932   2.359   2.472   8.017 -0.4436  0.3601  0.0146
 7157SOL    HW132933   2.330   2.451   8.106 -0.8867 -0.0622 -0.2348
 7157SOL    HW232934   2.381   2.564   8.029  0.5748 -0.0369  1.2769
 7158SOL     OW32935   3.132   0.314   7.373 -0.1242 -0.0162  0.2227
 7158SOL    HW132936   3.185   0.307   7.452  1.2660 -3.9318 -1.0308
 7158SOL    HW232937   3.149   0.226   7.338  0.2688  0.2848 -0.3453
 7159SOL     OW32938   0.708   2.104  16.571 -0.1894  0.0804 -0.3599
 7159SOL    HW132939   0.725   2.198  16.563  2.1364 -0.3644 -0.7129
 7159SOL    HW232940   0.754   2.079  16.491 -1.4131 -0.7839 -0.7903
 7160SOL     OW32941   0.777   2.156   4.362  0.3108 -0.1579  0.1773
 7160SOL    HW132942   0.863   2.117   4.346  0.4162  1.0997 -2.1815
 7160SOL    HW232943   0.724   2.082   4.330 -0.5936  0.9406 -0.8949
 7161SOL     OW32944   0.139   1.261  12.109 -0.4702  0.8296  0.3218
 7161SOL    HW132945   0.065   1.213  12.144 -0.4186  1.0350  0.7138
 7161SOL    HW232946   0.177   1.283  12.194  1.7994  0.9252 -0.6937
 7162SOL     OW32947   3.517   2.476   8.661 -0.1366 -0.2351 -0.1551
 7162SOL    HW132948   3.581   2.406   8.661 -0.3403 -0.4263 -1.1435
 7162SOL    HW232949   3.449   2.440   8.603 -0.0614 -0.8541  0.1473
 7163SOL     OW32950   0.081   2.977   9.841  0.2552  0.6574  0.1493
 7163SOL    HW132951   0.142   2.920   9.794  0.8761  0.1292  1.5845
 7163SOL    HW232952   0.105   2.961   9.932 -2.3466 -0.2567  0.6754
 7164SOL     OW32953   2.958   4.646   5.134  0.0442  0.5669 -0.1851
 7164SOL    HW132954   3.036   4.630   5.081 -0.0565 -1.0970  0.1602
 7164SOL    HW232955   2.985   4.607   5.218  2.9674 -0.1713 -1.4650
 7165SOL     OW32956   2.204   4.539  16.981  0.3822  0.1199  0.8348
 7165SOL    HW132957   2.179   4.609  16.921 -0.6631 -0.6142  0.4221
 7165SOL    HW232958   2.126   4.486  16.966  0.3939  0.6271 -0.9786
 7166SOL     OW32959   3.218   2.594  10.110  0.4643 -0.8371 -0.1385
 7166SOL    HW132960   3.279   2.530  10.145  0.4874  0.2835  1.8151
 7166SOL    HW232961   3.137   2.553  10.140  0.0756  0.0339  0.0018
 7167SOL     OW32962   4.340   0.655   1.289  0.3296 -0.7374 -0.0213
 7167SOL    HW132963   4.357   0.733   1.340  0.5505 -1.2740  0.7208
 7167SOL    HW232964   4.251   0.626   1.309 -0.7392  0.9055 -2.3053
 7168SOL     OW32965   0.767   0.797  10.031 -0.3337 -0.1943  0.1971
 7168SOL    HW132966   0.790   0.721   9.977 -0.7533 -0.8847  0.9952
 7168SOL    HW232967   0.802   0.771  10.116 -0.1031  0.6796  0.3594
 7169SOL     OW32968   3.008   2.202   1.552  0.0183 -0.0597 -0.0755
 7169SOL    HW132969   3.080   2.213   1.614  0.7425  1.2927 -1.1686
 7169SOL    HW232970   3.039   2.201   1.462 -1.8719 -0.3246 -0.7309
 7170SOL     OW32971   1.514   3.303   7.288  0.5850 -0.2764  0.8056
 7170SOL    HW132972   1.453   3.360   7.242  1.8044 -0.1288 -0.6420
 7170SOL    HW232973   1.583   3.364   7.312  0.0862  0.5701  0.0547
 7171SOL     OW32974   1.178   3.893   2.281  0.0357  0.0733  0.1016
 7171SOL    HW132975   1.201   3.963   2.342 -1.9985 -1.7207  2.9601
 7171SOL    HW232976   1.083   3.907   2.276  0.3282  2.4142  1.1396
 7172SOL     OW32977   4.574   0.600   4.655 -0.3815 -0.2352  0.0973
 7172SOL    HW132978   4.533   0.554   4.728 -1.3562 -0.3030 -0.4950
 7172SOL    HW232979   4.522   0.562   4.584  1.4674  1.0120 -1.9446
 7173SOL     OW32980   3.111   4.040   6.270  0.0991  0.5558 -0.3218
 7173SOL    HW132981   3.173   4.112   6.271  0.3121  0.3484  1.4310
 7173SOL    HW232982   3.033   4.094   6.283 -1.5888 -1.2291 -2.8131
 7174SOL     OW32983   3.416   0.167  10.218  0.2445  0.0843  0.9342
 7174SOL    HW132984   3.511   0.157  10.213  0.0625 -0.7886 -0.7559
 7174SOL    HW232985   3.394   0.207  10.134  0.9195 -0.8926  0.2957
 7175SOL     OW32986   4.393   1.977   3.720  0.3456  0.0277 -0.1670
 7175SOL    HW132987   4.419   2.023   3.799 -0.5745 -0.0122  0.1580
 7175SOL    HW232988   4.418   1.888   3.745  2.8291 -0.1539 -3.3632
 7176SOL     OW32989   2.128   1.724   2.310  0.3421 -0.3984  0.1265
 7176SOL    HW132990   2.068   1.795   2.332  1.7738  0.2097  2.1211
 7176SOL    HW232991   2.208   1.757   2.352  0.2849 -2.7853  2.0997
 7177SOL     OW32992   0.455   2.288   7.576  0.0453 -0.0443  0.0328
 7177SOL    HW132993   0.463   2.192   7.582  1.0698  0.0811  0.5397
 7177SOL    HW232994   0.532   2.305   7.630 -1.4829 -0.7644  2.4146
 7178SOL     OW32995   2.316   4.182  13.836 -0.4961  0.4150 -0.2528
 7178SOL    HW132996   2.241   4.190  13.777  0.5395  0.1556 -1.5875
 7178SOL    HW232997   2.370   4.253  13.802  1.3424 -1.1500 -0.5916
 7179SOL     OW32998   0.791   2.338   5.062  0.0088  0.4049 -0.0167
 7179SOL    HW132999   0.750   2.390   4.993  0.9692  1.3886  0.1461
 7179SOL    HW233000   0.872   2.311   5.018  0.4042  1.7451 -0.1056
 7180SOL     OW33001   2.404   3.104   6.400 -0.5701 -0.1413 -0.2619
 7180SOL    HW133002   2.407   3.198   6.383  0.6914  0.2867  2.3406
 7180SOL    HW233003   2.325   3.082   6.451 -0.4899  0.9799  0.3449
 7181SOL     OW33004   1.322   2.202   2.780 -0.2917  0.0709 -0.3247
 7181SOL    HW133005   1.357   2.270   2.838 -0.7960  0.7718 -0.8330
 7181SOL    HW233006   1.321   2.130   2.843  1.1948  0.7085  0.4294
 7182SOL     OW33007   2.523   0.149   6.672 -0.7011 -0.7077  0.3500
 7182SOL    HW133008   2.514   0.244   6.673 -1.5366 -0.7358 -2.7784
 7182SOL    HW233009   2.450   0.116   6.619 -1.4332 -2.5094  2.5151
 7183SOL     OW33010   1.137   4.439   7.365 -0.2031  0.4806  0.3505
 7183SOL    HW133011   1.045   4.458   7.346 -0.2091  1.7571  1.7245
 7183SOL    HW233012   1.129   4.349   7.396 -3.6363  1.1883  1.5166
 7184SOL     OW33013   1.277   4.105   3.795  0.7916 -0.6888  0.5914
 7184SOL    HW133014   1.305   4.038   3.733 -0.5860 -0.5026 -0.2190
 7184SOL    HW233015   1.344   4.170   3.772 -0.6493  0.6945  0.3229
 7185SOL     OW33016   1.785   1.649   1.805  0.3460 -0.2341  0.6975
 7185SOL    HW133017   1.805   1.644   1.899  0.4903 -0.4401  0.6553
 7185SOL    HW233018   1.721   1.579   1.796  0.8132 -0.4859 -0.7294
 7186SOL     OW33019   4.523   4.376   8.785 -0.4083  0.7554  0.3192
 7186SOL    HW133020   4.571   4.446   8.829 -0.8717 -0.1316  2.2314
 7186SOL    HW233021   4.448   4.374   8.845 -1.3808 -0.3891 -0.9274
 7187SOL     OW33022   4.030   3.739  14.262  0.1155 -0.4717  0.0754
 7187SOL    HW133023   3.955   3.710  14.210 -1.4559  0.9141  1.5441
 7187SOL    HW233024   3.980   3.762  14.341 -0.4243  0.4798 -0.5379
 7188SOL     OW33025   3.800   4.259   8.232  0.0068 -0.3734 -0.2102
 7188SOL    HW133026   3.851   4.332   8.195 -0.3373  0.0693  0.1866
 7188SOL    HW233027   3.755   4.226   8.154 -2.3081  0.1938  0.8926
 7189SOL     OW33028   1.710   1.542   3.147  0.1753  0.3932 -0.1351
 7189SOL    HW133029   1.638   1.482   3.164  0.8474 -0.0491  1.1620
 7189SOL    HW233030   1.670   1.602   3.084 -1.5546 -0.8067 -0.1893
 7190SOL     OW33031   3.016   2.276   6.300 -0.7832  0.0433  0.5461
 7190SOL    HW133032   3.063   2.228   6.232 -2.3216 -2.9003  1.5555
 7190SOL    HW233033   2.938   2.222   6.313 -1.7199  0.6249 -2.8412
 7191SOL     OW33034   2.605   2.526   4.666 -0.2797  0.0883  0.0705
 7191SOL    HW133035   2.545   2.572   4.725 -0.8508  1.4824 -1.6114
 7191SOL    HW233036   2.589   2.439   4.702 -0.9863 -0.2221 -0.9885
 7192SOL     OW33037   0.504   4.457  14.351 -0.7140 -0.1045 -0.4587
 7192SOL    HW133038   0.492   4.367  14.382  0.2516  0.0284  0.3122
 7192SOL    HW233039   0.464   4.508  14.421  0.0924  0.5630 -0.4910
 7193SOL     OW33040   4.516   0.572   5.203  0.1746  0.2183  0.0548
 7193SOL    HW133041   4.502   0.640   5.269  3.3500 -0.1316  1.0802
 7193SOL    HW233042   4.491   0.625   5.128 -0.3719 -0.0091  0.0729
 7194SOL     OW33043   2.545   4.093   3.966 -1.1208 -0.2308  0.3006
 7194SOL    HW133044   2.536   4.053   4.052 -2.1045  1.7892  1.1244
 7194SOL    HW233045   2.518   4.183   3.982  0.1679 -0.2192  2.2967
 7195SOL     OW33046   2.434   1.428   5.661 -0.4068 -0.5260  0.1281
 7195SOL    HW133047   2.449   1.392   5.748 -1.0830 -0.6187  0.2052
 7195SOL    HW233048   2.504   1.384   5.612  1.9183  4.1324 -0.7580
 7196SOL     OW33049   3.599   2.087   6.560  0.0913  0.2816 -0.3068
 7196SOL    HW133050   3.653   2.139   6.501  0.0836  0.8887  0.2097
 7196SOL    HW233051   3.661   2.049   6.622  0.5504 -0.4039 -1.1893
 7197SOL     OW33052   0.994   3.274   0.239  0.1627  0.6364 -0.2432
 7197SOL    HW133053   0.995   3.285   0.334 -1.2559 -1.2555  0.0094
 7197SOL    HW233054   0.899   3.267   0.228  0.0140 -0.5106  1.7148
 7198SOL     OW33055   3.171   2.806   1.772  0.1096  0.4008 -0.2390
 7198SOL    HW133056   3.265   2.792   1.788 -0.0577 -0.4967 -0.0597
 7198SOL    HW233057   3.146   2.854   1.851  0.5375 -1.6174  1.1251
 7199SOL     OW33058   1.360   0.952   8.821 -0.1897 -0.2407  0.2009
 7199SOL    HW133059   1.268   0.976   8.809 -0.0196  0.8683  1.1260
 7199SOL    HW233060   1.394   0.979   8.735  1.0813 -0.5618  0.6056
 7200SOL     OW33061   2.197   0.992   3.364  0.0998 -0.2814 -0.4733
 7200SOL    HW133062   2.147   0.917   3.332  0.1877 -0.5764  0.0874
 7200SOL    HW233063   2.139   1.029   3.430 -0.2252 -1.0536 -0.3164
 7201SOL     OW33064   0.655   0.212   4.056 -0.4973  0.0014 -0.2126
 7201SOL    HW133065   0.580   0.174   4.010 -0.3286 -1.1644  0.4771
 7201SOL    HW233066   0.691   0.282   4.002 -0.8760  1.0465  0.8863
 7202SOL     OW33067   2.846   0.765   0.983 -0.2128 -0.0708  0.3736
 7202SOL    HW133068   2.778   0.743   0.919  1.7081 -0.7410 -1.3887
 7202SOL    HW233069   2.917   0.802   0.932 -1.0932 -1.3059 -1.7308
 7203SOL     OW33070   1.953   1.258   3.199 -0.3603  0.0832 -1.0287
 7203SOL    HW133071   1.868   1.266   3.156 -0.0222  0.2265 -1.6741
 7203SOL    HW233072   1.943   1.178   3.250 -3.0786  0.9841 -0.1620
 7204SOL     OW33073   3.791   4.618  14.065  0.0693 -1.2294  0.6232
 7204SOL    HW133074   3.697   4.630  14.062  0.3935  1.6349  1.7022
 7204SOL    HW233075   3.828   4.706  14.063  0.1431 -1.2960 -1.9866
 7205SOL     OW33076   4.337   0.306  12.044 -0.0565 -0.0402 -0.9361
 7205SOL    HW133077   4.350   0.212  12.031 -1.8395 -0.2205 -1.5122
 7205SOL    HW233078   4.393   0.335  11.973  1.1323  1.4823  0.6438
 7206SOL     OW33079   1.707   0.417   2.945 -0.1029  0.1471 -0.1491
 7206SOL    HW133080   1.659   0.414   2.862 -0.8726 -0.4881  0.3260
 7206SOL    HW233081   1.722   0.324   2.963 -2.1065 -0.0975  0.1806
 7207SOL     OW33082   1.211   0.321   6.475  0.5532 -0.2541  0.4638
 7207SOL    HW133083   1.257   0.398   6.508 -1.0638  0.6747  0.5147
 7207SOL    HW233084   1.157   0.351   6.403 -3.0585 -1.0385  2.8161
 7208SOL     OW33085   2.098   1.524   8.486 -0.3199  0.0525 -0.3005
 7208SOL    HW133086   2.055   1.490   8.407 -1.9766 -1.9014  1.4471
 7208SOL    HW233087   2.124   1.440   8.523 -2.3981 -1.1547 -1.6015
 7209SOL     OW33088   0.675   2.368   9.522 -0.4798  0.0450 -0.6006
 7209SOL    HW133089   0.744   2.427   9.490 -1.5971  0.7321 -1.7485
 7209SOL    HW233090   0.706   2.284   9.489 -0.9197 -0.0467 -0.7783
 7210SOL     OW33091   2.976   4.497   8.326  0.4355  0.1100 -0.4535
 7210SOL    HW133092   3.015   4.554   8.393  2.6662 -1.1455 -0.7140
 7210SOL    HW233093   2.884   4.509   8.350  0.9200  0.3664  1.2889
 7211SOL     OW33094   3.603   0.556   4.258  0.5562  0.5712 -0.2960
 7211SOL    HW133095   3.572   0.488   4.199 -3.1306  1.1159  1.0151
 7211SOL    HW233096   3.528   0.610   4.284  0.5359  0.5952 -0.4058
 7212SOL     OW33097   3.105   4.376   9.639  0.5669 -0.0398  0.2156
 7212SOL    HW133098   3.082   4.301   9.694  0.3324  0.8683  1.3716
 7212SOL    HW233099   3.065   4.369   9.553  2.2699  2.1056 -0.7554
 7213SOL     OW33100   0.434   2.022  17.182 -0.6132  0.1803 -0.3134
 7213SOL    HW133101   0.506   1.986  17.130 -0.3722  1.8782 -1.1604
 7213SOL    HW233102   0.461   1.999  17.271 -2.4086 -2.9036 -0.5747
 7214SOL     OW33103   2.110   1.768   3.153 -0.1388 -0.6222  0.2711
 7214SOL    HW133104   2.106   1.676   3.178  1.5469 -0.7035  0.2197
 7214SOL    HW233105   2.198   1.770   3.116 -0.1823 -2.0514  0.1133
 7215SOL     OW33106   2.448   1.297   6.499  0.0510  0.5282  0.0925
 7215SOL    HW133107   2.399   1.217   6.517 -3.1214  2.3618 -0.4737
 7215SOL    HW233108   2.441   1.337   6.586 -0.1762 -0.3318  0.4735
 7216SOL     OW33109   0.655   0.319  16.867  1.4333 -0.8826 -0.6144
 7216SOL    HW133110   0.682   0.376  16.938 -0.0942 -1.3809  0.3665
 7216SOL    HW233111   0.612   0.383  16.811  1.3594 -0.4093 -0.0082
 7217SOL     OW33112   4.481   1.264   0.330 -0.3942  0.2990 -0.5317
 7217SOL    HW133113   4.482   1.286   0.423 -1.0362  2.8523 -1.1325
 7217SOL    HW233114   4.567   1.297   0.306 -0.5911  0.5570 -0.8834
 7218SOL     OW33115   3.188   3.488   1.085 -0.0166 -0.4248  0.6271
 7218SOL    HW133116   3.241   3.506   1.008  1.6449 -0.5088  1.7472
 7218SOL    HW233117   3.112   3.442   1.051  0.0482 -1.7548  2.2509
 7219SOL     OW33118   1.947   3.843   3.981 -0.4413 -0.0643 -0.4200
 7219SOL    HW133119   1.883   3.846   3.910 -2.8320 -2.3814  1.6143
 7219SOL    HW233120   1.892   3.860   4.057  0.6393  1.8940 -0.0740
 7220SOL     OW33121   0.510   1.835   4.080 -0.3320 -0.0058 -0.1924
 7220SOL    HW133122   0.586   1.829   4.022 -0.7876 -0.3095 -0.7491
 7220SOL    HW233123   0.507   1.743   4.107  1.8808  0.1945  0.7848
 7221SOL     OW33124   2.764   3.549  12.200 -0.0396  0.3914 -0.3222
 7221SOL    HW133125   2.676   3.532  12.168 -0.0362  1.2965 -0.8102
 7221SOL    HW233126   2.811   3.550  12.116 -2.7997  0.3374 -1.8835
 7222SOL     OW33127   2.713   4.008   0.729 -0.2249 -0.4774  0.1199
 7222SOL    HW133128   2.709   4.040   0.819 -2.8125  0.4809 -0.3389
 7222SOL    HW233129   2.777   4.068   0.690  1.0822 -2.0597 -0.2061
 7223SOL     OW33130   0.912   1.715   7.386  0.3736 -0.3409 -0.0723
 7223SOL    HW133131   0.921   1.737   7.293 -1.7639  1.6090  0.1623
 7223SOL    HW233132   0.827   1.673   7.380 -1.1118  2.6600  0.0351
 7224SOL     OW33133   2.299   1.150  13.448 -0.0609 -0.1569  0.5107
 7224SOL    HW133134   2.309   1.183  13.359 -0.6207  0.3013  0.6214
 7224SOL    HW233135   2.330   1.060  13.444 -0.3577 -0.1974 -0.7678
 7225SOL     OW33136   0.676   2.818  14.657  0.1457  0.1896  0.0984
 7225SOL    HW133137   0.653   2.732  14.692 -1.0005 -0.3504 -1.9766
 7225SOL    HW233138   0.593   2.829  14.610 -0.2053 -1.0810  0.4089
 7226SOL     OW33139   4.025   3.344  17.556 -0.3756 -0.3911 -0.2331
 7226SOL    HW133140   4.120   3.335  17.548 -0.3190  0.9320 -1.1046
 7226SOL    HW233141   3.995   3.291  17.482  0.5954 -1.4705  0.1534
 7227SOL     OW33142   3.053   0.304   8.406  0.2878 -0.0901 -0.1149
 7227SOL    HW133143   2.977   0.356   8.381 -1.1500 -1.8342  0.5996
 7227SOL    HW233144   3.104   0.360   8.464  0.5886 -0.8941  0.3920
 7228SOL     OW33145   1.111   4.309   8.633 -0.1803 -0.0372  0.1824
 7228SOL    HW133146   1.053   4.292   8.558 -0.8884 -0.5005  0.8390
 7228SOL    HW233147   1.120   4.405   8.635  1.8304 -0.2397  0.6900
 7229SOL     OW33148   4.260   4.690   5.496  0.3141 -0.1488 -0.0329
 7229SOL    HW133149   4.188   0.015   5.457  0.3483  0.9031  1.2986
 7229SOL    HW233150   4.216   4.663   5.577  2.2274  0.8790  1.3372
 7230SOL     OW33151   4.148   3.621   2.975 -0.4829  0.4907  0.5993
 7230SOL    HW133152   4.074   3.680   2.967 -1.2511 -0.8217 -1.9559
 7230SOL    HW233153   4.210   3.673   3.025  1.1664  2.3460 -3.3866
 7231SOL     OW33154   1.910   1.935   2.392 -0.6730  0.1682  0.0743
 7231SOL    HW133155   1.881   2.016   2.350  0.0919  0.4539  0.1076
 7231SOL    HW233156   1.949   1.962   2.475 -1.9038  0.6897  0.4786
 7232SOL     OW33157   3.530   4.334   2.494  0.0270 -0.7982 -0.2895
 7232SOL    HW133158   3.622   4.313   2.508  0.0105  1.1560  2.7729
 7232SOL    HW233159   3.537   4.428   2.509  0.3859 -0.5635 -1.9615
 7233SOL     OW33160   4.025   4.180   8.908  0.3387 -0.2631 -0.1555
 7233SOL    HW133161   4.034   4.237   8.985  0.6998 -1.7773  0.9148
 7233SOL    HW233162   3.940   4.214   8.878 -0.6653 -0.7647  2.1014
 7234SOL     OW33163   2.329   2.490   4.101 -0.0775 -0.1304 -0.6265
 7234SOL    HW133164   2.404   2.459   4.151 -0.2515  0.6255  0.1018
 7234SOL    HW233165   2.296   2.556   4.162  1.2994 -0.2579  0.2626
 7235SOL     OW33166   4.593   3.444   1.410  0.0181 -0.3467  0.5552
 7235SOL    HW133167   4.523   3.493   1.367  0.7594  1.1965  1.0883
 7235SOL    HW233168   4.613   3.496   1.489 -2.6914  0.7143  0.5396
 7236SOL     OW33169   1.685   0.664   3.080 -0.0121 -0.0159  0.3535
 7236SOL    HW133170   1.683   0.591   3.142 -0.7132 -1.3018 -1.2145
 7236SOL    HW233171   1.663   0.615   3.001  1.4814  2.2210 -1.4612
 7237SOL     OW33172   4.500   0.710  11.725  0.2390 -0.0277 -0.4012
 7237SOL    HW133173   4.592   0.702  11.752  0.1756 -2.2787 -0.8427
 7237SOL    HW233174   4.455   0.705  11.810  1.8656  1.0495  0.5304
 7238SOL     OW33175   1.110   2.097   6.449  0.0203  0.0514 -0.4156
 7238SOL    HW133176   1.061   2.121   6.370 -0.7352  1.0872  0.3816
 7238SOL    HW233177   1.104   2.001   6.454 -2.0082  0.2421  0.4973
 7239SOL     OW33178   2.565   2.838   3.517 -0.0154 -0.5706 -0.3099
 7239SOL    HW133179   2.632   2.854   3.585  1.1851 -1.8290 -1.2131
 7239SOL    HW233180   2.481   2.848   3.562 -0.6805  1.9119 -2.0922
 7240SOL     OW33181   2.726   2.298  13.823 -0.4390 -0.6404 -0.1833
 7240SOL    HW133182   2.813   2.309  13.860  0.4191 -3.1254 -1.4940
 7240SOL    HW233183   2.699   2.206  13.820  2.1273 -1.3176 -1.5499
 7241SOL     OW33184   1.444   3.946   3.613  0.2679 -0.3365 -0.2244
 7241SOL    HW133185   1.539   3.955   3.612  0.1340  1.1343  0.0156
 7241SOL    HW233186   1.430   4.007   3.540  0.9430  0.4952  0.3312
 7242SOL     OW33187   3.883   1.247   4.087 -0.4131  0.5342  0.4544
 7242SOL    HW133188   3.930   1.169   4.057 -1.8792  0.2237 -0.9930
 7242SOL    HW233189   3.940   1.306   4.039  1.9765 -2.4490 -0.3508
 7243SOL     OW33190   0.443   3.103  17.147  0.5191 -0.2279  0.2841
 7243SOL    HW133191   0.428   3.021  17.193  0.9201 -0.1606  0.5345
 7243SOL    HW233192   0.358   3.147  17.159  1.0086  1.0621 -1.0212
 7244SOL     OW33193   1.942   1.375   4.587  0.4114 -0.3654 -0.3077
 7244SOL    HW133194   1.895   1.317   4.526 -0.4222  2.1312 -2.0292
 7244SOL    HW233195   1.981   1.420   4.513 -0.3000 -2.6793 -2.0926
 7245SOL     OW33196   1.443   4.375   4.336 -0.2431 -0.1920 -0.2566
 7245SOL    HW133197   1.516   4.428   4.366 -0.6759 -0.6608  1.6093
 7245SOL    HW233198   1.422   4.315   4.408  0.8958  1.5451  1.4935
 7246SOL     OW33199   2.520   4.141   6.440  0.2559 -0.2826  0.2448
 7246SOL    HW133200   2.544   4.226   6.477  1.9701 -1.7529  2.5380
 7246SOL    HW233201   2.427   4.150   6.460  0.7773  1.5475  1.8568
 7247SOL     OW33202   3.400   2.674   6.916 -0.0558 -0.4916  0.5854
 7247SOL    HW133203   3.377   2.594   6.869 -0.6121 -1.3431  2.3257
 7247SOL    HW233204   3.339   2.681   6.989  0.4121 -0.0502  0.9389
 7248SOL     OW33205   4.521   0.035   5.729 -0.0167 -0.4564 -0.4373
 7248SOL    HW133206   4.585   4.717   5.672 -0.1752  0.9643 -1.6944
 7248SOL    HW233207   4.553   0.124   5.738 -0.4874 -0.4319  1.0191
 7249SOL     OW33208   4.259   1.981   4.143 -0.2138  0.3000 -0.0676
 7249SOL    HW133209   4.250   1.941   4.230  0.0661  0.0142 -0.1675
 7249SOL    HW233210   4.237   2.072   4.162 -0.9305  0.2284 -0.5922
 7250SOL     OW33211   1.402   1.990   7.135  0.1082 -0.0163 -0.5341
 7250SOL    HW133212   1.381   2.045   7.211 -1.2689 -0.3913 -0.6530
 7250SOL    HW233213   1.367   1.904   7.156 -1.0465  0.8901  1.2357
 7251SOL     OW33214   2.308   0.489  16.711  0.4266 -0.2445  0.2495
 7251SOL    HW133215   2.220   0.527  16.717  1.1238  1.8154 -2.7123
 7251SOL    HW233216   2.351   0.529  16.787 -0.9020  1.0133  0.3465
 7252SOL     OW33217   0.108   0.587   8.319 -0.7839 -0.1484 -0.1929
 7252SOL    HW133218   0.172   0.650   8.286 -2.2282  1.7230  0.5755
 7252SOL    HW233219   0.159   0.507   8.331  0.3110  0.8802  2.0224
 7253SOL     OW33220   0.723   2.462   3.767  0.4116 -0.1652 -0.0385
 7253SOL    HW133221   0.697   2.445   3.676  1.9046 -2.1248 -0.0944
 7253SOL    HW233222   0.699   2.554   3.776 -0.2495 -0.3599  0.1651
 7254SOL     OW33223   0.623   2.603   6.562 -0.2841  0.5705 -0.2283
 7254SOL    HW133224   0.679   2.570   6.492  1.9203 -1.2360  2.3835
 7254SOL    HW233225   0.666   2.560   6.636 -1.4127 -0.5931 -0.2450
 7255SOL     OW33226   3.464   1.694   9.172  0.2390  0.6325 -0.3249
 7255SOL    HW133227   3.503   1.609   9.189  0.9306  0.7542 -1.2793
 7255SOL    HW233228   3.523   1.750   9.223  0.0961  0.0803  0.4383
 7256SOL     OW33229   4.189   1.058  10.323 -0.8468  0.3971  0.2388
 7256SOL    HW133230   4.227   0.971  10.331 -2.0335 -0.1997 -0.5894
 7256SOL    HW233231   4.254   1.091  10.260 -1.5468  0.1386 -0.6248
 7257SOL     OW33232   2.386   1.073   3.624 -0.7049 -0.7124 -0.1899
 7257SOL    HW133233   2.414   0.982   3.629 -1.8122 -0.9521  1.8151
 7257SOL    HW233234   2.297   1.070   3.658 -1.7533 -0.4084 -2.8596
 7258SOL     OW33235   3.676   1.924   4.191 -0.0821 -0.1617 -0.4532
 7258SOL    HW133236   3.688   1.836   4.226  2.3806  0.6611  0.8184
 7258SOL    HW233237   3.696   1.906   4.099 -0.3705  1.9474 -0.9242
 7259SOL     OW33238   0.910   3.879   3.913  0.3165  0.0690  0.4499
 7259SOL    HW133239   0.908   3.802   3.971 -1.4223  0.4911  0.9386
 7259SOL    HW233240   0.816   3.869   3.895 -0.0024  0.1221  2.0462
 7260SOL     OW33241   4.564   2.856   5.311  0.3259 -0.4292  0.2655
 7260SOL    HW133242   4.503   2.836   5.382  0.9865 -2.3309  0.2720
 7260SOL    HW233243   4.590   2.766   5.294 -1.0157 -0.6525 -0.5812
 7261SOL     OW33244   3.787   2.518   8.288 -0.2622  0.2569 -0.1754
 7261SOL    HW133245   3.868   2.568   8.298  0.6012 -1.0912 -0.4723
 7261SOL    HW233246   3.717   2.565   8.334 -0.5633  1.5152 -1.8851
 7262SOL     OW33247   3.769   4.136   5.619  0.0190 -0.0538 -0.2439
 7262SOL    HW133248   3.780   4.177   5.704 -4.2738 -1.8579  1.1904
 7262SOL    HW233249   3.797   4.045   5.632  1.0969  0.5610  1.7114
 7263SOL     OW33250   0.677   0.766   8.271  0.8587  0.2435  0.0859
 7263SOL    HW133251   0.632   0.786   8.353 -0.5359 -1.3146 -0.2793
 7263SOL    HW233252   0.768   0.762   8.301  0.8255 -1.4616 -0.0179
 7264SOL     OW33253   2.274   1.521  14.429  0.0681 -0.6882  0.1222
 7264SOL    HW133254   2.341   1.510  14.497  0.2837 -1.3967 -0.2016
 7264SOL    HW233255   2.226   1.595  14.466  1.0644 -0.8212  1.6857
 7265SOL     OW33256   2.599   2.019   0.450 -0.1330 -0.0548 -0.3259
 7265SOL    HW133257   2.533   2.071   0.404  1.0325  0.3127 -1.5699
 7265SOL    HW233258   2.563   1.932   0.465  0.3800  0.2203  2.5097
 7266SOL     OW33259   4.145   1.442  12.942 -0.0193  0.1301 -0.0117
 7266SOL    HW133260   4.182   1.443  12.854 -2.3504 -0.8996 -1.0023
 7266SOL    HW233261   4.227   1.460  12.989  0.2008  0.0213 -0.3470
 7267SOL     OW33262   3.368   2.636   2.516  0.0847  0.7844 -0.4024
 7267SOL    HW133263   3.317   2.715   2.534  1.1118  1.4943 -0.5996
 7267SOL    HW233264   3.437   2.629   2.582  0.2511 -0.1274 -0.6830
 7268SOL     OW33265   3.481   1.202   0.904 -0.0160 -0.4685 -0.4577
 7268SOL    HW133266   3.505   1.132   0.843  0.1520  0.1052 -1.0388
 7268SOL    HW233267   3.568   1.235   0.927 -0.5694  1.4426 -1.1738
 7269SOL     OW33268   3.241   1.844   5.140  0.0496 -0.1623  0.2262
 7269SOL    HW133269   3.273   1.924   5.099 -0.2985  0.2614  0.7683
 7269SOL    HW233270   3.160   1.818   5.095  0.1057 -1.2920  0.7857
 7270SOL     OW33271   0.281   3.794  15.153  0.6147  0.0647  0.0148
 7270SOL    HW133272   0.307   3.872  15.103  2.5115 -1.1117 -0.8126
 7270SOL    HW233273   0.188   3.791  15.130  0.2158 -1.1556  1.7816
 7271SOL     OW33274   1.182   4.179   3.180  0.5376 -0.2487 -0.0474
 7271SOL    HW133275   1.192   4.237   3.104  0.6517  0.4374  0.4875
 7271SOL    HW233276   1.095   4.209   3.208 -0.6021 -1.0546 -2.6946
 7272SOL     OW33277   2.792   1.083  12.874  0.6203 -0.3808  0.2969
 7272SOL    HW133278   2.845   1.009  12.903 -1.6431 -1.9666  0.3742
 7272SOL    HW233279   2.856   1.154  12.883  1.5531 -0.8438 -2.9047
 7273SOL     OW33280   0.605   4.045   8.301 -0.9521  0.0943 -0.6142
 7273SOL    HW133281   0.545   3.970   8.307 -1.8507  0.8972  0.5037
 7273SOL    HW233282   0.581   4.096   8.379  2.8613  2.0649 -0.7421
 7274SOL     OW33283   3.151   3.356   3.147  0.1661  0.4915  0.4862
 7274SOL    HW133284   3.069   3.314   3.122 -0.3535  0.2198  2.6274
 7274SOL    HW233285   3.211   3.290   3.112  0.4470  2.1189 -2.0399
 7275SOL     OW33286   1.775   4.229  10.098 -0.5379 -0.1304  0.1494
 7275SOL    HW133287   1.683   4.230  10.069 -0.5114 -0.7830  0.0513
 7275SOL    HW233288   1.769   4.141  10.135  0.7107 -0.5603 -0.7172
 7276SOL     OW33289   1.441   3.014   7.062  0.0696 -0.2504  0.0944
 7276SOL    HW133290   1.489   2.936   7.032  0.6564 -0.2108  0.9397
 7276SOL    HW233291   1.400   3.051   6.984 -0.2769 -4.7269 -1.8719
 7277SOL     OW33292   2.500   4.173   1.066  0.2219 -0.4210 -0.3722
 7277SOL    HW133293   2.471   4.161   0.976 -0.2449  0.9650 -0.4043
 7277SOL    HW233294   2.551   4.093   1.082  0.2512 -0.6950 -1.8007
 7278SOL     OW33295   4.560   4.022  14.959 -0.7536 -0.3878 -0.3549
 7278SOL    HW133296   4.471   3.988  14.948 -0.4007 -1.3491 -0.1728
 7278SOL    HW233297   4.601   4.012  14.873 -0.7936  0.9234 -0.5338
 7279SOL     OW33298   2.042   4.474   3.340 -0.1068  0.3895  0.1169
 7279SOL    HW133299   2.109   4.523   3.388  0.3060 -0.6208  0.5797
 7279SOL    HW233300   2.062   4.385   3.368  0.1103  1.6934  4.2266
 7280SOL     OW33301   3.852   3.821   0.595 -0.0209 -0.3806 -0.1850
 7280SOL    HW133302   3.792   3.851   0.527  1.7793  1.1234 -1.0897
 7280SOL    HW233303   3.939   3.848   0.565 -0.4167 -0.1755 -1.1531
 7281SOL     OW33304   2.377   2.626   5.715 -0.4051 -0.3322  0.2980
 7281SOL    HW133305   2.471   2.613   5.726  0.0846  0.6651 -2.5457
 7281SOL    HW233306   2.386   2.685   5.639  4.2407  0.5150  1.4979
 7282SOL     OW33307   1.311   3.415   3.815  0.3021  0.4212  0.2521
 7282SOL    HW133308   1.391   3.373   3.784  0.3975  0.5399  0.3363
 7282SOL    HW233309   1.256   3.400   3.738  1.6420 -1.2767 -0.3556
 7283SOL     OW33310   1.679   2.721   3.578  0.0320  0.3482  0.4370
 7283SOL    HW133311   1.751   2.783   3.566 -0.3371 -0.2806 -5.1510
 7283SOL    HW233312   1.709   2.646   3.527  1.6192  0.5106  1.1244
 7284SOL     OW33313   1.056   0.095  14.125  0.5571 -0.1877 -0.4046
 7284SOL    HW133314   1.019   0.103  14.214  0.0715  3.4121 -0.9233
 7284SOL    HW233315   1.010   0.021  14.086  0.5837  0.3827 -1.5157
 7285SOL     OW33316   2.536   2.313   0.776 -0.0838  0.8453 -0.5210
 7285SOL    HW133317   2.530   2.409   0.780 -0.0411  0.7894  0.7841
 7285SOL    HW233318   2.442   2.301   0.792 -0.2147  2.1505 -0.2968
 7286SOL     OW33319   1.095   0.981   5.457 -0.0348 -0.0780 -0.6365
 7286SOL    HW133320   1.096   0.951   5.366  0.8058  0.7851 -0.9038
 7286SOL    HW233321   1.026   0.927   5.496 -0.6933  2.4796  1.7301
 7287SOL     OW33322   2.281   0.620   2.824  0.0614  0.3085  0.1818
 7287SOL    HW133323   2.207   0.614   2.885 -0.3384  1.7239 -0.1679
 7287SOL    HW233324   2.238   0.588   2.745  2.6396  1.1118 -1.5779
 7288SOL     OW33325   1.726   3.364   4.779 -0.1484 -0.1233 -0.2496
 7288SOL    HW133326   1.743   3.329   4.691 -1.1229 -2.0118  0.3116
 7288SOL    HW233327   1.634   3.387   4.767 -0.4983  0.1199  2.9694
 7289SOL     OW33328   1.397   2.127   6.448 -0.5035 -0.7447 -0.7013
 7289SOL    HW133329   1.302   2.136   6.448 -0.4722 -0.4199 -1.2696
 7289SOL    HW233330   1.412   2.140   6.355  0.8188  1.6030 -0.1671
 7290SOL     OW33331   1.550   2.924  10.557 -0.6784  0.1790  0.3771
 7290SOL    HW133332   1.644   2.926  10.578 -0.7478 -1.0421  0.8162
 7290SOL    HW233333   1.518   2.839  10.587  1.2204 -0.6134  0.1932
 7291SOL     OW33334   4.447   3.932   9.801  0.0712 -0.2892  0.1291
 7291SOL    HW133335   4.462   3.894   9.888 -0.2144 -0.3595  0.1497
 7291SOL    HW233336   4.361   3.972   9.813 -0.4623 -1.5560  0.6022
 7292SOL     OW33337   1.643   3.607   5.878  0.2094  0.4223 -0.1158
 7292SOL    HW133338   1.636   3.577   5.788 -1.8732  0.6332 -0.0303
 7292SOL    HW233339   1.690   3.532   5.915 -0.9661  0.1861  0.8944
 7293SOL     OW33340   4.593   3.986  13.451 -0.0578  0.2798  0.7503
 7293SOL    HW133341   4.657   4.013  13.386 -2.0893  2.5261 -0.3331
 7293SOL    HW233342   4.525   4.052  13.439  0.6310  1.1786  1.7772
 7294SOL     OW33343   4.403   1.901   6.602  0.5336  0.4585  0.0354
 7294SOL    HW133344   4.474   1.965   6.606  0.6425  0.5426 -3.2218
 7294SOL    HW233345   4.452   1.820   6.615 -0.2213 -0.0462 -0.2448
 7295SOL     OW33346   1.222   4.691   7.442 -0.0124  0.2321 -0.1735
 7295SOL    HW133347   1.143   0.015   7.461  0.0392  0.0547  0.5353
 7295SOL    HW233348   1.185   4.606   7.418  0.0296  0.1777 -0.0493
 7296SOL     OW33349   1.106   0.554  10.315  0.3769  0.0165 -0.2399
 7296SOL    HW133350   1.033   0.615  10.306  0.6793  0.2595 -0.9804
 7296SOL    HW233351   1.182   0.612  10.318  0.1060  0.3039  1.5021
 7297SOL     OW33352   4.427   3.815  16.818  0.0824  0.0252 -0.1658
 7297SOL    HW133353   4.458   3.899  16.850 -0.0557  0.4444 -1.1353
 7297SOL    HW233354   4.333   3.826  16.830  0.2293 -0.1395  1.0909
 7298SOL     OW33355   0.170   4.446   3.734 -0.3036 -0.6595 -0.4242
 7298SOL    HW133356   0.252   4.475   3.693 -0.9393  0.2923 -1.0300
 7298SOL    HW233357   0.103   4.478   3.673  0.3219  1.2383 -0.1169
 7299SOL     OW33358   0.762   1.752  16.270 -0.2510  0.4440 -0.0606
 7299SOL    HW133359   0.846   1.794  16.253 -0.2713  0.3094 -0.4983
 7299SOL    HW233360   0.732   1.757  16.179 -2.6118 -2.2508  0.5751
 7300SOL     OW33361   2.367   4.192   1.516  0.1718 -0.3015 -0.0294
 7300SOL    HW133362   2.425   4.234   1.452 -0.5007  0.3048 -0.2336
 7300SOL    HW233363   2.413   4.109   1.529 -0.9651 -1.0725 -0.8935
 7301SOL     OW33364   0.348   0.900   1.523 -0.0483  0.9557 -0.8549
 7301SOL    HW133365   0.372   0.968   1.460 -0.9835  1.4869 -0.6428
 7301SOL    HW233366   0.406   0.929   1.593  2.2479 -2.3636 -1.3925
 7302SOL     OW33367   0.571   3.523   4.075  0.1435 -0.1552  0.3801
 7302SOL    HW133368   0.660   3.498   4.050 -0.4131 -0.4298 -1.3555
 7302SOL    HW233369   0.553   3.611   4.044  2.6253 -0.4173 -1.7703
 7303SOL     OW33370   4.018   0.876   1.780  0.0799 -0.0042 -0.2133
 7303SOL    HW133371   4.078   0.932   1.730 -1.8494  1.7655 -0.5832
 7303SOL    HW233372   4.036   0.789   1.744  0.5105 -0.2725  0.6680
 7304SOL     OW33373   2.740   4.252   1.643  0.2389 -0.1795 -0.3321
 7304SOL    HW133374   2.730   4.301   1.561  1.1922 -1.0768 -0.9879
 7304SOL    HW233375   2.707   4.307   1.714  3.5066  0.1326  0.9307
 7305SOL     OW33376   3.565   4.108   4.300  0.3783  0.0307  0.0407
 7305SOL    HW133377   3.629   4.171   4.334  0.7012  1.2670 -2.7920
 7305SOL    HW233378   3.499   4.169   4.266  0.8999  1.2755  1.2695
 7306SOL     OW33379   4.725   2.844   6.340 -0.5981 -0.0689 -0.0637
 7306SOL    HW133380   0.019   2.911   6.405  1.9092 -0.3650 -0.5018
 7306SOL    HW233381   4.682   2.779   6.395 -1.4628  1.7869  1.4292
 7307SOL     OW33382   0.427   1.599   7.365 -0.2308 -0.1396  0.6342
 7307SOL    HW133383   0.444   1.546   7.443 -2.3839 -2.8960 -0.7595
 7307SOL    HW233384   0.332   1.598   7.358  0.0274  1.5209 -2.9717
 7308SOL     OW33385   0.558   2.039  12.283 -0.1408  0.7981  0.0097
 7308SOL    HW133386   0.642   2.049  12.237 -0.1486 -0.9214 -0.3832
 7308SOL    HW233387   0.524   1.969  12.227 -0.5085  0.6894  0.3761
 7309SOL     OW33388   0.368   2.615   4.799 -0.3998  0.6125 -0.5667
 7309SOL    HW133389   0.280   2.609   4.761  0.0157  1.5782 -1.6868
 7309SOL    HW233390   0.408   2.643   4.717 -0.7728  0.4936 -0.7878
 7310SOL     OW33391   2.892   3.320   3.673 -0.2763 -0.3146 -0.0881
 7310SOL    HW133392   2.977   3.333   3.630 -0.4908  1.5688  0.0799
 7310SOL    HW233393   2.863   3.237   3.633  4.1767 -1.9339  0.0001
 7311SOL     OW33394   3.422   0.471   8.451 -0.2661  0.2719  0.4549
 7311SOL    HW133395   3.504   0.497   8.493 -0.2557 -0.5698  0.9568
 7311SOL    HW233396   3.448   0.397   8.395  0.1163  0.2868  0.6133
 7312SOL     OW33397   3.170   1.024  10.230  0.3368 -0.5473 -0.5421
 7312SOL    HW133398   3.150   0.932  10.213  0.5114 -0.7489  0.3354
 7312SOL    HW233399   3.181   1.018  10.325  2.2738 -0.0715 -0.7321
 7313SOL     OW33400   1.601   3.061   8.952 -0.1967 -0.1959  0.2317
 7313SOL    HW133401   1.688   3.086   8.983 -0.2197  0.1526  0.0073
 7313SOL    HW233402   1.613   3.023   8.865 -0.4134  0.4131 -0.0666
 7314SOL     OW33403   1.595   1.320  13.571  0.5403 -0.3778  0.4442
 7314SOL    HW133404   1.650   1.348  13.644  0.9241 -0.9204  0.3598
 7314SOL    HW233405   1.579   1.406  13.531 -0.9617 -1.0315 -0.3234
 7315SOL     OW33406   0.953   2.430  16.588  0.2722  0.0235 -0.1130
 7315SOL    HW133407   1.008   2.501  16.555  0.0506 -0.3007 -1.1875
 7315SOL    HW233408   0.893   2.421  16.513  0.5252 -0.9470 -0.2014
 7316SOL     OW33409   0.308   2.687   5.053  0.1261  0.1765  0.2885
 7316SOL    HW133410   0.329   2.622   4.986  0.4694  0.7113 -0.1222
 7316SOL    HW233411   0.372   2.754   5.027  0.3353  0.0726  0.5369
 7317SOL     OW33412   3.870   0.225   4.469  0.2775  0.4305  0.5379
 7317SOL    HW133413   3.951   0.248   4.515  0.4705 -0.5849  0.7123
 7317SOL    HW233414   3.878   0.131   4.453 -0.2692  0.6344 -0.8680
 7318SOL     OW33415   0.106   3.645   0.245  0.2344 -0.1705 -0.0129
 7318SOL    HW133416   0.128   3.642   0.151 -0.1101  2.1035 -0.1769
 7318SOL    HW233417   0.186   3.625   0.294 -0.5253 -1.5568  0.6597
 7319SOL     OW33418   3.220   4.661   9.404 -0.2962  0.3029 -0.0701
 7319SOL    HW133419   3.291   4.596   9.405 -0.5544  0.0106 -0.6118
 7319SOL    HW233420   3.190   4.659   9.313  1.9772  0.9453 -0.8442
 7320SOL     OW33421   0.612   3.033   5.249  0.4741  0.3591  0.3441
 7320SOL    HW133422   0.567   3.079   5.321 -2.1199 -1.8656  0.1118
 7320SOL    HW233423   0.541   3.013   5.189  2.5918  0.1645 -2.0669
 7321SOL     OW33424   3.345   0.654   8.851 -0.1161  0.2449  0.3016
 7321SOL    HW133425   3.432   0.654   8.891  0.6483  0.0297 -1.3597
 7321SOL    HW233426   3.296   0.715   8.907  0.5318  0.1370  0.9810
 7322SOL     OW33427   2.089   1.515   9.268  0.4831  0.1662  0.6076
 7322SOL    HW133428   2.064   1.588   9.212 -1.3579 -1.8485 -1.1894
 7322SOL    HW233429   2.184   1.516   9.263  0.3876 -2.5899 -1.6092
 7323SOL     OW33430   0.475   3.775   7.997  0.4395  0.0255  0.8717
 7323SOL    HW133431   0.412   3.837   7.959 -0.5783 -2.0179 -0.8457
 7323SOL    HW233432   0.426   3.739   8.071 -2.7340 -0.6472 -1.5187
 7324SOL     OW33433   3.537   0.163   1.807 -0.0180 -0.0847  0.2083
 7324SOL    HW133434   3.533   0.222   1.883 -1.8209  1.6601 -1.2568
 7324SOL    HW233435   3.443   0.149   1.792 -0.2430  1.3276  0.2857
 7325SOL     OW33436   4.059   0.965  17.464 -0.0289 -0.6875  0.4924
 7325SOL    HW133437   4.139   1.000  17.502 -0.2494 -0.9569  1.1910
 7325SOL    HW233438   4.039   1.036  17.402  0.7314 -0.7293  0.1977
 7326SOL     OW33439   2.320   1.443  13.029 -0.7140  0.4342  0.2308
 7326SOL    HW133440   2.362   1.504  13.090  2.3887 -0.4020 -1.0984
 7326SOL    HW233441   2.389   1.451  12.963  0.3886  1.0222  1.4701
 7327SOL     OW33442   3.826   2.665   9.796  0.1909  0.0641  0.8237
 7327SOL    HW133443   3.904   2.659   9.851 -0.6283 -2.0586  1.7398
 7327SOL    HW233444   3.775   2.587   9.820  1.3853 -0.6559  1.0050
 7328SOL     OW33445   0.146   2.068  15.053  0.4448 -0.4745  0.1819
 7328SOL    HW133446   0.077   2.069  15.120 -0.9055 -1.0496 -1.2076
 7328SOL    HW233447   0.112   2.127  14.986 -2.4853  0.8126  2.7620
 7329SOL     OW33448   3.580   1.863   2.223  0.5252  0.5018 -0.0475
 7329SOL    HW133449   3.650   1.925   2.203  2.1948 -1.9103 -1.6196
 7329SOL    HW233450   3.581   1.851   2.318  0.5233  0.5181 -0.0454
 7330SOL     OW33451   1.525   3.608   3.224 -0.8607 -0.0322 -0.0226
 7330SOL    HW133452   1.556   3.677   3.283 -0.0749  1.1884 -1.8516
 7330SOL    HW233453   1.445   3.649   3.192 -1.1206  0.2379  0.9684
 7331SOL     OW33454   4.079   2.210   2.672 -0.0116 -0.2610 -0.3735
 7331SOL    HW133455   4.114   2.298   2.662  0.1605 -0.3053 -0.1513
 7331SOL    HW233456   4.163   2.166   2.684  0.0605 -0.1664 -0.5368
 7332SOL     OW33457   1.814   3.022  17.080  0.4209 -0.0954  0.1891
 7332SOL    HW133458   1.897   2.983  17.109 -0.7805 -1.2958  1.9753
 7332SOL    HW233459   1.834   3.115  17.086  0.7886 -0.1320 -0.4517
 7333SOL     OW33460   4.193   3.091   5.043 -0.1159  0.8380  0.3796
 7333SOL    HW133461   4.268   3.032   5.043 -2.2673 -1.8805 -2.8309
 7333SOL    HW233462   4.139   3.054   4.974 -0.0923  0.9943  0.2777
 7334SOL     OW33463   3.416   4.014   8.007 -0.0590 -1.0137  0.6653
 7334SOL    HW133464   3.443   4.104   8.028 -0.0943 -0.9028  0.2433
 7334SOL    HW233465   3.480   3.987   7.942 -0.8795  0.3988 -0.7222
 7335SOL     OW33466   3.921   2.262   1.142  0.6066 -0.2009 -0.0448
 7335SOL    HW133467   3.948   2.192   1.082 -0.6381 -0.7523  0.0517
 7335SOL    HW233468   3.882   2.322   1.078 -1.6066 -2.1160 -0.4892
 7336SOL     OW33469   0.499   1.387   5.413  0.2158  0.0165 -0.1652
 7336SOL    HW133470   0.431   1.409   5.476  0.5737  1.6877 -0.3741
 7336SOL    HW233471   0.573   1.355   5.463  0.4341 -0.6733 -0.9286
 7337SOL     OW33472   0.807   2.650  17.575  0.5140  0.4218  0.5542
 7337SOL    HW133473   0.854   2.637  17.658  1.5484  1.1041  0.0603
 7337SOL    HW233474   0.839   2.734  17.544  4.8813 -1.0024  1.1319
 7338SOL     OW33475   0.251   3.166   8.285  0.2431 -0.8382 -0.0068
 7338SOL    HW133476   0.165   3.170   8.327  0.2217 -1.5574  0.0165
 7338SOL    HW233477   0.310   3.142   8.358 -1.5723 -3.1262  0.7147
 7339SOL     OW33478   2.381   2.890   8.968  0.0168  0.6424  0.0593
 7339SOL    HW133479   2.411   2.980   8.954 -2.4255  1.5594  0.5907
 7339SOL    HW233480   2.326   2.905   9.046 -0.9432 -1.7248 -0.1610
 7340SOL     OW33481   2.651   3.578  13.592 -0.5329  0.0970 -0.0564
 7340SOL    HW133482   2.624   3.630  13.667  1.8898 -0.8848  1.4967
 7340SOL    HW233483   2.725   3.628  13.558 -0.2428 -1.1680 -1.3340
 7341SOL     OW33484   3.710   1.265   9.994  0.1258 -0.1422  0.0906
 7341SOL    HW133485   3.774   1.272   9.923 -0.6318 -1.2127 -0.6915
 7341SOL    HW233486   3.686   1.173   9.995  0.5235 -0.2448  0.1913
 7342SOL     OW33487   1.607   2.403   8.528 -0.0120 -0.1575  0.2740
 7342SOL    HW133488   1.569   2.434   8.446 -1.4866 -1.9030  0.3110
 7342SOL    HW233489   1.700   2.396   8.504  0.6259  2.7628  1.8481
 7343SOL     OW33490   1.782   0.369   8.254 -0.4169  0.0304  0.4127
 7343SOL    HW133491   1.859   0.318   8.229 -0.6275 -0.0588 -0.0713
 7343SOL    HW233492   1.792   0.373   8.349  1.4812 -1.1610  0.2483
 7344SOL     OW33493   0.096   3.696   3.127 -0.2557  0.1338 -0.3940
 7344SOL    HW133494   0.172   3.662   3.079  0.4498  0.7654  0.2791
 7344SOL    HW233495   0.049   3.615   3.150  0.7225  0.1400  1.5783
 7345SOL     OW33496   0.923   4.015   3.045  0.1306 -0.0350  0.1804
 7345SOL    HW133497   0.856   3.991   3.109 -0.5065  0.8821 -0.1584
 7345SOL    HW233498   0.982   3.940   3.057  0.2540 -0.0077 -0.2637
 7346SOL     OW33499   2.830   4.039   5.486 -0.1537 -0.6319  0.5563
 7346SOL    HW133500   2.909   4.087   5.459 -0.4775  0.9049  2.3507
 7346SOL    HW233501   2.766   4.108   5.471  1.9957  1.3617  0.4760
 7347SOL     OW33502   1.167   1.919   1.906  0.3856 -0.6493 -0.2560
 7347SOL    HW133503   1.256   1.899   1.877  1.2481 -0.5427  2.2853
 7347SOL    HW233504   1.119   1.841   1.879  0.7970 -1.1571  0.4852
 7348SOL     OW33505   2.559   1.277  13.476  0.0585 -0.2821  0.4285
 7348SOL    HW133506   2.479   1.225  13.467 -0.1054  0.1714 -0.7111
 7348SOL    HW233507   2.529   1.366  13.490 -0.7532 -0.0666 -2.7012
 7349SOL     OW33508   3.656   1.757   9.734 -0.2243 -0.2499 -0.0135
 7349SOL    HW133509   3.563   1.733   9.730  0.5006 -3.0850 -0.0243
 7349SOL    HW233510   3.687   1.667   9.743 -0.9358 -0.6466 -1.4304
 7350SOL     OW33511   1.136   0.174   1.733  0.3221  0.3523  0.1674
 7350SOL    HW133512   1.105   0.257   1.769 -0.1174  0.6469 -0.9007
 7350SOL    HW233513   1.221   0.199   1.696 -0.4394  1.9098 -0.5216
 7351SOL     OW33514   2.949   3.957   1.094  0.0198  0.2432  0.2861
 7351SOL    HW133515   2.956   3.932   1.002 -1.6119  1.3080 -0.1265
 7351SOL    HW233516   3.035   3.929   1.126  1.0899  0.9953 -1.8867
 7352SOL     OW33517   4.288   2.295  16.996 -0.0316  0.0298 -0.4301
 7352SOL    HW133518   4.358   2.352  17.030 -0.5009  1.2851 -1.6115
 7352SOL    HW233519   4.325   2.261  16.915  0.1403 -0.8471  0.0195
 7353SOL     OW33520   1.424   1.507   7.945 -0.7231  0.2080 -0.4473
 7353SOL    HW133521   1.348   1.550   7.981 -0.5585  1.3919 -1.5242
 7353SOL    HW233522   1.499   1.546   7.991 -0.7775 -1.0803  0.7428
 7354SOL     OW33523   1.117   1.191   2.886 -0.3631  0.5270  0.0695
 7354SOL    HW133524   1.054   1.119   2.884  1.7199 -1.2976  0.4471
 7354SOL    HW233525   1.180   1.146   2.829 -1.2550 -0.2324 -0.3115
 7355SOL     OW33526   1.291   3.367   0.174 -0.0989 -0.3287  0.2686
 7355SOL    HW133527   1.206   3.330   0.152 -0.0195  0.6036 -1.6202
 7355SOL    HW233528   1.280   3.372   0.269  1.6385 -2.1215  0.5693
 7356SOL     OW33529   2.471   2.096   6.633 -0.3964  0.0978  0.1438
 7356SOL    HW133530   2.377   2.077   6.636 -0.6909  1.6764  0.7961
 7356SOL    HW233531   2.467   2.190   6.654  0.5226  0.2278 -0.2675
 7357SOL     OW33532   3.860   0.479   3.356 -0.7948 -0.5382 -0.3477
 7357SOL    HW133533   3.809   0.482   3.436 -2.0868  1.8999 -1.2372
 7357SOL    HW233534   3.916   0.401   3.362  1.8882  1.4146  0.2540
 7358SOL     OW33535   3.334   1.576   4.370 -0.0072 -0.2360  0.2411
 7358SOL    HW133536   3.274   1.646   4.394  0.8830  0.8246 -0.6251
 7358SOL    HW233537   3.358   1.608   4.283 -1.6835  2.1003  0.6333
 7359SOL     OW33538   3.574   4.534   2.935  0.2986 -0.1051 -0.6018
 7359SOL    HW133539   3.614   4.592   2.870  0.9519 -0.7161 -0.7428
 7359SOL    HW233540   3.542   4.456   2.889 -1.5126  1.0914 -1.3879
 7360SOL     OW33541   3.027   4.389  11.717  0.5526  0.0352 -0.4996
 7360SOL    HW133542   3.002   4.306  11.677  0.2287 -0.5450  0.9143
 7360SOL    HW233543   2.973   4.390  11.796  0.1701 -1.4049 -0.7591
 7361SOL     OW33544   1.445   2.986   4.290  0.2003  0.5023 -0.0803
 7361SOL    HW133545   1.435   2.900   4.250 -1.4187 -0.4293  2.3382
 7361SOL    HW233546   1.384   3.039   4.237 -2.7987 -1.8951  0.9615
 7362SOL     OW33547   0.365   3.779   8.801  0.1490 -0.1281 -0.3201
 7362SOL    HW133548   0.300   3.719   8.765 -2.5074  1.7720  1.3258
 7362SOL    HW233549   0.337   3.776   8.892 -0.2728  1.2004 -0.4080
 7363SOL     OW33550   1.774   3.240  11.957 -0.3333  1.1152  0.0344
 7363SOL    HW133551   1.809   3.282  11.878  0.2651 -1.7652 -1.2196
 7363SOL    HW233552   1.856   3.243  12.006 -1.8777 -0.7834  2.7532
 7364SOL     OW33553   2.379   4.346   4.101  0.2116 -0.7570  0.0251
 7364SOL    HW133554   2.319   4.402   4.053 -1.6385 -1.6765  1.2409
 7364SOL    HW233555   2.464   4.388   4.099 -0.5891  0.8108 -0.7131
 7365SOL     OW33556   4.616   2.724   2.906  0.0152 -0.1715  0.6002
 7365SOL    HW133557   4.651   2.742   2.819 -0.5264 -0.5925  0.2918
 7365SOL    HW233558   4.615   2.629   2.897 -2.6917 -0.0805 -0.1471
 7366SOL     OW33559   0.700   2.081   3.885 -0.1208 -0.1356 -0.6440
 7366SOL    HW133560   0.751   2.061   3.807  0.2753 -0.7245 -0.2366
 7366SOL    HW233561   0.610   2.063   3.856 -1.5043 -0.1497  3.6025
 7367SOL     OW33562   1.254   0.315   7.518  0.2822  0.6962 -0.1839
 7367SOL    HW133563   1.282   0.406   7.516  1.1690  0.4282 -0.2186
 7367SOL    HW233564   1.181   0.313   7.457  0.1135  1.1842  0.0019
 7368SOL     OW33565   2.401   0.299  10.952  0.3381  0.4915 -0.1569
 7368SOL    HW133566   2.346   0.225  10.976 -0.8015  0.8085 -1.8173
 7368SOL    HW233567   2.335   0.363  10.928 -1.0966  0.2328  3.0798
 7369SOL     OW33568   2.889   1.624   0.624  0.3913  0.3878  0.1463
 7369SOL    HW133569   2.902   1.701   0.680  0.7196 -0.1357  0.7975
 7369SOL    HW233570   2.853   1.560   0.686  0.6312 -2.0256 -2.2222
 7370SOL     OW33571   3.921   1.676  16.157 -0.2463  0.7001  0.5349
 7370SOL    HW133572   3.964   1.597  16.126  0.4465  1.5314 -0.6306
 7370SOL    HW233573   3.937   1.675  16.252  4.1417  0.1658 -0.2187
 7371SOL     OW33574   3.074   4.141   5.387  0.1874  0.2309 -0.6881
 7371SOL    HW133575   3.129   4.069   5.356  0.0550 -0.0199 -0.3447
 7371SOL    HW233576   3.100   4.148   5.479  2.2100 -1.1050 -1.1725
 7372SOL     OW33577   4.334   3.230   4.537  0.8244 -0.1283 -0.3082
 7372SOL    HW133578   4.312   3.294   4.605  0.5648 -0.1773 -0.3464
 7372SOL    HW233579   4.429   3.232   4.538  0.8854 -1.6821 -2.5785
 7373SOL     OW33580   3.240   2.451   8.548  0.2837  0.0418 -0.1899
 7373SOL    HW133581   3.222   2.404   8.466  0.7277  0.4932 -0.5485
 7373SOL    HW233582   3.252   2.539   8.512 -0.6184  0.8215  1.4533
 7374SOL     OW33583   1.955   4.281   5.631  0.0843  0.0625  0.3505
 7374SOL    HW133584   1.869   4.311   5.659 -0.0908  0.6808 -0.8479
 7374SOL    HW233585   1.977   4.339   5.558 -2.7221 -0.6877 -1.1050
 7375SOL     OW33586   4.331   1.962  13.721 -0.1430 -0.3548  0.0377
 7375SOL    HW133587   4.401   2.027  13.713  1.4542 -2.2182 -1.0417
 7375SOL    HW233588   4.363   1.905  13.791  0.0917 -0.6355 -0.2963
 7376SOL     OW33589   2.506   2.786   6.530  0.2270 -0.0056 -0.2629
 7376SOL    HW133590   2.560   2.721   6.576 -0.0796 -0.1061 -0.0348
 7376SOL    HW233591   2.430   2.796   6.588 -0.0083 -2.4297 -0.1242
 7377SOL     OW33592   1.295   2.619   0.710 -0.1492 -0.7732 -0.3598
 7377SOL    HW133593   1.283   2.672   0.789 -1.5736 -0.6233 -0.6751
 7377SOL    HW233594   1.389   2.606   0.724 -0.0500 -0.0532 -0.3553
 7378SOL     OW33595   0.201   3.201   4.659 -0.1840  0.2295  0.6317
 7378SOL    HW133596   0.218   3.153   4.577  1.5833  0.1530  1.0356
 7378SOL    HW233597   0.175   3.126   4.711 -0.5134  0.4249  0.7479
 7379SOL     OW33598   3.202   0.200  11.330  0.5932 -0.6942 -0.2996
 7379SOL    HW133599   3.128   0.204  11.390  1.1978  2.3284  0.2277
 7379SOL    HW233600   3.267   0.199  11.401  0.8505  0.2377 -0.5219
 7380SOL     OW33601   2.781   4.687  11.859  0.0031  0.1458  0.0686
 7380SOL    HW133602   2.802   4.716  11.770  3.4085  3.4384  1.9712
 7380SOL    HW233603   2.728   0.027  11.904  2.2590 -0.4591  3.6234
 7381SOL     OW33604   0.596   1.113  17.084 -0.3770  0.1352 -0.0451
 7381SOL    HW133605   0.650   1.040  17.115  0.1297  1.1644  1.4922
 7381SOL    HW233606   0.528   1.114  17.152 -1.6131 -2.2438 -1.2281
 7382SOL     OW33607   4.640   1.849   5.572  0.1231 -0.5814  0.1472
 7382SOL    HW133608   4.674   1.882   5.489 -2.1881 -0.2262 -0.6532
 7382SOL    HW233609   4.574   1.915   5.595  0.4186  1.1171 -3.8589
 7383SOL     OW33610   2.733   0.214   3.513 -0.0276 -0.1961 -0.1715
 7383SOL    HW133611   2.782   0.143   3.473 -0.1802 -0.3880 -0.0168
 7383SOL    HW233612   2.786   0.291   3.496  1.9116 -1.0470  2.0838
 7384SOL     OW33613   4.234   3.992   9.569 -0.3935  0.4640 -0.1513
 7384SOL    HW133614   4.259   4.004   9.661  0.6968 -2.1391 -0.1082
 7384SOL    HW233615   4.151   4.039   9.572 -1.0498 -0.5764 -2.6040
 7385SOL     OW33616   4.053   3.207  12.413  0.3060 -0.1100  0.1419
 7385SOL    HW133617   4.143   3.227  12.386  0.4406 -1.5746 -0.5092
 7385SOL    HW233618   4.005   3.273  12.363  1.3437 -0.8475 -1.8208
 7386SOL     OW33619   3.391   2.115   2.491  0.7702  0.1801  0.2077
 7386SOL    HW133620   3.352   2.126   2.405  0.0234  1.3435  0.7035
 7386SOL    HW233621   3.436   2.197   2.508 -0.4851  0.5617  1.7545
 7387SOL     OW33622   2.013   3.144   8.792 -0.4180 -0.2002 -0.2708
 7387SOL    HW133623   2.071   3.079   8.752 -1.3585 -0.1769 -1.6523
 7387SOL    HW233624   1.956   3.157   8.716 -0.2940 -0.3396 -0.3891
 7388SOL     OW33625   4.239   0.076   6.088  0.1390 -0.2424 -0.8134
 7388SOL    HW133626   4.220   0.137   6.159  0.3074  1.0847 -1.9161
 7388SOL    HW233627   4.315   0.128   6.063 -0.7039  1.1188 -0.5023
 7389SOL     OW33628   0.973   3.339  10.495  0.1596 -0.0369 -0.4562
 7389SOL    HW133629   0.951   3.367  10.584 -0.6477 -0.4358 -0.5277
 7389SOL    HW233630   1.039   3.402  10.465  0.0464 -0.3795 -1.4359
 7390SOL     OW33631   1.390   0.562   7.512 -0.4017  0.9378  0.2749
 7390SOL    HW133632   1.384   0.545   7.418 -2.2935 -0.7040  0.7011
 7390SOL    HW233633   1.425   0.650   7.497  0.7996  0.3706 -0.3347
 7391SOL     OW33634   0.395   0.345   5.542 -0.4635  0.5187 -0.4479
 7391SOL    HW133635   0.304   0.348   5.513 -0.1800  2.5055 -1.1708
 7391SOL    HW233636   0.443   0.338   5.460 -0.0313  0.3736 -0.1832
 7392SOL     OW33637   2.608   3.904  10.541  0.2122  0.0569  0.1399
 7392SOL    HW133638   2.689   3.952  10.524 -1.5282  3.0192  0.2272
 7392SOL    HW233639   2.584   3.950  10.622 -0.0156 -1.9627  1.2268
 7393SOL     OW33640   2.608   1.414   5.385 -0.6449 -0.1288  0.3400
 7393SOL    HW133641   2.644   1.356   5.453  0.0797 -0.9572 -0.7553
 7393SOL    HW233642   2.618   1.500   5.426  1.2301 -0.2096  0.0815
 7394SOL     OW33643   4.330   1.222  15.879  0.1980  0.5069  0.6005
 7394SOL    HW133644   4.361   1.234  15.789 -3.2195 -0.9629 -0.7753
 7394SOL    HW233645   4.242   1.259  15.879 -0.1064 -0.2003 -0.2334
 7395SOL     OW33646   0.536   1.321   2.473 -0.6723 -0.1070 -0.3639
 7395SOL    HW133647   0.618   1.363   2.447  0.0696 -3.3591 -3.1692
 7395SOL    HW233648   0.555   1.227   2.474  0.1151  0.0479 -0.9327
 7396SOL     OW33649   1.410   0.729   6.507 -0.0504 -0.3111  0.1965
 7396SOL    HW133650   1.499   0.696   6.503 -0.2746 -0.6956 -1.5875
 7396SOL    HW233651   1.426   0.820   6.530 -0.7794  0.0381 -0.6989
 7397SOL     OW33652   1.654   2.867   2.996 -0.2595  0.1007  0.4890
 7397SOL    HW133653   1.732   2.879   3.050 -1.2086 -1.6979  2.2562
 7397SOL    HW233654   1.579   2.886   3.053  1.4368 -0.6005  2.9423
 7398SOL     OW33655   1.308   0.815   0.451  0.0732 -0.0877  0.9410
 7398SOL    HW133656   1.359   0.830   0.530  0.4724 -4.3454  1.5147
 7398SOL    HW233657   1.366   0.861   0.390 -2.6647  1.4343 -0.5054
 7399SOL     OW33658   4.595   2.389  14.188  0.2929  0.3947 -0.6239
 7399SOL    HW133659   4.625   2.466  14.140 -1.4506  2.3220  1.3441
 7399SOL    HW233660   4.672   2.372  14.242  0.1385 -0.1775 -0.5844
 7400SOL     OW33661   2.569   0.062  13.089 -0.0772 -0.1308 -0.5289
 7400SOL    HW133662   2.650   0.067  13.038  0.5101 -1.3051  0.2863
 7400SOL    HW233663   2.504   0.017  13.034 -0.0367  0.2274 -0.8688
 7401SOL     OW33664   2.192   2.916  15.462  0.4151 -0.0270 -0.3473
 7401SOL    HW133665   2.167   2.880  15.547 -0.0009  1.1314  0.0217
 7401SOL    HW233666   2.230   2.838  15.422  1.8500 -0.2991  1.5679
 7402SOL     OW33667   2.439   3.146   6.715 -0.4381 -0.5610 -0.3504
 7402SOL    HW133668   2.488   3.162   6.796 -0.1407 -1.6990 -0.3061
 7402SOL    HW233669   2.506   3.128   6.650  1.3035  2.6494  0.5505
 7403SOL     OW33670   0.837   1.775  10.523  0.0780  1.0802  0.2993
 7403SOL    HW133671   0.837   1.705  10.458 -0.0468  0.6032  0.8112
 7403SOL    HW233672   0.750   1.813  10.511  0.7149  1.8300 -1.8803
 7404SOL     OW33673   1.395   2.809   5.285 -0.0725 -0.0639  0.1666
 7404SOL    HW133674   1.303   2.820   5.261 -0.2168 -0.3074  0.6168
 7404SOL    HW233675   1.436   2.891   5.256  0.7085 -1.1603 -1.8167
 7405SOL     OW33676   3.097   0.808   4.163 -0.0883  0.2470 -0.0398
 7405SOL    HW133677   3.110   0.896   4.198  1.2133 -0.3067  0.8732
 7405SOL    HW233678   3.096   0.821   4.068 -2.6047  0.8671  0.0712
 7406SOL     OW33679   0.210   3.134   5.492 -0.2983  0.5378 -0.2316
 7406SOL    HW133680   0.257   3.181   5.423  0.1615  0.4465  0.0175
 7406SOL    HW233681   0.147   3.092   5.432 -0.6176  0.3303  0.2509
 7407SOL     OW33682   4.251   1.416  15.627  0.3167  0.5418  0.3470
 7407SOL    HW133683   4.182   1.415  15.561 -0.6744 -1.4318  1.4066
 7407SOL    HW233684   4.321   1.361  15.591 -0.4287  1.3341 -2.2876
 7408SOL     OW33685   1.683   3.456   3.889  0.0723  0.5213  0.1262
 7408SOL    HW133686   1.758   3.448   3.830  0.1494 -0.0211  0.2984
 7408SOL    HW233687   1.611   3.478   3.831  0.7169  0.3331 -0.7405
 7409SOL     OW33688   2.794   2.115   6.304 -0.4304 -0.3503  0.1230
 7409SOL    HW133689   2.746   2.033   6.314 -0.5912 -0.1412  0.9914
 7409SOL    HW233690   2.851   2.108   6.380  1.7117  0.1175 -1.4193
 7410SOL     OW33691   3.107   0.412   9.495  0.4485  0.4867 -0.1594
 7410SOL    HW133692   3.132   0.345   9.432  1.0588 -0.2701  0.8676
 7410SOL    HW233693   3.194   0.418   9.536  0.2070  0.6595  0.3383
 7411SOL     OW33694   2.902   1.161   6.157 -0.0983 -0.0192  0.2216
 7411SOL    HW133695   2.838   1.151   6.086 -1.1408 -1.9149  1.4403
 7411SOL    HW233696   2.849   1.108   6.217 -0.5419 -0.4304 -0.5304
 7412SOL     OW33697   3.144   2.498   8.282 -0.3489 -0.1910 -0.2122
 7412SOL    HW133698   3.231   2.536   8.268  0.3404 -1.0530  1.6227
 7412SOL    HW233699   3.102   2.579   8.311 -1.4676 -1.0131  0.4843
 7413SOL     OW33700   4.248   3.259   9.702 -0.2366 -0.6208  0.6008
 7413SOL    HW133701   4.333   3.293   9.729 -0.0620 -1.3365  0.9281
 7413SOL    HW233702   4.197   3.334   9.671  2.2755  0.6646 -0.4029
 7414SOL     OW33703   3.820   3.523   7.298  0.2729  0.2325 -0.0246
 7414SOL    HW133704   3.826   3.618   7.301 -1.3260  0.3063  1.2099
 7414SOL    HW233705   3.885   3.496   7.362  0.6806 -0.4511 -0.7273
 7415SOL     OW33706   1.963   3.900   3.468  0.1602 -0.6461  0.2973
 7415SOL    HW133707   2.019   3.939   3.401  1.2609 -0.7595  1.1702
 7415SOL    HW233708   1.999   3.812   3.476  2.1118  0.1474  0.0608
 7416SOL     OW33709   2.007   1.900   6.757 -0.3080 -0.1372  0.4333
 7416SOL    HW133710   1.953   1.852   6.820  1.5176 -1.2970  1.1393
 7416SOL    HW233711   2.058   1.961   6.811  0.1385 -0.5527  0.4806
 7417SOL     OW33712   0.300   3.293   3.561  1.0757  0.2090  0.6093
 7417SOL    HW133713   0.353   3.215   3.547 -1.8646 -1.4411 -1.2335
 7417SOL    HW233714   0.342   3.324   3.642 -0.4939  4.9762 -0.3888
 7418SOL     OW33715   2.948   0.350   2.673 -0.7397 -0.2040 -0.4228
 7418SOL    HW133716   3.006   0.406   2.622 -2.2775  1.6456 -0.1339
 7418SOL    HW233717   3.001   0.299   2.734  2.6382  0.7947 -2.5599
 7419SOL     OW33718   1.139   4.346   2.443 -0.1748 -0.2515  0.3492
 7419SOL    HW133719   1.115   4.401   2.369  0.6507 -1.3294 -0.7005
 7419SOL    HW233720   1.054   4.328   2.483 -0.8594  0.4733 -0.7919
 7420SOL     OW33721   0.442   3.590   5.662 -0.3297 -0.1812 -0.6142
 7420SOL    HW133722   0.536   3.599   5.675 -0.0830 -1.7524 -1.3091
 7420SOL    HW233723   0.422   3.507   5.705 -0.9051 -0.2646 -1.0373
 7421SOL     OW33724   0.900   1.702  12.040 -1.3496  0.0482 -0.2724
 7421SOL    HW133725   0.884   1.795  12.021  4.5229  1.1164  0.1371
 7421SOL    HW233726   0.890   1.703  12.135  1.6625  0.1200  0.0183
 7422SOL     OW33727   1.338   0.309   3.914 -0.1744  0.1540 -0.3989
 7422SOL    HW133728   1.365   0.254   3.840  3.6980  0.3235  0.8645
 7422SOL    HW233729   1.359   0.396   3.879  0.4455  0.1095 -0.1429
 7423SOL     OW33730   3.899   2.362   5.920  1.2520  0.1652 -0.8832
 7423SOL    HW133731   3.819   2.310   5.914  0.2541  1.8252 -1.9354
 7423SOL    HW233732   3.893   2.391   6.011 -0.2320  2.4281 -1.7137
 7424SOL     OW33733   0.188   2.252  16.574 -0.5390 -0.0767 -0.3564
 7424SOL    HW133734   0.166   2.227  16.484  2.6763 -0.7394 -0.9489
 7424SOL    HW233735   0.280   2.227  16.581 -0.9176 -1.4505 -0.3551
 7425SOL     OW33736   4.493   3.287   3.178 -0.2568  0.1386  0.2727
 7425SOL    HW133737   4.505   3.289   3.083 -0.7351  2.8237  0.2505
 7425SOL    HW233738   4.520   3.197   3.192  0.7574  0.8835  3.1139
 7426SOL     OW33739   0.987   0.521   6.546 -0.0986 -0.1719 -0.0137
 7426SOL    HW133740   1.073   0.545   6.579  0.1237  0.3117 -0.9670
 7426SOL    HW233741   0.935   0.528   6.626  1.2386 -0.3304  0.8570
 7427SOL     OW33742   3.257   1.128  15.309 -0.0470 -0.0564  0.3438
 7427SOL    HW133743   3.214   1.088  15.234 -2.7120  0.3205  1.6751
 7427SOL    HW233744   3.324   1.060  15.319  1.1620  0.9851 -0.7449
 7428SOL     OW33745   1.027   2.011   3.399 -0.1854 -0.6086  0.0098
 7428SOL    HW133746   1.074   1.987   3.320  4.1213 -1.4037  2.8187
 7428SOL    HW233747   1.014   1.922   3.434 -0.1877 -0.5295  0.2124
 7429SOL     OW33748   3.819   3.405   1.642  0.2544 -0.1561 -0.4244
 7429SOL    HW133749   3.763   3.431   1.715 -0.1946 -1.8728 -0.1559
 7429SOL    HW233750   3.895   3.461   1.659 -0.3894  1.1760 -1.9477
 7430SOL     OW33751   2.476   0.429   4.563  0.7774 -0.8267  0.1430
 7430SOL    HW133752   2.389   0.469   4.558  0.9101 -0.8269 -2.0743
 7430SOL    HW233753   2.482   0.365   4.492 -0.7707 -2.5697  1.5846
 7431SOL     OW33754   3.111   4.639   4.422 -0.1350  0.1230  0.7532
 7431SOL    HW133755   3.115   4.679   4.508 -0.1692  0.3672  0.6418
 7431SOL    HW233756   3.058   4.708   4.383  1.7635  1.0865 -0.0865
 7432SOL     OW33757   3.914   0.851   8.822 -0.0275 -0.2962 -0.4413
 7432SOL    HW133758   3.995   0.866   8.773 -0.0937 -0.6328 -0.6542
 7432SOL    HW233759   3.920   0.935   8.867 -1.0359 -1.3447  1.6763
 7433SOL     OW33760   4.287   1.801   5.392  0.3538 -0.2403  0.2059
 7433SOL    HW133761   4.318   1.877   5.440  0.8236 -0.0068 -0.4718
 7433SOL    HW233762   4.327   1.718   5.419  0.1700  0.0397  1.3422
 7434SOL     OW33763   2.948   2.534   3.776  0.0974  0.3271 -0.5706
 7434SOL    HW133764   3.019   2.506   3.835  1.1663  2.5470 -0.8240
 7434SOL    HW233765   2.997   2.561   3.699  2.9169 -1.9029  0.4156
 7435SOL     OW33766   4.537   0.552   3.888 -0.1608 -0.1816  0.2401
 7435SOL    HW133767   4.450   0.537   3.852  1.7053 -1.5049 -3.6464
 7435SOL    HW233768   4.595   0.548   3.812 -1.0928 -0.6117 -0.4448
 7436SOL     OW33769   2.480   2.450   3.867  0.1373  1.0038 -0.3399
 7436SOL    HW133770   2.428   2.472   3.945 -0.2316  3.4022 -1.2783
 7436SOL    HW233771   2.419   2.465   3.795 -0.5443 -0.5591 -0.0876
 7437SOL     OW33772   3.183   2.697   1.521 -0.1518 -0.1187  0.0507
 7437SOL    HW133773   3.175   2.737   1.607  1.5514  0.9673 -0.2986
 7437SOL    HW233774   3.109   2.743   1.480 -1.4232 -1.0873  1.2506
 7438SOL     OW33775   1.098   1.641  16.755 -0.0008 -0.4901  0.2929
 7438SOL    HW133776   1.129   1.552  16.772 -1.5549 -1.3685 -1.4151
 7438SOL    HW233777   1.076   1.665  16.845  1.0341 -1.1315  0.7233
 7439SOL     OW33778   1.437   3.099   8.487  0.4566 -0.3317  0.3056
 7439SOL    HW133779   1.523   3.093   8.445  0.4022 -2.0078  0.3987
 7439SOL    HW233780   1.386   3.073   8.411 -0.5571 -0.0375  0.8758
 7440SOL     OW33781   0.110   2.489   8.572  0.4438  0.3691  0.4530
 7440SOL    HW133782   0.099   2.394   8.579  1.3180  0.2632  0.3126
 7440SOL    HW233783   0.101   2.507   8.666 -1.7377 -2.7436  0.8795
 7441SOL     OW33784   1.266   2.702   5.518  0.3049  0.3601  0.2637
 7441SOL    HW133785   1.257   2.613   5.484  2.4119  1.2497 -2.5423
 7441SOL    HW233786   1.300   2.734   5.435 -0.5033 -0.2600 -0.3123
 7442SOL     OW33787   1.479   4.662   1.654  0.2721  0.8887 -0.4193
 7442SOL    HW133788   1.397   4.684   1.698 -0.4059  0.1570 -1.3188
 7442SOL    HW233789   1.466   4.567   1.659  2.9736  0.4707 -1.4051
 7443SOL     OW33790   2.199   3.320   2.335 -0.3916 -0.6282 -0.0924
 7443SOL    HW133791   2.153   3.253   2.284  0.2622 -1.1248 -0.0159
 7443SOL    HW233792   2.142   3.316   2.412  2.9449  2.9329  2.5689
 7444SOL     OW33793   3.113   0.426   5.676  0.1927 -0.5553 -0.3613
 7444SOL    HW133794   3.155   0.352   5.721 -0.7909 -1.4174 -0.8587
 7444SOL    HW233795   3.180   0.457   5.616  0.4022 -0.8278 -0.2705
 7445SOL     OW33796   3.170   0.322  13.461 -0.2453 -0.4518 -0.2511
 7445SOL    HW133797   3.263   0.331  13.482 -0.2988  2.6991 -1.3928
 7445SOL    HW233798   3.186   0.331  13.367  0.3285 -3.1169 -0.4145
 7446SOL     OW33799   0.841   3.593  14.230  0.2406 -0.4077 -0.3519
 7446SOL    HW133800   0.882   3.524  14.281 -0.6332 -0.4462  0.2900
 7446SOL    HW233801   0.916   3.623  14.179  0.4857 -1.0570 -0.3729
 7447SOL     OW33802   1.976   2.846   2.248 -0.5732  0.6970  0.3721
 7447SOL    HW133803   2.046   2.792   2.212 -0.7082  2.0749 -1.9695
 7447SOL    HW233804   1.932   2.883   2.172  1.9967  0.3591 -1.2779
 7448SOL     OW33805   2.713   3.393   4.140  0.1041 -0.2307  0.4585
 7448SOL    HW133806   2.725   3.412   4.047  0.3681 -1.6615  0.2020
 7448SOL    HW233807   2.802   3.406   4.173  0.3087 -0.3947 -0.0344
 7449SOL     OW33808   0.269   0.471   0.757 -0.5384  0.9768  0.2352
 7449SOL    HW133809   0.287   0.526   0.834  2.3359 -0.8956  0.8787
 7449SOL    HW233810   0.184   0.509   0.734 -0.7504 -1.2051 -2.5585
 7450SOL     OW33811   0.808   0.141  15.716 -0.0459  0.0703 -0.1700
 7450SOL    HW133812   0.857   0.216  15.683 -2.2400  1.8851  0.6985
 7450SOL    HW233813   0.859   0.072  15.674  1.8056  0.5368  1.3104
 7451SOL     OW33814   4.482   4.439   2.796  0.5183 -0.0802 -0.6287
 7451SOL    HW133815   4.549   4.477   2.853 -2.6748  0.7380  2.5315
 7451SOL    HW233816   4.523   4.401   2.718  0.7495 -3.6121  1.1940
 7452SOL     OW33817   0.218   4.690  14.898  0.2606 -0.4055 -0.4287
 7452SOL    HW133818   0.203   4.664  14.808 -0.3349 -0.5106 -0.2973
 7452SOL    HW233819   0.288   0.030  14.893 -0.5664  0.5976  1.1003
 7453SOL     OW33820   0.706   1.336   7.031 -0.3772 -0.3058 -0.1660
 7453SOL    HW133821   0.648   1.279   6.982 -2.6954  0.5243  1.6032
 7453SOL    HW233822   0.663   1.331   7.117 -0.2363  2.8671  0.0874
 7454SOL     OW33823   2.164   2.914   8.705  0.1900  0.0703 -0.3671
 7454SOL    HW133824   2.161   2.828   8.662  1.9507  1.2437 -2.8330
 7454SOL    HW233825   2.195   2.887   8.792 -0.7118 -0.5057 -0.2247
 7455SOL     OW33826   0.869   1.709  11.230 -0.1227 -0.4180 -0.3818
 7455SOL    HW133827   0.961   1.700  11.204 -0.8161 -0.5568 -2.7215
 7455SOL    HW233828   0.867   1.680  11.321  1.8325  0.4840 -0.0315
 7456SOL     OW33829   1.734   2.262   5.867 -0.3175  0.2842  0.4995
 7456SOL    HW133830   1.705   2.192   5.925 -0.6142  0.0771  0.0984
 7456SOL    HW233831   1.752   2.333   5.928 -0.6763  0.3775  0.4983
 7457SOL     OW33832   0.927   4.539   3.155 -0.5753 -0.0022  0.2298
 7457SOL    HW133833   0.866   4.512   3.087  0.2026 -0.5895 -0.2287
 7457SOL    HW233834   1.006   4.495   3.124  0.0392 -0.1935  2.0650
 7458SOL     OW33835   2.922   0.137   9.355 -0.1391 -0.6184  0.4914
 7458SOL    HW133836   2.877   0.148   9.272 -1.2234  2.2526  1.4452
 7458SOL    HW233837   3.013   0.147   9.325 -0.8610  2.8158 -0.5115
 7459SOL     OW33838   0.317   1.798   1.863 -0.1029 -0.3063  0.2617
 7459SOL    HW133839   0.411   1.785   1.875  0.1945  1.0766 -0.6052
 7459SOL    HW233840   0.295   1.850   1.940  0.0786 -0.4064  0.3798
 7460SOL     OW33841   2.494   2.046   4.143  0.5153  0.4064 -0.5234
 7460SOL    HW133842   2.436   2.016   4.073 -1.4092 -0.9672  1.6784
 7460SOL    HW233843   2.529   2.127   4.104  0.7843  0.6440  0.2199
 7461SOL     OW33844   4.571   2.930  14.306 -0.3124 -0.4475  0.1100
 7461SOL    HW133845   4.625   2.917  14.227  1.0047  0.1937  0.9090
 7461SOL    HW233846   4.597   3.020  14.325  1.2843 -0.9041  0.1568
 7462SOL     OW33847   3.834   1.821   9.070  0.4505  0.2293 -0.3564
 7462SOL    HW133848   3.845   1.908   9.109  0.3895 -0.7463  1.8458
 7462SOL    HW233849   3.920   1.786   9.095  0.0795  0.1630  0.8462
 7463SOL     OW33850   0.443   0.910  11.828 -0.2065  0.4755  0.9424
 7463SOL    HW133851   0.398   0.948  11.904 -1.0542 -1.8006  1.5563
 7463SOL    HW233852   0.417   0.960  11.750 -1.0649  1.3412  1.7859
 7464SOL     OW33853   3.638   1.573   8.092 -0.6479 -0.1417 -0.3125
 7464SOL    HW133854   3.550   1.612   8.095  0.3264  1.7645  2.7577
 7464SOL    HW233855   3.686   1.599   8.014  0.0894 -0.9477 -0.1283
 7465SOL     OW33856   2.080   3.639   3.544 -0.7281 -0.4300 -0.3975
 7465SOL    HW133857   2.168   3.602   3.550 -0.1220  0.8651 -1.5709
 7465SOL    HW233858   2.035   3.577   3.602 -0.9612 -0.8172 -0.9900
 7466SOL     OW33859   3.251   2.352  17.471  0.4732 -0.2146  0.2691
 7466SOL    HW133860   3.262   2.446  17.479  2.4499 -0.6945  3.1414
 7466SOL    HW233861   3.208   2.335  17.554 -0.2273 -2.5702 -0.5509
 7467SOL     OW33862   4.038   0.765  11.235 -1.0508  0.2958  0.2697
 7467SOL    HW133863   4.040   0.676  11.269 -1.8621  0.7890  1.6304
 7467SOL    HW233864   4.019   0.754  11.142 -1.2482  0.7031  0.2604
 7468SOL     OW33865   1.346   4.525   5.450 -0.5417 -0.0500 -0.5135
 7468SOL    HW133866   1.367   4.433   5.433 -2.8485 -0.5752 -0.5530
 7468SOL    HW233867   1.258   4.520   5.487 -0.3591 -0.9401 -0.1872
 7469SOL     OW33868   1.126   4.103   2.112  0.1126 -0.0304 -0.2907
 7469SOL    HW133869   1.067   4.035   2.079  1.3156 -1.3949  0.3453
 7469SOL    HW233870   1.162   4.070   2.195 -0.4198 -0.0426 -0.0635
 7470SOL     OW33871   2.796   1.279   4.804 -0.2029 -0.4554  0.4522
 7470SOL    HW133872   2.747   1.330   4.869  0.8078 -0.4184  1.1964
 7470SOL    HW233873   2.822   1.349   4.743  3.2546 -1.6173  0.6296
 7471SOL     OW33874   3.774   0.772   5.801  0.3840 -0.1475 -0.3856
 7471SOL    HW133875   3.681   0.747   5.803  0.2535  0.3265 -0.4898
 7471SOL    HW233876   3.804   0.706   5.738  1.4898  0.2723 -0.2908
 7472SOL     OW33877   2.245   0.978   6.116 -0.1624 -0.3229  0.2659
 7472SOL    HW133878   2.222   1.054   6.062 -2.6157  1.0572  3.2541
 7472SOL    HW233879   2.157   0.963   6.152  0.0538 -0.3926  0.7633
 7473SOL     OW33880   3.841   0.629  10.484  0.2703  0.0280  0.1270
 7473SOL    HW133881   3.750   0.656  10.481 -0.8887 -3.7110  1.5130
 7473SOL    HW233882   3.876   0.710  10.447  1.5231 -0.1467  0.9445
 7474SOL     OW33883   4.377   0.321   9.039  0.1715 -0.0250 -0.0075
 7474SOL    HW133884   4.312   0.377   9.081  0.4358  0.6610 -0.5258
 7474SOL    HW233885   4.330   0.237   9.040 -1.0146  0.6515  0.2617
 7475SOL     OW33886   1.099   1.408   8.564 -0.5862  0.2040  0.2750
 7475SOL    HW133887   1.045   1.456   8.627 -1.6019  2.0847 -2.0037
 7475SOL    HW233888   1.048   1.328   8.560 -2.8369  1.7601 -2.7409
 7476SOL     OW33889   2.258   0.076  11.069 -0.0848  0.1004  0.4474
 7476SOL    HW133890   2.169   0.093  11.037 -0.3973 -0.7095  0.9125
 7476SOL    HW233891   2.259   4.706  11.073  0.1127 -0.0465 -2.9345
 7477SOL     OW33892   1.759   3.197   5.542 -0.0349  0.9076  0.1184
 7477SOL    HW133893   1.823   3.254   5.584 -0.0611  0.3901  0.8539
 7477SOL    HW233894   1.784   3.219   5.452  0.6465  1.5120  0.4624
 7478SOL     OW33895   1.147   1.743  15.831  0.0963  0.0950  0.2525
 7478SOL    HW133896   1.109   1.800  15.897 -0.2103 -1.0524  1.0738
 7478SOL    HW233897   1.210   1.698  15.887  1.4113  1.9130  0.2426
 7479SOL     OW33898   2.639   3.371   8.192 -0.1022 -0.1036 -0.7170
 7479SOL    HW133899   2.642   3.461   8.223  1.0174  0.0641 -1.2943
 7479SOL    HW233900   2.718   3.368   8.138  0.1287 -2.0386 -0.2757
 7480SOL     OW33901   2.682   1.075   6.007  0.0439  0.3634  0.0388
 7480SOL    HW133902   2.620   1.058   6.079 -0.3654  2.2284  0.1233
 7480SOL    HW233903   2.644   1.020   5.938 -0.1935  1.3538 -0.6102
 7481SOL     OW33904   3.753   3.081   2.253 -0.1931 -0.1203 -0.3112
 7481SOL    HW133905   3.753   3.056   2.346 -1.5453 -1.8258 -0.7676
 7481SOL    HW233906   3.831   3.136   2.253 -0.4925  0.3305  1.9387
 7482SOL     OW33907   4.327   2.015  14.049  0.3001 -0.2949 -0.3161
 7482SOL    HW133908   4.288   2.098  14.075  0.9651  0.3399 -1.3573
 7482SOL    HW233909   4.411   2.043  14.013 -0.1022  0.4268 -0.6957
 7483SOL     OW33910   0.429   3.567   4.344  0.3837 -1.1586  0.1615
 7483SOL    HW133911   0.443   3.566   4.250  0.4936 -0.2311  0.1612
 7483SOL    HW233912   0.496   3.632   4.368 -0.9408  0.8797 -1.7269
 7484SOL     OW33913   2.175   2.816   3.417  0.5438  0.1371 -0.2878
 7484SOL    HW133914   2.233   2.859   3.480  0.7208 -0.4992 -0.0157
 7484SOL    HW233915   2.223   2.733   3.420 -1.1175 -0.8149  0.2717
 7485SOL     OW33916   0.300   1.875   0.618 -0.0815  0.0119 -0.0142
 7485SOL    HW133917   0.384   1.887   0.664  0.2390 -0.9232 -0.3523
 7485SOL    HW233918   0.313   1.922   0.536 -0.2320 -1.0640 -0.6484
 7486SOL     OW33919   2.226   3.126  10.063 -0.2109 -0.5441 -0.4229
 7486SOL    HW133920   2.289   3.081  10.007  1.5966  2.2587 -0.6294
 7486SOL    HW233921   2.210   3.061  10.132 -1.2159  2.3709  2.1385
 7487SOL     OW33922   1.882   4.669  12.666 -0.4209  0.3479 -0.4617
 7487SOL    HW133923   1.923   4.690  12.750  0.6113  2.9755 -1.6152
 7487SOL    HW233924   1.859   0.032  12.639  0.3971  0.8431  0.4729
 7488SOL     OW33925   2.970   2.690   0.922 -0.3283  0.1042  0.2434
 7488SOL    HW133926   2.952   2.728   1.008 -1.6371  4.3525 -1.9040
 7488SOL    HW233927   2.883   2.667   0.888 -0.1255 -0.7799  0.3320
 7489SOL     OW33928   1.046   2.314   5.804 -0.0048 -0.5157 -0.3444
 7489SOL    HW133929   1.029   2.407   5.815 -0.0608 -0.6791  0.9333
 7489SOL    HW233930   1.097   2.314   5.723  0.6208 -0.0858  0.0576
 7490SOL     OW33931   3.300   2.634   5.665 -0.2261 -0.2115 -0.1950
 7490SOL    HW133932   3.334   2.630   5.755  1.7712  2.8526 -0.8139
 7490SOL    HW233933   3.328   2.554   5.621 -0.0378  0.4974 -1.3544
 7491SOL     OW33934   0.376   4.376   9.478  0.1012  0.0207 -0.0121
 7491SOL    HW133935   0.398   4.440   9.546 -0.6657 -1.7772  1.9165
 7491SOL    HW233936   0.468   4.356   9.463 -0.2049 -2.2240  1.1650
 7492SOL     OW33937   1.608   4.674   3.307  0.2675  0.1021 -0.0608
 7492SOL    HW133938   1.635   4.643   3.220  0.2697 -3.6134  1.2712
 7492SOL    HW233939   1.567   0.031   3.284 -2.6481 -1.4046 -0.2400
 7493SOL     OW33940   2.185   1.645   7.986  0.2917  0.4040 -0.3362
 7493SOL    HW133941   2.217   1.658   8.076 -1.8430  0.7140  0.3867
 7493SOL    HW233942   2.098   1.606   7.998  1.0513 -0.7768  1.3284
 7494SOL     OW33943   0.887   2.135  14.635  0.2653  0.0738  0.0883
 7494SOL    HW133944   0.959   2.193  14.612 -0.5557  0.5115 -1.3850
 7494SOL    HW233945   0.940   2.056  14.626 -0.9262 -0.8678  1.2525
 7495SOL     OW33946   3.645   0.759  16.735  0.0232 -0.2904  0.4582
 7495SOL    HW133947   3.706   0.686  16.751  2.3461  1.4480 -0.4466
 7495SOL    HW233948   3.704   0.834  16.737  0.2987 -0.4872 -0.2827
 7496SOL     OW33949   1.139   4.049  12.066 -0.0060 -0.9045  0.0894
 7496SOL    HW133950   1.053   4.055  12.107  0.4289 -0.1927  0.9098
 7496SOL    HW233951   1.132   4.006  11.982  2.9859 -0.7203 -0.2566
 7497SOL     OW33952   1.611   4.527   4.482 -0.5831 -0.0706 -0.1170
 7497SOL    HW133953   1.547   4.572   4.537  2.5261 -0.1163  3.5732
 7497SOL    HW233954   1.694   4.548   4.527  0.8308 -1.5703 -2.0258
 7498SOL     OW33955   3.938   2.123   7.936 -0.1670 -0.0647  0.3418
 7498SOL    HW133956   3.973   2.194   7.989 -2.3175  0.3507  1.2042
 7498SOL    HW233957   3.865   2.092   7.989  0.2871 -0.0296  0.9900
 7499SOL     OW33958   1.034   0.731   3.196  0.2062  0.7051  0.0877
 7499SOL    HW133959   0.966   0.743   3.263  1.8786 -0.9553  2.0850
 7499SOL    HW233960   1.015   0.640   3.176 -1.3810  1.2106 -0.7236
 7500SOL     OW33961   1.041   0.787  15.385 -0.3132  0.5713 -0.4185
 7500SOL    HW133962   0.949   0.808  15.374 -0.7066 -1.5620 -1.2012
 7500SOL    HW233963   1.069   0.853  15.448  0.7991  1.2939 -1.6479
 7501SOL     OW33964   0.905   4.224  11.882 -0.4371  0.1345  0.1023
 7501SOL    HW133965   0.959   4.169  11.825 -1.7634  0.0423 -1.0844
 7501SOL    HW233966   0.869   4.169  11.951 -0.3365 -1.4013 -1.0726
 7502SOL     OW33967   4.396   4.350  10.825 -0.4445  0.7328 -0.2670
 7502SOL    HW133968   4.390   4.442  10.854  0.8949  0.7551 -0.0851
 7502SOL    HW233969   4.343   4.310  10.894  2.4198 -0.0444  1.4606
 7503SOL     OW33970   4.164   3.122   4.361  0.3387  0.5334  0.1591
 7503SOL    HW133971   4.222   3.168   4.422  1.5511 -1.8301  0.8056
 7503SOL    HW233972   4.109   3.075   4.424  0.3500 -1.6739 -1.4945
 7504SOL     OW33973   1.125   4.695  13.359 -0.0312 -0.3909 -0.1604
 7504SOL    HW133974   1.109   0.063  13.352  1.8788 -0.2823 -3.2955
 7504SOL    HW233975   1.199   4.685  13.298  0.5639  1.3008  0.2986
 7505SOL     OW33976   1.442   4.294   3.759 -0.3885 -0.5336 -0.0570
 7505SOL    HW133977   1.508   4.327   3.820  2.2529  0.5908 -3.5409
 7505SOL    HW233978   1.480   4.307   3.672 -1.5815  0.4608 -0.4207
 7506SOL     OW33979   1.475   2.234   9.674  0.2240  0.1967  1.0656
 7506SOL    HW133980   1.401   2.286   9.707  0.6327  1.6677 -0.3447
 7506SOL    HW233981   1.512   2.211   9.759  0.5165 -1.6707  0.4257
 7507SOL     OW33982   0.472   2.502   8.475 -0.1758 -0.4544  0.2454
 7507SOL    HW133983   0.540   2.548   8.425 -0.1067 -2.5029 -1.5057
 7507SOL    HW233984   0.395   2.509   8.420  0.0436  0.6589  0.0632
 7508SOL     OW33985   1.639   1.065  16.721 -0.4582  0.7811 -0.3515
 7508SOL    HW133986   1.555   1.020  16.722  0.1573 -0.3267  1.9871
 7508SOL    HW233987   1.605   1.151  16.695  0.6816  0.4482 -3.0327
 7509SOL     OW33988   3.954   2.143   4.037 -0.2185 -0.3402 -0.1442
 7509SOL    HW133989   3.998   2.075   3.986 -0.0885  0.8318 -1.5847
 7509SOL    HW233990   4.032   2.173   4.083  0.6598  0.8561 -2.3914
 7510SOL     OW33991   3.298   2.771   9.885 -0.1755 -0.5023 -0.1766
 7510SOL    HW133992   3.259   2.857   9.899  1.5409  0.4327 -1.0753
 7510SOL    HW233993   3.266   2.720   9.960 -0.9925  1.1431  0.5965
 7511SOL     OW33994   4.001   0.300   3.549 -0.6541  0.4558  0.6450
 7511SOL    HW133995   3.921   0.249   3.561  0.0598 -0.7562  0.2648
 7511SOL    HW233996   4.066   0.230   3.540 -0.8607  0.3718 -0.1986
 7512SOL     OW33997   4.679   0.897   6.491 -0.5313  0.1247  0.3070
 7512SOL    HW133998   4.687   0.983   6.451 -0.4913 -0.0654 -0.0953
 7512SOL    HW233999   4.587   0.882   6.472 -0.2816 -0.7873 -0.1935
 7513SOL     OW34000   3.377   2.996  14.351 -0.1640  0.2939  0.6183
 7513SOL    HW134001   3.355   2.983  14.443 -0.0370 -0.0934  0.5931
 7513SOL    HW234002   3.305   3.055  14.329  1.9350  3.0066  0.9744
 7514SOL     OW34003   2.826   3.433   9.852 -0.2353  0.1619 -0.0043
 7514SOL    HW134004   2.884   3.492   9.804  1.7300 -0.1473  1.9806
 7514SOL    HW234005   2.742   3.478   9.849 -0.6769 -0.6968 -0.8230
 7515SOL     OW34006   2.666   2.225   7.035  0.2788  0.0414 -0.4917
 7515SOL    HW134007   2.694   2.304   7.080  1.5154 -0.4361 -0.4360
 7515SOL    HW234008   2.572   2.236   7.015  0.5784 -0.6655 -2.3328
 7516SOL     OW34009   0.881   1.369   5.240  0.1808 -0.5329 -0.2091
 7516SOL    HW134010   0.853   1.310   5.310  2.5775 -1.5508 -0.1147
 7516SOL    HW234011   0.959   1.327   5.204  0.2001 -1.2337  0.6553
 7517SOL     OW34012   3.186   1.152  12.710 -0.2086  0.5816 -0.2521
 7517SOL    HW134013   3.111   1.198  12.673  0.3607  1.1499 -0.7163
 7517SOL    HW234014   3.255   1.219  12.699 -0.9996  1.6185  1.0449
 7518SOL     OW34015   4.496   4.070   7.809 -0.6094 -0.3011 -0.4133
 7518SOL    HW134016   4.542   4.065   7.893  1.0319  1.3341 -1.2196
 7518SOL    HW234017   4.454   4.156   7.819 -1.1072 -0.5186 -0.6218
 7519SOL     OW34018   2.537   3.672   0.526  0.5085 -0.3121  0.2756
 7519SOL    HW134019   2.573   3.607   0.466  1.5313  0.6128 -0.1215
 7519SOL    HW234020   2.492   3.608   0.581 -2.6133  1.1279 -0.5726
 7520SOL     OW34021   4.607   0.958   6.084 -0.3212  0.9130  0.1959
 7520SOL    HW134022   4.633   0.911   6.164 -0.6119 -0.3136 -0.4198
 7520SOL    HW234023   4.513   0.940   6.074  0.1873 -1.2243 -0.9023
 7521SOL     OW34024   1.370   0.306   6.202  0.6464  0.3678 -1.0615
 7521SOL    HW134025   1.427   0.329   6.276  0.0643  0.8130 -0.7537
 7521SOL    HW234026   1.282   0.328   6.233  1.2092  0.9258  0.1314
 7522SOL     OW34027   3.567   1.865   7.941 -0.1841  0.6115  0.2036
 7522SOL    HW134028   3.561   1.960   7.952  0.6620  0.8027 -0.9368
 7522SOL    HW234029   3.495   1.848   7.879  0.8962 -0.3714 -0.7690
 7523SOL     OW34030   0.908   0.867   8.386  0.0540 -0.1991  0.3408
 7523SOL    HW134031   0.923   0.922   8.463 -3.1980 -0.2132  0.9934
 7523SOL    HW234032   0.993   0.873   8.343 -0.7042 -0.7213 -1.2499
 7524SOL     OW34033   3.982   1.881   7.445  0.1184 -0.2561  0.0281
 7524SOL    HW134034   4.050   1.815   7.462  0.6374  0.0656 -0.7620
 7524SOL    HW234035   3.970   1.871   7.350  0.7297 -3.1355  0.2435
 7525SOL     OW34036   2.294   3.898   6.189 -0.4435 -0.5819 -0.2263
 7525SOL    HW134037   2.331   3.935   6.109  2.3267  0.0658  1.3446
 7525SOL    HW234038   2.374   3.853   6.217 -0.5575 -0.3384  0.4857
 7526SOL     OW34039   0.055   3.704   9.560 -0.1392 -0.4119 -0.0250
 7526SOL    HW134040   0.002   3.783   9.575  0.8434  1.0457 -4.1635
 7526SOL    HW234041   0.004   3.643   9.614  0.7212 -2.0225 -1.0440
 7527SOL     OW34042   3.569   4.665   2.202  0.3122 -0.3094 -0.2880
 7527SOL    HW134043   3.633   0.009   2.189  1.5588 -1.1772  1.2008
 7527SOL    HW234044   3.492   4.710   2.166  0.9584 -0.5680 -2.0090
 7528SOL     OW34045   3.324   3.943  12.457  0.2110  0.1742  0.2122
 7528SOL    HW134046   3.252   3.891  12.420  1.1070 -0.9021 -0.0027
 7528SOL    HW234047   3.298   4.031  12.429 -0.7154 -0.3159 -0.4828
 7529SOL     OW34048   1.015   4.339   6.998 -0.2049 -0.5439  0.3282
 7529SOL    HW134049   1.064   4.257   6.993  1.3313  0.3800 -0.0334
 7529SOL    HW234050   1.085   4.404   6.986  0.2909 -1.1189  0.0921
 7530SOL     OW34051   4.190   2.083  12.501  0.1605 -0.1602  0.0637
 7530SOL    HW134052   4.130   2.043  12.564  0.8753 -0.8455  0.3123
 7530SOL    HW234053   4.131   2.102  12.429  1.5265  0.6460 -0.8453
 7531SOL     OW34054   0.494   3.832   6.635 -0.1543  0.1865 -0.3371
 7531SOL    HW134055   0.550   3.797   6.566 -0.9051  1.4949 -1.5821
 7531SOL    HW234056   0.508   3.926   6.632  0.6643  0.0806  0.1283
 7532SOL     OW34057   0.976   1.209   7.875  0.4946  0.2075  0.5088
 7532SOL    HW134058   0.943   1.172   7.957  2.2215 -1.9175  0.2244
 7532SOL    HW234059   1.053   1.154   7.863  1.1335  1.4832 -1.1705
 7533SOL     OW34060   4.650   4.659   3.678 -0.4093  0.0125  0.5905
 7533SOL    HW134061   4.556   4.647   3.663  0.3910 -1.5743 -3.3009
 7533SOL    HW234062   4.654   0.023   3.710 -0.7862  0.5370 -0.7995
 7534SOL     OW34063   4.646   2.310   5.342  0.1345  0.1033  0.1230
 7534SOL    HW134064   4.656   2.298   5.436  0.0288 -3.2055 -0.3101
 7534SOL    HW234065   4.576   2.373   5.328 -0.6463 -0.9672 -0.7118
 7535SOL     OW34066   2.963   0.042   8.473 -0.3987  0.6707  0.1842
 7535SOL    HW134067   2.989   0.121   8.425  0.1877  0.6763  0.5088
 7535SOL    HW234068   2.873   0.036   8.441 -0.0926  0.5629 -0.6709
 7536SOL     OW34069   2.429   3.598   5.283  0.4329  0.5239  0.3145
 7536SOL    HW134070   2.507   3.652   5.298 -0.8634  2.2136  0.9111
 7536SOL    HW234071   2.420   3.614   5.189  2.2089 -0.2306  0.0018
 7537SOL     OW34072   4.604   3.619   2.760 -0.1158  0.2596  0.4158
 7537SOL    HW134073   4.562   3.698   2.793  0.6822 -0.0559  2.2039
 7537SOL    HW234074   4.694   3.649   2.774  0.5910 -1.6640 -0.0256
 7538SOL     OW34075   0.834   3.690   7.868  0.7298  0.2177 -0.4238
 7538SOL    HW134076   0.896   3.721   7.801  0.2648 -0.8560 -1.3516
 7538SOL    HW234077   0.896   3.663   7.935  0.2941 -2.0527 -0.9593
 7539SOL     OW34078   0.291   3.512  13.089  0.0273  0.2457  0.3609
 7539SOL    HW134079   0.242   3.516  13.171 -1.6669 -0.6702 -0.6042
 7539SOL    HW234080   0.381   3.532  13.116 -0.1058  1.3033  0.0478
 7540SOL     OW34081   4.030   3.764  15.255 -0.0392  0.4664 -0.5300
 7540SOL    HW134082   4.079   3.696  15.209  0.3424  0.6615 -0.4225
 7540SOL    HW234083   3.993   3.710  15.325  0.1598  1.4416  0.3377
 7541SOL     OW34084   3.117   2.806   0.716  0.3210 -0.6503  0.3654
 7541SOL    HW134085   3.086   2.742   0.652 -0.4470 -1.7838  1.8802
 7541SOL    HW234086   3.080   2.775   0.799 -3.8574 -0.4122 -1.4339
 7542SOL     OW34087   4.702   2.100   4.484  0.4383 -0.4561 -0.0382
 7542SOL    HW134088   0.024   2.127   4.562 -1.8056  0.6345  0.9508
 7542SOL    HW234089   0.028   2.156   4.426 -0.9296 -0.1353 -0.9702
 7543SOL     OW34090   4.427   3.669   5.852  0.1395 -0.4604 -0.2744
 7543SOL    HW134091   4.338   3.700   5.871  0.6172 -0.2516  1.6087
 7543SOL    HW234092   4.390   3.586   5.822 -3.0689 -0.1532  2.7296
 7544SOL     OW34093   4.664   2.836   7.473  0.2136  0.2698  0.5441
 7544SOL    HW134094   4.648   2.777   7.399 -0.1493  0.9821  0.0556
 7544SOL    HW234095   4.664   2.773   7.544 -2.8018 -1.4402 -0.9686
 7545SOL     OW34096   2.740   0.178   6.184 -0.4496 -0.5423  0.1759
 7545SOL    HW134097   2.758   0.213   6.271 -0.8713 -0.3622  0.1947
 7545SOL    HW234098   2.756   0.253   6.127  2.3620 -1.4177 -0.1781
 7546SOL     OW34099   1.035   3.862   2.002  0.2511 -0.5240 -0.2126
 7546SOL    HW134100   0.988   3.806   2.064 -0.2077 -0.4581 -0.5051
 7546SOL    HW234101   1.095   3.790   1.980  1.8531  0.3482  1.2940
 7547SOL     OW34102   2.391   3.227   8.560  0.5418  0.2681  0.4929
 7547SOL    HW134103   2.311   3.234   8.507  2.2006  0.5569 -1.9890
 7547SOL    HW234104   2.367   3.264   8.645  0.1287 -1.2758  1.0510
 7548SOL     OW34105   3.639   1.698   7.252  0.1271  0.1020  0.1410
 7548SOL    HW134106   3.657   1.621   7.198  1.0388 -0.9933  1.9868
 7548SOL    HW234107   3.596   1.652   7.324 -1.7475 -0.1537 -1.1432
 7549SOL     OW34108   0.854   3.156   6.666  0.2140 -0.3275 -0.3107
 7549SOL    HW134109   0.868   3.124   6.576  2.2621  1.8212 -0.7345
 7549SOL    HW234110   0.761   3.140   6.684  0.1075 -0.8040 -1.2581
 7550SOL     OW34111   3.709   2.460   5.037  0.2561  0.1284  0.3765
 7550SOL    HW134112   3.736   2.405   4.964 -1.2899 -0.2599  0.1007
 7550SOL    HW234113   3.621   2.425   5.055 -0.5786  0.7004 -2.6411
 7551SOL     OW34114   4.131   1.530  17.574 -0.2356 -0.2558 -0.4133
 7551SOL    HW134115   4.045   1.553  17.539  0.4027  1.5702 -0.7549
 7551SOL    HW234116   4.123   1.593  17.646 -0.6228  0.4513 -1.0741
 7552SOL     OW34117   1.161   2.199   9.578  0.5110  0.0887  0.2681
 7552SOL    HW134118   1.189   2.136   9.512  0.6614 -1.0623  1.4344
 7552SOL    HW234119   1.080   2.161   9.613  1.0512  0.5052  1.9847
 7553SOL     OW34120   4.277   3.879  17.158 -0.4702  0.3859  0.2423
 7553SOL    HW134121   4.285   3.882  17.253 -2.5554  0.1243  0.4245
 7553SOL    HW234122   4.189   3.843  17.152 -0.0012 -0.6482 -0.3886
 7554SOL     OW34123   3.052   0.053   7.231 -0.8820 -0.1148  0.0324
 7554SOL    HW134124   3.034   4.696   7.186 -0.0872 -0.4790  0.3814
 7554SOL    HW234125   3.146   0.040   7.242 -1.2672 -2.9864  0.0902
 7555SOL     OW34126   1.073   3.605  11.149  0.9592 -0.1357 -0.4201
 7555SOL    HW134127   1.040   3.639  11.232  0.2487 -0.3587 -0.6115
 7555SOL    HW234128   1.152   3.552  11.161  1.7938  0.6465 -2.3764
 7556SOL     OW34129   4.653   4.551   8.366 -0.0689  0.7901  0.3410
 7556SOL    HW134130   4.632   4.479   8.425 -0.0305  0.4014 -0.1209
 7556SOL    HW234131   4.669   4.621   8.429  0.3032  0.9271  0.0917
 7557SOL     OW34132   2.694   0.858   3.942 -0.4737  0.3330 -0.1857
 7557SOL    HW134133   2.758   0.914   3.987  0.7063 -3.0001  2.2700
 7557SOL    HW234134   2.745   0.830   3.866  1.2003 -1.9745  1.7803
 7558SOL     OW34135   0.479   1.916  10.342 -0.1937  0.5654 -0.4853
 7558SOL    HW134136   0.480   1.823  10.365 -1.3211  1.1918  2.0457
 7558SOL    HW234137   0.538   1.951  10.409  1.1918 -0.1660 -1.3299
 7559SOL     OW34138   0.807   3.799   5.129 -0.2978 -0.5017  0.1064
 7559SOL    HW134139   0.781   3.890   5.141  0.9262  0.0583 -1.6062
 7559SOL    HW234140   0.722   3.762   5.155  1.0280 -2.8309  1.1176
 7560SOL     OW34141   1.296   1.767   6.525 -0.4689 -0.2097  0.1875
 7560SOL    HW134142   1.360   1.700   6.502  0.0873  0.5441 -0.4764
 7560SOL    HW234143   1.324   1.777   6.616  1.0686  0.5806 -0.3604
 7561SOL     OW34144   0.323   3.479  14.678 -0.1176  0.1905 -0.4171
 7561SOL    HW134145   0.288   3.451  14.763  1.5907  2.8335  1.1847
 7561SOL    HW234146   0.380   3.405  14.657 -0.5533 -0.0820 -0.6313
 7562SOL     OW34147   0.026   3.964   9.277  0.1340 -0.2446  0.7542
 7562SOL    HW134148   4.676   4.010   9.311 -0.1312  0.8532 -1.2997
 7562SOL    HW234149   4.715   3.876   9.262  2.4883 -1.0339 -0.4529
 7563SOL     OW34150   3.910   4.116   1.188 -0.5518  0.2603  0.0426
 7563SOL    HW134151   3.891   4.029   1.155  1.9190  0.1053 -0.9877
 7563SOL    HW234152   4.004   4.120   1.170 -0.2211 -0.6457  1.5763
 7564SOL     OW34153   1.518   2.154   3.110 -0.5667 -0.3893  0.0314
 7564SOL    HW134154   1.510   2.065   3.078  0.2848 -0.2637 -0.5319
 7564SOL    HW234155   1.599   2.176   3.063 -1.6812  0.4463 -1.4805
 7565SOL     OW34156   2.460   2.876   2.949 -0.0050 -0.0774  0.6317
 7565SOL    HW134157   2.489   2.907   2.863 -0.0803 -0.8303  0.3329
 7565SOL    HW234158   2.443   2.954   3.001 -0.4381 -0.9197  1.7496
 7566SOL     OW34159   0.542   3.342  16.986  0.1279  0.2079 -0.1924
 7566SOL    HW134160   0.516   3.259  17.027 -0.6520  0.6052  0.1053
 7566SOL    HW234161   0.461   3.389  16.965 -1.8255 -2.8687  0.5279
 7567SOL     OW34162   1.258   4.177   8.304  0.3196  0.1835 -0.0181
 7567SOL    HW134163   1.171   4.178   8.264  0.6194  1.1569 -0.6266
 7567SOL    HW234164   1.252   4.249   8.367  0.9123 -1.0373  1.4511
 7568SOL     OW34165   1.094   3.682   0.678 -0.1089  0.5724 -0.3278
 7568SOL    HW134166   1.048   3.633   0.746  0.2289  0.3839 -0.2380
 7568SOL    HW234167   1.018   3.725   0.638 -0.0871  0.3828 -0.5742
 7569SOL     OW34168   2.354   3.318  14.954 -0.0082 -0.3580 -0.4294
 7569SOL    HW134169   2.413   3.254  14.995  0.7588  0.2885 -0.5135
 7569SOL    HW234170   2.415   3.359  14.892  1.1510 -2.8576 -0.9581
 7570SOL     OW34171   4.418   0.769  11.993 -0.4012 -0.0854  0.0425
 7570SOL    HW134172   4.425   0.860  12.020 -0.7683  0.0440 -0.3010
 7570SOL    HW234173   4.412   0.737  12.083  1.3029 -0.3257  0.0758
 7571SOL     OW34174   1.153   2.003   4.035  0.1248  0.0673  0.4705
 7571SOL    HW134175   1.129   1.918   3.999  0.9410 -0.9057  2.2753
 7571SOL    HW234176   1.066   2.044   4.036 -0.1412 -0.4544 -0.5916
 7572SOL     OW34177   0.120   2.161   2.148  0.0202 -0.8012  0.1645
 7572SOL    HW134178   0.162   2.239   2.183  0.0909 -0.7454 -0.0459
 7572SOL    HW234179   0.071   2.200   2.076 -1.6554 -1.1050  1.1284
 7573SOL     OW34180   0.035   1.520   3.992 -0.0441  0.0919 -0.1328
 7573SOL    HW134181   4.701   1.493   3.922 -1.8819 -0.9042  1.8517
 7573SOL    HW234182   0.066   1.606   3.963 -0.0923  0.0611 -0.2780
 7574SOL     OW34183   3.784   1.655   5.376  0.5374  0.7897 -0.8642
 7574SOL    HW134184   3.691   1.640   5.394  0.7054  0.1634 -0.4897
 7574SOL    HW234185   3.781   1.703   5.293  1.4849  0.4640 -1.0848
 7575SOL     OW34186   3.067   1.731  13.573  0.1786 -0.0225  0.1055
 7575SOL    HW134187   3.101   1.649  13.539 -1.9555 -0.7626 -0.2210
 7575SOL    HW234188   3.120   1.788  13.518 -0.5093  1.4218  0.9250
 7576SOL     OW34189   2.309   3.794   1.072  0.0821 -0.4878 -0.7337
 7576SOL    HW134190   2.397   3.773   1.041  0.3267  0.4941 -0.7128
 7576SOL    HW234191   2.281   3.707   1.102 -0.1725 -0.3859 -0.6777
 7577SOL     OW34192   1.089   0.581   5.670 -0.8510 -0.0885 -0.1119
 7577SOL    HW134193   1.159   0.584   5.735  0.4240  2.2773 -1.5858
 7577SOL    HW234194   1.135   0.611   5.592  3.4446 -0.2351  2.3619
 7578SOL     OW34195   4.346   3.611  12.743  0.3040  0.5051  0.7564
 7578SOL    HW134196   4.279   3.545  12.760  2.3002 -1.8554 -0.5360
 7578SOL    HW234197   4.309   3.689  12.785  0.3300  1.1502 -0.4302
 7579SOL     OW34198   3.911   1.388   4.576  0.5890 -0.8840 -0.1762
 7579SOL    HW134199   3.950   1.468   4.539  0.6537 -0.7126  0.2652
 7579SOL    HW234200   3.874   1.429   4.654 -0.2962 -0.3335 -0.8777
 7580SOL     OW34201   2.809   4.034   8.345  0.1115 -0.2608  0.0205
 7580SOL    HW134202   2.868   3.964   8.370 -0.2483 -0.4834  0.2479
 7580SOL    HW234203   2.862   4.114   8.346 -0.3683  0.0660 -1.9654
 7581SOL     OW34204   4.011   0.586  14.688  0.5445 -0.6728 -0.0732
 7581SOL    HW134205   4.002   0.492  14.703 -1.4860 -0.3399  0.7432
 7581SOL    HW234206   3.928   0.610  14.647  0.9976  3.1075  1.1561
 7582SOL     OW34207   2.953   4.719  16.715 -0.3744  0.2004 -0.3136
 7582SOL    HW134208   2.995   4.649  16.764 -0.0130  0.1383 -0.7149
 7582SOL    HW234209   3.012   0.069  16.722 -0.5793  0.2442  0.9596
 7583SOL     OW34210   0.624   0.060  14.282 -0.8459 -0.0023  0.3272
 7583SOL    HW134211   0.542   0.058  14.232 -0.1485  1.3640 -0.8829
 7583SOL    HW234212   0.659   0.146  14.261  0.5096  0.1184  3.0217
 7584SOL     OW34213   1.514   0.821   2.781  0.4641  0.0731  0.1311
 7584SOL    HW134214   1.438   0.779   2.821 -0.3363 -0.4045 -1.8906
 7584SOL    HW234215   1.568   0.747   2.753 -2.5288 -2.2841  0.5885
 7585SOL     OW34216   2.997   4.326   6.025  0.6937  0.1024 -0.3362
 7585SOL    HW134217   3.079   4.299   6.066 -0.1464 -0.0723  1.1950
 7585SOL    HW234218   2.961   4.238   6.015 -0.0648  0.7046 -2.8510
 7586SOL     OW34219   3.170   1.995   6.651  0.5251  0.7118  0.2228
 7586SOL    HW134220   3.245   1.975   6.707  0.2394 -1.9414 -0.3385
 7586SOL    HW234221   3.158   1.908   6.612 -1.3102  1.4371 -0.7809
 7587SOL     OW34222   1.038   3.123   4.644  0.8227  0.6523  0.6034
 7587SOL    HW134223   1.094   3.055   4.606 -1.4090 -0.1782 -1.1320
 7587SOL    HW234224   1.078   3.197   4.598  0.4199 -0.7231 -1.9510
 7588SOL     OW34225   1.896   4.438   3.125  0.1389  0.9439 -0.2473
 7588SOL    HW134226   1.965   4.439   3.191 -1.2316  2.8072  1.1447
 7588SOL    HW234227   1.899   4.531   3.099  0.4839  0.1559 -3.0382
 7589SOL     OW34228   0.341   4.638   4.176  0.7751 -0.0460  0.0376
 7589SOL    HW134229   0.435   4.622   4.188  0.6898 -1.2560 -0.9410
 7589SOL    HW234230   0.322   4.560   4.124  3.7840 -0.0375 -1.0924
 7590SOL     OW34231   3.647   0.080  12.315 -0.0980 -0.0939  0.2819
 7590SOL    HW134232   3.609   0.128  12.389 -1.8426 -1.8175  0.5092
 7590SOL    HW234233   3.706   0.021  12.362 -1.0269  1.5968  3.5585
 7591SOL     OW34234   4.183   1.135  12.919 -0.1637  0.0339 -0.0747
 7591SOL    HW134235   4.167   1.228  12.937 -1.7397 -0.0305 -1.1345
 7591SOL    HW234236   4.155   1.091  12.999  0.1873  1.0134  0.5971
 7592SOL     OW34237   2.289   4.456   2.959 -0.0692 -0.0221  0.0246
 7592SOL    HW134238   2.211   4.511   2.951 -1.2326 -1.4005  1.8350
 7592SOL    HW234239   2.339   4.493   2.887  0.5186  0.0194  0.4502
 7593SOL     OW34240   4.498   3.529  12.288  0.7993  0.2117  0.1963
 7593SOL    HW134241   4.502   3.539  12.383  0.3608  0.7175  0.1651
 7593SOL    HW234242   4.574   3.479  12.259  0.1716 -0.7044  0.1385
 7594SOL     OW34243   3.607   3.841  16.522  0.1509  0.5751 -0.1895
 7594SOL    HW134244   3.681   3.816  16.466 -0.1800 -0.1837 -0.2997
 7594SOL    HW234245   3.581   3.754  16.552  0.1658  0.4791 -0.4545
 7595SOL     OW34246   1.226   1.442   7.580  0.1569  0.7461 -0.1527
 7595SOL    HW134247   1.252   1.403   7.496 -0.0677 -2.9777  1.5321
 7595SOL    HW234248   1.230   1.362   7.632 -0.9533  1.1081  0.4803
 7596SOL     OW34249   3.456   3.225  11.608  0.0111  0.0083 -0.4820
 7596SOL    HW134250   3.499   3.188  11.685  0.6771 -1.9000 -1.7735
 7596SOL    HW234251   3.380   3.253  11.658  2.1204  0.5871  2.3843
 7597SOL     OW34252   1.095   2.296   6.920 -0.5714  0.3582  0.3400
 7597SOL    HW134253   1.016   2.305   6.972 -0.4208  3.6762  0.0103
 7597SOL    HW234254   1.158   2.332   6.982 -1.2808 -0.4637  1.5296
 7598SOL     OW34255   0.507   1.773  10.111  0.3312 -0.5328  0.4380
 7598SOL    HW134256   0.510   1.842  10.177 -0.2467 -0.2980  0.2158
 7598SOL    HW234257   0.423   1.731  10.130  0.4213 -1.3534 -0.9766
 7599SOL     OW34258   0.532   2.248   6.725  0.0855 -0.1557  0.4711
 7599SOL    HW134259   0.552   2.157   6.749  0.6110 -0.2353 -0.2616
 7599SOL    HW234260   0.617   2.287   6.707  0.3818  0.5662  3.4410
 7600SOL     OW34261   3.931   4.111   4.961 -0.2426  0.1971  0.1619
 7600SOL    HW134262   3.861   4.176   4.949  1.2620  1.5386 -1.2366
 7600SOL    HW234263   3.892   4.023   4.967  1.5549 -0.4719  1.8542
 7601SOL     OW34264   0.064   3.619   4.848  0.4220 -0.2368 -0.4032
 7601SOL    HW134265   4.708   3.593   4.891  0.5271 -0.1156 -0.1245
 7601SOL    HW234266   0.068   3.569   4.767  1.3374 -0.0358 -0.4845
 7602SOL     OW34267   3.751   2.347   4.335 -0.2507 -0.5054  0.3184
 7602SOL    HW134268   3.700   2.286   4.281  0.2263 -1.0462  0.4870
 7602SOL    HW234269   3.806   2.382   4.265 -0.6395 -0.9840 -0.2280
 7603SOL     OW34270   3.359   3.454  17.124  0.5182 -0.0374  0.2245
 7603SOL    HW134271   3.405   3.373  17.102  0.0499 -0.0850 -0.5648
 7603SOL    HW234272   3.441   3.501  17.141  0.1841  0.3456  0.7885
 7604SOL     OW34273   4.263   0.406   0.238 -0.2375 -0.2831 -0.0628
 7604SOL    HW134274   4.270   0.322   0.192  0.6326  0.0843 -0.5971
 7604SOL    HW234275   4.296   0.375   0.322 -2.3997  2.2735  1.7061
 7605SOL     OW34276   4.414   3.663   3.371 -0.0024  0.0166  0.3074
 7605SOL    HW134277   4.506   3.651   3.398  0.0831  0.3206  0.1458
 7605SOL    HW234278   4.394   3.570   3.361  2.7575 -0.7174  1.4732
 7606SOL     OW34279   4.084   2.864   2.227 -0.2405  0.2607 -0.1316
 7606SOL    HW134280   4.139   2.861   2.305  0.3432  0.5375 -0.5377
 7606SOL    HW234281   4.108   2.952   2.200  0.8954 -0.4308 -1.3644
 7607SOL     OW34282   4.456   4.031   3.234  0.2523  0.4241 -0.0486
 7607SOL    HW134283   4.407   4.088   3.175  2.5460  2.7778  0.3240
 7607SOL    HW234284   4.533   4.004   3.184  0.5491 -0.2357  0.7574
 7608SOL     OW34285   4.305   1.858  11.687  0.3368  0.1938 -0.1807
 7608SOL    HW134286   4.289   1.883  11.778 -0.7136 -0.3428 -0.2231
 7608SOL    HW234287   4.223   1.887  11.647  0.5932 -0.0251 -0.8663
 7609SOL     OW34288   2.376   2.493  11.025  0.0135  0.3313  0.0150
 7609SOL    HW134289   2.364   2.518  10.933 -1.9142 -1.7504 -0.2985
 7609SOL    HW234290   2.408   2.403  11.027  0.3511  0.4813  1.3122
 7610SOL     OW34291   3.920   3.785   2.986 -0.0610  0.0547  0.0592
 7610SOL    HW134292   3.911   3.833   2.904 -0.1321  0.8916  0.5531
 7610SOL    HW234293   3.830   3.764   3.009 -0.7544  2.1551 -0.7871
 7611SOL     OW34294   2.536   1.286  11.266  0.0703  0.6591 -0.4935
 7611SOL    HW134295   2.523   1.380  11.284  1.6029  0.7253  0.3112
 7611SOL    HW234296   2.556   1.278  11.173 -2.1296 -0.4773 -0.8654
 7612SOL     OW34297   1.766   4.072   7.434  0.3536 -0.0804  0.1253
 7612SOL    HW134298   1.688   4.042   7.387  2.1262 -2.3464 -1.3526
 7612SOL    HW234299   1.836   4.080   7.370  0.3710  0.9872  0.2714
 7613SOL     OW34300   3.152   3.286   8.017 -0.1512  1.0259  0.2468
 7613SOL    HW134301   3.103   3.216   7.975 -0.1513  1.1607  0.0229
 7613SOL    HW234302   3.213   3.304   7.945 -1.6057 -1.1726 -1.5031
 7614SOL     OW34303   2.240   1.640   8.265  0.0465  0.1088  0.2722
 7614SOL    HW134304   2.267   1.586   8.339  2.0731  2.3199  1.1736
 7614SOL    HW234305   2.147   1.622   8.256  0.4259 -1.7725  0.1701
 7615SOL     OW34306   2.324   4.134   4.255 -0.0414  0.9171  0.1339
 7615SOL    HW134307   2.260   4.063   4.245  1.0300  0.2870 -2.1575
 7615SOL    HW234308   2.318   4.190   4.178  2.6167  1.7593  0.5569
 7616SOL     OW34309   2.133   0.688   6.356 -0.4765  0.3051 -0.2776
 7616SOL    HW134310   2.227   0.702   6.368 -0.7941  0.7093  1.6631
 7616SOL    HW234311   2.118   0.611   6.301  0.0655 -0.6324  0.8998
 7617SOL     OW34312   1.914   1.007  12.047 -0.4446  0.1792  0.0460
 7617SOL    HW134313   1.977   0.939  12.024 -1.2306 -0.8710  1.0192
 7617SOL    HW234314   1.949   1.046  12.127 -0.2196 -0.6955  0.3767
 7618SOL     OW34315   0.361   2.704  11.975  0.0054 -0.4068  0.1543
 7618SOL    HW134316   0.402   2.763  11.911  0.8506  0.9681  1.9480
 7618SOL    HW234317   0.400   2.721  12.061 -1.3391  1.9796  0.2766
 7619SOL     OW34318   0.751   3.633   5.715 -0.4557  0.1061  0.1892
 7619SOL    HW134319   0.749   3.546   5.755  0.8957 -0.7379 -1.6156
 7619SOL    HW234320   0.836   3.671   5.734 -1.5497  2.0074  1.3226
 7620SOL     OW34321   3.259   2.325   0.190 -0.5979 -0.3139 -0.0649
 7620SOL    HW134322   3.311   2.370   0.123  1.3538 -0.2351  1.5190
 7620SOL    HW234323   3.201   2.278   0.130  0.4682 -0.8347 -0.6790
 7621SOL     OW34324   1.008   0.077  14.718 -0.6907  0.3223 -0.6713
 7621SOL    HW134325   1.049   0.101  14.801  0.3518 -0.4227 -0.9721
 7621SOL    HW234326   1.089   0.087  14.668 -1.1384  1.1829 -1.2163
 7622SOL     OW34327   2.326   2.973   9.813  0.0200 -0.2714  0.1399
 7622SOL    HW134328   2.373   2.922   9.747  2.8334  1.5438  0.7757
 7622SOL    HW234329   2.286   3.038   9.754  1.2312  0.0605 -0.3077
 7623SOL     OW34330   2.169   0.524   4.252 -0.2108  0.0221  0.3356
 7623SOL    HW134331   2.192   0.432   4.263 -0.5240 -0.1735 -0.6207
 7623SOL    HW234332   2.260   0.554   4.257 -0.1759  0.0112 -0.2879
 7624SOL     OW34333   0.962   2.586   4.434 -0.4037  0.5455 -0.5940
 7624SOL    HW134334   0.875   2.548   4.415 -0.1336 -1.6417  2.5001
 7624SOL    HW234335   1.001   2.504   4.404  0.2888  0.6790 -0.0373
 7625SOL     OW34336   3.786   2.907   5.605  0.0949 -0.0893 -0.4641
 7625SOL    HW134337   3.744   2.821   5.605 -0.9907  0.4443 -2.1464
 7625SOL    HW234338   3.877   2.878   5.606  0.7289  1.9760  1.9362
 7626SOL     OW34339   0.886   0.108   4.998  0.4342 -0.0863  0.0227
 7626SOL    HW134340   0.956   0.048   5.023 -0.7101 -0.8116  1.4764
 7626SOL    HW234341   0.929   0.193   4.997 -1.8303  1.0845  2.0807
 7627SOL     OW34342   4.582   0.488   8.962 -0.0391 -0.1132  0.3445
 7627SOL    HW134343   4.512   0.442   9.009 -0.3831  0.3907  0.3205
 7627SOL    HW234344   4.658   0.435   8.984  1.0366  1.1941 -0.2560
 7628SOL     OW34345   3.986   4.460   4.036  0.0103  0.9524  0.9326
 7628SOL    HW134346   4.081   4.452   4.048 -0.0362 -2.8151 -1.2883
 7628SOL    HW234347   3.952   4.371   4.044  1.3662  0.4316  0.8329
 7629SOL     OW34348   3.157   3.188   4.118  0.1075  0.1647 -0.0136
 7629SOL    HW134349   3.106   3.149   4.047  0.7398 -0.8455  0.0866
 7629SOL    HW234350   3.089   3.243   4.157  0.0005 -0.0833  0.1488
 7630SOL     OW34351   1.305   3.591   2.698 -0.1417  0.5764 -0.2575
 7630SOL    HW134352   1.388   3.570   2.656 -0.4257 -0.7424 -0.1662
 7630SOL    HW234353   1.320   3.599   2.793 -0.7436 -0.8686 -0.0511
 7631SOL     OW34354   0.815   1.978  11.317  0.1065  0.0119  0.0892
 7631SOL    HW134355   0.882   2.001  11.381  1.7136  3.4701 -2.8644
 7631SOL    HW234356   0.829   1.888  11.286 -0.2516 -0.5243  1.4927
 7632SOL     OW34357   3.097   0.822   1.886  0.5259 -0.0191  0.2082
 7632SOL    HW134358   3.121   0.730   1.881 -1.5072 -0.5001 -0.9160
 7632SOL    HW234359   3.084   0.835   1.792  0.4717  2.4588  0.5624
 7633SOL     OW34360   2.879   0.982   4.088 -0.2731 -0.2504  0.0900
 7633SOL    HW134361   2.915   0.971   4.176 -0.2788  0.3251  0.1641
 7633SOL    HW234362   2.910   1.070   4.064 -1.0862  0.5145  1.8256
 7634SOL     OW34363   4.521   2.186   2.868 -0.2638  0.2954 -0.1162
 7634SOL    HW134364   4.586   2.137   2.919 -2.4278 -0.0775  2.2904
 7634SOL    HW234365   4.556   2.172   2.780  1.1799 -3.7206  1.0924
 7635SOL     OW34366   2.580   0.634   7.637  0.1458  0.3422 -0.3047
 7635SOL    HW134367   2.529   0.571   7.586 -0.2383 -0.1199  0.6491
 7635SOL    HW234368   2.668   0.628   7.601 -0.2389 -0.1018 -1.1585
 7636SOL     OW34369   1.671   4.462  14.270  0.3109  0.2124  0.3710
 7636SOL    HW134370   1.692   4.418  14.352  2.7687 -1.1678 -0.9878
 7636SOL    HW234371   1.651   4.388  14.212 -1.1606  1.0781 -0.2136
 7637SOL     OW34372   4.524   2.442  17.447 -0.0707 -0.1428  0.4519
 7637SOL    HW134373   4.553   2.462  17.536  0.1480 -0.9640  0.5671
 7637SOL    HW234374   4.502   2.530  17.416 -4.1801 -0.8286  1.4544
 7638SOL     OW34375   1.741   0.134   2.943 -0.8553  0.4172  0.0200
 7638SOL    HW134376   1.703   0.047   2.955 -1.7279  0.8185  0.1731
 7638SOL    HW234377   1.723   0.137   2.849  0.3813 -1.4202 -0.2838
 7639SOL     OW34378   4.568   2.421   9.141  0.3876 -0.3140 -0.2700
 7639SOL    HW134379   4.581   2.430   9.047  0.8830 -0.4033 -0.2091
 7639SOL    HW234380   4.529   2.333   9.143 -1.1550  0.3347 -1.2927
 7640SOL     OW34381   3.239   3.572   9.390  0.0015 -0.1620  0.4692
 7640SOL    HW134382   3.308   3.622   9.433 -0.2280  1.4448 -1.0374
 7640SOL    HW234383   3.207   3.524   9.467 -1.3888  2.5111  1.5958
 7641SOL     OW34384   4.697   3.916  13.702  0.2276  0.2567  0.1727
 7641SOL    HW134385   4.671   3.974  13.774 -0.6324 -0.3062  0.3132
 7641SOL    HW234386   4.669   3.968  13.627 -2.1666  0.1645  1.0184
 7642SOL     OW34387   2.032   4.280  11.712  0.2439 -0.0215 -0.0628
 7642SOL    HW134388   2.007   4.205  11.658 -0.7940 -0.2795  0.7723
 7642SOL    HW234389   2.026   4.246  11.801 -0.4921 -0.0571 -0.1252
 7643SOL     OW34390   0.643   2.492   3.488 -0.3766 -0.0077  0.3152
 7643SOL    HW134391   0.723   2.545   3.484 -1.4624  1.6189  0.4695
 7643SOL    HW234392   0.681   2.412   3.451 -0.0376 -0.0034  0.6567
 7644SOL     OW34393   4.645   2.250   8.594 -0.1183  0.5409  0.5616
 7644SOL    HW134394   4.689   2.231   8.510 -0.7275 -0.4999  0.4753
 7644SOL    HW234395   4.664   2.166   8.636 -1.3025  1.4338  2.8235
 7645SOL     OW34396   2.170   0.661   3.656  0.1216 -0.0939 -0.4153
 7645SOL    HW134397   2.102   0.712   3.699 -1.2831 -2.1714 -0.1556
 7645SOL    HW234398   2.132   0.573   3.652 -1.6896  0.7891 -2.5978
 7646SOL     OW34399   4.566   2.260   0.899 -0.3969 -0.3858 -0.3580
 7646SOL    HW134400   4.501   2.246   0.968 -2.0448 -1.3495 -2.1163
 7646SOL    HW234401   4.620   2.315   0.955 -1.1080 -0.0661  0.0093
 7647SOL     OW34402   1.852   3.283  15.716  1.0376  0.0549  0.1383
 7647SOL    HW134403   1.916   3.286  15.787  1.7662  1.6340 -0.5810
 7647SOL    HW234404   1.866   3.374  15.688  0.2560  0.0898 -0.1281
 7648SOL     OW34405   1.579   4.131   9.856 -0.2620 -0.2091 -0.2971
 7648SOL    HW134406   1.562   4.038   9.844  0.3086 -0.0597 -2.3043
 7648SOL    HW234407   1.526   4.153   9.933  1.0443 -0.8125  0.7697
 7649SOL     OW34408   2.954   2.288   3.589 -0.0074 -0.4167 -0.2487
 7649SOL    HW134409   2.955   2.351   3.517 -0.2461 -1.9699 -1.6348
 7649SOL    HW234410   3.044   2.256   3.576  0.5716  1.1346 -0.0785
 7650SOL     OW34411   4.339   2.861   9.491 -0.1912 -0.4442  0.5347
 7650SOL    HW134412   4.376   2.922   9.555  0.6748 -1.7443  1.2757
 7650SOL    HW234413   4.251   2.879   9.524 -0.3125  0.9546 -0.5700
 7651SOL     OW34414   1.444   3.146   5.625  0.2265 -0.0617  0.1540
 7651SOL    HW134415   1.535   3.120   5.644  0.1280  1.1510  2.2502
 7651SOL    HW234416   1.402   3.147   5.711  0.5709  0.5922  0.3142
 7652SOL     OW34417   2.189   3.689   3.951  0.0018  0.3652 -0.0241
 7652SOL    HW134418   2.119   3.747   3.980  0.7787  1.3836 -0.1637
 7652SOL    HW234419   2.144   3.606   3.963 -1.4678  1.0824 -0.5833
 7653SOL     OW34420   3.694   0.544   4.580 -0.3363  0.2526 -0.0742
 7653SOL    HW134421   3.623   0.566   4.518 -0.2243  1.8568  0.3648
 7653SOL    HW234422   3.664   0.455   4.600 -0.2577 -0.2387 -2.0877
 7654SOL     OW34423   1.389   1.338   4.877  0.5841 -0.1958 -0.3254
 7654SOL    HW134424   1.328   1.273   4.915 -1.3820  1.0084 -1.4165
 7654SOL    HW234425   1.331   1.365   4.806 -1.2428 -0.7520  0.9346
 7655SOL     OW34426   0.726   2.992   6.457  0.2652 -0.1677 -0.2139
 7655SOL    HW134427   0.630   2.996   6.451  0.2601 -1.5743 -1.1782
 7655SOL    HW234428   0.735   2.899   6.477  2.1903 -0.8938 -4.4679
 7656SOL     OW34429   3.085   1.988   0.030  0.4547 -0.1765  0.1847
 7656SOL    HW134430   3.044   1.955  17.655  1.4389 -0.6869 -0.0977
 7656SOL    HW234431   3.121   1.911   0.074 -1.7530 -2.2352 -1.5880
 7657SOL     OW34432   3.125   1.666  13.821 -0.0815 -0.0362  0.4355
 7657SOL    HW134433   3.126   1.698  13.731  1.2771 -2.4375 -0.4096
 7657SOL    HW234434   3.033   1.678  13.846 -0.5140 -0.5915 -0.8809
 7658SOL     OW34435   1.508   0.918   5.044  0.0987 -0.2036  0.4684
 7658SOL    HW134436   1.596   0.947   5.021  0.5824 -1.1709  1.0777
 7658SOL    HW234437   1.499   0.950   5.134  1.0558 -0.1781  0.5594
 7659SOL     OW34438   3.927   3.565   8.466  0.1673 -0.1388  0.3166
 7659SOL    HW134439   3.956   3.639   8.413  2.1241 -2.3030 -1.6795
 7659SOL    HW234440   3.901   3.608   8.547  0.1468  0.2882  0.0857
 7660SOL     OW34441   1.872   3.287   8.006  0.0007  0.2753  0.3715
 7660SOL    HW134442   1.850   3.221   8.073  0.9054 -0.9697 -0.5589
 7660SOL    HW234443   1.848   3.366   8.055  0.8331  1.0428 -0.4726
 7661SOL     OW34444   3.150   0.493   2.543 -0.1666  0.0199  0.2730
 7661SOL    HW134445   3.217   0.554   2.576  1.0881 -1.0830 -0.2273
 7661SOL    HW234446   3.187   0.458   2.462 -1.2836 -0.0348 -0.2140
 7662SOL     OW34447   3.725   2.663   2.292 -0.1391  0.2628  0.0506
 7662SOL    HW134448   3.719   2.568   2.284 -0.9947  0.3338 -0.1367
 7662SOL    HW234449   3.743   2.684   2.383 -1.5046  1.9511 -0.0705
 7663SOL     OW34450   4.245   4.203  11.015  0.3775  0.6346 -0.0470
 7663SOL    HW134451   4.246   4.255  11.096 -0.8172  0.0554  0.3428
 7663SOL    HW234452   4.150   4.195  11.005  0.6136 -1.1409 -0.8526
 7664SOL     OW34453   2.659   2.207   4.432 -0.3974  0.2209  0.4924
 7664SOL    HW134454   2.639   2.151   4.507 -2.1476 -1.3632 -1.1421
 7664SOL    HW234455   2.750   2.186   4.412  0.1577  1.1571  2.0046
 7665SOL     OW34456   1.280   0.431  14.842 -0.3876 -0.5610  0.1265
 7665SOL    HW134457   1.334   0.442  14.921 -0.8628  1.1731  0.2027
 7665SOL    HW234458   1.347   0.399  14.782 -0.7295  0.1457 -0.6237
 7666SOL     OW34459   3.899   1.677   1.717  0.2154 -0.2941  0.1438
 7666SOL    HW134460   3.922   1.587   1.693  0.8220  0.0212 -0.4867
 7666SOL    HW234461   3.883   1.681   1.811 -1.1309 -1.3592 -0.0476
 7667SOL     OW34462   1.099   3.103   8.368  0.3045 -0.5533  0.6424
 7667SOL    HW134463   1.098   3.033   8.434  0.9354  0.1638  1.3980
 7667SOL    HW234464   1.176   3.078   8.317  0.8969 -1.7412  2.1287
 7668SOL     OW34465   3.966   2.120   0.268  0.1339  0.1926  0.3991
 7668SOL    HW134466   3.956   2.138   0.362 -0.5392 -2.2555  0.7881
 7668SOL    HW234467   4.040   2.178   0.247  0.5531 -0.3670  0.3170
 7669SOL     OW34468   0.215   1.575   8.207  0.4829 -0.1437 -0.4818
 7669SOL    HW134469   0.154   1.628   8.155  1.5143  1.7230  0.2268
 7669SOL    HW234470   0.231   1.497   8.155  1.0726 -1.3005  1.4539
 7670SOL     OW34471   3.027   2.581   0.599 -0.0045  0.3318  0.0103
 7670SOL    HW134472   3.090   2.509   0.594  0.2772  0.5094  1.0306
 7670SOL    HW234473   2.957   2.541   0.547 -0.9366  0.9853  0.7706
 7671SOL     OW34474   2.874   3.320   3.285 -0.1111 -0.2484  0.2807
 7671SOL    HW134475   2.866   3.312   3.190 -2.3734 -1.6703  0.6040
 7671SOL    HW234476   2.840   3.409   3.293  3.0509  0.9420  0.6162
 7672SOL     OW34477   3.689   3.911   8.568 -0.0719  0.0752  0.3459
 7672SOL    HW134478   3.751   3.944   8.632  1.2808 -2.9434  0.6156
 7672SOL    HW234479   3.618   3.974   8.574  1.5146  2.1024 -2.1823
 7673SOL     OW34480   4.345   2.168  12.270  0.0602 -0.5617 -0.4942
 7673SOL    HW134481   4.309   2.134  12.352 -0.9844  0.6055 -0.4874
 7673SOL    HW234482   4.267   2.206  12.231  2.1056  1.4626 -2.6312
 7674SOL     OW34483   4.107   1.157   5.372  0.3872  0.4004  0.2481
 7674SOL    HW134484   4.072   1.209   5.299  0.8103 -0.1316 -0.3370
 7674SOL    HW234485   4.045   1.085   5.379 -0.1819  0.6849 -1.8713
 7675SOL     OW34486   4.086   1.164   4.811 -0.3444 -0.5560 -0.0149
 7675SOL    HW134487   4.088   1.080   4.764 -0.4485  0.2123 -1.3769
 7675SOL    HW234488   4.089   1.219   4.733  2.1981  1.5142  1.5587
 7676SOL     OW34489   0.487   4.090   6.551 -0.5372  0.0252  0.1052
 7676SOL    HW134490   0.414   4.126   6.501 -2.8561 -2.7074  1.4740
 7676SOL    HW234491   0.469   4.127   6.638 -2.9143 -2.8516  0.8396
 7677SOL     OW34492   1.534   1.535   8.474 -0.0884 -0.5897 -0.5566
 7677SOL    HW134493   1.480   1.576   8.542  1.0751  0.7067 -0.4065
 7677SOL    HW234494   1.617   1.563   8.512 -0.8131  2.0480 -0.8511
 7678SOL     OW34495   3.659   3.339   7.061 -0.0193 -0.6753  0.0898
 7678SOL    HW134496   3.649   3.405   7.129 -0.6237 -0.6820  0.0105
 7678SOL    HW234497   3.679   3.393   6.985 -1.3409 -0.6477 -0.2419
 7679SOL     OW34498   1.550   3.768   2.563 -0.4160  0.4809  0.4919
 7679SOL    HW134499   1.632   3.731   2.594 -0.8226 -0.5556  0.3533
 7679SOL    HW234500   1.508   3.796   2.644 -0.4681  0.1145  0.5914
 7680SOL     OW34501   2.029   2.650  11.427  0.3798 -0.1268  0.3648
 7680SOL    HW134502   2.124   2.644  11.418  0.2959  0.1024 -0.7422
 7680SOL    HW234503   2.012   2.654  11.521 -0.6920 -2.1892  0.2709
 7681SOL     OW34504   1.549   1.049   5.276 -0.3561 -0.5046  0.5039
 7681SOL    HW134505   1.642   1.068   5.262 -0.5923  1.5345  1.7060
 7681SOL    HW234506   1.542   1.043   5.371  1.8715 -0.3443  0.6753
 7682SOL     OW34507   4.113   2.351   6.941 -0.1135 -0.3222  0.2136
 7682SOL    HW134508   4.074   2.290   7.004  0.6838  1.1007  2.0915
 7682SOL    HW234509   4.082   2.437   6.969  0.4585 -0.1723  0.3791
 7683SOL     OW34510   3.207   1.305   6.301  0.4895 -0.3544  0.6119
 7683SOL    HW134511   3.185   1.373   6.237  0.7878 -1.1661 -0.3610
 7683SOL    HW234512   3.190   1.227   6.249  2.7341 -2.0435  2.4309
 7684SOL     OW34513   1.454   0.472  16.270  0.5067  0.2828  0.2516
 7684SOL    HW134514   1.382   0.536  16.277 -1.1342 -1.8204  2.5795
 7684SOL    HW234515   1.445   0.445  16.362  3.1704  1.2887  0.8063
 7685SOL     OW34516   1.871   4.538   8.574  0.0310 -0.1623 -0.1111
 7685SOL    HW134517   1.788   4.517   8.532 -0.5351 -2.7239  2.2394
 7685SOL    HW234518   1.938   4.478   8.541  0.4101 -0.5703  1.3977
 7686SOL     OW34519   0.388   3.000   4.803 -0.2077 -0.4825 -0.3421
 7686SOL    HW134520   0.295   2.979   4.796 -0.6798  1.3872  0.3829
 7686SOL    HW234521   0.421   3.036   4.721  0.9812 -0.8743 -0.0314
 7687SOL     OW34522   0.495   2.567   7.472  0.6434  0.1169  0.0453
 7687SOL    HW134523   0.424   2.631   7.482  0.9394  0.8315 -2.4474
 7687SOL    HW234524   0.455   2.494   7.520  0.5923  0.8484  1.1227
 7688SOL     OW34525   1.732   1.413   5.263  0.4815 -0.1548  0.0507
 7688SOL    HW134526   1.782   1.345   5.308  1.3408  0.0313 -0.6184
 7688SOL    HW234527   1.646   1.386   5.294  0.8112 -2.1049 -0.7090
 7689SOL     OW34528   3.899   1.256   6.886  0.2415 -0.1459 -0.1697
 7689SOL    HW134529   3.831   1.263   6.819 -0.8670 -1.2025  0.8468
 7689SOL    HW234530   3.962   1.324   6.864 -0.8437  0.7575 -0.4639
 7690SOL     OW34531   3.253   2.846   2.290  0.7872  0.3042 -0.6898
 7690SOL    HW134532   3.173   2.892   2.316  2.7097  1.7622  2.6296
 7690SOL    HW234533   3.307   2.862   2.367  1.2898 -3.3581 -0.2906
 7691SOL     OW34534   0.938   2.851   6.806  0.0951 -0.1565  0.5310
 7691SOL    HW134535   0.893   2.777   6.847  0.1075 -1.7686 -2.3297
 7691SOL    HW234536   0.860   2.907   6.799  1.1577  1.0645 -1.5505
 7692SOL     OW34537   2.158   0.552   2.596  0.0651 -0.4095  0.5627
 7692SOL    HW134538   2.203   0.485   2.544 -2.0705 -1.0758 -0.4471
 7692SOL    HW234539   2.174   0.626   2.537 -1.7929 -0.6037 -0.1843
 7693SOL     OW34540   0.620   4.079  14.467 -0.2313 -0.4526 -0.5302
 7693SOL    HW134541   0.530   4.080  14.434 -0.7136 -1.7875  0.7090
 7693SOL    HW234542   0.640   3.989  14.441  0.6096  0.1771 -2.0420
 7694SOL     OW34543   2.367   1.386   9.153  0.3390  0.4346 -0.0844
 7694SOL    HW134544   2.350   1.472   9.115 -1.0586 -0.1334 -0.7656
 7694SOL    HW234545   2.391   1.336   9.075 -2.0731  0.9196 -1.1490
 7695SOL     OW34546   1.784   1.161   9.005  0.0980 -0.1394 -0.4106
 7695SOL    HW134547   1.738   1.228   9.054  0.6042  0.4774 -0.7756
 7695SOL    HW234548   1.729   1.083   9.014 -1.1687  0.8842  0.6614
 7696SOL     OW34549   3.187   4.493   2.480 -0.4732  0.0923 -0.2214
 7696SOL    HW134550   3.101   4.529   2.504 -0.4577  1.2929 -1.9005
 7696SOL    HW234551   3.236   4.573   2.462 -1.6813  1.0142  0.5994
 7697SOL     OW34552   2.968   2.411   5.759 -0.1415 -0.0666 -0.0985
 7697SOL    HW134553   2.927   2.325   5.768  0.5020 -0.5743 -2.1384
 7697SOL    HW234554   3.029   2.397   5.687  1.4372 -0.5688  1.3074
 7698SOL     OW34555   0.186   4.371   7.935 -0.0844 -0.2462  0.0839
 7698SOL    HW134556   0.161   4.279   7.920 -5.0020  0.6026  2.7798
 7698SOL    HW234557   0.219   4.376   8.025 -1.2564 -1.2990  0.5838
 7699SOL     OW34558   3.121   0.687   6.049  0.2037 -0.1396 -0.7054
 7699SOL    HW134559   3.055   0.750   6.021  0.1699 -0.2300 -0.8288
 7699SOL    HW234560   3.059   0.622   6.083  0.5050 -0.3324 -0.5163
 7700SOL     OW34561   2.302   1.941   7.054 -0.1465 -0.1950 -0.3230
 7700SOL    HW134562   2.269   1.943   7.144  3.8586  0.8857  1.1175
 7700SOL    HW234563   2.381   1.896   7.083 -0.7243 -0.9749  0.0663
 7701SOL     OW34564   0.119   4.453   6.568 -0.6095  0.0737 -0.3048
 7701SOL    HW134565   0.134   4.539   6.607  0.6679 -0.0328 -0.5728
 7701SOL    HW234566   0.163   4.465   6.484  0.4563  1.8540  0.5245
 7702SOL     OW34567   1.362   3.241   8.908 -0.3888 -0.3682  0.2418
 7702SOL    HW134568   1.430   3.175   8.899  2.5362  2.7017 -0.3200
 7702SOL    HW234569   1.287   3.199   8.950 -0.8356  0.8604  0.6930
 7703SOL     OW34570   4.709   1.978   4.090  0.5610 -0.6450  0.3053
 7703SOL    HW134571   4.702   1.905   4.150 -1.9310 -1.9993 -1.6675
 7703SOL    HW234572   0.073   1.972   4.057 -0.3763 -1.6131 -2.0896
 7704SOL     OW34573   1.107   3.799   3.074  0.1748  0.1880  0.3495
 7704SOL    HW134574   1.200   3.793   3.098  0.6622  2.5680 -1.0116
 7704SOL    HW234575   1.082   3.723   3.126  0.5207  0.8238  1.4381
 7705SOL     OW34576   0.585   3.442   8.147  0.5954 -0.1896 -0.6432
 7705SOL    HW134577   0.578   3.458   8.053 -1.8309 -0.6490 -0.5316
 7705SOL    HW234578   0.632   3.520   8.177  0.4756 -0.6966  0.8194
 7706SOL     OW34579   1.726   0.048   0.585 -0.4239  0.5918  0.0451
 7706SOL    HW134580   1.658   0.021   0.522  0.4706 -1.5004 -0.0294
 7706SOL    HW234581   1.744   0.139   0.559 -0.0153  1.4382  3.3565
 7707SOL     OW34582   1.745   3.454  13.064  0.3249 -0.2674 -0.1342
 7707SOL    HW134583   1.837   3.429  13.055 -0.0030 -0.9323 -1.7161
 7707SOL    HW234584   1.754   3.549  13.052  1.4415 -0.3796 -0.1849
 7708SOL     OW34585   1.957   0.840   1.556 -0.0538  0.1968 -0.3454
 7708SOL    HW134586   1.914   0.801   1.633  2.8708 -2.3349 -0.0251
 7708SOL    HW234587   2.040   0.861   1.598 -0.2221  1.4096 -0.6157
 7709SOL     OW34588   3.814   2.317   4.825 -0.0699 -0.1549 -0.1233
 7709SOL    HW134589   3.898   2.273   4.840 -0.7038 -1.3424 -0.0851
 7709SOL    HW234590   3.795   2.278   4.740 -3.8545  0.4787  0.4414
 7710SOL     OW34591   4.429   1.557   8.793 -0.0725  0.4664 -0.1362
 7710SOL    HW134592   4.427   1.633   8.851 -1.5222 -0.4601  1.0142
 7710SOL    HW234593   4.359   1.504   8.832  1.4567 -0.3688  1.4823
 7711SOL     OW34594   4.092   3.656  11.703  0.6397  0.9539  0.6841
 7711SOL    HW134595   4.126   3.731  11.654  0.3174  0.5339 -0.1776
 7711SOL    HW234596   4.006   3.683  11.735  1.1558  1.6470  1.5070
 7712SOL     OW34597   0.163   4.595   2.149  0.6117  0.2227 -0.8065
 7712SOL    HW134598   0.068   4.598   2.138  0.4740 -1.0270  0.0216
 7712SOL    HW234599   0.185   4.688   2.139 -1.1610  0.8888  1.6891
 7713SOL     OW34600   2.954   0.796   3.011  0.9596 -0.3899  0.2478
 7713SOL    HW134601   2.938   0.828   2.922  3.6676 -0.5740 -0.3336
 7713SOL    HW234602   2.877   0.740   3.023  0.9197  0.2991  3.1062
 7714SOL     OW34603   2.370   3.771   4.506 -0.3543 -0.0234 -0.1913
 7714SOL    HW134604   2.346   3.751   4.415 -0.5243 -0.4702 -0.0488
 7714SOL    HW234605   2.451   3.722   4.515 -0.6817 -0.1380  2.1069
 7715SOL     OW34606   3.190   2.183  11.569 -0.0656  0.0029  0.2446
 7715SOL    HW134607   3.159   2.214  11.654 -0.7805 -0.5560  0.1925
 7715SOL    HW234608   3.273   2.148  11.601 -1.1667 -4.6168 -1.8259
 7716SOL     OW34609   3.345   3.481   3.700 -0.0976  0.8274 -0.5150
 7716SOL    HW134610   3.346   3.388   3.722 -0.6212  1.0539  0.4859
 7716SOL    HW234611   3.253   3.506   3.713 -0.5863 -1.2111 -0.0849
 7717SOL     OW34612   1.632   2.863   0.792 -0.0270  0.3114 -0.2791
 7717SOL    HW134613   1.568   2.828   0.729  0.6657 -1.2723 -0.0773
 7717SOL    HW234614   1.661   2.939   0.741 -1.1493  0.5630 -0.5489
 7718SOL     OW34615   0.053   0.645   1.126 -0.7419  0.3383 -0.1242
 7718SOL    HW134616   0.085   0.734   1.121  1.9178 -0.5961  0.3333
 7718SOL    HW234617   0.045   0.631   1.220 -0.7019  1.6637  0.0698
 7719SOL     OW34618   3.401   0.330  11.723 -0.5254 -0.4419  0.6567
 7719SOL    HW134619   3.367   0.272  11.791  2.0112 -2.2293  0.3980
 7719SOL    HW234620   3.367   0.413  11.757  0.1887 -0.4945  1.5053
 7720SOL     OW34621   0.717   4.227   3.185 -0.1179 -0.4759 -0.0197
 7720SOL    HW134622   0.719   4.135   3.210 -1.9462 -1.0686 -2.0280
 7720SOL    HW234623   0.713   4.226   3.089 -1.2542  1.9711  0.0097
 7721SOL     OW34624   3.805   0.768   2.763  0.3747 -0.1541 -0.0931
 7721SOL    HW134625   3.766   0.796   2.846 -2.5775 -1.1388 -1.1278
 7721SOL    HW234626   3.792   0.844   2.707 -0.0641  0.3652  0.7120
 7722SOL     OW34627   0.647   4.366   0.681  0.0999 -0.0667 -0.3216
 7722SOL    HW134628   0.738   4.395   0.693 -0.1625 -0.1220  1.8218
 7722SOL    HW234629   0.593   4.395   0.754 -0.3672  3.6973 -2.1711
 7723SOL     OW34630   1.056   3.180   3.110 -0.3053  0.1045 -0.1341
 7723SOL    HW134631   0.965   3.161   3.135  0.3751 -3.0743 -0.1276
 7723SOL    HW234632   1.042   3.235   3.033  0.5126  0.0700 -0.3070
 7724SOL     OW34633   1.873   0.829   7.123 -0.0606  0.1453 -0.7991
 7724SOL    HW134634   1.846   0.907   7.076 -1.1675  1.1045  1.4613
 7724SOL    HW234635   1.964   0.854   7.140 -0.2261  0.5418 -0.5108
 7725SOL     OW34636   1.939   0.979   4.054  0.4507  0.4322 -0.5106
 7725SOL    HW134637   1.881   0.917   4.011 -0.1985 -0.1801  1.2483
 7725SOL    HW234638   2.020   0.927   4.062 -0.3598 -0.9722 -1.4339
 7726SOL     OW34639   1.604   0.463  15.163 -0.2845 -0.0088  0.3714
 7726SOL    HW134640   1.660   0.387  15.146 -2.6383 -1.5449 -0.6879
 7726SOL    HW234641   1.651   0.500  15.237  1.3669  0.9548 -1.1719
 7727SOL     OW34642   1.132   1.692  11.165  0.0636  0.4577 -0.0214
 7727SOL    HW134643   1.193   1.635  11.118  1.7937  1.4088  1.0751
 7727SOL    HW234644   1.198   1.740  11.215 -1.4402  1.0767  1.3971
 7728SOL     OW34645   3.585   2.763  13.910 -0.3474  0.2569 -0.8536
 7728SOL    HW134646   3.551   2.805  13.989  1.4275  2.0501 -1.0388
 7728SOL    HW234647   3.590   2.670  13.934  0.8965  0.7682  0.9110
 7729SOL     OW34648   0.808   1.939   2.868  0.6280  0.3085  0.3988
 7729SOL    HW134649   0.835   1.888   2.944 -0.1735 -2.1315 -0.9675
 7729SOL    HW234650   0.872   1.914   2.801 -2.4614  2.3033 -3.3097
 7730SOL     OW34651   0.909   3.536  12.738 -0.1537  0.3648 -0.0607
 7730SOL    HW134652   0.949   3.598  12.799  0.2428  0.3467 -0.3071
 7730SOL    HW234653   0.987   3.490  12.707 -0.4092 -0.6286  0.7523
 7731SOL     OW34654   2.489   3.730   5.040 -0.3691 -0.2707  0.1541
 7731SOL    HW134655   2.466   3.738   4.947 -0.0921  0.7641  0.1755
 7731SOL    HW234656   2.443   3.808   5.071  0.9553  0.7898 -0.5596
 7732SOL     OW34657   1.702   2.506   4.260 -0.3514  0.6327  0.4979
 7732SOL    HW134658   1.624   2.462   4.293 -0.9327  1.2881 -0.0064
 7732SOL    HW234659   1.733   2.434   4.204  2.3995  2.0345  0.2043
 7733SOL     OW34660   0.101   1.153   3.361  0.5961  0.5203  0.5967
 7733SOL    HW134661   0.142   1.125   3.443 -0.3861  0.4495  1.0634
 7733SOL    HW234662   0.015   1.119   3.385  1.4772 -1.3768  1.0515
 7734SOL     OW34663   0.118   3.628  16.959  0.5554 -0.0625 -0.9486
 7734SOL    HW134664   0.024   3.644  16.948  0.0686 -0.9581  1.7495
 7734SOL    HW234665   0.132   3.559  16.895  0.1000  1.3441 -2.5611
 7735SOL     OW34666   3.078   0.887   9.167  0.4949 -0.1318  0.6953
 7735SOL    HW134667   3.096   0.845   9.084  0.6176  0.3712  0.4631
 7735SOL    HW234668   2.998   0.840   9.189  1.3169 -2.2495 -0.8800
 7736SOL     OW34669   1.154   3.111   2.850 -0.1527 -0.2103  0.3463
 7736SOL    HW134670   1.080   3.052   2.860 -0.5709 -0.0357 -1.5943
 7736SOL    HW234671   1.210   3.065   2.912  0.8541  0.6519  0.0743
 7737SOL     OW34672   1.544   0.326   2.675  0.7317  0.4472  0.4563
 7737SOL    HW134673   1.585   0.408   2.649  1.6762 -0.1455  0.0500
 7737SOL    HW234674   1.491   0.317   2.596  2.0520 -0.2809 -0.3508
 7738SOL     OW34675   0.732   3.315   0.246  0.1435  0.3052 -0.0066
 7738SOL    HW134676   0.669   3.246   0.227 -0.4889  0.6199  0.9241
 7738SOL    HW234677   0.701   3.373   0.177  0.7159 -0.3670 -0.8175
 7739SOL     OW34678   2.866   4.186   3.514  0.4262  0.5582  0.5017
 7739SOL    HW134679   2.959   4.161   3.519 -0.1663 -1.9850 -1.5391
 7739SOL    HW234680   2.870   4.212   3.422 -0.0152 -0.9908  0.0573
 7740SOL     OW34681   4.719   2.026   2.717  0.2485  0.4337 -0.4065
 7740SOL    HW134682   4.716   1.931   2.729 -2.9737  0.6030  0.0466
 7740SOL    HW234683   0.089   2.036   2.717  0.1361  1.5141 -1.8337
 7741SOL     OW34684   0.082   3.462  13.346  0.1840 -0.1262 -0.1405
 7741SOL    HW134685   0.112   3.553  13.343 -1.4742  0.3851 -1.1709
 7741SOL    HW234686   0.002   3.464  13.294  0.9045  2.2200 -1.1812
 7742SOL     OW34687   1.408   2.637   7.571 -0.2025 -0.3190  0.3085
 7742SOL    HW134688   1.484   2.579   7.571  0.0948  0.0281  4.1615
 7742SOL    HW234689   1.448   2.706   7.625 -0.5020 -0.3776  0.6067
 7743SOL     OW34690   2.664   3.832   5.922 -0.3505 -0.1890 -0.0987
 7743SOL    HW134691   2.691   3.874   6.003 -1.4977 -1.5648  0.9910
 7743SOL    HW234692   2.720   3.868   5.854 -0.3953 -1.5696 -0.8768
 7744SOL     OW34693   2.691   1.762   2.073  0.2762  0.1401  0.3011
 7744SOL    HW134694   2.682   1.832   2.009  2.3923 -0.5931 -0.8089
 7744SOL    HW234695   2.765   1.716   2.032  0.5238 -0.0729  0.9876
 7745SOL     OW34696   3.599   1.680   4.864 -0.2849 -0.1425  0.7574
 7745SOL    HW134697   3.536   1.611   4.844  0.4132 -0.2790 -0.9610
 7745SOL    HW234698   3.572   1.710   4.951 -0.8180  1.1192  0.1561
 7746SOL     OW34699   2.427   0.475   8.434  0.5593 -0.3280  0.4098
 7746SOL    HW134700   2.475   0.395   8.456  1.1495 -0.3054 -0.8108
 7746SOL    HW234701   2.480   0.540   8.480 -0.8005  1.5758 -0.7359
 7747SOL     OW34702   2.807   3.536   5.371  0.4723  0.4250 -0.5009
 7747SOL    HW134703   2.769   3.619   5.341  1.3888  2.4463  3.9209
 7747SOL    HW234704   2.732   3.480   5.393  0.0475  0.8164 -0.9350
 7748SOL     OW34705   2.990   0.145   5.804  0.0690  0.1748  0.0323
 7748SOL    HW134706   2.958   0.105   5.723 -0.7830  1.5973 -0.3487
 7748SOL    HW234707   2.919   0.206   5.828  0.0992 -1.1638  3.5236
 7749SOL     OW34708   2.175   1.033   7.365  0.0728  0.1245  0.3735
 7749SOL    HW134709   2.209   0.951   7.329 -0.6322 -1.1037  2.4707
 7749SOL    HW234710   2.244   1.097   7.381 -1.2474  1.3305  1.1787
 7750SOL     OW34711   4.194   1.475   2.989  0.2631  0.5827  0.4511
 7750SOL    HW134712   4.174   1.468   2.896  0.0254  0.9423  0.4726
 7750SOL    HW234713   4.127   1.542   3.006  0.5083  1.1043 -0.6000
 7751SOL     OW34714   2.368   0.067   8.302 -0.2468 -0.2014  0.6004
 7751SOL    HW134715   2.315   0.003   8.255 -0.7404 -0.2256  1.1911
 7751SOL    HW234716   2.452   0.022   8.313 -0.7660 -1.0135  1.2134
 7752SOL     OW34717   4.014   3.011   1.546  0.3699  0.1956  0.2370
 7752SOL    HW134718   4.080   3.046   1.485 -0.3784  0.1044 -0.6248
 7752SOL    HW234719   4.073   3.003   1.621  1.4246 -1.9764 -0.8256
 7753SOL     OW34720   3.271   0.596  10.040  0.0507 -0.3674 -0.3525
 7753SOL    HW134721   3.232   0.525   9.989 -1.0471  1.4642 -2.0797
 7753SOL    HW234722   3.285   0.557  10.126 -0.6574 -4.6758 -2.1886
 7754SOL     OW34723   0.263   3.859  12.047  0.1531 -0.0048  0.0975
 7754SOL    HW134724   0.182   3.848  11.997 -0.3883  0.1402  0.9526
 7754SOL    HW234725   0.238   3.804  12.120  2.5113  1.6190  2.1591
 7755SOL     OW34726   4.594   1.789   1.193  0.0700  0.0929 -0.3191
 7755SOL    HW134727   4.584   1.720   1.127 -1.7198  0.7035 -0.6779
 7755SOL    HW234728   4.529   1.853   1.163  0.9674  1.4434  0.6260
 7756SOL     OW34729   0.614   0.145   4.968  0.7427  0.6189 -0.3109
 7756SOL    HW134730   0.700   0.113   4.996 -1.1881 -2.2606  2.2537
 7756SOL    HW234731   0.629   0.150   4.874  2.4921 -0.4955 -0.0871
 7757SOL     OW34732   2.098   4.106   8.003 -0.6390  0.4213 -0.6994
 7757SOL    HW134733   2.098   4.039   8.071 -0.6614  2.1231  0.9854
 7757SOL    HW234734   2.117   4.050   7.928  0.9195 -0.1673  0.1439
 7758SOL     OW34735   0.955   4.697   7.218 -0.2947 -0.1286 -0.4898
 7758SOL    HW134736   1.011   0.000   7.146  0.6030 -0.6378 -0.0085
 7758SOL    HW234737   0.870   4.703   7.176 -0.1648  0.4713 -0.6590
 7759SOL     OW34738   0.036   2.635   8.378 -1.1516 -0.2929 -0.4895
 7759SOL    HW134739   0.051   2.579   8.302 -0.0010 -2.1238  1.0831
 7759SOL    HW234740   0.075   2.578   8.445 -0.2683  0.4110 -0.4050
 7760SOL     OW34741   1.150   4.181   7.617 -0.9657 -0.2271  0.3207
 7760SOL    HW134742   1.236   4.213   7.645 -0.6444  0.5520 -1.5853
 7760SOL    HW234743   1.166   4.109   7.556  2.7163  1.2908 -0.5088
 7761SOL     OW34744   3.105   3.282   5.074  0.3912 -0.7278 -0.4851
 7761SOL    HW134745   3.118   3.374   5.052  0.7752 -1.0706 -1.6572
 7761SOL    HW234746   3.043   3.284   5.147  0.8860 -1.8160 -0.0292
 7762SOL     OW34747   1.343   1.753   6.801 -0.2893  0.5847 -0.3994
 7762SOL    HW134748   1.277   1.728   6.865  1.6736 -0.8415  1.0521
 7762SOL    HW234749   1.406   1.700   6.849 -0.4266  0.9935  0.2228
 7763SOL     OW34750   2.865   0.708   9.174 -0.1048 -0.2955 -0.5223
 7763SOL    HW134751   2.866   0.620   9.138  1.4457  0.0932 -1.3896
 7763SOL    HW234752   2.795   0.747   9.121 -2.5516 -0.1346  2.7916
 7764SOL     OW34753   4.620   3.214   4.506 -0.0755  0.2490 -0.0239
 7764SOL    HW134754   4.635   3.265   4.426  0.3188 -0.8841 -0.6737
 7764SOL    HW234755   4.678   3.140   4.490 -2.3634 -0.8194 -3.4033
 7765SOL     OW34756   0.382   0.529   2.536 -1.0776 -0.1100  0.3348
 7765SOL    HW134757   0.412   0.457   2.592  1.0680 -0.9262 -1.8475
 7765SOL    HW234758   0.318   0.493   2.475 -0.9094  1.7563 -0.9117
 7766SOL     OW34759   0.408   3.551  15.175  0.5163  0.6654 -0.3573
 7766SOL    HW134760   0.364   3.635  15.165  0.8408  0.7752 -0.8531
 7766SOL    HW234761   0.328   3.499  15.169  1.1360 -0.2959 -0.3455
 7767SOL     OW34762   3.902   2.333   1.830 -0.0777 -0.0202 -0.4520
 7767SOL    HW134763   3.842   2.364   1.762  2.1434  4.3690 -0.4301
 7767SOL    HW234764   3.840   2.343   1.903 -0.0157 -0.1056 -0.3876
 7768SOL     OW34765   1.781   1.344   8.768 -0.2440  0.2163  0.4226
 7768SOL    HW134766   1.709   1.302   8.815  0.6090 -1.4805  0.2281
 7768SOL    HW234767   1.762   1.302   8.684 -0.5681 -1.0955  1.1547
 7769SOL     OW34768   3.146   4.585  12.487  0.3552  0.3169  0.5587
 7769SOL    HW134769   3.193   4.652  12.537  1.0406  1.0490 -1.0857
 7769SOL    HW234770   3.199   4.508  12.507  0.0098  0.0558  0.4837
 7770SOL     OW34771   4.060   4.572   6.522 -0.2333  0.1316  0.4218
 7770SOL    HW134772   4.040   4.653   6.568 -2.0452 -0.0135 -0.1250
 7770SOL    HW234773   4.014   4.584   6.439 -0.4152  2.5944  0.8812
 7771SOL     OW34774   0.314   1.227   7.827  0.1976  0.2083  0.1237
 7771SOL    HW134775   0.348   1.185   7.748  2.1833 -1.9416  2.1506
 7771SOL    HW234776   0.338   1.167   7.897 -1.7328 -1.3567 -0.5675
 7772SOL     OW34777   1.394   0.798   5.694 -0.6759 -0.4895  0.2712
 7772SOL    HW134778   1.339   0.742   5.640  0.8367  1.2242 -3.0115
 7772SOL    HW234779   1.325   0.823   5.756 -1.0331  0.4090 -0.4882
 7773SOL     OW34780   2.014   2.983   8.367 -0.3014  0.1258 -0.2594
 7773SOL    HW134781   1.982   3.019   8.284  2.0218 -0.0157 -1.2190
 7773SOL    HW234782   2.066   3.062   8.383  1.0692 -0.3287 -2.4443
 7774SOL     OW34783   3.498   0.971   7.761 -0.3165 -0.2549 -0.1391
 7774SOL    HW134784   3.466   0.951   7.848  0.6078  1.6313  0.6403
 7774SOL    HW234785   3.436   0.921   7.708 -1.6893  0.8783  0.4261
 7775SOL     OW34786   2.292   1.578  16.389  0.3894 -0.0908  0.2753
 7775SOL    HW134787   2.310   1.610  16.478 -0.4211  0.1954  0.3396
 7775SOL    HW234788   2.365   1.517  16.379 -0.1017 -0.8637  1.3066
 7776SOL     OW34789   1.037   0.168   4.468  0.1481  0.1304 -0.1492
 7776SOL    HW134790   1.004   0.225   4.398 -1.3161 -0.6045 -0.0354
 7776SOL    HW234791   1.110   0.118   4.432 -0.5787 -1.6668  0.8915
 7777SOL     OW34792   4.332   4.622   3.285  0.9701 -0.0552  0.0145
 7777SOL    HW134793   4.414   4.590   3.248  0.5649 -2.2240  1.0221
 7777SOL    HW234794   4.272   4.626   3.210  1.0824  0.0034 -0.0725
 7778SOL     OW34795   2.647   1.555   6.591  0.0477  0.2628 -0.4417
 7778SOL    HW134796   2.610   1.562   6.679 -1.2476  1.6934 -1.1151
 7778SOL    HW234797   2.716   1.622   6.588  0.0223  0.3756  1.5711
 7779SOL     OW34798   4.258   1.737   9.708  0.2296  0.3597 -0.4318
 7779SOL    HW134799   4.267   1.656   9.759  1.4001 -0.9117 -2.6471
 7779SOL    HW234800   4.323   1.792   9.752 -0.3145  0.4393  0.2644
 7780SOL     OW34801   1.251   3.941   2.571  0.1079  0.0100 -0.4702
 7780SOL    HW134802   1.318   3.916   2.634 -0.4210 -0.8535 -0.2443
 7780SOL    HW234803   1.172   3.910   2.616 -0.2955  1.1596 -0.3683
 7781SOL     OW34804   0.417   3.830   2.700  0.3815  0.1066  0.3510
 7781SOL    HW134805   0.366   3.910   2.688  0.7090  0.4739  1.5266
 7781SOL    HW234806   0.450   3.853   2.786  2.2664 -1.1044 -0.0412
 7782SOL     OW34807   4.344   3.334  12.450  0.1221 -0.5066 -1.0912
 7782SOL    HW134808   4.395   3.376  12.381  0.2294  1.3350  0.1078
 7782SOL    HW234809   4.395   3.264  12.492  1.5167  0.4573 -1.1755
 7783SOL     OW34810   1.320   3.552   5.820 -0.4467 -0.1802 -0.5199
 7783SOL    HW134811   1.345   3.471   5.866 -1.2459 -0.2305 -0.1772
 7783SOL    HW234812   1.379   3.608   5.870 -0.3846 -1.6377  1.0636
 7784SOL     OW34813   3.341   1.625  16.603  0.0100 -0.1795  0.1267
 7784SOL    HW134814   3.296   1.692  16.551  0.4654  0.8876  1.0817
 7784SOL    HW234815   3.425   1.648  16.566  1.6957 -3.1195  2.1671
 7785SOL     OW34816   0.216   1.589   8.862 -0.3573  0.2581  0.2452
 7785SOL    HW134817   0.303   1.560   8.833 -0.0779  1.9091 -0.5978
 7785SOL    HW234818   0.230   1.683   8.877 -2.0482  0.9759 -2.6486
 7786SOL     OW34819   1.962   2.704  15.201 -0.1251  0.1214  0.1738
 7786SOL    HW134820   1.946   2.794  15.229 -1.6064  0.3112 -1.2697
 7786SOL    HW234821   1.969   2.654  15.282  1.8949  0.7932  0.4072
 7787SOL     OW34822   4.073   3.290   7.450  0.0867 -0.2252  0.1857
 7787SOL    HW134823   4.048   3.251   7.533  2.0179 -2.0159 -0.0883
 7787SOL    HW234824   4.114   3.367   7.488 -0.1648  1.2131 -2.4245
 7788SOL     OW34825   3.731   0.329   7.929 -0.2574 -0.1917  0.3702
 7788SOL    HW134826   3.744   0.421   7.953  4.2631 -0.9683  0.8849
 7788SOL    HW234827   3.639   0.330   7.955  0.0837  0.9836  1.5679
 7789SOL     OW34828   0.501   1.774   3.480 -0.1824 -0.1502  0.1137
 7789SOL    HW134829   0.471   1.701   3.426  0.2738  0.5643 -1.1242
 7789SOL    HW234830   0.582   1.739   3.515 -1.0078 -1.6738  0.4652
 7790SOL     OW34831   1.395   2.286   2.168  1.1072 -0.4068 -0.1143
 7790SOL    HW134832   1.454   2.286   2.092  1.0585  1.5703 -0.1681
 7790SOL    HW234833   1.334   2.356   2.142  2.4331  0.4295 -0.9425
 7791SOL     OW34834   4.319   4.282   5.957  0.4224  0.2522 -0.1669
 7791SOL    HW134835   4.408   4.313   5.972  0.7338 -0.8320  0.2343
 7791SOL    HW234836   4.272   4.362   5.982  2.4054  0.8771  1.6397
 7792SOL     OW34837   2.102   2.489   8.161 -0.9734  0.0266 -0.3530
 7792SOL    HW134838   2.111   2.568   8.215  1.0056  0.0294 -0.6805
 7792SOL    HW234839   2.145   2.427   8.220  0.7120 -0.1063 -1.7201
 7793SOL     OW34840   0.685   0.294   2.615 -0.2158 -0.3126 -0.1060
 7793SOL    HW134841   0.698   0.224   2.551  2.2881 -0.2519  0.3404
 7793SOL    HW234842   0.606   0.267   2.662 -0.4373 -0.7425 -0.7219
 7794SOL     OW34843   2.885   1.426   4.580 -0.6955  1.1987 -0.2040
 7794SOL    HW134844   2.922   1.451   4.496 -4.0519 -0.2275 -2.1172
 7794SOL    HW234845   2.816   1.364   4.556  1.5048 -1.6015  0.7064
 7795SOL     OW34846   3.613   3.871   5.331  0.6779 -0.1056  0.6800
 7795SOL    HW134847   3.522   3.901   5.343  0.2561 -2.1814  2.7803
 7795SOL    HW234848   3.608   3.848   5.239  0.7131 -1.6255  1.0576
 7796SOL     OW34849   0.060   1.391   4.244  0.3344  0.0893  0.1782
 7796SOL    HW134850   0.057   1.451   4.169  1.2538  0.7768  0.6929
 7796SOL    HW234851   0.143   1.413   4.285 -0.0398  0.8719  0.5202
 7797SOL     OW34852   0.482   2.568   0.382 -0.7355 -0.9868  0.1716
 7797SOL    HW134853   0.498   2.480   0.413 -0.2821 -0.2650  1.9561
 7797SOL    HW234854   0.522   2.616   0.454 -0.4837 -0.3697 -0.3741
 7798SOL     OW34855   4.566   1.997   4.918 -0.4534  0.1758  0.3004
 7798SOL    HW134856   4.523   1.913   4.938  0.3327 -0.1849  0.4709
 7798SOL    HW234857   4.596   2.017   5.007  0.7293 -1.1443  0.1933
 7799SOL     OW34858   1.503   0.946   4.273 -0.1217 -0.6223  0.2770
 7799SOL    HW134859   1.568   0.971   4.339  0.4198 -0.5128 -0.3000
 7799SOL    HW234860   1.495   0.851   4.281  1.6712 -0.6964  1.1065
 7800SOL     OW34861   4.055   1.354   7.646  0.0093 -0.1254  0.1452
 7800SOL    HW134862   4.062   1.286   7.579  0.8259  1.6292 -1.5645
 7800SOL    HW234863   4.076   1.315   7.731 -1.9172 -2.7981 -0.5942
 7801SOL     OW34864   3.444   0.426   6.425 -0.4153  0.5283 -0.8416
 7801SOL    HW134865   3.502   0.351   6.427  1.5572  2.0448 -1.2282
 7801SOL    HW234866   3.416   0.436   6.334 -2.5785  0.8897 -0.1492
 7802SOL     OW34867   3.480   0.276   8.027 -0.0310  0.1867  0.3716
 7802SOL    HW134868   3.454   0.357   8.072 -1.1207  1.3446 -2.3523
 7802SOL    HW234869   3.501   0.218   8.100  2.0151 -1.1745 -1.3245
 7803SOL     OW34870   0.751   1.793  15.173 -0.8588  0.0339  0.0669
 7803SOL    HW134871   0.699   1.829  15.245 -0.2206 -1.6739  1.3791
 7803SOL    HW234872   0.725   1.701  15.182 -2.6108  0.7553  2.3188
 7804SOL     OW34873   1.095   1.662  13.017 -0.0949 -0.2849  0.4285
 7804SOL    HW134874   1.143   1.669  13.100 -0.5561  1.5537  0.5430
 7804SOL    HW234875   1.090   1.567  13.007 -0.0895 -0.4408  1.9302
 7805SOL     OW34876   0.828   0.163  16.012  0.6472 -0.2328 -0.2377
 7805SOL    HW134877   0.776   0.242  16.031 -0.8862 -0.6762 -2.5990
 7805SOL    HW234878   0.817   0.157  15.917  1.1154 -0.8566 -0.2523
 7806SOL     OW34879   3.464   4.432   3.192 -0.1067  0.3747  0.3098
 7806SOL    HW134880   3.400   4.498   3.220 -1.5533 -0.0837 -1.9352
 7806SOL    HW234881   3.487   4.468   3.106 -0.1961  0.8341  0.4782
 7807SOL     OW34882   2.637   0.741   8.997 -0.1857  0.1670  0.3236
 7807SOL    HW134883   2.546   0.731   9.024  0.0023  1.2437  1.3357
 7807SOL    HW234884   2.629   0.835   8.980 -1.1094  0.5621  2.9570
 7808SOL     OW34885   0.714   0.814   0.643 -0.5995 -0.1327 -0.1252
 7808SOL    HW134886   0.649   0.746   0.657 -1.4097  0.8474  0.8792
 7808SOL    HW234887   0.721   0.812   0.548  1.2103 -3.7209  0.0764
 7809SOL     OW34888   4.721   0.395   5.185  0.3221 -0.3840 -0.5689
 7809SOL    HW134889   4.660   0.468   5.175  1.1348  0.3687 -0.0795
 7809SOL    HW234890   4.659   0.336   5.142  0.1297  0.6928 -1.7583
 7810SOL     OW34891   3.320   2.378   7.577 -0.0742  0.2222 -0.6565
 7810SOL    HW134892   3.245   2.362   7.520 -0.1506  0.3600 -0.5950
 7810SOL    HW234893   3.299   2.464   7.614  0.7455 -0.4863  1.4147
 7811SOL     OW34894   4.058   4.188   6.671 -0.0560  0.1756  0.0013
 7811SOL    HW134895   4.058   4.171   6.765  0.8041 -2.0827 -0.4059
 7811SOL    HW234896   4.134   4.246   6.668  0.6600 -0.8466 -1.9832
 7812SOL     OW34897   2.234   3.020  10.640 -0.4754 -0.3241  0.3625
 7812SOL    HW134898   2.264   2.956  10.705 -0.4525 -3.1262 -2.3870
 7812SOL    HW234899   2.206   3.093  10.695  1.7250 -1.5026  3.0356
 7813SOL     OW34900   4.716   4.622   2.687  0.2714  0.0110 -0.0748
 7813SOL    HW134901   0.081   4.608   2.662 -0.1796  1.4204 -2.4825
 7813SOL    HW234902   4.688   4.531   2.676  1.4624 -0.2703 -0.7896
 7814SOL     OW34903   1.873   1.100  11.680  0.2424  0.0652 -0.3922
 7814SOL    HW134904   1.870   1.004  11.681  1.8839  0.0093 -1.8192
 7814SOL    HW234905   1.803   1.123  11.741  0.1263 -0.1223 -0.4548
 7815SOL     OW34906   2.889   0.111   0.719 -0.5045  0.2246  0.1706
 7815SOL    HW134907   2.877   0.061   0.800  1.2879  1.0522  0.9324
 7815SOL    HW234908   2.829   0.059   0.666  0.5819 -0.0996 -0.7412
 7816SOL     OW34909   3.755   3.396  17.391 -0.3863  1.0807 -0.3891
 7816SOL    HW134910   3.743   3.312  17.435  0.2341  1.7239  1.0071
 7816SOL    HW234911   3.689   3.389  17.323  0.3812  0.6583 -1.0819
 7817SOL     OW34912   0.335   1.071  11.035  0.3642 -0.4757  0.3101
 7817SOL    HW134913   0.410   1.093  10.980 -1.4951  1.9437 -1.2565
 7817SOL    HW234914   0.255   1.081  10.984 -0.5415  3.7914  2.5257
 7818SOL     OW34915   3.199   4.203   3.592 -0.1775 -0.0897 -0.3275
 7818SOL    HW134916   3.206   4.240   3.504  2.9721  1.9604  0.7644
 7818SOL    HW234917   3.291   4.191   3.616 -0.5895 -1.7690  0.4824
 7819SOL     OW34918   4.244   2.958   0.077  0.1613 -0.0392  0.0203
 7819SOL    HW134919   4.207   3.026   0.133  1.0668  0.9174 -0.5467
 7819SOL    HW234920   4.248   2.993  17.693 -1.0765 -2.0597 -0.8307
 7820SOL     OW34921   2.857   0.473   9.068  0.4658 -0.2750 -0.1750
 7820SOL    HW134922   2.935   0.421   9.089  0.2161 -0.9803 -0.9872
 7820SOL    HW234923   2.787   0.409   9.060  0.6438 -0.4077 -0.6579
 7821SOL     OW34924   1.807   1.916   9.230  0.3893 -0.5465 -0.4086
 7821SOL    HW134925   1.795   1.846   9.165  0.6788 -0.9766  0.0050
 7821SOL    HW234926   1.768   1.986   9.178 -1.1860  0.2432  1.8211
 7822SOL     OW34927   3.739   1.194   8.458 -0.2307 -0.4673 -0.3204
 7822SOL    HW134928   3.736   1.194   8.363 -0.0556 -0.2331 -0.3250
 7822SOL    HW234929   3.726   1.100   8.471 -0.5337 -0.2933  0.6692
 7823SOL     OW34930   2.176   0.633   1.669 -0.5689 -0.2391 -0.2955
 7823SOL    HW134931   2.156   0.719   1.706  0.7781 -0.5569  1.1537
 7823SOL    HW234932   2.226   0.664   1.593 -1.7780 -1.5829 -1.6514
 7824SOL     OW34933   0.287   3.743  16.254 -0.1342  0.3575 -0.9607
 7824SOL    HW134934   0.377   3.765  16.280 -0.5275  2.7176 -1.6159
 7824SOL    HW234935   0.285   3.768  16.162 -0.6473  0.4754 -0.9164
 7825SOL     OW34936   3.574   1.692   3.551 -0.2728  0.3943  0.2544
 7825SOL    HW134937   3.574   1.720   3.459 -0.4576  0.7404  0.3573
 7825SOL    HW234938   3.603   1.601   3.543 -1.9095  0.0115 -1.3681
 7826SOL     OW34939   1.116   0.018   6.744  0.0606  0.0317  0.2410
 7826SOL    HW134940   1.190   0.079   6.748  0.5186 -0.5560  0.5247
 7826SOL    HW234941   1.063   0.051   6.816 -0.5468  0.4660 -0.3953
 7827SOL     OW34942   3.748   1.313  13.594  0.0528 -0.8374  0.3901
 7827SOL    HW134943   3.757   1.358  13.510  1.2600  0.0580  0.9952
 7827SOL    HW234944   3.836   1.324  13.630 -0.0625  2.6519 -0.3709
 7828SOL     OW34945   0.205   4.421  12.113 -0.3194 -0.2702 -0.4327
 7828SOL    HW134946   0.275   4.478  12.144 -0.3071 -0.3951 -0.2325
 7828SOL    HW234947   0.122   4.434  12.160  0.3410 -1.4832  1.0590
 7829SOL     OW34948   1.237   0.264   5.799 -0.1274  0.3141 -0.4638
 7829SOL    HW134949   1.325   0.293   5.774  0.3842 -1.4620 -0.7267
 7829SOL    HW234950   1.213   0.207   5.725 -0.5068 -0.2382  0.0784
 7830SOL     OW34951   2.528   0.059   6.947 -0.0949 -0.3503 -0.0714
 7830SOL    HW134952   2.521   0.065   6.851 -0.6135  4.1743  0.2626
 7830SOL    HW234953   2.434   0.051   6.963  0.0435 -0.1476  0.8113
 7831SOL     OW34954   3.742   0.414  14.903 -0.5546  0.0329 -0.0448
 7831SOL    HW134955   3.752   0.502  14.869 -0.2920 -0.6013 -1.6219
 7831SOL    HW234956   3.831   0.383  14.886  0.0673  2.6120 -1.5331
 7832SOL     OW34957   2.942   1.568  12.678  0.0769 -0.3548 -0.1795
 7832SOL    HW134958   3.026   1.583  12.721  0.3974 -0.5432 -0.7317
 7832SOL    HW234959   2.946   1.478  12.648 -0.2947  0.2811 -2.1502
 7833SOL     OW34960   2.047   2.925  11.283  0.0655  0.2621  0.2478
 7833SOL    HW134961   2.040   2.834  11.254 -2.2837  0.9840 -1.5569
 7833SOL    HW234962   2.019   2.968  11.202 -2.0953  2.4048  2.1180
 7834SOL     OW34963   1.301   0.934  15.305 -0.4358  0.3516 -0.1842
 7834SOL    HW134964   1.262   1.009  15.350 -1.3766  0.1500 -0.6552
 7834SOL    HW234965   1.228   0.874  15.321  0.0542  0.1654  1.3527
 7835SOL     OW34966   2.329   4.406   7.163  0.3294 -0.1131 -0.5245
 7835SOL    HW134967   2.341   4.352   7.085  2.6550 -0.7220  0.2536
 7835SOL    HW234968   2.403   4.391   7.223 -1.4197 -1.7673  1.2274
 7836SOL     OW34969   0.047   1.527   8.419  0.6343  0.1497 -0.0469
 7836SOL    HW134970   0.119   1.542   8.357  3.8299 -1.9253  3.1557
 7836SOL    HW234971   0.093   1.549   8.500 -0.3261 -0.7777  0.7434
 7837SOL     OW34972   4.141   3.284   6.438  0.0313  0.2344  0.3565
 7837SOL    HW134973   4.172   3.225   6.369 -1.4440 -0.4981  0.3233
 7837SOL    HW234974   4.185   3.246   6.514  1.6802 -2.2469 -1.8482
 7838SOL     OW34975   1.509   0.720   2.448  0.1446 -0.0466  0.2803
 7838SOL    HW134976   1.579   0.754   2.504  1.2604 -1.3126 -0.3473
 7838SOL    HW234977   1.464   0.801   2.427 -0.9840 -0.3220  1.5892
 7839SOL     OW34978   2.568   1.845   2.344 -0.1289 -0.4206  0.3118
 7839SOL    HW134979   2.639   1.867   2.284 -0.4382 -1.1492 -0.3206
 7839SOL    HW234980   2.495   1.882   2.294  1.1294 -0.2700 -1.4049
 7840SOL     OW34981   0.924   2.903   8.804 -0.2144 -0.2899  0.1030
 7840SOL    HW134982   1.009   2.919   8.762 -0.0006 -0.2964  0.5315
 7840SOL    HW234983   0.939   2.809   8.815 -1.7682 -0.4523  0.8134
 7841SOL     OW34984   3.393   1.989   2.094  0.0733  0.3156 -0.2304
 7841SOL    HW134985   3.383   2.069   2.145 -0.9292 -0.9151  1.4921
 7841SOL    HW234986   3.463   1.946   2.142  0.2574  1.8757  0.8936
 7842SOL     OW34987   0.510   0.968   0.752 -0.1019 -0.1637 -0.6152
 7842SOL    HW134988   0.521   0.925   0.837 -1.0434  0.3508 -0.2295
 7842SOL    HW234989   0.581   0.925   0.705  0.7555 -0.2668  0.7814
 7843SOL     OW34990   3.518   0.332   2.553 -0.8400  0.1573  0.1269
 7843SOL    HW134991   3.511   0.423   2.583  2.6763  1.0133 -1.7024
 7843SOL    HW234992   3.472   0.292   2.627  0.7331  1.3839  1.7666
 7844SOL     OW34993   3.231   1.642   8.704  0.2272 -0.5683  0.1833
 7844SOL    HW134994   3.268   1.573   8.649 -1.3279 -0.7983 -0.5639
 7844SOL    HW234995   3.149   1.601   8.731  0.5208  0.4930  2.7014
 7845SOL     OW34996   3.786   0.355   8.897 -0.2420  0.6208  0.5372
 7845SOL    HW134997   3.805   0.443   8.863 -3.2800  1.2169  0.3978
 7845SOL    HW234998   3.875   0.329   8.922 -0.7758 -1.7112  0.0067
 7846SOL     OW34999   2.772   2.070  17.359 -0.1887  0.0011 -0.0202
 7846SOL    HW135000   2.837   2.119  17.309 -1.5765  2.4085  0.5628
 7846SOL    HW235001   2.698   2.052  17.300 -2.1197  0.6593  2.2162
 7847SOL     OW35002   0.560   0.937   2.727 -0.1728 -0.4430  0.1773
 7847SOL    HW135003   0.594   0.878   2.794 -0.7303 -1.1427 -0.1554
 7847SOL    HW235004   0.637   0.953   2.673 -0.4937 -0.2359 -0.2144
 7848SOL     OW35005   1.913   1.240   5.429  0.3210  0.2215 -0.2259
 7848SOL    HW135006   1.930   1.157   5.384 -2.0450  0.8472 -2.2796
 7848SOL    HW235007   1.912   1.215   5.521  0.8028  0.2337 -0.2166
 7849SOL     OW35008   4.178   3.192   8.665  0.1375 -0.6575  0.2939
 7849SOL    HW135009   4.085   3.181   8.647  0.7259 -2.1669 -1.7694
 7849SOL    HW235010   4.176   3.208   8.760  1.7978  0.0300  0.2094
 7850SOL     OW35011   3.174   1.487   7.106 -0.5527 -0.4471  0.1496
 7850SOL    HW135012   3.094   1.440   7.129 -1.0256 -0.8096 -2.2402
 7850SOL    HW235013   3.192   1.461   7.016  1.5904  1.0651  0.1163
 7851SOL     OW35014   2.629   2.532   3.151  0.1440  0.0495  0.2758
 7851SOL    HW135015   2.537   2.509   3.134 -0.1378  0.2159  1.5480
 7851SOL    HW235016   2.645   2.607   3.094  0.6462 -0.1820  0.1108
 7852SOL     OW35017   2.588   1.435   9.342  0.1032 -0.8411  0.1667
 7852SOL    HW135018   2.554   1.492   9.410  1.3568 -0.2128  0.2674
 7852SOL    HW235019   2.505   1.421   9.296 -0.2351  0.8279  0.2999
 7853SOL     OW35020   3.629   1.056  11.879  0.8635 -0.1508  0.5722
 7853SOL    HW135021   3.579   1.021  11.953  0.6421  0.7581  0.8439
 7853SOL    HW235022   3.629   0.973  11.831  1.7360  0.5161 -0.5960
 7854SOL     OW35023   1.301   0.171  15.265 -0.3630 -0.4120  0.1788
 7854SOL    HW135024   1.238   0.209  15.326 -1.8678 -1.7003 -0.5711
 7854SOL    HW235025   1.325   0.247  15.213  1.8254 -1.0291  0.2836
 7855SOL     OW35026   1.544   2.451  14.533  0.8161  0.2879 -0.1506
 7855SOL    HW135027   1.596   2.398  14.472  1.9396 -0.1254  1.1748
 7855SOL    HW235028   1.570   2.409  14.615  1.9873  0.1078 -0.6192
 7856SOL     OW35029   0.611   1.023   6.043 -0.1986  0.4468  0.0889
 7856SOL    HW135030   0.661   0.951   6.081  0.6706  1.3179  0.6083
 7856SOL    HW235031   0.539   1.031   6.105 -1.6786  2.6041 -1.8955
 7857SOL     OW35032   1.985   2.306  10.617  0.2291 -0.8867 -0.2289
 7857SOL    HW135033   2.013   2.221  10.650  0.6817 -0.8360 -0.4849
 7857SOL    HW235034   2.022   2.302  10.528 -1.5840  1.2136 -1.0769
 7858SOL     OW35035   2.172   2.063   4.011 -0.2065  0.3042 -0.0155
 7858SOL    HW135036   2.151   2.139   3.956 -0.6623 -0.9926 -1.6418
 7858SOL    HW235037   2.093   2.060   4.064  0.6964 -0.0857  1.2873
 7859SOL     OW35038   3.926   3.386  10.338 -0.7399  0.6322  0.0749
 7859SOL    HW135039   3.976   3.467  10.331 -1.4604  0.9151 -2.0234
 7859SOL    HW235040   3.915   3.375  10.432 -0.1202 -2.1605 -0.1667
 7860SOL     OW35041   3.449   4.295   2.822  0.1358  0.4005 -0.2808
 7860SOL    HW135042   3.485   4.230   2.882  1.2590  1.7242  0.4805
 7860SOL    HW235043   3.393   4.239   2.767 -0.9710  1.4969 -0.2607
 7861SOL     OW35044   1.799   0.435   9.476  0.8566  0.1635  0.0937
 7861SOL    HW135045   1.787   0.432   9.381 -0.3112 -1.3590  0.2898
 7861SOL    HW235046   1.888   0.469   9.482  0.7323  0.3939  0.7082
 7862SOL     OW35047   4.596   0.069   5.288 -0.9451  0.3057  0.4909
 7862SOL    HW135048   4.688   0.066   5.314 -0.7687 -2.9933 -0.5338
 7862SOL    HW235049   4.588   0.121   5.208  0.6553 -0.3309 -0.0694
 7863SOL     OW35050   2.198   0.364   1.128 -0.4817 -0.6653 -0.0826
 7863SOL    HW135051   2.127   0.310   1.093  0.6591 -0.7914 -2.2012
 7863SOL    HW235052   2.241   0.399   1.050 -0.1477 -0.0890  0.3581
 7864SOL     OW35053   4.359   1.946   8.448  0.3528 -0.2603  0.0394
 7864SOL    HW135054   4.306   1.929   8.371  0.4175 -0.5372  0.0545
 7864SOL    HW235055   4.450   1.944   8.419  0.1551  0.7784 -0.6344
 7865SOL     OW35056   2.789   4.654   9.454 -0.5005 -0.4856 -0.2993
 7865SOL    HW135057   2.816   4.643   9.545 -2.2196 -2.5965 -0.0425
 7865SOL    HW235058   2.851   4.719   9.421 -1.0472  0.1740 -0.0213
 7866SOL     OW35059   3.899   2.903  16.944  0.0992  0.5966  0.2623
 7866SOL    HW135060   3.852   2.827  16.980  1.6088 -0.4002  0.1372
 7866SOL    HW235061   3.991   2.888  16.964 -0.1683  0.9855  1.7869
 7867SOL     OW35062   0.717   4.659   6.432  0.2386  0.3557  0.1923
 7867SOL    HW135063   0.799   4.667   6.383  1.3227 -0.8919  1.8119
 7867SOL    HW235064   0.665   4.615   6.365  0.3903 -1.6040  1.3348
 7868SOL     OW35065   1.541   1.088   1.703 -0.3935 -0.9331  0.0129
 7868SOL    HW135066   1.613   1.026   1.711 -0.4880 -0.7993  1.9425
 7868SOL    HW235067   1.564   1.106   1.612  0.5313  0.2143  0.4819
 7869SOL     OW35068   3.433   1.727  11.004 -0.1453 -0.5194  0.3344
 7869SOL    HW135069   3.342   1.758  11.006  0.6686  1.9898 -0.8290
 7869SOL    HW235070   3.453   1.707  11.095  1.3505  0.9817  0.3389
 7870SOL     OW35071   3.458   2.915   3.806 -0.1126 -0.3075 -0.1062
 7870SOL    HW135072   3.516   2.988   3.789  0.8169 -1.1131 -0.3763
 7870SOL    HW235073   3.513   2.841   3.830  0.1375  0.2738  1.0954
 7871SOL     OW35074   1.797   2.516   3.420 -0.4309  0.4727  0.2246
 7871SOL    HW135075   1.824   2.431   3.386 -2.8658 -0.4789  0.7000
 7871SOL    HW235076   1.732   2.542   3.354 -1.3015  1.5869  1.5333
 7872SOL     OW35077   0.665   0.788   7.582  0.2958 -0.2936  0.5574
 7872SOL    HW135078   0.599   0.783   7.652  0.7584 -2.0396  0.8583
 7872SOL    HW235079   0.678   0.882   7.574 -1.9108 -0.0956 -0.7289
 7873SOL     OW35080   4.062   2.835  15.365  0.4700 -0.3083  0.1499
 7873SOL    HW135081   4.027   2.920  15.392  0.9301 -0.4748  1.2900
 7873SOL    HW235082   4.096   2.862  15.280 -0.5695 -0.6117 -0.3597
 7874SOL     OW35083   0.180   2.511   5.220  0.1089 -0.2932 -0.4672
 7874SOL    HW135084   0.202   2.584   5.162 -1.1251  0.9709  0.6496
 7874SOL    HW235085   0.090   2.534   5.246 -0.7896 -1.0988 -2.8764
 7875SOL     OW35086   2.468   2.616   8.438 -0.3935 -0.3474  0.3917
 7875SOL    HW135087   2.477   2.667   8.518 -1.3207  0.5080 -0.0440
 7875SOL    HW235088   2.438   2.533   8.474  0.3890  0.6342  3.2518
 7876SOL     OW35089   1.188   2.687   6.586  0.1840 -0.1853  0.0239
 7876SOL    HW135090   1.117   2.650   6.639 -0.9658  0.0633 -1.3424
 7876SOL    HW235091   1.250   2.681   6.659 -0.3137 -0.8565  0.3907
 7877SOL     OW35092   3.289   3.224   3.579 -0.1714 -0.2079 -0.8364
 7877SOL    HW135093   3.248   3.138   3.575 -0.6171 -0.0248 -0.1432
 7877SOL    HW235094   3.224   3.289   3.554 -0.3053 -0.2996 -0.7207
 7878SOL     OW35095   1.266   3.262   6.612 -0.1669  0.6867 -0.3724
 7878SOL    HW135096   1.334   3.199   6.637 -1.0722  0.2822  1.0521
 7878SOL    HW235097   1.257   3.225   6.524  1.7039  0.8356 -0.6397
 7879SOL     OW35098   4.657   1.181   7.572 -0.0335  0.0716  0.1619
 7879SOL    HW135099   4.688   1.167   7.662  1.1911 -1.0686 -0.4330
 7879SOL    HW235100   0.014   1.213   7.538  1.2118 -0.4112  2.7266
 7880SOL     OW35101   3.264   4.578  12.118 -0.6763  0.4896  0.0226
 7880SOL    HW135102   3.320   4.600  12.044  0.2688  1.6216  1.0690
 7880SOL    HW235103   3.332   4.541  12.176  1.6694  4.4298 -0.2352
 7881SOL     OW35104   3.809   4.349   6.705  0.7290  0.0713 -0.3415
 7881SOL    HW135105   3.887   4.294   6.694  1.1258  0.4247  0.6361
 7881SOL    HW235106   3.839   4.439   6.711  1.6508 -0.2552 -0.0499
 7882SOL     OW35107   4.659   4.599   6.127 -0.1353  0.7981  0.2878
 7882SOL    HW135108   0.020   4.607   6.087  0.3131 -1.8631  0.7138
 7882SOL    HW235109   4.618   4.529   6.076  2.7533  0.0345 -1.0259
 7883SOL     OW35110   2.363   1.959  13.400  0.5456 -0.4829 -0.4975
 7883SOL    HW135111   2.430   1.891  13.411  1.3422  0.6139  1.5096
 7883SOL    HW235112   2.391   2.021  13.467  0.8730 -0.9704 -0.1773
 7884SOL     OW35113   4.143   3.827   3.809  0.2949  0.0923 -0.1721
 7884SOL    HW135114   4.169   3.758   3.749 -0.0864  0.1389 -0.3911
 7884SOL    HW235115   4.209   3.890   3.780  0.1647 -0.4646 -1.6322
 7885SOL     OW35116   3.199   1.919   9.826  0.1222  0.3117 -0.2297
 7885SOL    HW135117   3.133   1.962   9.880 -0.2204 -0.0760 -0.3415
 7885SOL    HW235118   3.169   1.933   9.736 -0.5782  1.7980  0.2265
 7886SOL     OW35119   4.575   3.555  11.672  0.5088 -0.0607  0.2182
 7886SOL    HW135120   4.499   3.544  11.730 -0.5519  2.1924 -0.7263
 7886SOL    HW235121   4.535   3.573  11.587  0.6398 -1.4816 -0.1491
 7887SOL     OW35122   0.789   3.166  16.059  0.0014 -0.5065 -0.0255
 7887SOL    HW135123   0.769   3.138  15.970  3.7011 -1.2337 -0.6252
 7887SOL    HW235124   0.708   3.139  16.102  0.2889  1.2849  1.6576
 7888SOL     OW35125   3.630   2.179   3.572 -0.3820 -0.2697  0.3359
 7888SOL    HW135126   3.679   2.241   3.627  0.5059 -0.1571 -0.5890
 7888SOL    HW235127   3.596   2.138   3.651  0.2699 -1.2153  0.1254
 7889SOL     OW35128   1.390   4.227   5.427 -0.0528  0.2174 -0.0135
 7889SOL    HW135129   1.418   4.135   5.432  3.5590  1.3123 -0.3570
 7889SOL    HW235130   1.472   4.261   5.391  0.5191 -0.9267  0.1845
 7890SOL     OW35131   0.818   4.446  15.479  0.2664 -0.2648 -0.1108
 7890SOL    HW135132   0.797   4.428  15.387 -0.9394  0.9921 -0.0680
 7890SOL    HW235133   0.731   4.470  15.510 -0.9806 -1.7982 -2.3201
 7891SOL     OW35134   1.354   3.968  11.497  0.1700  0.8547 -0.2959
 7891SOL    HW135135   1.401   3.894  11.459 -0.7449 -0.1045  0.4397
 7891SOL    HW235136   1.273   3.973  11.445 -1.2648 -0.9580  1.7620
 7892SOL     OW35137   3.905   1.123   5.588  0.6272 -0.9249  0.1173
 7892SOL    HW135138   3.846   1.197   5.575  1.4064 -0.2153  0.6512
 7892SOL    HW235139   3.892   1.074   5.507  0.7112  0.5083 -0.7551
 7893SOL     OW35140   2.656   2.621   7.463  0.5517 -0.7269 -0.4404
 7893SOL    HW135141   2.629   2.541   7.509 -0.9660  0.2192  0.3194
 7893SOL    HW235142   2.740   2.588   7.432  0.2553  0.1925 -2.2466
 7894SOL     OW35143   3.711   4.112   7.055 -0.0015 -0.3673  0.5283
 7894SOL    HW135144   3.723   4.057   7.132  0.4710 -1.0952 -0.0688
 7894SOL    HW235145   3.659   4.050   7.004 -0.2015 -0.0677  0.3679
 7895SOL     OW35146   2.169   3.655   6.267 -0.4600 -0.0066  0.3715
 7895SOL    HW135147   2.222   3.705   6.204  1.0744 -0.0821  1.5916
 7895SOL    HW235148   2.119   3.723   6.311  0.8100 -0.4383  2.5015
 7896SOL     OW35149   3.393   3.777   7.259 -0.6076  0.1775 -0.1525
 7896SOL    HW135150   3.442   3.719   7.318 -1.8058 -1.1505 -0.4509
 7896SOL    HW235151   3.372   3.713   7.191  0.2992  1.3933 -1.5520
 7897SOL     OW35152   4.374   0.647   6.605 -0.0379  0.4593  0.0710
 7897SOL    HW135153   4.388   0.666   6.513 -2.1284  0.3224 -0.2841
 7897SOL    HW235154   4.411   0.725   6.647 -1.2235  0.1941  1.6072
 7898SOL     OW35155   4.018   3.091   4.789  0.0262 -0.5153 -0.2554
 7898SOL    HW135156   3.925   3.095   4.770 -0.2159  0.0433  1.0392
 7898SOL    HW235157   4.046   3.182   4.797  0.7644 -0.8897  1.3981
 7899SOL     OW35158   4.040   0.727  11.561 -0.0340  0.2287  0.1949
 7899SOL    HW135159   3.984   0.797  11.529 -1.1591 -0.4135  0.7267
 7899SOL    HW235160   4.038   0.662  11.491 -0.6506  0.5030 -0.0405
 7900SOL     OW35161   3.293   0.102   7.838 -0.2343  0.1134  0.0968
 7900SOL    HW135162   3.213   0.070   7.878 -0.2445  0.7568  0.6023
 7900SOL    HW235163   3.323   0.168   7.901 -0.3913 -0.2446  0.5406
 7901SOL     OW35164   0.712   2.440   9.136 -0.0124 -0.1048  0.2764
 7901SOL    HW135165   0.733   2.347   9.141 -0.6684 -0.2952 -0.5416
 7901SOL    HW235166   0.632   2.438   9.083 -0.0033  0.5492  0.2405
 7902SOL     OW35167   3.360   0.687   6.534 -0.9016  0.1749 -0.0600
 7902SOL    HW135168   3.307   0.718   6.460  0.1744 -0.2454 -1.0039
 7902SOL    HW235169   3.393   0.602   6.507 -4.0102 -0.2725 -2.5150
 7903SOL     OW35170   1.655   1.451   7.060  0.1365  0.1092 -0.1352
 7903SOL    HW135171   1.693   1.401   6.988 -0.2095 -0.2935 -0.0366
 7903SOL    HW235172   1.724   1.514   7.080  0.5223 -0.2317 -0.3993
 7904SOL     OW35173   1.509   3.979  16.366  0.3224  0.6445 -0.3143
 7904SOL    HW135174   1.427   4.008  16.406  0.1958 -0.7400  0.4335
 7904SOL    HW235175   1.529   4.050  16.305  1.0112  1.1017  0.4466
 7905SOL     OW35176   1.010   3.461   7.528 -0.3363 -0.1107  0.5115
 7905SOL    HW135177   1.083   3.432   7.472  0.0545  1.1813  0.3538
 7905SOL    HW235178   0.936   3.417   7.488 -0.4753  0.3115  0.3061
 7906SOL     OW35179   3.955   0.890  10.413 -0.1811  0.1308  0.0763
 7906SOL    HW135180   3.988   0.917  10.327 -1.0151  1.3006  0.1265
 7906SOL    HW235181   3.876   0.941  10.396  0.1853  0.4242 -0.7309
 7907SOL     OW35182   3.302   1.611  16.865 -0.1087 -0.2103 -0.3508
 7907SOL    HW135183   3.329   1.626  16.774  1.4288 -1.0132 -0.0033
 7907SOL    HW235184   3.225   1.554  16.856 -0.3540 -0.0872  1.0658
 7908SOL     OW35185   4.067   0.605  10.312  0.0470  0.4331  0.5343
 7908SOL    HW135186   4.136   0.654  10.356  2.1729 -0.3849 -1.9297
 7908SOL    HW235187   4.046   0.676  10.250 -0.6696  0.7256  1.1141
 7909SOL     OW35188   2.941   4.091   7.856  0.6038 -0.1334 -0.5655
 7909SOL    HW135189   2.978   4.165   7.904 -2.3244  1.1052 -0.2513
 7909SOL    HW235190   3.009   4.083   7.789  1.2997  0.1615  0.1079
 7910SOL     OW35191   3.050   4.443   8.678  1.0349 -0.7319  0.8711
 7910SOL    HW135192   3.039   4.438   8.773  0.1026 -0.2418  0.7949
 7910SOL    HW235193   3.117   4.511   8.670 -0.3740  0.5178 -0.4470
 7911SOL     OW35194   2.302   3.530   3.585  0.2186 -0.2807  0.0987
 7911SOL    HW135195   2.383   3.514   3.536 -0.4221  2.8698 -1.9336
 7911SOL    HW235196   2.345   3.553   3.667  1.4838  1.1187 -0.9663
 7912SOL     OW35197   0.989   2.054  12.401  0.6711  0.5056  0.1967
 7912SOL    HW135198   0.971   2.141  12.367 -1.2830 -0.1838 -0.5123
 7912SOL    HW235199   1.054   2.023  12.338 -0.3519 -1.0055 -0.1168
 7913SOL     OW35200   3.975   1.307  16.290  0.0604 -0.5179 -0.1131
 7913SOL    HW135201   4.025   1.369  16.237 -3.0573  1.3864 -0.8022
 7913SOL    HW235202   4.027   1.229  16.272  0.0214 -0.3537 -0.9401
 7914SOL     OW35203   1.949   3.442   4.506 -0.2863 -0.5423 -0.4868
 7914SOL    HW135204   1.863   3.420   4.470 -0.6558  0.6565 -0.3449
 7914SOL    HW235205   1.927   3.526   4.547  0.7080  0.3868 -1.8408
 7915SOL     OW35206   4.165   2.613  12.593  0.2588  0.0178 -0.3093
 7915SOL    HW135207   4.163   2.519  12.577 -1.1127  0.1047 -0.6294
 7915SOL    HW235208   4.074   2.640  12.589  0.5870  0.9906 -1.1153
 7916SOL     OW35209   3.145   3.477  11.571 -0.4688 -0.3148  0.0744
 7916SOL    HW135210   3.165   3.487  11.478 -0.1400 -0.1685  0.1602
 7916SOL    HW235211   3.093   3.397  11.570 -0.9481  0.0159 -2.4637
 7917SOL     OW35212   1.168   2.282  15.924 -0.0335  0.2664  0.1511
 7917SOL    HW135213   1.085   2.252  15.887  0.4367 -0.0587 -0.6388
 7917SOL    HW235214   1.138   2.317  16.008  2.0748  0.5580  0.7933
 7918SOL     OW35215   4.660   3.465   4.359  0.6497 -0.0641 -0.6200
 7918SOL    HW135216   4.595   3.529   4.331  1.4976  2.0105  2.1536
 7918SOL    HW235217   0.013   3.517   4.341  0.0619  0.3222 -2.1005
 7919SOL     OW35218   2.655   1.895   7.197 -0.1357 -0.0826  0.1919
 7919SOL    HW135219   2.642   1.948   7.275 -0.5339  2.7018 -1.7699
 7919SOL    HW235220   2.607   1.814   7.214  0.7330 -0.6939 -0.1892
 7920SOL     OW35221   1.172   1.104   9.823 -0.3237 -0.1985  0.0709
 7920SOL    HW135222   1.124   1.032   9.865 -0.2623 -0.0581  0.3831
 7920SOL    HW235223   1.258   1.080   9.857 -1.3052 -0.8279  2.1398
 7921SOL     OW35224   0.552   4.493  14.090  0.2305  0.0819 -0.7753
 7921SOL    HW135225   0.542   4.510  14.184  0.4867  0.1025 -0.7531
 7921SOL    HW235226   0.472   4.449  14.061  1.9462 -3.1262 -0.5808
 7922SOL     OW35227   0.858   3.705   6.762 -0.0821  0.0739 -0.8863
 7922SOL    HW135228   0.936   3.670   6.720  0.1157  0.1292 -0.5659
 7922SOL    HW235229   0.797   3.631   6.753 -0.1596  0.0419 -0.0798
 7923SOL     OW35230   3.885   1.154   8.722  0.1105 -0.0189  0.3247
 7923SOL    HW135231   3.794   1.139   8.697  0.7629 -1.8375 -0.8944
 7923SOL    HW235232   3.897   1.094   8.795  1.5744  0.2137  0.2667
 7924SOL     OW35233   1.313   0.944   6.104 -0.1757 -0.5602 -0.0789
 7924SOL    HW135234   1.290   1.036   6.120 -0.2614 -0.8049  1.2017
 7924SOL    HW235235   1.402   0.936   6.138  0.1466  1.1920 -0.5102
 7925SOL     OW35236   2.055   1.971  15.148 -0.5449  0.2153  0.5245
 7925SOL    HW135237   2.109   1.933  15.218 -0.0273 -0.9757 -0.5391
 7925SOL    HW235238   1.993   2.024  15.199 -0.8928 -1.5279  1.9184
 7926SOL     OW35239   3.771   0.628   9.727 -0.9021 -0.0422 -0.1450
 7926SOL    HW135240   3.812   0.715   9.725  0.6415 -0.6607  3.3495
 7926SOL    HW235241   3.850   0.577   9.709  0.2042  0.9245  1.9715
 7927SOL     OW35242   4.304   1.641   4.087 -0.3822 -0.1865  0.1004
 7927SOL    HW135243   4.272   1.682   4.167  0.3141 -0.5246  0.5503
 7927SOL    HW235244   4.244   1.670   4.017 -1.4334 -0.9548  0.6885
 7928SOL     OW35245   4.133   2.431   0.263 -0.1521  0.9385  0.6975
 7928SOL    HW135246   4.179   2.347   0.257 -0.9562  0.4322  1.6527
 7928SOL    HW235247   4.197   2.489   0.303  0.6753  0.4201  0.1183
 7929SOL     OW35248   2.580   1.700   7.552 -0.8922 -0.1562  0.1555
 7929SOL    HW135249   2.660   1.664   7.514  0.3016  2.2462  0.3503
 7929SOL    HW235250   2.574   1.789   7.517  2.9406 -0.3496 -1.0315
 7930SOL     OW35251   0.461   2.049  11.047 -0.1178  0.4481 -0.0457
 7930SOL    HW135252   0.503   1.972  11.085  0.1373  1.2189  1.2583
 7930SOL    HW235253   0.433   2.091  11.128 -1.4985 -0.2468 -0.1732
 7931SOL     OW35254   1.891   0.886   3.197  0.0441 -0.5191  0.1363
 7931SOL    HW135255   1.948   0.854   3.128 -1.4007 -1.0508 -0.8273
 7931SOL    HW235256   1.811   0.896   3.146  2.1960  1.6724 -2.7917
 7932SOL     OW35257   3.873   1.630  16.939  0.0511  0.4778 -0.5659
 7932SOL    HW135258   3.851   1.696  16.873  0.9344  0.4638 -0.8683
 7932SOL    HW235259   3.831   1.550  16.906  0.2083 -0.6875  2.0394
 7933SOL     OW35260   4.500   3.924   3.919  0.1330  0.4409  0.1078
 7933SOL    HW135261   4.563   3.853   3.906  0.3065  0.3246  1.5463
 7933SOL    HW235262   4.550   3.997   3.955 -0.3059  1.1950 -0.8235
 7934SOL     OW35263   0.565   0.732   4.576 -0.3982 -0.0155 -0.2481
 7934SOL    HW135264   0.538   0.764   4.662  0.8535 -0.3200  0.2484
 7934SOL    HW235265   0.600   0.649   4.608  1.9961  0.3460 -1.9241
 7935SOL     OW35266   2.371   1.043   7.975  0.2462 -0.0169 -0.0924
 7935SOL    HW135267   2.352   0.994   7.894  1.1931  0.5715 -0.6647
 7935SOL    HW235268   2.412   1.123   7.944  0.1749 -0.9155 -2.5631
 7936SOL     OW35269   2.137   1.641   7.487  0.2137  0.7535 -0.2256
 7936SOL    HW135270   2.153   1.688   7.569 -2.8037 -1.0495  1.3905
 7936SOL    HW235271   2.094   1.561   7.519  0.4368 -0.4256 -2.8889
 7937SOL     OW35272   2.478   1.099  16.059  0.0841  0.1706 -1.1282
 7937SOL    HW135273   2.555   1.100  16.116 -0.6358 -2.0980 -0.1059
 7937SOL    HW235274   2.449   1.191  16.061 -0.1621  0.1182 -2.3291
 7938SOL     OW35275   3.091   4.139   9.778 -0.3849  0.2161 -0.4749
 7938SOL    HW135276   3.097   4.160   9.872  4.0918 -2.6575 -0.1427
 7938SOL    HW235277   3.163   4.077   9.785 -0.9834 -0.1465  2.8100
 7939SOL     OW35278   3.618   1.860   7.037 -0.7663  0.2820 -0.1372
 7939SOL    HW135279   3.637   1.823   7.124 -1.3286 -1.1578 -0.6182
 7939SOL    HW235280   3.685   1.802   7.001 -1.7887 -0.5651 -0.6600
 7940SOL     OW35281   4.114   3.495  10.798  0.3740  0.4618  0.5161
 7940SOL    HW135282   4.180   3.513  10.865  0.7481 -1.6938  0.7255
 7940SOL    HW235283   4.035   3.543  10.823 -0.1732  0.4782 -1.2147
 7941SOL     OW35284   3.703   0.346   9.178  0.0473  0.6027  0.4119
 7941SOL    HW135285   3.764   0.301   9.119  1.3101  2.4161  0.3121
 7941SOL    HW235286   3.747   0.431   9.185  1.0531  0.1119  0.1077
 7942SOL     OW35287   4.270   3.759   3.589  0.1786 -0.1064  0.7389
 7942SOL    HW135288   4.326   3.835   3.604  1.7437  0.0406 -5.9720
 7942SOL    HW235289   4.285   3.721   3.503  0.3104 -1.3695  1.3158
 7943SOL     OW35290   4.699   3.761  14.598 -0.0219 -0.0054  0.1599
 7943SOL    HW135291   4.635   3.746  14.529  0.1779  1.3308 -0.3114
 7943SOL    HW235292   4.695   3.857  14.601 -2.3917 -0.1445  1.3533
 7944SOL     OW35293   2.469   3.102   4.495 -0.3130  0.3243  0.2593
 7944SOL    HW135294   2.459   3.176   4.555 -0.6714  0.4939 -0.0195
 7944SOL    HW235295   2.551   3.071   4.535 -0.3698  1.5444  1.3214
 7945SOL     OW35296   1.856   2.610   9.266  0.5819 -0.3441  0.7791
 7945SOL    HW135297   1.820   2.627   9.353  0.0189  1.0226  0.2835
 7945SOL    HW235298   1.829   2.685   9.212 -2.1084 -3.1469 -1.7355
 7946SOL     OW35299   2.695   0.290   5.346 -0.2275 -0.1889 -0.2774
 7946SOL    HW135300   2.784   0.313   5.374 -0.3617 -1.8430  1.5538
 7946SOL    HW235301   2.711   0.226   5.277 -0.6578  0.7208 -1.2107
 7947SOL     OW35302   1.000   0.458   3.487 -0.7879 -0.1843  0.3149
 7947SOL    HW135303   0.975   0.455   3.579  0.3769 -1.3227  0.6090
 7947SOL    HW235304   0.931   0.516   3.457 -1.0135 -1.7337 -2.1616
 7948SOL     OW35305   4.405   4.602   3.570  0.3552  0.3611  0.2965
 7948SOL    HW135306   4.362   4.522   3.601  1.7571 -0.5364 -0.0630
 7948SOL    HW235307   4.378   4.596   3.478  4.0665  0.7301 -0.7879
 7949SOL     OW35308   1.456   3.881   7.495  0.0776 -0.1390 -0.6329
 7949SOL    HW135309   1.454   3.789   7.523  0.2470 -0.0382 -0.2956
 7949SOL    HW235310   1.473   3.867   7.402  0.1696 -0.4415 -0.5717
 7950SOL     OW35311   2.790   3.130   6.141 -0.2560 -0.2162  0.2166
 7950SOL    HW135312   2.864   3.092   6.190 -1.1928  1.0802  2.6457
 7950SOL    HW235313   2.801   3.224   6.153  0.3002 -0.1492 -0.8759
 7951SOL     OW35314   0.602   4.701   4.502 -0.3374  0.4892  0.4571
 7951SOL    HW135315   0.694   4.709   4.477  0.1803 -0.2461  2.1133
 7951SOL    HW235316   0.621   4.634   4.568  1.4472 -0.8417 -1.4001
 7952SOL     OW35317   1.136   2.297  12.618 -0.5906  0.0899  0.2225
 7952SOL    HW135318   1.087   2.374  12.648 -2.5308 -1.5197  1.1772
 7952SOL    HW235319   1.150   2.318  12.526 -0.1408 -0.5292  0.1473
 7953SOL     OW35320   2.717   2.628  13.464  0.5854 -0.7392  0.3454
 7953SOL    HW135321   2.686   2.570  13.534 -2.0770 -1.0544 -1.0873
 7953SOL    HW235322   2.640   2.685  13.460  2.1144  1.2553 -0.5904
 7954SOL     OW35323   4.397   0.222   5.404 -0.5561 -0.2298  0.5854
 7954SOL    HW135324   4.355   0.152   5.453  2.5788 -1.9640  0.7579
 7954SOL    HW235325   4.458   0.167   5.356  0.3533  2.5290 -1.4289
 7955SOL     OW35326   0.562   1.988   5.263 -0.2859 -0.2636 -0.2166
 7955SOL    HW135327   0.653   2.014   5.277  0.2234 -1.7843 -0.6304
 7955SOL    HW235328   0.559   1.894   5.281 -0.1324 -0.6385 -2.1837
 7956SOL     OW35329   4.111   1.712   0.778  0.0315 -0.2086 -0.2183
 7956SOL    HW135330   4.115   1.617   0.794 -0.6260 -0.7641 -3.2612
 7956SOL    HW235331   4.080   1.745   0.862 -2.8549 -1.9371 -0.6118
 7957SOL     OW35332   2.809   4.441   9.163  0.0131  0.9017  0.2488
 7957SOL    HW135333   2.903   4.432   9.150 -0.1459 -1.4892  0.8133
 7957SOL    HW235334   2.790   4.534   9.151 -0.6550  0.9688  1.8881
 7958SOL     OW35335   3.887   0.465   4.318 -0.3113  0.2465  0.1776
 7958SOL    HW135336   3.906   0.381   4.360  2.8442  0.8863  0.0430
 7958SOL    HW235337   3.801   0.485   4.354 -0.9231 -1.9016 -0.0348
 7959SOL     OW35338   4.275   0.074   2.998 -0.5304 -0.3161  0.2439
 7959SOL    HW135339   4.191   0.105   2.965 -0.6382 -2.0023 -1.1030
 7959SOL    HW235340   4.257   4.706   2.989 -1.2252 -0.2262  0.7374
 7960SOL     OW35341   3.317   4.323   4.552  0.1043 -0.1054 -0.0710
 7960SOL    HW135342   3.347   4.251   4.607  0.0285 -0.9956 -1.2048
 7960SOL    HW235343   3.301   4.282   4.467  1.4267  1.7486 -1.2267
 7961SOL     OW35344   1.536   1.420   7.610  0.1215  0.1732  0.2345
 7961SOL    HW135345   1.557   1.328   7.624 -0.8142 -0.1874 -0.7530
 7961SOL    HW235346   1.455   1.429   7.661 -0.6904  0.5733 -1.1168
 7962SOL     OW35347   0.730   1.923  16.763  0.1194 -0.2426 -0.0501
 7962SOL    HW135348   0.694   1.842  16.726  0.2934  0.9025 -2.7266
 7962SOL    HW235349   0.701   1.986  16.698  0.2949  0.7859  0.8733
 7963SOL     OW35350   0.768   2.372   0.355  0.5645 -0.2433  0.0062
 7963SOL    HW135351   0.709   2.395   0.283  2.1292  1.1514 -0.8309
 7963SOL    HW235352   0.728   2.287   0.369 -0.0130  0.2877  1.5790
 7964SOL     OW35353   0.757   1.823   3.970 -0.1524 -0.1711 -0.0884
 7964SOL    HW135354   0.734   1.907   3.930 -1.1535 -0.1108  0.6341
 7964SOL    HW235355   0.846   1.810   3.936  0.4263  1.5894  0.7387
 7965SOL     OW35356   3.155   2.621   4.727 -0.0199 -0.3698 -0.0829
 7965SOL    HW135357   3.062   2.641   4.733 -0.4973 -1.9839 -2.0599
 7965SOL    HW235358   3.149   2.563   4.651 -0.7226  1.7472 -1.6159
 7966SOL     OW35359   2.623   0.739  15.678 -0.5977  0.0023  0.0401
 7966SOL    HW135360   2.600   0.817  15.628  1.1858  0.0105 -0.7601
 7966SOL    HW235361   2.610   0.770  15.768 -1.5278  1.1210 -0.4699
 7967SOL     OW35362   1.179   3.297   4.943 -0.1698 -0.6418  0.1064
 7967SOL    HW135363   1.208   3.246   5.019 -2.2810 -0.2628  1.1831
 7967SOL    HW235364   1.236   3.266   4.873  2.4784  0.3964  1.8363
 7968SOL     OW35365   1.059   3.622   8.036 -0.6232 -0.0574  0.4153
 7968SOL    HW135366   1.079   3.637   8.128 -1.9198  3.6884  0.0824
 7968SOL    HW235367   1.104   3.702   8.009  0.8181 -0.7880  0.6610
 7969SOL     OW35368   4.485   0.256   8.046  0.2445 -0.2447  0.3989
 7969SOL    HW135369   4.524   0.204   7.976  2.4080  1.6020  0.2353
 7969SOL    HW235370   4.555   0.283   8.107 -0.3576  0.7815  0.6263
 7970SOL     OW35371   4.216   1.891  15.848  0.0405  0.4297  0.2727
 7970SOL    HW135372   4.217   1.859  15.938 -3.2440  0.0672  0.1814
 7970SOL    HW235373   4.142   1.839  15.816  0.7555  1.4438 -2.9946
 7971SOL     OW35374   1.373   0.237   2.442  0.5365  0.2924 -0.6263
 7971SOL    HW135375   1.401   0.158   2.396  1.3920  0.9322 -1.2321
 7971SOL    HW235376   1.390   0.311   2.382  1.6662  0.5302 -0.0179
 7972SOL     OW35377   3.382   1.814  11.525  0.1003 -0.1187 -0.3008
 7972SOL    HW135378   3.435   1.771  11.592  0.1508  0.4705  0.0381
 7972SOL    HW235379   3.372   1.902  11.561  0.0234  0.0733 -0.7952
 7973SOL     OW35380   3.392   0.566   9.214 -0.3144 -0.5509  0.6410
 7973SOL    HW135381   3.422   0.486   9.257  1.2408  0.0891  0.7320
 7973SOL    HW235382   3.456   0.589   9.147 -0.7466 -2.6106 -0.4983
 7974SOL     OW35383   3.564   0.158  12.048 -0.6972 -0.1262  0.0484
 7974SOL    HW135384   3.512   0.216  12.105  1.4937  0.6109  1.3096
 7974SOL    HW235385   3.631   0.126  12.108  0.1731  0.6338 -0.5141
 7975SOL     OW35386   4.417   3.757   1.964  0.2748  0.5240  0.1844
 7975SOL    HW135387   4.428   3.848   1.992  0.6095  1.2444 -2.2270
 7975SOL    HW235388   4.433   3.765   1.870  0.1076 -1.4505 -0.0120
 7976SOL     OW35389   2.293   3.642   8.612  0.1468 -0.1475 -0.0056
 7976SOL    HW135390   2.342   3.696   8.673  1.3649 -1.9263  0.6035
 7976SOL    HW235391   2.325   3.555   8.635 -1.1858 -0.8553 -0.8036
 7977SOL     OW35392   0.495   0.477   3.796 -0.2381 -0.1895  0.4188
 7977SOL    HW135393   0.572   0.532   3.813  1.4960 -2.0692 -1.3697
 7977SOL    HW235394   0.431   0.519   3.853 -1.3177 -1.2222 -0.0314
 7978SOL     OW35395   4.538   4.632   7.170  0.2702  0.5599 -0.5117
 7978SOL    HW135396   4.565   4.634   7.078  2.1108 -0.6696 -0.0058
 7978SOL    HW235397   4.612   4.591   7.215  1.4398  3.6883  0.3881
 7979SOL     OW35398   3.024   2.951   4.487  1.0057  0.0295 -0.0246
 7979SOL    HW135399   3.049   2.860   4.471 -0.2938 -0.2256 -0.5805
 7979SOL    HW235400   3.004   2.931   4.578  0.7866 -0.7126 -0.2316
 7980SOL     OW35401   4.031   4.237   6.393  0.1124 -0.4000 -0.0152
 7980SOL    HW135402   3.956   4.296   6.397 -0.3560 -0.9551 -0.6982
 7980SOL    HW235403   4.062   4.228   6.483  1.6125  3.6653 -0.1062
 7981SOL     OW35404   2.609   0.262  10.705 -0.0363 -0.0234 -0.4942
 7981SOL    HW135405   2.603   0.239  10.613  1.5998 -3.4281  0.2307
 7981SOL    HW235406   2.671   0.334  10.692 -0.7837  0.3901 -1.6804
 7982SOL     OW35407   0.910   3.652   3.613 -0.4671  0.2579 -0.3811
 7982SOL    HW135408   0.912   3.643   3.709  0.7816 -1.1107 -0.5423
 7982SOL    HW235409   0.976   3.588   3.590  1.8176  2.3548  0.3343
 7983SOL     OW35410   2.455   3.535  13.152 -0.7671  0.4991 -0.0811
 7983SOL    HW135411   2.510   3.557  13.227  1.2845 -1.7669 -0.9179
 7983SOL    HW235412   2.398   3.612  13.151 -1.2233  0.1747  0.5035
 7984SOL     OW35413   1.294   0.872   4.868  0.0795  0.5416 -0.3303
 7984SOL    HW135414   1.366   0.888   4.929  0.7238 -1.0720 -0.6805
 7984SOL    HW235415   1.299   0.953   4.818  3.2692  0.8556  0.4958
 7985SOL     OW35416   3.593   0.811   8.728 -0.1281 -0.5812 -0.2031
 7985SOL    HW135417   3.668   0.842   8.778 -0.3371 -0.4771  0.0435
 7985SOL    HW235418   3.531   0.816   8.801 -0.2824 -1.4127 -0.2764
 7986SOL     OW35419   1.595   4.224   8.735  0.6744 -0.0336  0.2651
 7986SOL    HW135420   1.647   4.293   8.776 -0.8112  1.2324  0.0395
 7986SOL    HW235421   1.522   4.271   8.695  1.7194  0.9650 -0.4658
 7987SOL     OW35422   1.534   0.640  14.931 -0.3684 -0.0766  0.3843
 7987SOL    HW135423   1.532   0.619  15.024  0.4895 -0.5509  0.2969
 7987SOL    HW235424   1.577   0.562  14.895 -1.0304 -0.0646 -0.4370
 7988SOL     OW35425   3.251   4.448  16.367 -0.7085  0.0189 -0.5899
 7988SOL    HW135426   3.184   4.399  16.415  0.2460  0.2534  0.9605
 7988SOL    HW235427   3.329   4.424  16.417 -0.5167  2.1224  0.1332
 7989SOL     OW35428   1.776   1.221   4.388  0.0997  0.1466 -0.1233
 7989SOL    HW135429   1.819   1.141   4.417 -1.9277 -0.1827  1.9864
 7989SOL    HW235430   1.813   1.238   4.301  1.6618  3.1316  1.0907
 7990SOL     OW35431   3.357   3.281  16.638  0.2346  0.2767 -0.3150
 7990SOL    HW135432   3.282   3.280  16.697 -0.3433  0.1691 -1.0518
 7990SOL    HW235433   3.336   3.368  16.602 -2.0417  0.1209  0.6285
 7991SOL     OW35434   3.626   3.126  12.735  0.1958 -0.0227 -0.1378
 7991SOL    HW135435   3.633   3.041  12.779 -2.9613 -1.2751 -2.0559
 7991SOL    HW235436   3.691   3.132  12.665  1.0809  0.2852  0.6980
 7992SOL     OW35437   4.570   3.151   3.842  0.2621  0.5737 -0.7907
 7992SOL    HW135438   4.479   3.125   3.851 -0.4025  2.3635 -2.2726
 7992SOL    HW235439   4.568   3.197   3.758  0.2325  0.0911 -1.0571
 7993SOL     OW35440   1.138   0.776   7.996 -0.2446 -0.3443  0.0221
 7993SOL    HW135441   1.145   0.681   7.984 -0.3647 -0.6355  2.3263
 7993SOL    HW235442   1.159   0.789   8.088  1.4345 -0.8563 -0.2746
 7994SOL     OW35443   1.762   1.574   8.616 -0.1669  0.0794  0.3442
 7994SOL    HW135444   1.844   1.621   8.630 -0.8063  0.0053  4.0928
 7994SOL    HW235445   1.767   1.509   8.686 -0.2742  0.9483  1.1561
 7995SOL     OW35446   0.111   1.844  12.181 -0.2231 -0.2521  0.1537
 7995SOL    HW135447   0.070   1.795  12.109  1.3699 -0.2105 -0.7739
 7995SOL    HW235448   0.133   1.925  12.135 -0.3732  1.0221  2.3424
 7996SOL     OW35449   1.236   3.365   7.077 -0.3233 -0.4347 -0.0934
 7996SOL    HW135450   1.219   3.389   6.986  0.8145  1.7031  0.2462
 7996SOL    HW235451   1.169   3.299   7.092  1.6698 -2.3367  0.4631
 7997SOL     OW35452   1.812   4.515   3.722 -1.1053 -0.4187 -0.0589
 7997SOL    HW135453   1.819   4.561   3.638  1.3306  0.1052  0.4239
 7997SOL    HW235454   1.873   4.561   3.780 -1.8035  0.2255  0.1674
 7998SOL     OW35455   1.816   3.859  16.920 -0.2806 -0.0141 -0.7410
 7998SOL    HW135456   1.728   3.855  16.882 -0.2404  2.1265 -1.0956
 7998SOL    HW235457   1.865   3.806  16.857  0.7870  0.0675  0.0285
 7999SOL     OW35458   0.903   2.859   3.433  0.3973 -0.0377 -0.1646
 7999SOL    HW135459   0.852   2.838   3.355  0.7493  1.0909 -0.7027
 7999SOL    HW235460   0.850   2.932   3.465 -0.7904 -1.4125  0.9967
 8000SOL     OW35461   1.485   4.025   8.891  0.3286  0.9529 -0.0815
 8000SOL    HW135462   1.524   4.095   8.838 -0.5155  0.2813 -1.5827
 8000SOL    HW235463   1.403   4.014   8.843 -0.0428  0.9275  0.5552
 8001SOL     OW35464   0.697   0.036   6.681  0.3903 -0.1091 -0.6973
 8001SOL    HW135465   0.722   0.013   6.591  1.9854  0.0263 -0.2786
 8001SOL    HW235466   0.641   4.687   6.701  1.8753 -0.2587  2.9075
 8002SOL     OW35467   2.449   1.466   6.933 -0.3427 -0.2260 -0.7905
 8002SOL    HW135468   2.512   1.525   6.894 -1.2336 -0.5096 -2.6669
 8002SOL    HW235469   2.449   1.393   6.870  2.6893 -1.6882  0.9393
 8003SOL     OW35470   3.729   0.097   3.154  0.2698 -0.2840 -0.2445
 8003SOL    HW135471   3.805   0.155   3.154  0.0824 -0.0442  0.1314
 8003SOL    HW235472   3.711   0.088   3.247  1.1759 -0.9450 -0.1282
 8004SOL     OW35473   4.393   0.452   4.429 -0.1320  0.1720  0.7110
 8004SOL    HW135474   4.354   0.537   4.448 -1.8493 -0.3932 -0.2366
 8004SOL    HW235475   4.399   0.404   4.512 -0.8038  0.8225  1.1274
 8005SOL     OW35476   1.860   2.628   8.029  0.3984 -0.0362  0.0596
 8005SOL    HW135477   1.951   2.655   8.017 -0.0209  0.3933 -2.1397
 8005SOL    HW235478   1.814   2.688   7.970 -1.1920 -0.9217  0.3937
 8006SOL     OW35479   0.246   2.343  17.081  0.1842  0.3991  0.3208
 8006SOL    HW135480   0.200   2.260  17.065 -2.8268  1.8916  1.2744
 8006SOL    HW235481   0.339   2.320  17.079  0.9428  3.5297 -0.4384
 8007SOL     OW35482   2.506   4.586   8.128 -0.6418 -0.0142  0.2111
 8007SOL    HW135483   2.474   4.661   8.078  1.9121 -0.3608 -1.9426
 8007SOL    HW235484   2.446   4.517   8.099 -2.7983  2.2025 -0.6176
 8008SOL     OW35485   0.128   4.211   3.192 -0.3305  0.2701 -0.0893
 8008SOL    HW135486   0.046   4.250   3.160 -1.5954  0.5083  3.4136
 8008SOL    HW235487   0.089   4.126   3.212 -0.5528  0.1838 -0.9053
 8009SOL     OW35488   1.190   4.717  14.472 -0.1208  0.0520 -0.0195
 8009SOL    HW135489   1.238   4.674  14.401 -0.9732 -2.7213  1.1101
 8009SOL    HW235490   1.214   4.657  14.542 -0.6613  1.3655  1.2795
 8010SOL     OW35491   2.076   0.240   0.352  0.1481 -0.8689  0.0503
 8010SOL    HW135492   2.036   0.155   0.368 -1.6672 -0.4205 -2.1158
 8010SOL    HW235493   2.012   0.279   0.293  2.5434 -1.0016 -2.6508
 8011SOL     OW35494   0.098   1.259   5.918 -0.5850 -0.0900 -0.0988
 8011SOL    HW135495   0.069   1.185   5.865 -0.8392 -0.3443  0.3939
 8011SOL    HW235496   0.071   1.333   5.863  1.3641  2.5281  2.4487
 8012SOL     OW35497   4.310   2.258  17.390  0.4529  0.2179  0.0732
 8012SOL    HW135498   4.386   2.316  17.381  0.1837  0.6303  0.4383
 8012SOL    HW235499   4.330   2.208  17.469 -2.5096  1.5138  1.6294
 8013SOL     OW35500   2.747   3.820   8.751  0.2789 -0.9759  0.4199
 8013SOL    HW135501   2.828   3.870   8.757 -0.2237 -0.2334  0.9595
 8013SOL    HW235502   2.692   3.893   8.725  0.4674 -1.0017 -0.0587
 8014SOL     OW35503   0.642   1.900  17.052  0.5799  0.2888  0.0091
 8014SOL    HW135504   0.722   1.851  17.070  0.3721  0.6749  2.0236
 8014SOL    HW235505   0.659   1.915  16.959 -0.0505 -1.1407 -0.3252
 8015SOL     OW35506   0.357   2.889   3.337  0.5424  0.1259  0.2244
 8015SOL    HW135507   0.418   2.815   3.333 -0.5184 -0.6916 -0.7864
 8015SOL    HW235508   0.299   2.845   3.275 -0.5051  2.7871 -0.6840
 8016SOL     OW35509   3.587   2.521  12.975  0.0830 -0.3906  0.1665
 8016SOL    HW135510   3.634   2.551  13.053 -2.4849  1.3679  1.0702
 8016SOL    HW235511   3.540   2.444  13.008  2.3956 -2.1845 -0.7535
 8017SOL     OW35512   4.659   4.100   3.996  0.7037 -0.1099 -0.9960
 8017SOL    HW135513   4.687   4.140   3.914  1.8145  0.8348 -0.1416
 8017SOL    HW235514   4.699   4.166   4.052 -0.1283 -0.4520 -0.0110
 8018SOL     OW35515   3.615   0.133   6.690 -0.4403 -0.1076 -0.4617
 8018SOL    HW135516   3.609   0.052   6.641  1.9695 -0.1219 -0.7541
 8018SOL    HW235517   3.556   0.122   6.765 -0.4661  0.1203 -0.4476
 8019SOL     OW35518   0.497   0.647   0.745 -0.1932  0.1081  0.3654
 8019SOL    HW135519   0.454   0.564   0.724  0.5749 -0.2129  0.0433
 8019SOL    HW235520   0.430   0.684   0.802 -1.5236 -0.0297 -1.1090
 8020SOL     OW35521   0.303   0.121   4.543 -0.0511  0.2632 -0.2517
 8020SOL    HW135522   0.336   0.147   4.457 -1.4714 -0.4790 -1.0185
 8020SOL    HW235523   0.379   0.067   4.561 -0.8082  0.1207  2.5098
 8021SOL     OW35524   3.808   4.538   2.251  0.6135 -0.2318 -0.0069
 8021SOL    HW135525   3.875   4.606   2.257  1.5142 -1.0856 -0.5174
 8021SOL    HW235526   3.738   4.581   2.201  1.5717 -0.8472 -1.8894
 8022SOL     OW35527   3.060   2.840   6.565 -0.0933  0.0756 -0.3869
 8022SOL    HW135528   3.153   2.864   6.555 -0.0776 -0.1148 -0.7135
 8022SOL    HW235529   3.026   2.930   6.563 -0.5120 -0.0773 -0.1060
 8023SOL     OW35530   2.094   2.472   8.506  0.1405  0.0580 -0.3140
 8023SOL    HW135531   2.108   2.550   8.452  0.1765  0.2095 -0.0852
 8023SOL    HW235532   2.179   2.463   8.549  0.3479 -1.6326 -1.0959
 8024SOL     OW35533   3.465   4.167   3.063 -0.0151 -0.2469 -0.1392
 8024SOL    HW135534   3.526   4.094   3.074  1.8958  1.6113  1.6326
 8024SOL    HW235535   3.488   4.233   3.128  2.3094  0.2438 -1.4558
 8025SOL     OW35536   1.902   4.583   7.493 -0.1396  0.1527  0.0087
 8025SOL    HW135537   1.965   4.519   7.460 -0.8361 -0.8311  0.5864
 8025SOL    HW235538   1.879   4.545   7.577  0.9137  1.3107  0.8201
 8026SOL     OW35539   2.068   2.518   4.700  0.4098 -0.0116 -0.1334
 8026SOL    HW135540   2.006   2.492   4.632 -0.4758 -0.7957  0.9486
 8026SOL    HW235541   2.016   2.486   4.774 -1.2223 -0.0743 -1.3247
 8027SOL     OW35542   1.698   1.204  10.789 -0.4171  0.4778  0.0314
 8027SOL    HW135543   1.789   1.227  10.768  0.0362 -0.5847  0.8628
 8027SOL    HW235544   1.656   1.197  10.703  1.9374  1.9608 -1.2416
 8028SOL     OW35545   1.318   1.747   7.231 -0.3984 -0.0454 -0.5923
 8028SOL    HW135546   1.276   1.742   7.317  1.8937  0.4323  0.5531
 8028SOL    HW235547   1.404   1.717   7.260  0.4596  1.2617 -1.8039
 8029SOL     OW35548   1.463   0.834   0.683 -0.1696 -0.2153  0.1118
 8029SOL    HW135549   1.376   0.861   0.712 -0.5565  1.0017 -2.1937
 8029SOL    HW235550   1.481   0.771   0.753 -1.6236 -1.3687 -0.5738
 8030SOL     OW35551   1.651   3.358   4.445  0.1017 -0.0695  0.3213
 8030SOL    HW135552   1.645   3.427   4.378 -0.1919 -0.3595  0.0534
 8030SOL    HW235553   1.667   3.276   4.400  1.5123  0.5446 -0.3105
 8031SOL     OW35554   3.255   3.180   8.498  0.4964  0.2514 -0.0592
 8031SOL    HW135555   3.285   3.234   8.425 -0.6596  0.2927 -0.5086
 8031SOL    HW235556   3.194   3.242   8.538 -0.5513 -0.8529  0.0543
 8032SOL     OW35557   0.475   0.826   4.885  0.2217  0.1657  0.0199
 8032SOL    HW135558   0.493   0.915   4.916  0.1687 -0.6755  2.4249
 8032SOL    HW235559   0.423   0.794   4.959  0.8964  0.3842  0.5900
 8033SOL     OW35560   2.171   3.155   5.324 -0.2452  0.2559  0.6092
 8033SOL    HW135561   2.225   3.234   5.318 -1.0188  0.8503  1.6627
 8033SOL    HW235562   2.212   3.112   5.399 -0.9862 -0.1553  0.7704
 8034SOL     OW35563   2.058   0.675   9.225  0.1964  0.0535  0.2289
 8034SOL    HW135564   1.992   0.708   9.287  0.3737  1.0629 -0.1128
 8034SOL    HW235565   2.097   0.607   9.280  0.5622  1.8399  2.1913
 8035SOL     OW35566   3.371   2.039  14.607  0.3204 -0.2826 -0.4010
 8035SOL    HW135567   3.282   2.009  14.627  0.6555 -0.6339  0.5611
 8035SOL    HW235568   3.423   1.988  14.668 -0.8207 -0.3856  0.4821
 8036SOL     OW35569   2.699   1.921  15.238 -0.3559 -0.8383 -0.1286
 8036SOL    HW135570   2.710   2.002  15.289  0.1741 -0.1218 -1.3525
 8036SOL    HW235571   2.615   1.941  15.198  0.0555  1.6188  0.2223
 8037SOL     OW35572   3.877   2.707   0.489  0.1848 -0.6644 -0.1419
 8037SOL    HW135573   3.807   2.758   0.449 -0.2477 -0.7408  0.5178
 8037SOL    HW235574   3.851   2.619   0.463 -0.8593 -0.6321  0.7690
 8038SOL     OW35575   2.793   4.523   2.802  0.6074 -0.0937 -0.1494
 8038SOL    HW135576   2.847   4.540   2.878 -0.7548 -0.4672  0.9056
 8038SOL    HW235577   2.845   4.451   2.767  2.9131  2.0673 -1.1230
 8039SOL     OW35578   1.622   1.199   4.691  0.1155  0.5031  0.1474
 8039SOL    HW135579   1.683   1.247   4.747  0.8037  1.8088 -1.7138
 8039SOL    HW235580   1.605   1.266   4.625  3.4772  0.5885 -0.6775
 8040SOL     OW35581   3.352   0.849   2.996  0.1387  0.4699  0.8863
 8040SOL    HW135582   3.295   0.925   2.988 -1.2334 -0.5065  1.4298
 8040SOL    HW235583   3.285   0.782   3.004  1.9610 -1.2323  1.8374
 8041SOL     OW35584   1.803   1.102   9.819  0.4938 -0.1308 -0.0964
 8041SOL    HW135585   1.708   1.102   9.832  0.7540 -2.1643  1.8595
 8041SOL    HW235586   1.815   1.166   9.749 -3.6494  2.3777  1.4877
 8042SOL     OW35587   3.404   2.901  11.785 -0.2227 -0.1108  0.0568
 8042SOL    HW135588   3.469   2.971  11.788 -0.5001  0.0794  1.4629
 8042SOL    HW235589   3.344   2.940  11.848 -1.0433 -3.4986  1.3761
 8043SOL     OW35590   0.605   3.192   2.977 -0.1952  0.3347  0.3010
 8043SOL    HW135591   0.518   3.153   2.975 -0.3533  0.7240 -0.3273
 8043SOL    HW235592   0.603   3.244   2.897  1.1139  0.1168  0.1310
 8044SOL     OW35593   2.816   4.720  11.579  0.5236 -0.0140 -0.2476
 8044SOL    HW135594   2.907   0.015  11.558  0.6039  0.0829  0.1820
 8044SOL    HW235595   2.769   0.072  11.550 -0.4576 -0.8750 -0.9619
 8045SOL     OW35596   3.000   3.048   1.845  0.2695 -0.1930  0.1662
 8045SOL    HW135597   3.066   3.113   1.868 -2.8134  3.4084 -1.1275
 8045SOL    HW235598   3.010   2.979   1.910  2.3279  0.3164  0.4029
 8046SOL     OW35599   3.873   4.720   4.063  0.6074  0.1201  0.3050
 8046SOL    HW135600   3.934   0.023   4.131  1.3517 -0.8180  0.0354
 8046SOL    HW235601   3.916   4.637   4.043 -0.2507 -0.3166  0.2799
 8047SOL     OW35602   4.355   1.063   7.292  0.5082 -1.0643  0.3277
 8047SOL    HW135603   4.265   1.034   7.277 -0.4562  2.2937 -0.2426
 8047SOL    HW235604   4.351   1.145   7.244 -0.6400 -1.2067  0.1704
 8048SOL     OW35605   3.169   2.700   0.365  0.4677 -0.1933  0.3066
 8048SOL    HW135606   3.104   2.698   0.436 -0.4445 -0.5170 -0.5247
 8048SOL    HW235607   3.203   2.611   0.360  0.7337 -0.0685 -0.0512
 8049SOL     OW35608   4.474   2.746   6.184  0.5806  0.3043  0.1149
 8049SOL    HW135609   4.427   2.791   6.253  0.2217  1.1240 -0.6660
 8049SOL    HW235610   4.554   2.798   6.187  0.6198  0.1501  1.4743
 8050SOL     OW35611   3.117   2.834   5.641 -0.1239  0.0388  0.0248
 8050SOL    HW135612   3.182   2.764   5.634  2.1908  1.9008  2.9511
 8050SOL    HW235613   3.041   2.780   5.661  0.4805 -0.7702  0.1219
 8051SOL     OW35614   1.200   3.218   6.090 -0.5284  0.2022 -0.3814
 8051SOL    HW135615   1.181   3.312   6.084  0.1474  0.3377 -0.4238
 8051SOL    HW235616   1.127   3.181   6.139 -0.6377  0.1115 -0.6149
 8052SOL     OW35617   2.080   4.161   5.316  0.2916 -0.0850 -0.2434
 8052SOL    HW135618   2.095   4.251   5.345 -1.3244 -0.6472  2.2727
 8052SOL    HW235619   2.009   4.133   5.373 -0.4411 -0.3448 -1.2822
 8053SOL     OW35620   2.539   3.125  12.482  0.1615 -0.0724 -0.2895
 8053SOL    HW135621   2.623   3.165  12.501  0.0839  0.5967 -1.3598
 8053SOL    HW235622   2.492   3.195  12.437 -0.3213 -1.2494 -1.6067
 8054SOL     OW35623   1.331   3.196   5.146 -0.2911  1.0349 -0.1094
 8054SOL    HW135624   1.337   3.108   5.108  0.1586  1.2674 -0.5818
 8054SOL    HW235625   1.422   3.219   5.163 -0.4178  0.6060  1.1646
 8055SOL     OW35626   3.548   4.136   8.572  0.3152 -0.2882  0.2098
 8055SOL    HW135627   3.607   4.210   8.582  0.8714 -0.7493  0.3712
 8055SOL    HW235628   3.464   4.166   8.605  0.7264 -0.3112  1.2744
 8056SOL     OW35629   4.261   2.873  16.330 -0.1146  0.2621 -0.4548
 8056SOL    HW135630   4.329   2.930  16.292  1.2309  0.4501  2.2198
 8056SOL    HW235631   4.203   2.947  16.344  0.2572  0.3322  0.6892
 8057SOL     OW35632   2.566   2.868   6.954  0.5890  0.0337 -0.8071
 8057SOL    HW135633   2.613   2.939   6.997  1.7073  0.0038 -1.9721
 8057SOL    HW235634   2.626   2.847   6.882  1.4960  0.1984 -0.1030
 8058SOL     OW35635   4.590   0.963   7.166  0.3178 -0.2288 -0.0902
 8058SOL    HW135636   4.525   0.979   7.098  0.5929 -0.7833 -0.4877
 8058SOL    HW235637   4.549   1.021   7.230 -0.3886 -0.8589  0.0303
 8059SOL     OW35638   4.129   2.762   5.101  0.1049  0.4973 -0.3457
 8059SOL    HW135639   4.070   2.824   5.145  1.6636 -0.1565  2.6873
 8059SOL    HW235640   4.069   2.702   5.057 -0.0477  0.2743  0.1718
 8060SOL     OW35641   1.683   2.030   8.596  0.3631  0.0766 -0.3532
 8060SOL    HW135642   1.645   1.984   8.671  0.1388 -1.2092 -1.2577
 8060SOL    HW235643   1.748   2.090   8.633 -0.9063  0.6791  0.9143
 8061SOL     OW35644   1.471   4.657  14.400  0.0241 -0.1317 -0.3199
 8061SOL    HW135645   1.497   4.718  14.331 -2.8909  2.4995  0.8810
 8061SOL    HW235646   1.533   4.589  14.375 -0.7504 -0.0982 -2.3678
 8062SOL     OW35647   2.349   0.296   7.136 -0.0964 -0.0583 -0.2594
 8062SOL    HW135648   2.304   0.225   7.090  0.3824 -0.5151 -0.0170
 8062SOL    HW235649   2.430   0.265   7.176  0.0093  0.8006  0.1839
 8063SOL     OW35650   1.306   2.998   4.556  0.3484  0.3105  0.0909
 8063SOL    HW135651   1.287   2.905   4.571  0.5417  0.6480  2.4009
 8063SOL    HW235652   1.368   3.001   4.483  0.2447  0.2196 -0.0016
 8064SOL     OW35653   4.231   3.778   8.636  0.2896  0.5896  0.0257
 8064SOL    HW135654   4.192   3.744   8.716  1.7395  1.1119  0.9734
 8064SOL    HW235655   4.308   3.723   8.648  0.7899  0.4975 -3.4357
 8065SOL     OW35656   4.674   1.725  11.351 -0.2312  0.2159  0.4675
 8065SOL    HW135657   4.651   1.636  11.379 -0.1866 -0.4153 -1.4830
 8065SOL    HW235658   4.628   1.734  11.268  0.0433 -0.8649  0.1958
 8066SOL     OW35659   1.186   0.115   8.630  0.4550 -0.1872  0.0191
 8066SOL    HW135660   1.094   0.121   8.656 -0.3836 -0.7581 -2.7519
 8066SOL    HW235661   1.185   0.172   8.552  1.1657  0.7793  0.7245
 8067SOL     OW35662   2.327   2.401   4.775  0.6600 -0.7303 -0.0525
 8067SOL    HW135663   2.346   2.342   4.702  0.5747  2.5606 -2.7157
 8067SOL    HW235664   2.245   2.440   4.746  1.9974  1.0929 -1.3446
 8068SOL     OW35665   2.375   1.716   3.059  0.3945  0.7300  0.7302
 8068SOL    HW135666   2.436   1.669   3.115 -2.0604 -0.1015  2.7107
 8068SOL    HW235667   2.429   1.772   3.004 -0.5884 -0.9978 -2.0163
 8069SOL     OW35668   4.490   2.080   7.134  0.4088  0.1459  0.1423
 8069SOL    HW135669   4.544   2.142   7.184 -1.9979  0.4917  2.2985
 8069SOL    HW235670   4.466   2.134   7.059 -1.8936 -0.7751  0.2272
 8070SOL     OW35671   3.066   0.643   5.040  0.3751  0.1748 -0.6176
 8070SOL    HW135672   3.005   0.593   4.986 -0.1028  1.1336 -0.9528
 8070SOL    HW235673   3.140   0.664   4.983 -0.2031  0.2331 -1.3380
 8071SOL     OW35674   1.553   3.997  14.042  0.3048 -0.1957 -0.5654
 8071SOL    HW135675   1.515   3.982  13.955 -1.7517  3.1870 -0.2628
 8071SOL    HW235676   1.639   3.971  14.010  1.6760  3.6294 -0.0097
 8072SOL     OW35677   3.669   1.672   2.599 -0.3026  0.5875 -0.6571
 8072SOL    HW135678   3.747   1.714   2.636  0.4334 -0.4685 -1.0100
 8072SOL    HW235679   3.694   1.679   2.506  0.6230 -1.1381 -0.5430
 8073SOL     OW35680   3.547   0.911   4.186 -0.6572 -1.3719 -0.3542
 8073SOL    HW135681   3.531   0.844   4.252 -2.6572  0.8080  1.3592
 8073SOL    HW235682   3.545   0.862   4.104  0.0700  1.3350 -2.0140
 8074SOL     OW35683   3.507   1.919   6.325  0.2145 -0.4216  0.2832
 8074SOL    HW135684   3.531   1.963   6.407  0.1482 -0.7732  0.4932
 8074SOL    HW235685   3.578   1.960   6.276 -1.0738  3.8113  1.9559
 8075SOL     OW35686   0.155   0.832  12.166  0.6239  0.3577  0.7452
 8075SOL    HW135687   0.249   0.846  12.178  1.0926 -1.2771 -1.1165
 8075SOL    HW235688   0.139   0.890  12.091 -0.6936 -0.7261  0.1959
 8076SOL     OW35689   2.986   4.315   2.743  0.1218 -0.4327  0.1005
 8076SOL    HW135690   3.060   4.376   2.750  0.4479 -0.8929  0.6666
 8076SOL    HW235691   3.004   4.286   2.653 -0.5393 -2.5959  0.6649
 8077SOL     OW35692   2.839   1.816   9.678  0.1837  0.3183  0.0143
 8077SOL    HW135693   2.869   1.741   9.626 -0.8283  0.5914 -0.9726
 8077SOL    HW235694   2.799   1.873   9.613 -0.9758 -0.6080 -0.0794
 8078SOL     OW35695   3.726   0.081   8.690 -0.3444  0.3364 -0.5076
 8078SOL    HW135696   3.806   0.030   8.704  0.2658  1.0159 -1.4879
 8078SOL    HW235697   3.702   0.086   8.783  1.8939 -2.5500  0.2445
 8079SOL     OW35698   0.383   1.882   6.691  0.1894 -0.3855  0.2540
 8079SOL    HW135699   0.377   1.788   6.669  1.7214 -0.7605  1.4746
 8079SOL    HW235700   0.396   1.912   6.601  2.7076  1.4231  1.2569
 8080SOL     OW35701   0.911   2.783   6.180 -0.1405  0.3340  0.0305
 8080SOL    HW135702   0.931   2.766   6.088 -1.4059  0.3959 -0.2611
 8080SOL    HW235703   0.816   2.770   6.175 -0.6227  3.8956  0.1256
 8081SOL     OW35704   1.614   1.354   9.362  0.1780  0.0264 -0.1135
 8081SOL    HW135705   1.563   1.410   9.421 -1.2183 -1.4835  0.1161
 8081SOL    HW235706   1.705   1.378   9.380  0.3212  0.4663 -1.4987
 8082SOL     OW35707   0.537   3.205   5.487 -0.0618 -0.1456  0.3776
 8082SOL    HW135708   0.543   3.251   5.570  0.1353 -0.4224  0.5183
 8082SOL    HW235709   0.504   3.117   5.507  2.1775 -1.3185 -1.1937
 8083SOL     OW35710   3.348   4.363   8.433  0.0408 -0.8296  0.3002
 8083SOL    HW135711   3.405   4.344   8.508  0.3220 -0.7725  0.0994
 8083SOL    HW235712   3.319   4.450   8.459  1.7386 -0.5700  1.2733
 8084SOL     OW35713   3.916   3.671  10.857  0.7372 -0.3562 -0.9998
 8084SOL    HW135714   3.870   3.736  10.803 -0.0143 -0.7474 -0.8221
 8084SOL    HW235715   3.861   3.662  10.934  1.7745 -0.4636 -0.2724
 8085SOL     OW35716   0.684   2.222   7.987  0.2410  0.3301 -0.1227
 8085SOL    HW135717   0.695   2.295   8.049  0.5300  0.1040  0.0869
 8085SOL    HW235718   0.737   2.248   7.911 -0.4763 -0.0448 -0.7513
 8086SOL     OW35719   0.239   1.679   3.849  0.0909 -0.2038  0.0819
 8086SOL    HW135720   0.327   1.686   3.810 -0.1255  0.6550 -0.2420
 8086SOL    HW235721   0.235   1.774   3.863 -1.3970 -0.0627 -1.2790
 8087SOL     OW35722   2.100   3.025   3.994  0.1689 -0.1557 -0.4833
 8087SOL    HW135723   2.035   2.963   4.028 -2.3478  3.0215  0.5050
 8087SOL    HW235724   2.108   3.081   4.072  2.1247  0.1814 -0.9361
 8088SOL     OW35725   3.033   1.631  16.469  0.3288  0.0702 -0.1811
 8088SOL    HW135726   3.046   1.725  16.479 -0.0150 -0.0407  1.3929
 8088SOL    HW235727   2.969   1.636  16.398 -1.4860  0.9074  1.5000
 8089SOL     OW35728   0.145   4.213   8.913 -0.1214  0.2065 -0.1052
 8089SOL    HW135729   0.204   4.175   8.978  0.9171  1.7863 -0.1021
 8089SOL    HW235730   0.077   4.240   8.975  0.7956  0.2233  0.8849
 8090SOL     OW35731   3.155   3.378   8.696 -0.2512 -0.0042 -0.2636
 8090SOL    HW135732   3.192   3.394   8.783 -0.4377 -1.4192  0.0650
 8090SOL    HW235733   3.129   3.467   8.673 -0.6332  0.7609  3.1421
 8091SOL     OW35734   4.287   4.048   8.864 -0.2719 -0.5969  0.4652
 8091SOL    HW135735   4.201   4.089   8.858 -1.2185 -2.8834 -1.3270
 8091SOL    HW235736   4.269   3.966   8.910 -2.9331 -0.6720 -0.7126
 8092SOL     OW35737   1.628   0.424   3.928  0.1083 -0.4849  0.0980
 8092SOL    HW135738   1.626   0.508   3.974 -1.8247 -1.2881  1.4967
 8092SOL    HW235739   1.544   0.430   3.883 -1.1885 -0.9661  2.4181
 8093SOL     OW35740   1.958   4.063   6.946 -0.2642  0.0696 -0.0705
 8093SOL    HW135741   2.031   4.002   6.937 -1.0425 -1.2090  2.2735
 8093SOL    HW235742   1.971   4.139   6.888 -0.5356 -1.7771 -2.5786
 8094SOL     OW35743   0.769   2.483   0.673 -0.0600  0.4220 -0.1132
 8094SOL    HW135744   0.741   2.414   0.734 -3.8010  2.1016  0.0604
 8094SOL    HW235745   0.688   2.534   0.666 -1.5044 -1.4573  2.9600
 8095SOL     OW35746   3.334   3.168   9.381 -0.0493 -0.4897  0.0276
 8095SOL    HW135747   3.352   3.114   9.458  0.3217  0.9103  0.9350
 8095SOL    HW235748   3.322   3.093   9.322 -0.7460 -1.0183  0.8397
 8096SOL     OW35749   1.169   4.483   6.072 -0.0022  0.1521  0.1543
 8096SOL    HW135750   1.086   4.530   6.073  0.6892  1.4011 -0.5084
 8096SOL    HW235751   1.161   4.426   6.148  1.6146  2.3947  2.0092
 8097SOL     OW35752   3.468   1.401  10.012 -0.4296 -0.0456  0.0284
 8097SOL    HW135753   3.548   1.358   9.982 -1.4533 -2.4031  0.6648
 8097SOL    HW235754   3.439   1.326  10.065  0.1343 -0.6124 -0.4688
 8098SOL     OW35755   1.540   0.172   7.972  0.1339  0.6181 -0.1516
 8098SOL    HW135756   1.518   0.092   7.924 -1.3698 -0.1630  1.8405
 8098SOL    HW235757   1.446   0.192   7.979 -0.0664  0.3715 -2.2305
 8099SOL     OW35758   1.723   4.343  14.776  0.3978  0.7617 -0.4322
 8099SOL    HW135759   1.703   4.298  14.858 -0.4199  0.6438 -0.7001
 8099SOL    HW235760   1.818   4.334  14.770  0.4849  1.0917  0.3834
 8100SOL     OW35761   3.465   2.615   2.753 -0.1768  0.6806  0.0671
 8100SOL    HW135762   3.408   2.679   2.797 -3.2320 -2.0891  0.1241
 8100SOL    HW235763   3.521   2.595   2.828  0.9387 -0.1467 -0.9819
 8101SOL     OW35764   2.944   4.270   3.210  0.2017  0.0129  0.4989
 8101SOL    HW135765   2.919   4.234   3.126  1.2358  2.5044 -0.8896
 8101SOL    HW235766   2.869   4.326   3.231 -0.3517 -0.2524 -0.7995
 8102SOL     OW35767   4.150   4.001  16.797 -0.1063 -0.1554 -0.0869
 8102SOL    HW135768   4.188   3.954  16.723 -0.5607  1.2268 -1.1967
 8102SOL    HW235769   4.223   4.060  16.817 -1.7704  2.0459 -0.5194
 8103SOL     OW35770   2.243   3.958   7.800  0.2930  0.1773  0.5268
 8103SOL    HW135771   2.335   3.954   7.777  0.0426 -1.0135 -0.2565
 8103SOL    HW235772   2.195   3.967   7.717 -2.0319 -4.0661  1.4333
 8104SOL     OW35773   2.668   1.777   3.624 -0.3438 -0.4196  0.1519
 8104SOL    HW135774   2.672   1.791   3.529  0.7847 -0.6965  0.1572
 8104SOL    HW235775   2.626   1.691   3.623 -2.1476  0.4797 -2.3522
 8105SOL     OW35776   1.464   2.949  15.074 -0.3591 -0.9053  0.1193
 8105SOL    HW135777   1.493   2.868  15.032 -0.2632 -0.7073 -0.1964
 8105SOL    HW235778   1.460   3.007  14.998  0.0458  0.9929  1.5515
 8106SOL     OW35779   2.684   2.638   3.850  0.5712 -0.4177  0.5143
 8106SOL    HW135780   2.761   2.597   3.810 -0.7720 -0.9746 -1.5164
 8106SOL    HW235781   2.620   2.568   3.838 -0.2063  0.2645  0.6822
 8107SOL     OW35782   3.471   4.373  12.430  0.2309  0.3963  0.4443
 8107SOL    HW135783   3.420   4.385  12.511  0.4377 -1.4348  0.8574
 8107SOL    HW235784   3.452   4.283  12.402 -0.4373  0.5980  0.2505
 8108SOL     OW35785   0.622   0.773   5.193 -0.3709  0.4255  0.2610
 8108SOL    HW135786   0.598   0.862   5.218 -0.6762  0.2720  0.5362
 8108SOL    HW235787   0.539   0.734   5.164 -0.2886  0.1554  0.3839
 8109SOL     OW35788   1.053   2.530   4.704  0.3851 -0.0188 -0.4664
 8109SOL    HW135789   1.039   2.543   4.610  1.0654  1.4898 -0.3550
 8109SOL    HW235790   0.974   2.485   4.734  0.3697  0.4630  0.1997
 8110SOL     OW35791   4.035   2.109   5.462  0.7268 -0.2743 -0.1803
 8110SOL    HW135792   4.024   2.015   5.478  2.3865 -0.1430  1.6606
 8110SOL    HW235793   4.130   2.098   5.470  0.8591 -0.0387 -1.3950
 8111SOL     OW35794   1.118   0.317  14.597 -0.2398 -0.1780  0.3814
 8111SOL    HW135795   1.212   0.300  14.601 -0.1778  0.1073  0.1572
 8111SOL    HW235796   1.097   0.360  14.680  0.5807  1.6383 -0.3521
 8112SOL     OW35797   3.626   0.034   5.192 -0.4229 -0.4840 -0.0927
 8112SOL    HW135798   3.653   0.126   5.187  2.8491 -1.4372  0.0754
 8112SOL    HW235799   3.683   4.713   5.252 -1.3440  0.1006  1.2326
 8113SOL     OW35800   1.316   0.551   7.253  0.0356  0.0908 -0.4270
 8113SOL    HW135801   1.233   0.541   7.207 -0.6067  0.9677  0.5558
 8113SOL    HW235802   1.381   0.516   7.192  1.0384  3.0167 -1.0519
 8114SOL     OW35803   1.690   2.935   8.705  0.1654 -0.6156  0.8474
 8114SOL    HW135804   1.725   2.903   8.622 -0.5726 -0.3085  0.4261
 8114SOL    HW235805   1.710   2.865   8.767 -0.4642 -2.6794 -1.2639
 8115SOL     OW35806   0.594   0.113  17.558  0.6451  0.2504 -0.0652
 8115SOL    HW135807   0.578   0.059  17.481 -1.1950 -0.2716  0.6692
 8115SOL    HW235808   0.688   0.113  17.572  0.4059  0.4435  1.4937
 8116SOL     OW35809   4.187   0.776   6.266 -0.2722  0.5202  0.1993
 8116SOL    HW135810   4.188   0.702   6.205 -3.5788 -0.5697  1.4752
 8116SOL    HW235811   4.135   0.751   6.342  1.3919 -2.4164  0.3608
 8117SOL     OW35812   3.396   3.448   1.312  0.4605  0.0384  0.0430
 8117SOL    HW135813   3.332   3.462   1.383 -0.2786  0.9086 -0.7923
 8117SOL    HW235814   3.347   3.462   1.231 -0.5261 -2.2711  0.2370
 8118SOL     OW35815   4.418   2.638   4.690 -0.0783 -0.0263 -0.3232
 8118SOL    HW135816   4.402   2.649   4.596 -0.2541 -2.8929 -0.6480
 8118SOL    HW235817   4.335   2.595   4.713  0.5663 -1.4672 -0.6718
 8119SOL     OW35818   3.965   1.945   6.210  0.7243  0.5503 -0.1160
 8119SOL    HW135819   3.940   1.854   6.195 -1.2208  0.3820  3.9367
 8119SOL    HW235820   4.026   1.964   6.139  2.2762 -1.5210  0.6578
 8120SOL     OW35821   3.941   3.104  17.702 -0.0430  0.5092  0.2710
 8120SOL    HW135822   3.947   3.178  17.641 -0.8012  0.8713  0.6367
 8120SOL    HW235823   4.006   3.127   0.064 -0.5218 -1.6402  1.4963
 8121SOL     OW35824   4.180   0.636   7.260 -0.4038 -0.6668 -0.7375
 8121SOL    HW135825   4.098   0.586   7.257  0.2511 -1.7105 -1.4280
 8121SOL    HW235826   4.159   0.715   7.210  0.6405  0.5492  0.7383
 8122SOL     OW35827   0.493   3.261   4.179 -0.2210  0.1534  0.7618
 8122SOL    HW135828   0.549   3.293   4.251  1.5009  0.9695 -0.9345
 8122SOL    HW235829   0.488   3.340   4.125  2.0358  0.4668  0.9989
 8123SOL     OW35830   1.991   0.774   7.978  0.1141  0.1260  0.6349
 8123SOL    HW135831   1.926   0.814   7.920 -1.2037 -1.8168  0.7983
 8123SOL    HW235832   2.074   0.785   7.931 -0.5199  2.0527 -0.0598
 8124SOL     OW35833   2.775   1.985  11.327  0.2748 -0.2638 -0.1718
 8124SOL    HW135834   2.706   2.046  11.353 -0.7469 -0.7346 -1.7921
 8124SOL    HW235835   2.853   2.021  11.370 -0.1592  0.0396  0.3653
 8125SOL     OW35836   2.335   0.484   9.853  0.4895  0.3769  0.2191
 8125SOL    HW135837   2.309   0.576   9.858  0.0668  0.3220 -1.0261
 8125SOL    HW235838   2.395   0.476   9.928 -0.4960 -0.0781  0.9496
 8126SOL     OW35839   1.833   1.502   6.520  0.0854  0.3175 -0.3366
 8126SOL    HW135840   1.806   1.572   6.579 -0.7501 -0.2426 -0.0662
 8126SOL    HW235841   1.803   1.535   6.435  0.2651 -0.5496 -0.7264
 8127SOL     OW35842   3.923   0.899  17.691  0.0372 -0.3497  0.0909
 8127SOL    HW135843   3.978   0.946  17.627  0.3177 -0.5022  0.2205
 8127SOL    HW235844   3.950   0.810  17.670  0.0916 -0.5945  1.2264
 8128SOL     OW35845   0.800   4.398  15.787  0.3702  0.2329 -0.0998
 8128SOL    HW135846   0.770   4.454  15.859 -2.2340  0.7198 -1.5378
 8128SOL    HW235847   0.760   4.431  15.706 -1.6892 -0.4871  0.6238
 8129SOL     OW35848   4.291   3.806   6.770  0.3115  0.6394  0.1650
 8129SOL    HW135849   4.257   3.817   6.859 -0.9059 -2.1760  0.0215
 8129SOL    HW235850   4.359   3.873   6.776  1.3032 -0.5304  1.8171
 8130SOL     OW35851   1.715   1.969  13.101 -0.0606  0.2462 -0.3285
 8130SOL    HW135852   1.764   2.051  13.092  1.5922 -0.5966  0.8331
 8130SOL    HW235853   1.769   1.911  13.154 -0.6271 -0.7027 -0.8020
 8131SOL     OW35854   4.016   1.028   7.749 -0.6473  0.2365  0.1938
 8131SOL    HW135855   3.962   1.061   7.677 -0.8449 -0.5833 -0.0332
 8131SOL    HW235856   3.981   0.939   7.743  0.8098 -0.2295 -1.0896
 8132SOL     OW35857   2.017   0.258   0.928 -0.2666  0.3162  0.0671
 8132SOL    HW135858   1.975   0.199   0.990  0.6125 -1.1646 -0.7342
 8132SOL    HW235859   1.949   0.320   0.906 -1.5311 -0.8439  0.7200
 8133SOL     OW35860   1.733   0.502   5.632 -0.2655  0.1452 -0.6742
 8133SOL    HW135861   1.703   0.496   5.541 -1.2361 -0.6429 -0.3097
 8133SOL    HW235862   1.827   0.494   5.619 -0.0135  0.7701  0.8064
 8134SOL     OW35863   4.269   2.488   2.203 -0.4860 -0.1342  0.2015
 8134SOL    HW135864   4.190   2.508   2.254 -1.4587  0.3732 -1.4722
 8134SOL    HW235865   4.249   2.466   2.112 -0.2630  1.0034 -0.1245
 8135SOL     OW35866   0.076   3.907   6.595  0.0451  0.0303  0.4184
 8135SOL    HW135867   0.052   3.885   6.505  0.8604  0.0673  0.1848
 8135SOL    HW235868   0.075   4.003   6.592  1.1211 -0.0619 -2.4102
 8136SOL     OW35869   0.481   4.207   9.080 -0.2987  0.3823  0.2540
 8136SOL    HW135870   0.515   4.117   9.080 -1.7446 -0.1709 -1.2024
 8136SOL    HW235871   0.391   4.177   9.094 -0.5363  0.9771 -0.0252
 8137SOL     OW35872   1.993   1.019   1.946 -0.4176  0.8069  0.5098
 8137SOL    HW135873   1.914   1.011   1.999 -1.8647  2.8898 -1.3485
 8137SOL    HW235874   2.011   1.113   1.946  0.5467  0.6212  0.6945
 8138SOL     OW35875   0.934   1.779   5.215  0.3558  0.4161  0.4361
 8138SOL    HW135876   0.865   1.715   5.201  1.6261 -1.0242  0.7646
 8138SOL    HW235877   1.013   1.726   5.226 -0.8663 -1.0899  2.0442
 8139SOL     OW35878   1.664   2.169   3.914  0.2321 -0.6335 -0.1704
 8139SOL    HW135879   1.733   2.207   3.968 -0.8793 -0.5621  1.1862
 8139SOL    HW235880   1.594   2.170   3.979 -0.3199  1.4299 -0.7906
 8140SOL     OW35881   2.406   3.739  12.151 -0.5727  0.6093 -0.1219
 8140SOL    HW135882   2.484   3.793  12.139 -0.7374  0.2744 -2.6521
 8140SOL    HW235883   2.407   3.734  12.247  0.2119 -4.3956 -0.3487
 8141SOL     OW35884   2.699   0.430  10.955 -0.3865 -0.5575  0.0712
 8141SOL    HW135885   2.769   0.460  11.013  1.4408  0.7652 -2.7867
 8141SOL    HW235886   2.738   0.463  10.874 -1.1134  0.8455  0.2815
 8142SOL     OW35887   3.378   1.375  16.695 -0.2370  0.2599  0.3102
 8142SOL    HW135888   3.353   1.451  16.643 -1.2084 -0.6744 -0.5943
 8142SOL    HW235889   3.432   1.415  16.763 -2.4730  0.9794  1.6327
 8143SOL     OW35890   0.298   0.589  15.287 -0.2997 -0.4470 -0.3657
 8143SOL    HW135891   0.212   0.568  15.325  0.2280  0.2681  1.2101
 8143SOL    HW235892   0.286   0.682  15.267 -0.0647 -0.9306 -2.8347
 8144SOL     OW35893   4.345   1.405  13.381 -1.1900  0.3609 -0.4294
 8144SOL    HW135894   4.353   1.319  13.339 -0.1343 -0.4941  1.5700
 8144SOL    HW235895   4.311   1.462  13.312 -1.0221  0.1430 -0.6921
 8145SOL     OW35896   1.849   0.498   4.561  0.1819 -0.3023 -0.2734
 8145SOL    HW135897   1.885   0.428   4.616  1.0275  1.2624  1.1614
 8145SOL    HW235898   1.896   0.576   4.590 -1.1378 -0.7506  3.0357
 8146SOL     OW35899   4.709   4.344   3.495 -0.1778  0.1389  0.1236
 8146SOL    HW135900   4.671   4.378   3.415 -1.1445  1.5548  1.1856
 8146SOL    HW235901   4.664   4.259   3.495 -0.2958  0.1645  4.0250
 8147SOL     OW35902   3.746   1.682   8.868 -0.0277  0.4646  0.0457
 8147SOL    HW135903   3.775   1.730   8.946 -1.5206 -1.4734  1.7955
 8147SOL    HW235904   3.831   1.676   8.825  0.3628 -2.7626  1.2918
 8148SOL     OW35905   4.511   3.136   6.643  0.1445  0.0233 -0.1589
 8148SOL    HW135906   4.494   3.120   6.736 -0.1036 -2.0684 -0.5630
 8148SOL    HW235907   4.451   3.211   6.638  0.2152  0.1341  0.6607
 8149SOL     OW35908   4.089   3.225  11.296 -0.4030  0.0194 -0.3892
 8149SOL    HW135909   4.153   3.283  11.336 -0.3667 -0.6031  0.4528
 8149SOL    HW235910   4.041   3.184  11.369 -0.5222  0.0791 -0.4336
 8150SOL     OW35911   4.691   3.479   7.507  0.2300 -0.4356 -0.0930
 8150SOL    HW135912   4.637   3.492   7.585 -0.8180 -0.2902 -0.8421
 8150SOL    HW235913   0.045   3.452   7.552 -0.1178  0.4936  1.1062
 8151SOL     OW35914   4.607   2.736   3.921 -0.2840  0.0541 -0.5528
 8151SOL    HW135915   4.556   2.671   3.969  1.3934 -0.6133  0.3405
 8151SOL    HW235916   4.695   2.725   3.956 -1.4218  1.7751  2.8476
 8152SOL     OW35917   1.079   2.332   4.374 -0.3526 -0.2513 -0.3874
 8152SOL    HW135918   1.142   2.263   4.391  0.3602  0.2072 -1.1921
 8152SOL    HW235919   1.063   2.329   4.279  1.6396  4.8401 -0.8917
 8153SOL     OW35920   4.397   2.668  14.167  0.1015 -0.0956 -0.2824
 8153SOL    HW135921   4.332   2.737  14.157 -0.2543 -0.4949 -0.7135
 8153SOL    HW235922   4.441   2.688  14.084 -1.6548 -0.7411 -1.3685
 8154SOL     OW35923   3.849   0.247  14.522  0.1412 -0.8449  0.1274
 8154SOL    HW135924   3.862   0.314  14.456  2.2879  1.4007  2.8130
 8154SOL    HW235925   3.812   0.180  14.464  2.3649 -0.6422 -1.5099
 8155SOL     OW35926   1.663   0.941   0.322 -0.1678 -0.1937 -0.4597
 8155SOL    HW135927   1.590   0.980   0.274 -0.5934 -1.7609 -1.1009
 8155SOL    HW235928   1.668   1.009   0.389 -3.1188  0.1498 -0.5885
 8156SOL     OW35929   0.938   1.774   0.128 -0.4105  0.1689  0.7433
 8156SOL    HW135930   0.870   1.805   0.189 -0.6827  1.2002 -0.0750
 8156SOL    HW235931   0.882   1.726   0.067 -1.1766  0.6673  1.0448
 8157SOL     OW35932   3.644   3.578   0.315  0.2384  0.1863 -0.5324
 8157SOL    HW135933   3.721   3.607   0.365  0.3281 -1.8015  0.4867
 8157SOL    HW235934   3.623   3.494   0.354 -1.3087 -0.1106 -2.0341
 8158SOL     OW35935   1.761   0.981   6.391 -0.1480  0.7037 -0.2837
 8158SOL    HW135936   1.721   1.028   6.464  1.7686  1.1210  0.5010
 8158SOL    HW235937   1.847   0.989   6.432  1.0926 -0.9005 -2.5890
 8159SOL     OW35938   0.759   2.121   9.453 -0.0927  0.0058 -0.5740
 8159SOL    HW135939   0.831   2.119   9.390 -2.3195 -0.9698 -3.0487
 8159SOL    HW235940   0.720   2.036   9.435 -0.4811  0.0498  0.0478
 8160SOL     OW35941   0.919   3.630   9.528 -0.7756  0.2687  0.5750
 8160SOL    HW135942   0.869   3.677   9.462 -0.9991 -0.3015  0.3341
 8160SOL    HW235943   1.003   3.676   9.536 -0.6785  0.0804  0.6520
 8161SOL     OW35944   2.803   0.856   8.110 -0.0733  0.0026  0.1644
 8161SOL    HW135945   2.789   0.866   8.204 -1.6428  0.4966 -0.1228
 8161SOL    HW235946   2.881   0.801   8.114 -0.5832 -0.7682 -0.3380
 8162SOL     OW35947   3.820   4.290   2.945  0.3422  0.5526  0.1420
 8162SOL    HW135948   3.780   4.375   2.958 -0.1697  0.3901 -0.4042
 8162SOL    HW235949   3.822   4.265   3.038  1.8914  0.1637  0.0177
 8163SOL     OW35950   1.814   3.027  10.573  0.4089 -0.3217 -0.0945
 8163SOL    HW135951   1.856   3.051  10.490 -0.4442  1.0796 -0.1219
 8163SOL    HW235952   1.842   2.938  10.595 -1.3635 -0.9905 -0.5283
 8164SOL     OW35953   1.570   1.093   4.073  0.3533  0.0803  0.1520
 8164SOL    HW135954   1.539   1.029   4.137 -1.9347  0.9025 -0.1177
 8164SOL    HW235955   1.635   1.145   4.120  1.6767 -1.0710 -0.3900
 8165SOL     OW35956   3.506   3.380  11.931 -0.7091  0.1146 -0.5874
 8165SOL    HW135957   3.443   3.429  11.878 -0.1816  0.2766 -1.0634
 8165SOL    HW235958   3.463   3.396  12.015  1.0286  1.3447  0.0643
 8166SOL     OW35959   1.257   1.909   4.297 -0.7899 -0.0347 -0.4299
 8166SOL    HW135960   1.292   1.951   4.218  1.1442 -3.1173 -1.2143
 8166SOL    HW235961   1.210   1.832   4.264 -0.1475 -0.3029 -0.7246
 8167SOL     OW35962   0.363   2.310   3.699 -0.1920 -0.5074  0.6919
 8167SOL    HW135963   0.422   2.249   3.744 -0.3886 -0.6388  0.7751
 8167SOL    HW235964   0.297   2.256   3.656 -0.4198 -0.7168  1.2951
 8168SOL     OW35965   0.042   3.257   7.903  0.3302  0.2221 -0.4711
 8168SOL    HW135966   0.116   3.255   7.963 -0.3741 -0.4911  0.3688
 8168SOL    HW235967   0.003   3.170   7.903  1.5601 -0.3305 -0.4232
 8169SOL     OW35968   3.291   2.024  10.498  0.1922  0.0353 -0.5943
 8169SOL    HW135969   3.205   2.052  10.529 -0.0127  0.7902 -1.8546
 8169SOL    HW235970   3.291   1.929  10.513  0.7134  0.4552  2.2133
 8170SOL     OW35971   2.362   3.704  15.091 -0.2981  0.4847 -0.4692
 8170SOL    HW135972   2.369   3.695  14.996 -2.2038  1.6667 -0.7171
 8170SOL    HW235973   2.404   3.787  15.112  0.3051 -0.1958  0.9826
 8171SOL     OW35974   1.621   1.418   4.492 -0.6481 -0.6870 -0.0189
 8171SOL    HW135975   1.644   1.333   4.453  0.1314 -0.2989 -0.4052
 8171SOL    HW235976   1.667   1.479   4.434 -0.5395  1.9071  2.8058
 8172SOL     OW35977   0.999   1.305  12.039  0.0397 -0.1735  0.4297
 8172SOL    HW135978   0.947   1.350  12.106  0.2672  0.3719  0.2408
 8172SOL    HW235979   0.933   1.278  11.975 -0.2509  0.1882  0.5752
 8173SOL     OW35980   2.678   2.882   6.068 -0.2895 -0.0563  0.1861
 8173SOL    HW135981   2.596   2.874   6.117 -2.2708 -0.5934 -3.1913
 8173SOL    HW235982   2.702   2.973   6.086 -0.7991  0.1039  0.0487
 8174SOL     OW35983   3.919   2.332   3.044  0.1263 -0.1342 -0.1914
 8174SOL    HW135984   3.907   2.354   3.137  1.5290 -0.4660  0.0712
 8174SOL    HW235985   4.009   2.360   3.027  0.5294 -0.7417  0.9519
 8175SOL     OW35986   1.762   3.940  12.273  0.1512  0.2267  0.1346
 8175SOL    HW135987   1.848   3.929  12.313  0.0560 -2.3217 -0.3169
 8175SOL    HW235988   1.719   3.982  12.347  0.2337 -0.4971  0.5894
 8176SOL     OW35989   2.632   1.879   3.884 -0.7053  0.1163  0.1942
 8176SOL    HW135990   2.645   1.866   3.790 -0.4518 -0.6315  0.3294
 8176SOL    HW235991   2.548   1.924   3.898  0.2771  1.6313  1.2279
 8177SOL     OW35992   2.360   4.060   7.170  0.5537  0.0702  0.1525
 8177SOL    HW135993   2.324   4.052   7.258 -6.3624  1.3603 -2.6040
 8177SOL    HW235994   2.339   3.972   7.138 -0.0395  0.3864 -0.3306
 8178SOL     OW35995   3.209   3.124  11.723 -0.2182  0.0150 -0.1851
 8178SOL    HW135996   3.220   3.104  11.816  1.7240  0.7599 -0.2558
 8178SOL    HW235997   3.117   3.097  11.715 -1.0092  1.8884  2.5930
 8179SOL     OW35998   2.920   1.972   5.119  0.1697  0.1965  0.0020
 8179SOL    HW135999   2.925   1.879   5.145 -0.1436 -0.5390 -2.5965
 8179SOL    HW236000   2.901   1.956   5.027  1.8874  2.3229 -0.6985
 8180SOL     OW36001   4.291   4.071  12.005  0.2366  0.2620  0.3115
 8180SOL    HW136002   4.257   4.053  12.092 -2.0163  0.7528 -0.4528
 8180SOL    HW236003   4.262   3.991  11.961  1.5336  1.6678 -3.1367
 8181SOL     OW36004   2.129   0.663  15.923  0.4799 -0.2460  0.3558
 8181SOL    HW136005   2.203   0.698  15.974  1.1304 -1.0199 -0.0578
 8181SOL    HW236006   2.062   0.730  15.934 -0.1532 -1.1374  1.9117
 8182SOL     OW36007   4.115   4.278   2.975  0.6486  0.4030 -0.2643
 8182SOL    HW136008   4.043   4.216   2.970  2.0100 -1.1862 -0.3132
 8182SOL    HW236009   4.064   4.358   2.978 -0.9119 -0.5129 -2.4829
 8183SOL     OW36010   1.945   2.172   6.044  0.5135 -0.2091 -0.0342
 8183SOL    HW136011   2.019   2.228   6.021  0.6122  0.3609  1.6320
 8183SOL    HW236012   1.909   2.220   6.119 -1.0848 -1.3907 -0.0475
 8184SOL     OW36013   2.560   4.316   9.219 -0.4328 -0.3080  0.3760
 8184SOL    HW136014   2.594   4.230   9.244 -0.4506 -0.1714  0.8782
 8184SOL    HW236015   2.641   4.364   9.204 -2.3118  3.1575  1.5172
 8185SOL     OW36016   1.971   2.982  15.294 -0.3596 -0.1713  0.4287
 8185SOL    HW136017   2.053   2.980  15.344  0.5371 -0.6393 -1.0494
 8185SOL    HW236018   1.913   2.990  15.370 -0.7784  0.1233  0.0710
 8186SOL     OW36019   4.572   4.067   8.073 -0.1998 -0.7945 -0.2496
 8186SOL    HW136020   4.602   4.152   8.106 -0.7411 -1.4731  1.9919
 8186SOL    HW236021   4.639   4.010   8.111 -0.9208 -0.0736  2.0709
 8187SOL     OW36022   3.018   3.691   3.321  0.0763  0.3875  0.3706
 8187SOL    HW136023   3.013   3.772   3.372 -0.0398  0.0332  0.9303
 8187SOL    HW236024   3.113   3.692   3.313  0.0973  0.7162  0.6483
 8188SOL     OW36025   3.991   2.530  12.939  0.1438  0.2551  0.3342
 8188SOL    HW136026   3.921   2.467  12.919  0.0464  0.8928 -1.3731
 8188SOL    HW236027   4.068   2.481  12.908  1.3439  1.5022  1.3726
 8189SOL     OW36028   1.967   4.092   2.482  0.0740 -0.0140  0.4541
 8189SOL    HW136029   1.951   4.039   2.560  1.3267 -0.0836  0.6644
 8189SOL    HW236030   1.913   4.055   2.412 -0.6218  0.3982  0.7681
 8190SOL     OW36031   3.640   3.295  14.748 -0.5768 -0.2739  0.6201
 8190SOL    HW136032   3.605   3.210  14.723 -0.2530 -0.1638 -0.2051
 8190SOL    HW236033   3.569   3.344  14.708  0.4299  1.8136  1.3981
 8191SOL     OW36034   0.921   1.769   9.996  0.6986 -0.0210  0.7249
 8191SOL    HW136035   0.991   1.835   9.999 -1.1156  1.8783  1.6635
 8191SOL    HW236036   0.849   1.809   9.948  1.3016  1.3904  0.9822
 8192SOL     OW36037   2.115   1.179   8.191 -0.5328  0.6428 -0.2368
 8192SOL    HW136038   2.175   1.120   8.146 -3.2660 -1.8220 -0.6688
 8192SOL    HW236039   2.053   1.114   8.223 -0.4203  1.0453  0.7997
 8193SOL     OW36040   3.303   0.505   4.109  0.0161 -0.2108  0.2229
 8193SOL    HW136041   3.221   0.506   4.059 -0.9669 -0.4376  1.8380
 8193SOL    HW236042   3.355   0.457   4.044  0.3707 -1.9771  1.8358
 8194SOL     OW36043   2.222   4.211   8.341 -0.4337  0.4046 -0.3606
 8194SOL    HW136044   2.260   4.159   8.413 -0.5539  0.8784  0.0466
 8194SOL    HW236045   2.156   4.267   8.382  0.2965  1.4621 -0.6281
 8195SOL     OW36046   0.993   0.180  14.407 -0.1480  0.0831 -0.3251
 8195SOL    HW136047   1.048   0.112  14.446  1.0941 -0.5782 -3.2244
 8195SOL    HW236048   1.026   0.257  14.452  0.6821 -0.6820  0.3857
 8196SOL     OW36049   0.325   3.316   5.281  0.5006  0.1539  0.5680
 8196SOL    HW136050   0.359   3.251   5.219 -2.0162 -1.6878  1.1170
 8196SOL    HW236051   0.317   3.387   5.217  1.0508  1.4974  1.9979
 8197SOL     OW36052   2.659   1.677   3.054 -0.2023 -0.4063  0.6202
 8197SOL    HW136053   2.744   1.638   3.033  0.2908  0.4769  0.9397
 8197SOL    HW236054   2.636   1.645   3.141 -0.7418 -0.2701  0.5270
 8198SOL     OW36055   1.831   2.307   4.094 -0.2455 -0.3416 -0.2229
 8198SOL    HW136056   1.893   2.366   4.052  0.3321 -0.2792  0.7390
 8198SOL    HW236057   1.880   2.269   4.167  1.4054 -1.3793 -1.8641
 8199SOL     OW36058   1.404   1.529   9.531 -0.2980 -0.0182 -0.1889
 8199SOL    HW136059   1.310   1.546   9.535 -0.3301 -0.7006  1.5862
 8199SOL    HW236060   1.433   1.620   9.532  1.2312 -0.4874 -2.0278
 8200SOL     OW36061   0.329   2.818   1.194  0.1461  0.5241  0.0954
 8200SOL    HW136062   0.375   2.902   1.197 -3.4182  2.3590  3.0329
 8200SOL    HW236063   0.294   2.815   1.283 -0.8127 -0.0426 -0.3016
 8201SOL     OW36064   2.412   0.775   2.666 -0.3290 -0.1589 -0.2904
 8201SOL    HW136065   2.357   0.846   2.632  0.4413  0.3057 -0.5698
 8201SOL    HW236066   2.365   0.733   2.738  2.5710  0.1368  1.7685
 8202SOL     OW36067   1.334   3.432  16.554 -0.0044  0.2391  0.0269
 8202SOL    HW136068   1.407   3.475  16.600 -1.4772  0.5432  2.0885
 8202SOL    HW236069   1.301   3.509  16.508 -0.4955  0.5022  0.8119
 8203SOL     OW36070   0.544   1.789   7.602 -0.0252 -0.0444 -0.0332
 8203SOL    HW136071   0.618   1.733   7.626  0.5487 -0.0401 -1.7741
 8203SOL    HW236072   0.469   1.737   7.629 -0.5355  1.0352  0.6520
 8204SOL     OW36073   4.109   3.474  12.833 -0.5881 -0.2735 -0.0222
 8204SOL    HW136074   4.028   3.507  12.871  0.4593  1.3669  0.8060
 8204SOL    HW236075   4.078   3.388  12.806  0.0209 -0.8647  1.1395
 8205SOL     OW36076   0.651   0.674   3.836 -0.1255 -0.9709 -0.6543
 8205SOL    HW136077   0.736   0.687   3.878  0.1434 -3.6722 -0.4205
 8205SOL    HW236078   0.636   0.763   3.804  0.7316 -0.8149 -0.6158
 8206SOL     OW36079   1.297   0.251   0.933  0.4122 -0.1687  0.7556
 8206SOL    HW136080   1.244   0.211   1.002 -2.1451  0.5678 -0.7893
 8206SOL    HW236081   1.242   0.319   0.893 -0.7735 -0.4804  1.8642
 8207SOL     OW36082   1.166   1.039  12.562 -0.2717 -0.4711 -0.4546
 8207SOL    HW136083   1.117   1.098  12.505 -1.5426 -1.7951 -0.7494
 8207SOL    HW236084   1.228   1.000  12.500 -0.6415 -1.4449 -0.2179
 8208SOL     OW36085   3.309   2.646   8.012  0.2450  0.3080  0.1417
 8208SOL    HW136086   3.259   2.720   8.048  0.4914  0.8618 -0.6662
 8208SOL    HW236087   3.382   2.688   7.966  0.2780  0.1745  0.0710
 8209SOL     OW36088   0.766   3.023  14.498  0.5108 -0.0232 -0.5484
 8209SOL    HW136089   0.697   2.986  14.442  1.5467 -0.7564 -1.3411
 8209SOL    HW236090   0.751   2.981  14.582 -2.5130 -0.3414 -1.2575
 8210SOL     OW36091   1.783   3.288  13.976 -0.0039  0.2159  0.2664
 8210SOL    HW136092   1.809   3.277  14.068  2.6829  0.3960 -0.4809
 8210SOL    HW236093   1.811   3.206  13.936  1.0428  0.5235  0.3792
 8211SOL     OW36094   1.295   3.919   6.732 -0.2202 -0.2594 -0.5504
 8211SOL    HW136095   1.368   3.866   6.700  0.8388  0.6694  0.3316
 8211SOL    HW236096   1.323   3.958   6.815 -3.5463 -0.1262  0.4825
 8212SOL     OW36097   4.365   3.009   8.596 -0.1847 -0.3379  0.4121
 8212SOL    HW136098   4.295   3.070   8.620  1.6623  0.9356  2.5551
 8212SOL    HW236099   4.362   2.934   8.655  0.4894  0.4796  1.4854
 8213SOL     OW36100   4.016   1.465   4.029 -0.2520  0.2764 -0.6461
 8213SOL    HW136101   4.033   1.468   4.123 -0.1629 -1.8775 -0.6011
 8213SOL    HW236102   4.057   1.544   3.994  0.4940 -0.8868 -2.4032
 8214SOL     OW36103   3.216   4.188  15.367  0.4806 -0.3240  0.4394
 8214SOL    HW136104   3.260   4.211  15.286 -0.1277 -0.9500 -0.0725
 8214SOL    HW236105   3.262   4.105  15.383  1.2627  0.1055  0.3977
 8215SOL     OW36106   4.290   3.156   7.290 -0.3488  0.1105  0.4747
 8215SOL    HW136107   4.351   3.228   7.304 -2.0665  1.5153  0.6787
 8215SOL    HW236108   4.213   3.198   7.327 -1.5990 -1.2589 -0.5896
 8216SOL     OW36109   0.980   0.867   4.870  0.0865 -0.1394 -0.3046
 8216SOL    HW136110   0.920   0.941   4.877  1.6318  1.1370 -0.5281
 8216SOL    HW236111   1.064   0.906   4.845 -0.4109  1.5437  0.6327
 8217SOL     OW36112   4.168   1.796   8.037  0.5073  0.3179 -0.6558
 8217SOL    HW136113   4.243   1.754   7.994  2.7294  2.5733  0.9689
 8217SOL    HW236114   4.101   1.732   8.014  0.2094 -0.2610  1.7936
 8218SOL     OW36115   1.240   2.872   8.092  0.0798 -0.2859 -0.3232
 8218SOL    HW136116   1.294   2.864   8.014 -0.8687  0.9130 -1.0990
 8218SOL    HW236117   1.237   2.781   8.122  0.8157 -0.5775 -1.1407
 8219SOL     OW36118   0.690   4.239   5.434 -0.1826  0.0105 -0.0519
 8219SOL    HW136119   0.753   4.308   5.415 -1.4721  0.9418 -0.9008
 8219SOL    HW236120   0.628   4.286   5.489 -0.3304  1.1533 -1.2240
 8220SOL     OW36121   3.992   3.092  15.468 -0.1227 -0.0196 -0.3772
 8220SOL    HW136122   3.901   3.122  15.462 -0.1386  0.1421  0.6196
 8220SOL    HW236123   3.993   3.077  15.562  0.6751  1.9871 -0.0612
 8221SOL     OW36124   2.263   3.489   9.969 -0.1858  0.0814 -0.1778
 8221SOL    HW136125   2.330   3.433  10.006 -1.7949  1.1172  4.3603
 8221SOL    HW236126   2.184   3.439   9.990 -1.1447  1.0203 -1.5228
 8222SOL     OW36127   1.943   1.969   2.011 -0.4263  0.1162  0.4352
 8222SOL    HW136128   1.984   1.885   1.988 -0.6127 -0.1239  0.9672
 8222SOL    HW236129   1.866   1.940   2.061  0.9008 -3.6441  0.3324
 8223SOL     OW36130   4.000   3.369   0.750  0.0210 -0.0032  0.3155
 8223SOL    HW136131   3.905   3.361   0.744  0.0351  0.6247 -0.5806
 8223SOL    HW236132   4.022   3.442   0.693  2.2576 -3.0483 -2.7062
 8224SOL     OW36133   2.183   3.572   4.809  0.2880 -0.0785 -0.3681
 8224SOL    HW136134   2.110   3.590   4.750  0.3560 -0.6593 -0.6308
 8224SOL    HW236135   2.197   3.479   4.791 -1.1894 -0.5032  0.7143
 8225SOL     OW36136   0.736   0.474  17.134 -0.5998  0.6267  0.0371
 8225SOL    HW136137   0.762   0.398  17.186 -1.3487  0.6123  0.3970
 8225SOL    HW236138   0.689   0.537  17.189  2.9968  3.7130 -0.4509
 8226SOL     OW36139   1.713   1.072   7.015  0.0102 -0.3527 -0.9082
 8226SOL    HW136140   1.711   1.122   6.934 -0.1131 -0.7743 -1.1694
 8226SOL    HW236141   1.750   1.134   7.077 -1.0459  0.4383 -1.0764
 8227SOL     OW36142   2.258   1.925  10.132  0.3049  0.1399 -0.1131
 8227SOL    HW136143   2.262   1.927  10.227  0.2953  0.0899 -0.1117
 8227SOL    HW236144   2.255   1.830  10.119 -2.9952  0.0235  1.5252
 8228SOL     OW36145   2.857   2.858  12.674  0.1697  0.1638 -0.0055
 8228SOL    HW136146   2.773   2.819  12.647  1.4403 -3.1991  0.9526
 8228SOL    HW236147   2.870   2.823  12.762  0.2612  1.2763  0.4251
 8229SOL     OW36148   3.422   1.697   6.435 -0.2526 -0.4107 -0.0188
 8229SOL    HW136149   3.369   1.662   6.363 -0.9891  1.0088 -0.1550
 8229SOL    HW236150   3.464   1.776   6.399 -0.8927  0.6257  1.5373
 8230SOL     OW36151   2.658   3.623  13.280  0.3405  0.4392 -0.1897
 8230SOL    HW136152   2.736   3.605  13.332 -0.9670 -1.2469  1.2082
 8230SOL    HW236153   2.703   3.672  13.211  2.8940  0.6101  1.6244
 8231SOL     OW36154   2.027   3.166   4.841 -0.1759 -0.1828 -0.7649
 8231SOL    HW136155   2.002   3.079   4.870  1.1997  0.7204  3.1495
 8231SOL    HW236156   1.953   3.194   4.786 -1.4503  2.3239  2.2284
 8232SOL     OW36157   1.724   3.324   7.548 -0.0906 -0.0687 -0.2439
 8232SOL    HW136158   1.788   3.345   7.480  0.6790  0.4329  0.6534
 8232SOL    HW236159   1.774   3.341   7.628 -0.7873  1.3955 -0.1230
 8233SOL     OW36160   0.943   0.466   3.133 -0.2507  0.8314 -0.4698
 8233SOL    HW136161   0.986   0.415   3.202 -0.1833  1.7345  0.1606
 8233SOL    HW236162   0.897   0.392   3.094 -0.3140  0.7860 -0.3083
 8234SOL     OW36163   1.187   3.613  12.624  0.0045 -0.7448 -0.3437
 8234SOL    HW136164   1.196   3.538  12.565 -0.0726 -0.8808 -0.1805
 8234SOL    HW236165   1.209   3.689  12.570 -1.6744 -1.1377 -1.5723
 8235SOL     OW36166   4.723   1.009   8.989  0.5399  0.0204 -0.0497
 8235SOL    HW136167   4.671   0.928   8.983  0.7185 -0.0646 -0.4587
 8235SOL    HW236168   0.077   0.979   9.031  1.1297  3.4998  1.2992
 8236SOL     OW36169   1.397   2.164   6.187  0.3280 -0.4158  0.3291
 8236SOL    HW136170   1.353   2.229   6.133  1.4458  0.0077 -0.0657
 8236SOL    HW236171   1.421   2.101   6.119  0.4445 -0.5919  0.5315
 8237SOL     OW36172   0.451   2.959   5.482 -0.7502 -0.0263 -0.4335
 8237SOL    HW136173   0.373   2.952   5.427 -1.2223  0.9236  0.0979
 8237SOL    HW236174   0.480   2.870   5.464 -0.1154 -0.4520  2.7407
 8238SOL     OW36175   1.964   0.337  16.969  0.0116 -0.2116  1.3013
 8238SOL    HW136176   1.887   0.308  16.920  1.2872 -2.4933  0.6916
 8238SOL    HW236177   2.007   0.387  16.899 -0.1938  0.2111  1.4726
 8239SOL     OW36178   3.143   0.056   1.554 -0.1791  0.3952  0.2306
 8239SOL    HW136179   3.158   0.094   1.467 -0.6531 -0.1883 -0.1099
 8239SOL    HW236180   3.229   0.030   1.585 -0.2812 -1.1108 -0.7205
 8240SOL     OW36181   3.776   4.191   2.679  0.0866  0.4212 -0.2049
 8240SOL    HW136182   3.778   4.216   2.771  0.0422 -0.0328 -0.0814
 8240SOL    HW236183   3.823   4.262   2.634 -0.2092  0.3895 -0.5596
 8241SOL     OW36184   2.301   0.810  12.788 -0.1324  0.7362 -0.6195
 8241SOL    HW136185   2.300   0.885  12.847  0.3419 -0.4930  0.9739
 8241SOL    HW236186   2.234   0.755  12.829  2.3024 -1.0500  1.0515
 8242SOL     OW36187   2.012   3.369  11.805  0.3924  0.0586  0.4159
 8242SOL    HW136188   2.059   3.405  11.731 -0.9026 -2.7017 -1.7360
 8242SOL    HW236189   2.067   3.404  11.875 -0.6453  0.9202  0.8007
 8243SOL     OW36190   4.265   3.901  16.560  0.0553 -0.0636  0.3068
 8243SOL    HW136191   4.183   3.904  16.510  1.0737  1.3461 -1.2770
 8243SOL    HW236192   4.301   3.819  16.527  0.6922  1.0628 -1.8411
 8244SOL     OW36193   2.110   1.700  14.500 -0.1544  0.4348 -0.2775
 8244SOL    HW136194   2.035   1.705  14.559  1.0133  0.2231  1.2416
 8244SOL    HW236195   2.103   1.775  14.441  0.3148  1.5043  1.0169
 8245SOL     OW36196   1.525   3.880   2.327 -0.4465 -0.2970  0.1894
 8245SOL    HW136197   1.460   3.946   2.348  0.1354  0.4483 -0.3536
 8245SOL    HW236198   1.545   3.850   2.415  1.5800  0.0207 -0.1650
 8246SOL     OW36199   2.761   3.971  12.416  0.2310 -0.0191 -0.3794
 8246SOL    HW136200   2.667   3.957  12.426  0.2957  0.2550  0.5576
 8246SOL    HW236201   2.765   4.064  12.391 -1.7248 -0.2991 -1.7285
 8247SOL     OW36202   3.736   3.423   0.667  0.0304  0.3232  0.3639
 8247SOL    HW136203   3.641   3.415   0.668 -0.0687  0.8847 -3.8139
 8247SOL    HW236204   3.753   3.390   0.579  1.5414  1.0566  0.3823
 8248SOL     OW36205   4.528   2.576   1.002  0.1858 -0.1174 -0.7387
 8248SOL    HW136206   4.608   2.540   0.963 -0.0722 -0.0459 -1.3288
 8248SOL    HW236207   4.546   2.601   1.092  1.6908 -0.7563 -0.8687
 8249SOL     OW36208   2.889   0.559   5.746 -0.0406  0.2335 -0.0608
 8249SOL    HW136209   2.961   0.513   5.704  0.8826  1.4854  0.1451
 8249SOL    HW236210   2.932   0.603   5.819  1.5869 -1.1265 -0.2163
 8250SOL     OW36211   0.019   0.617   8.755 -0.2860  0.0193 -0.1334
 8250SOL    HW136212   0.046   0.543   8.700  2.0843  1.8494 -1.4083
 8250SOL    HW236213   0.091   0.627   8.817  0.7021  1.7076 -1.5491
 8251SOL     OW36214   3.236   3.264   6.191  0.3685  0.2216  0.5763
 8251SOL    HW136215   3.312   3.321   6.180 -0.7867  1.6485 -0.1142
 8251SOL    HW236216   3.172   3.330   6.219 -1.6682 -1.6715  0.4251
 8252SOL     OW36217   2.846   0.153   3.040  0.2878  0.2326  0.0410
 8252SOL    HW136218   2.902   0.231   3.029  0.4663 -0.0919 -1.4065
 8252SOL    HW236219   2.808   0.165   3.127  0.8668  0.0908  0.3157
 8253SOL     OW36220   2.285   0.578   9.600 -0.0267  0.1556 -0.2571
 8253SOL    HW136221   2.367   0.557   9.554 -0.4168 -1.5542 -0.1891
 8253SOL    HW236222   2.311   0.539   9.683 -0.4648 -0.5591 -0.4500
 8254SOL     OW36223   2.742   3.081   7.507 -0.3035 -0.1141  0.1857
 8254SOL    HW136224   2.662   3.132   7.521 -0.2035 -0.0049  0.3601
 8254SOL    HW236225   2.793   3.130   7.571  0.7172 -0.1867 -0.5866
 8255SOL     OW36226   1.237   3.368   2.129  0.0529  0.8750 -0.0792
 8255SOL    HW136227   1.232   3.284   2.174 -1.8200  0.3244 -1.3023
 8255SOL    HW236228   1.303   3.349   2.062 -2.2036  0.3686 -2.1616
 8256SOL     OW36229   0.907   4.571   6.160  0.6072  0.1622  0.2106
 8256SOL    HW136230   0.864   4.525   6.088  0.2176  2.6673 -1.1417
 8256SOL    HW236231   0.937   4.494   6.209  3.1225  0.3298 -1.0525
 8257SOL     OW36232   2.322   2.984  11.260 -0.3570 -0.9120  0.1454
 8257SOL    HW136233   2.266   2.961  11.334 -1.2196  0.4160 -0.1032
 8257SOL    HW236234   2.286   2.921  11.197  1.4182  1.5822 -3.3955
 8258SOL     OW36235   2.929   1.656   7.808  0.0756  0.2080  0.2293
 8258SOL    HW136236   2.893   1.732   7.854 -2.1095  0.2910 -1.6264
 8258SOL    HW236237   2.853   1.600   7.800 -0.7706  1.6822 -2.2417
 8259SOL     OW36238   2.183   4.465  11.929  0.3115  0.6616  0.0184
 8259SOL    HW136239   2.135   4.385  11.952  2.4056 -0.0112  2.1357
 8259SOL    HW236240   2.144   4.492  11.846 -0.7759  1.9669  0.9501
 8260SOL     OW36241   1.619   4.230   2.677 -0.4625 -0.8900  0.1015
 8260SOL    HW136242   1.653   4.296   2.738 -0.7937 -0.0897 -0.5669
 8260SOL    HW236243   1.654   4.148   2.710  1.3655 -0.2929 -0.3510
 8261SOL     OW36244   1.954   4.272   1.210  0.1007 -0.0824  0.0173
 8261SOL    HW136245   1.923   4.185   1.184 -3.0997  1.2445 -0.6105
 8261SOL    HW236246   2.049   4.263   1.218  0.1035 -0.6949 -0.8093
 8262SOL     OW36247   4.014   0.857   6.709 -0.1097  0.6946  0.0836
 8262SOL    HW136248   3.945   0.923   6.711  1.7125  2.6245 -2.4087
 8262SOL    HW236249   3.981   0.802   6.781  2.7705 -1.3983 -0.2040
 8263SOL     OW36250   1.899   1.566  16.773  0.1389  0.1093  0.6215
 8263SOL    HW136251   1.841   1.624  16.822 -0.1697 -0.3930  0.8424
 8263SOL    HW236252   1.876   1.479  16.805 -2.0648  1.3136  2.3211
 8264SOL     OW36253   3.176   4.386   3.824 -1.1487  0.4013  0.0554
 8264SOL    HW136254   3.185   4.309   3.768  1.2540 -0.6041  1.7700
 8264SOL    HW236255   3.254   4.362   3.875 -1.6007 -0.7018  0.2456
 8265SOL     OW36256   2.647   1.933   3.007 -0.3153  0.0102 -0.3915
 8265SOL    HW136257   2.662   1.839   3.004 -1.3263 -0.1221 -1.2172
 8265SOL    HW236258   2.584   1.940   2.936 -0.1694  0.6555 -0.4604
 8266SOL     OW36259   2.334   1.978   8.746 -0.0982 -0.4226  0.2975
 8266SOL    HW136260   2.401   1.963   8.680  0.8328 -1.8084  1.5644
 8266SOL    HW236261   2.295   1.892   8.761 -2.1671  0.1051 -2.0978
 8267SOL     OW36262   3.141   3.622   8.520 -0.1581  0.7969 -0.6913
 8267SOL    HW136263   3.197   3.610   8.444 -1.9333  0.2144 -1.8982
 8267SOL    HW236264   3.188   3.695   8.559  0.8819 -0.5095  0.4929
 8268SOL     OW36265   4.398   1.820  17.408 -0.9152 -0.0449 -0.3711
 8268SOL    HW136266   4.450   1.855  17.335  0.1769 -2.2737 -0.6500
 8268SOL    HW236267   4.465   1.782  17.464 -0.9144  0.3083 -0.1307
 8269SOL     OW36268   0.671   2.540  13.586 -0.1692  0.0337  0.3412
 8269SOL    HW136269   0.637   2.492  13.511  0.7648  3.4227 -2.2511
 8269SOL    HW236270   0.646   2.632  13.575  0.1364 -0.1986 -2.3211
 8270SOL     OW36271   0.679   0.451   5.082  0.4370 -0.0118  0.2253
 8270SOL    HW136272   0.669   0.360   5.052 -1.3777  1.6201 -4.1835
 8270SOL    HW236273   0.768   0.466   5.051  1.0507 -2.3902  0.8336
 8271SOL     OW36274   2.002   2.967   0.220 -0.2559  0.3338 -0.1567
 8271SOL    HW136275   2.095   2.954   0.236  0.2245  2.5523 -1.2220
 8271SOL    HW236276   1.955   2.923   0.292  1.8954  0.9983  1.6544
 8272SOL     OW36277   3.292   0.750   8.312  0.4167 -0.2920  0.4703
 8272SOL    HW136278   3.258   0.763   8.400  2.3472 -2.8710  1.5866
 8272SOL    HW236279   3.372   0.803   8.303  0.8997 -0.8892  1.2840
 8273SOL     OW36280   0.086   0.400   3.205 -0.8160 -0.1510 -0.3345
 8273SOL    HW136281   0.032   0.468   3.246 -1.4974  0.3518 -2.0875
 8273SOL    HW236282   0.036   0.396   3.124 -0.5929 -0.0868 -0.4740
 8274SOL     OW36283   3.843   4.362   2.458 -0.0423 -0.0611 -0.8319
 8274SOL    HW136284   3.833   4.427   2.389 -1.6704 -1.4352 -1.8785
 8274SOL    HW236285   3.930   4.327   2.436 -1.0076 -2.8394 -0.2947
 8275SOL     OW36286   2.664   0.262   8.995  0.4178  0.3451 -0.0300
 8275SOL    HW136287   2.596   0.314   9.036 -3.2682 -2.2792 -2.7622
 8275SOL    HW236288   2.641   0.245   8.903  1.5060  1.0805 -0.4375
 8276SOL     OW36289   1.482   0.744   5.321 -0.3863 -0.3493 -0.5202
 8276SOL    HW136290   1.522   0.825   5.353  0.5458 -1.5253  1.3442
 8276SOL    HW236291   1.391   0.772   5.325  0.2130  1.5131  0.0569
 8277SOL     OW36292   4.062   2.034  17.054  0.2354 -0.6767  0.0578
 8277SOL    HW136293   4.009   1.965  17.095 -0.2680 -1.2128 -1.5119
 8277SOL    HW236294   4.130   2.030  17.121  0.6228  1.4660 -0.2072
 8278SOL     OW36295   2.641   3.271   9.725 -0.0642 -0.0537  0.4558
 8278SOL    HW136296   2.618   3.362   9.708  1.4214  0.0215 -1.1867
 8278SOL    HW236297   2.717   3.266   9.667 -1.1989 -0.8816 -0.9687
 8279SOL     OW36298   1.597   3.288   5.112  0.0801 -0.1719 -0.1963
 8279SOL    HW136299   1.620   3.259   5.024  1.8365 -4.2851  1.6220
 8279SOL    HW236300   1.555   3.374   5.105  2.0875  1.0193  2.1017
 8280SOL     OW36301   2.439   0.218   5.254 -0.6854 -0.5161  0.3083
 8280SOL    HW136302   2.518   0.211   5.308 -0.0700 -2.5475 -0.8793
 8280SOL    HW236303   2.395   0.297   5.286 -0.0493  0.4111 -1.1171
 8281SOL     OW36304   1.066   0.046   3.721 -0.5306  0.2374  0.2464
 8281SOL    HW136305   1.028   4.691   3.756 -0.2379  0.2206  0.5238
 8281SOL    HW236306   1.095   0.029   3.631  1.2305 -0.5497  0.9557
 8282SOL     OW36307   0.900   2.580   3.476 -0.2359 -0.6677 -0.0910
 8282SOL    HW136308   0.929   2.608   3.563 -1.7214  0.2952  0.1048
 8282SOL    HW236309   0.907   2.664   3.431  2.6064 -1.2933 -0.8170
 8283SOL     OW36310   2.668   0.098  16.635  0.2949  0.2412  0.2407
 8283SOL    HW136311   2.630   0.012  16.647  1.0594 -0.4267 -2.0161
 8283SOL    HW236312   2.761   0.076  16.638 -0.4265 -2.6013  0.9177
 8284SOL     OW36313   3.835   3.806   5.069  0.4035  0.3236 -0.1915
 8284SOL    HW136314   3.789   3.738   5.118  0.6739  0.9812  0.9767
 8284SOL    HW236315   3.913   3.815   5.123 -0.7591  0.2796  1.4940
 8285SOL     OW36316   3.978   3.039   9.034  0.0494  0.4471 -0.4639
 8285SOL    HW136317   4.062   3.009   9.067 -1.0533 -1.1003  0.9049
 8285SOL    HW236318   3.986   3.134   9.046 -0.1446  0.5155 -0.8807
 8286SOL     OW36319   0.022   4.297  13.886  0.3186  0.2867 -0.0809
 8286SOL    HW136320   0.052   4.388  13.886  0.2765  0.3042 -1.9879
 8286SOL    HW236321   0.068   4.271  13.806  0.4769 -0.6669  0.3176
 8287SOL     OW36322   3.098   4.348   8.995 -0.2922 -0.1869 -0.2335
 8287SOL    HW136323   3.144   4.276   8.952  0.7344  0.5272 -0.3409
 8287SOL    HW236324   3.139   4.348   9.082 -0.9548  1.1021  0.0728
 8288SOL     OW36325   0.067   0.127   2.799  0.0549  0.3042  0.4895
 8288SOL    HW136326   0.032   0.046   2.762 -1.4237  1.8680 -1.4992
 8288SOL    HW236327   0.002   0.149   2.867 -1.1903 -1.7751 -0.0297
 8289SOL     OW36328   2.446   0.103   1.172  0.1958 -0.3664 -0.2049
 8289SOL    HW136329   2.424   0.029   1.228  1.0552  1.3186  2.3798
 8289SOL    HW236330   2.524   0.129   1.221 -2.1411  3.0906  1.6544
 8290SOL     OW36331   3.573   3.580   8.966  0.1100 -0.5386 -0.1415
 8290SOL    HW136332   3.656   3.558   8.924 -0.7091  0.9354 -2.5057
 8290SOL    HW236333   3.595   3.562   9.058  0.6316  0.3247 -0.1058
 8291SOL     OW36334   1.927   1.297   2.209  0.0524  0.5462 -0.0441
 8291SOL    HW136335   2.006   1.285   2.156 -0.8713  0.9060 -1.4936
 8291SOL    HW236336   1.956   1.343   2.287 -2.1952  0.9849  0.5355
 8292SOL     OW36337   2.828   1.535   3.718 -0.4195  0.1435 -0.6868
 8292SOL    HW136338   2.819   1.608   3.779  1.2824  0.1516 -0.4270
 8292SOL    HW236339   2.737   1.510   3.705 -0.1831 -0.3862 -1.3860
 8293SOL     OW36340   2.658   3.193   3.845  0.3042 -0.3597  0.2798
 8293SOL    HW136341   2.633   3.103   3.822 -2.6630 -0.5674  4.2953
 8293SOL    HW236342   2.576   3.241   3.830 -1.1635 -1.6347  4.2771
 8294SOL     OW36343   3.843   2.871   1.359  0.0557  0.3071  0.2141
 8294SOL    HW136344   3.905   2.915   1.418  1.2887 -0.3153 -0.6197
 8294SOL    HW236345   3.811   2.946   1.308  0.5125 -0.2836 -0.9336
 8295SOL     OW36346   4.593   0.945  14.922 -0.4915  0.5421 -0.0328
 8295SOL    HW136347   4.616   0.863  14.878 -0.2307  0.8951 -0.5555
 8295SOL    HW236348   4.659   1.005  14.888 -1.3125  0.5944 -1.5167
 8296SOL     OW36349   3.787   0.902   9.706 -0.6879  0.0385 -0.1569
 8296SOL    HW136350   3.692   0.913   9.703 -0.9971 -2.0829  1.8024
 8296SOL    HW236351   3.801   0.991   9.674  1.3200 -0.3628 -0.3481
 8297SOL     OW36352   2.383   2.413   6.950 -0.3476  0.5109  0.3076
 8297SOL    HW136353   2.375   2.381   7.040 -0.3010 -0.7358 -0.1203
 8297SOL    HW236354   2.394   2.506   6.968 -3.1987  0.9434 -0.2173
 8298SOL     OW36355   4.176   2.580  16.843 -0.3335  0.0425 -0.4942
 8298SOL    HW136356   4.204   2.639  16.773  0.8708  0.4316  0.3080
 8298SOL    HW236357   4.235   2.505  16.828  1.5001  1.1573  1.1013
 8299SOL     OW36358   1.674   0.938  10.569 -0.2817  0.4051 -0.2157
 8299SOL    HW136359   1.701   1.021  10.531  1.7896 -0.8472 -1.4985
 8299SOL    HW236360   1.760   0.920  10.607 -0.4362 -1.1987 -0.6165
 8300SOL     OW36361   3.972   4.694  15.410 -0.0595 -0.0177  0.9158
 8300SOL    HW136362   3.977   0.029  15.336  1.0132 -1.7063 -0.3975
 8300SOL    HW236363   3.888   0.003  15.441  0.4874  0.9704  1.2814
 8301SOL     OW36364   0.019   3.922   2.744 -0.1270  0.1991  0.4172
 8301SOL    HW136365   0.087   3.949   2.806  0.0265  0.2790  0.2139
 8301SOL    HW236366   4.681   3.991   2.761 -0.6550 -0.0559 -0.5247
 8302SOL     OW36367   2.532   1.957   5.292  0.6007 -0.1238  0.9495
 8302SOL    HW136368   2.545   1.901   5.215 -0.8763 -0.3382  0.8503
 8302SOL    HW236369   2.438   1.975   5.283  0.7582  0.6993  1.0283
 8303SOL     OW36370   3.804   0.711   4.162 -0.1270  0.2404 -0.1852
 8303SOL    HW136371   3.870   0.655   4.119  0.7726  0.3362  1.0818
 8303SOL    HW236372   3.735   0.646   4.173 -0.7488  1.2743  1.9225
 8304SOL     OW36373   0.684   1.437   3.445  0.5275  0.1653  0.0503
 8304SOL    HW136374   0.689   1.394   3.359  2.5047 -0.1434  0.3235
 8304SOL    HW236375   0.593   1.421   3.470  0.3662  2.1875  0.7563
 8305SOL     OW36376   1.967   0.357  17.281 -0.6150  0.1821  0.3046
 8305SOL    HW136377   1.896   0.390  17.226  0.2030  1.1222 -0.1666
 8305SOL    HW236378   1.932   0.364  17.370 -0.8351  1.3110  0.1279
 8306SOL     OW36379   2.312   0.427   5.369  0.3553 -0.0392 -0.3912
 8306SOL    HW136380   2.242   0.466   5.316  0.2433 -1.4059 -1.2418
 8306SOL    HW236381   2.368   0.503   5.384  0.0073 -0.1395  1.3435
 8307SOL     OW36382   1.824   4.597   7.761 -0.4236 -0.1665 -0.0043
 8307SOL    HW136383   1.741   4.558   7.791 -0.3341 -1.1735 -1.0465
 8307SOL    HW236384   1.884   4.548   7.816  1.1416  1.0601 -0.6203
 8308SOL     OW36385   1.169   4.387  14.389 -0.4494  0.4288 -0.0880
 8308SOL    HW136386   1.228   4.363  14.318 -0.0894 -0.6661  0.5736
 8308SOL    HW236387   1.210   4.340  14.462 -1.2590  1.1519  0.8424
 8309SOL     OW36388   3.225   1.124   2.966  0.1812 -0.5665 -0.5135
 8309SOL    HW136389   3.151   1.121   3.026  0.2518  0.8781 -0.3560
 8309SOL    HW236390   3.188   1.139   2.879  1.4004 -1.4916 -1.1945
 8310SOL     OW36391   3.478   2.162   5.680 -1.1069 -0.1513 -0.3934
 8310SOL    HW136392   3.415   2.207   5.736  0.1818  1.1765 -0.0063
 8310SOL    HW236393   3.463   2.070   5.702 -0.0325 -0.6061 -1.5589
 8311SOL     OW36394   2.143   1.726  15.583  0.3439 -0.1446  0.2416
 8311SOL    HW136395   2.177   1.750  15.497  2.3622 -0.9294  0.8191
 8311SOL    HW236396   2.151   1.805  15.635  2.1473  0.8350 -1.5189
 8312SOL     OW36397   2.305   1.275  17.471  0.3177  0.0802 -0.0101
 8312SOL    HW136398   2.224   1.230  17.446  0.5640 -0.0993 -0.4838
 8312SOL    HW236399   2.368   1.202  17.468  1.5604  1.0521  2.1900
 8313SOL     OW36400   0.557   4.419   3.746  0.2999  0.0239  0.3333
 8313SOL    HW136401   0.599   4.361   3.682  1.3529 -0.8108  1.7851
 8313SOL    HW236402   0.491   4.452   3.686 -0.8127 -0.2785  1.3897
 8314SOL     OW36403   4.156   0.811   2.614 -0.1456 -0.1959 -0.0066
 8314SOL    HW136404   4.193   0.725   2.592  0.6273 -0.3519  1.8954
 8314SOL    HW236405   4.207   0.841   2.689 -0.8247  1.9585 -0.4078
 8315SOL     OW36406   4.095   1.024   7.256  0.1496 -0.1594 -0.5499
 8315SOL    HW136407   4.038   1.080   7.204  0.6345  1.1771  0.3725
 8315SOL    HW236408   4.103   0.953   7.192 -1.0115  1.0267 -2.0224
 8316SOL     OW36409   2.455   2.629   8.981 -0.1245  0.0503 -0.0166
 8316SOL    HW136410   2.423   2.573   9.052 -1.3955 -0.5723 -1.0690
 8316SOL    HW236411   2.388   2.697   8.986 -1.2869 -1.1264  0.4939
 8317SOL     OW36412   1.024   0.077   4.181 -0.0650 -0.4268 -0.0635
 8317SOL    HW136413   1.107   0.080   4.133 -0.8388 -0.6304 -1.4031
 8317SOL    HW236414   0.977   0.012   4.130  0.9009 -2.3402  1.5126
 8318SOL     OW36415   3.504   2.085   7.191  0.4888  0.3532 -0.6146
 8318SOL    HW136416   3.514   2.003   7.144 -2.4639 -0.9459  1.0287
 8318SOL    HW236417   3.447   2.133   7.131  0.3806  2.3145  1.0451
 8319SOL     OW36418   4.349   2.356   5.977  0.4132 -0.2667 -0.5839
 8319SOL    HW136419   4.310   2.386   6.060  1.8899  0.0714 -0.0010
 8319SOL    HW236420   4.401   2.280   6.005 -1.6691 -1.9643 -1.3472
 8320SOL     OW36421   0.604   0.146   1.900  0.4049 -0.0853 -0.3555
 8320SOL    HW136422   0.549   0.106   1.833  3.6142  1.3335 -3.8430
 8320SOL    HW236423   0.645   0.077   1.952  1.5215 -1.4316 -3.0356
 8321SOL     OW36424   2.095   2.763  15.671 -0.3644  0.0252  0.2231
 8321SOL    HW136425   2.038   2.700  15.715 -0.4633  0.7990  1.2071
 8321SOL    HW236426   2.086   2.841  15.727 -3.4221  1.0622 -1.7011
 8322SOL     OW36427   4.434   3.253  10.479 -0.4313 -0.6526  0.1012
 8322SOL    HW136428   4.358   3.308  10.496  0.4437  0.6783 -0.3189
 8322SOL    HW236429   4.501   3.320  10.464 -0.9996  0.4007  2.2724
 8323SOL     OW36430   3.122   2.112  10.143 -0.5054 -0.5260 -0.1932
 8323SOL    HW136431   3.105   2.180  10.078  0.8604  1.7695  1.8827
 8323SOL    HW236432   3.142   2.163  10.222  0.3349  0.1873 -0.8738
 8324SOL     OW36433   0.606   0.785   2.005  0.2141 -0.2006  0.1995
 8324SOL    HW136434   0.544   0.807   2.075  0.5332  0.7634  0.1718
 8324SOL    HW236435   0.545   0.737   1.949  2.1403 -2.1314 -0.2580
 8325SOL     OW36436   4.128   2.584   4.756 -0.2955 -0.4604  0.2680
 8325SOL    HW136437   4.052   2.591   4.697 -1.2300 -2.9041  1.2171
 8325SOL    HW236438   4.104   2.652   4.819 -1.0231 -1.1743  0.7553
 8326SOL     OW36439   3.069   1.347   7.782 -0.5872 -0.1405  0.6372
 8326SOL    HW136440   3.128   1.334   7.708  0.9186 -0.3480  1.8586
 8326SOL    HW236441   2.988   1.334   7.734  0.0864 -0.6609 -0.3655
 8327SOL     OW36442   0.531   4.394   7.188  0.0709  0.5362 -0.3410
 8327SOL    HW136443   0.616   4.384   7.144 -1.0362  0.8684 -2.5092
 8327SOL    HW236444   0.557   4.370   7.277  1.4186  1.1498 -0.5697
 8328SOL     OW36445   4.305   3.997   5.074 -0.3110 -0.3149 -0.0371
 8328SOL    HW136446   4.332   3.951   5.153 -1.3401 -1.0219 -0.1041
 8328SOL    HW236447   4.285   3.924   5.016 -2.0600 -0.7869  1.1503
 8329SOL     OW36448   0.966   0.429   2.487 -0.4831 -0.7740  0.0315
 8329SOL    HW136449   0.894   0.469   2.440  0.1398 -0.3506 -0.5562
 8329SOL    HW236450   0.968   0.343   2.445 -0.1649 -1.7310  1.9731
 8330SOL     OW36451   1.927   4.462  16.960 -0.0642 -0.4405  0.4612
 8330SOL    HW136452   1.913   4.373  16.928  2.4028 -0.4926 -0.4459
 8330SOL    HW236453   1.849   4.478  17.013 -1.4565  0.6269 -1.8707
 8331SOL     OW36454   3.464   4.701   5.497  0.0608 -0.4267 -0.4525
 8331SOL    HW136455   3.553   4.681   5.525 -0.0693 -1.0210 -0.4551
 8331SOL    HW236456   3.459   4.631   5.432  0.4883 -0.3353 -0.5825
 8332SOL     OW36457   1.644   2.654  15.665 -0.0291 -0.0189  0.7169
 8332SOL    HW136458   1.548   2.646  15.663  0.0363 -0.9211  1.1840
 8332SOL    HW236459   1.646   2.721  15.596  0.5408 -1.7178 -0.8934
 8333SOL     OW36460   2.433   3.675  14.632  0.3261 -0.0673 -0.1342
 8333SOL    HW136461   2.454   3.698  14.541  0.8943 -1.8722 -0.4669
 8333SOL    HW236462   2.487   3.742  14.673 -1.7950  1.6108 -0.1094
 8334SOL     OW36463   3.197   0.709   2.765  0.2630  0.0559  0.1956
 8334SOL    HW136464   3.113   0.748   2.743  0.7341  1.8938  1.6408
 8334SOL    HW236465   3.263   0.767   2.727 -0.9442  0.6531 -0.9474
 8335SOL     OW36466   4.604   0.855   3.131 -0.3198 -0.7650  0.5969
 8335SOL    HW136467   4.663   0.901   3.071 -1.6211  0.6957  0.4263
 8335SOL    HW236468   4.534   0.920   3.143 -0.4354 -0.7163 -0.3749
 8336SOL     OW36469   1.621   3.094   2.795  0.4158 -0.4519  0.9914
 8336SOL    HW136470   1.645   3.072   2.885  2.2927 -1.7386  0.1766
 8336SOL    HW236471   1.549   3.156   2.811  1.5390  0.6949  1.5693
 8337SOL     OW36472   0.007   1.874   3.771 -0.2725 -0.2976 -0.7441
 8337SOL    HW136473   4.657   1.820   3.792  1.7739 -2.4196  1.3224
 8337SOL    HW236474   0.013   1.858   3.677  0.3783  0.9790 -0.9198
 8338SOL     OW36475   2.293   1.871   4.907  0.0394  0.4326  0.3821
 8338SOL    HW136476   2.324   1.864   4.817  1.0258 -1.9909  0.8990
 8338SOL    HW236477   2.204   1.905   4.904 -1.1994 -2.7314  0.9755
 8339SOL     OW36478   2.098   2.785   8.082 -0.1422 -0.3949  0.1224
 8339SOL    HW136479   2.185   2.745   8.074 -0.4553 -0.3673 -3.1409
 8339SOL    HW236480   2.114   2.879   8.071  0.5614 -0.3241  1.6288
 8340SOL     OW36481   4.488   2.925  13.729  0.4201  0.4309  0.3574
 8340SOL    HW136482   4.450   3.008  13.757 -0.9675  0.6356 -2.1759
 8340SOL    HW236483   4.577   2.945  13.701 -0.4274  0.7981 -2.0113
 8341SOL     OW36484   0.798   0.845  13.851 -0.2477  0.2128  0.2231
 8341SOL    HW136485   0.802   0.750  13.850  0.9726  0.2925 -1.2941
 8341SOL    HW236486   0.757   0.858  13.766  0.2500 -0.0043 -0.0505
 8342SOL     OW36487   3.600   3.601  17.145 -0.2768 -0.8458  0.6191
 8342SOL    HW136488   3.684   3.557  17.156 -0.9794 -2.0230  1.3240
 8342SOL    HW236489   3.624   3.688  17.177 -1.8106  0.1934 -1.0640
 8343SOL     OW36490   3.880   0.650  14.161  0.0885 -0.4321  0.1153
 8343SOL    HW136491   3.930   0.709  14.217  0.3275 -0.2315 -0.3081
 8343SOL    HW236492   3.883   0.682  14.070 -1.2176  0.0986  0.2536
 8344SOL     OW36493   4.434   4.143   2.560 -1.1775  0.1015 -0.0584
 8344SOL    HW136494   4.368   4.124   2.493  1.0972 -2.5240 -1.5200
 8344SOL    HW236495   4.378   4.163   2.636 -0.9277  1.6421 -0.2844
 8345SOL     OW36496   3.603   4.523   6.659 -0.4248 -0.2882 -0.0723
 8345SOL    HW136497   3.626   4.459   6.726 -2.9605 -0.9336  0.1655
 8345SOL    HW236498   3.606   4.466   6.582  0.1875  0.6076 -0.7094
 8346SOL     OW36499   0.156   0.823  14.848  1.0397 -0.1341 -0.1963
 8346SOL    HW136500   0.247   0.829  14.821  0.5252  1.9540 -1.4691
 8346SOL    HW236501   0.133   0.915  14.836 -0.0589 -0.2689  0.7829
 8347SOL     OW36502   3.243   0.061  11.875 -0.5312 -0.8346  0.2122
 8347SOL    HW136503   3.163   0.104  11.906 -0.5490 -1.0256  0.4382
 8347SOL    HW236504   3.203   0.012  11.803 -0.1964  0.5179 -0.8978
 8348SOL     OW36505   4.180   1.800   3.114 -0.3766 -0.1814 -0.0875
 8348SOL    HW136506   4.196   1.883   3.158  0.6237 -0.5314  0.1891
 8348SOL    HW236507   4.215   1.734   3.174 -0.3100  0.8167  0.9550
 8349SOL     OW36508   4.449   0.067  16.762  0.6847 -0.0530  0.9269
 8349SOL    HW136509   4.530   0.110  16.735 -0.0054  1.7948  1.7712
 8349SOL    HW236510   4.479   0.005  16.829 -0.0398  0.6840  1.9518
 8350SOL     OW36511   2.707   3.153  10.650 -0.0155  0.0599  0.3806
 8350SOL    HW136512   2.625   3.136  10.603 -0.6217  1.9115  0.7454
 8350SOL    HW236513   2.734   3.065  10.674  1.6905  0.5878  0.3487
 8351SOL     OW36514   2.299   3.755   0.677 -0.5668  0.0740 -0.1838
 8351SOL    HW136515   2.355   3.678   0.677  1.7019  1.7440 -0.6910
 8351SOL    HW236516   2.357   3.808   0.623  0.1487 -1.2861 -0.7299
 8352SOL     OW36517   0.806   4.281   6.291 -0.8054  0.4838  0.2792
 8352SOL    HW136518   0.764   4.232   6.221 -1.2477  0.6330  0.4434
 8352SOL    HW236519   0.784   4.227   6.367 -1.0690 -1.1930 -0.9780
 8353SOL     OW36520   1.643   4.388   9.144 -0.0855 -0.2046  0.3296
 8353SOL    HW136521   1.603   4.417   9.062 -0.5484 -1.7258  0.0231
 8353SOL    HW236522   1.734   4.414   9.135 -0.1956  0.6146  1.5577
 8354SOL     OW36523   3.389   3.577   2.971  0.0129  0.9747  0.7974
 8354SOL    HW136524   3.342   3.538   2.898  0.5286  0.7954  0.5605
 8354SOL    HW236525   3.318   3.596   3.032 -2.0647 -1.3701 -0.8407
 8355SOL     OW36526   2.962   3.816   8.370  0.1138  0.2810  0.0914
 8355SOL    HW136527   3.036   3.780   8.419  0.3413  0.1560 -0.3437
 8355SOL    HW236528   2.976   3.788   8.279  5.0056  0.6497  0.6984
 8356SOL     OW36529   2.751   0.815   9.686  0.4475  0.0362 -0.2801
 8356SOL    HW136530   2.814   0.825   9.614  0.0828  1.0692 -0.4542
 8356SOL    HW236531   2.775   0.889   9.743  3.2130 -0.9437 -0.1619
 8357SOL     OW36532   0.668   2.010  17.350  0.1484  0.1580 -0.4875
 8357SOL    HW136533   0.683   2.101  17.327  0.7793 -0.5199 -2.8006
 8357SOL    HW236534   0.755   1.984  17.381 -0.3521 -0.6517  0.2484
 8358SOL     OW36535   3.442   0.936   1.404 -0.1753  0.1445  0.4617
 8358SOL    HW136536   3.443   1.027   1.434 -0.8152  0.3400 -0.1251
 8358SOL    HW236537   3.455   0.882   1.482 -1.9114 -1.3674 -0.2870
 8359SOL     OW36538   1.256   0.246   8.251  0.0078  0.0099  0.2912
 8359SOL    HW136539   1.258   0.270   8.159 -0.3602 -1.2011 -0.0390
 8359SOL    HW236540   1.175   0.286   8.279  1.1367  2.3571  0.1940
 8360SOL     OW36541   1.234   1.379  11.922 -0.1975 -0.1587 -0.0233
 8360SOL    HW136542   1.150   1.347  11.955 -0.1591 -0.9197 -0.6817
 8360SOL    HW236543   1.213   1.464  11.883 -0.8971  0.2513  1.2381
 8361SOL     OW36544   2.888   2.385   8.272  0.1052  0.7831 -0.0565
 8361SOL    HW136545   2.806   2.422   8.302  0.6731  0.2157  2.1767
 8361SOL    HW236546   2.954   2.451   8.295  3.1332 -2.6126  1.0797
 8362SOL     OW36547   1.933   3.137   5.891 -1.0334  0.0477  0.7174
 8362SOL    HW136548   1.878   3.090   5.828 -1.0115  1.9484 -0.7183
 8362SOL    HW236549   1.978   3.064   5.934  1.7758  1.1964 -0.2699
 8363SOL     OW36550   2.814   0.964   6.347  0.5129  0.0986  0.1648
 8363SOL    HW136551   2.722   0.941   6.361  0.6804 -0.0640  1.0571
 8363SOL    HW236552   2.862   0.893   6.391  0.6810 -0.3858 -0.7970
 8364SOL     OW36553   3.087   1.860  10.210 -0.0273  0.1849 -0.1972
 8364SOL    HW136554   3.153   1.824  10.270  0.6818  0.2067 -0.9550
 8364SOL    HW236555   3.119   1.949  10.197 -0.1974  0.3595  0.5897
 8365SOL     OW36556   2.846   4.513   4.198 -0.4204  0.0891  0.4884
 8365SOL    HW136557   2.912   4.478   4.259 -0.9885 -0.7671  0.6128
 8365SOL    HW236558   2.786   4.553   4.260 -0.9216  1.7189 -1.0688
 8366SOL     OW36559   3.729   1.477   3.513 -0.8022  0.6343  0.5231
 8366SOL    HW136560   3.748   1.415   3.583  0.5882 -0.2168 -0.5960
 8366SOL    HW236561   3.805   1.468   3.455 -1.7373 -0.6668 -0.5150
 8367SOL     OW36562   0.805   3.370   5.772  0.1893 -0.2028 -0.0272
 8367SOL    HW136563   0.860   3.324   5.709  0.0331  0.9618 -1.0112
 8367SOL    HW236564   0.737   3.307   5.796  1.4173 -0.8500  1.7417
 8368SOL     OW36565   2.405   0.814   3.115 -0.0574  0.3405  0.1073
 8368SOL    HW136566   2.444   0.845   3.197 -0.9909 -1.2127  1.1401
 8368SOL    HW236567   2.485   0.780   3.076  1.4649  2.9036  0.9769
 8369SOL     OW36568   0.169   0.599   7.874 -0.2458  0.6537 -0.3018
 8369SOL    HW136569   0.075   0.584   7.882 -0.2450  1.7160  1.7350
 8369SOL    HW236570   0.184   0.690   7.902 -0.4486  0.6843 -0.2911
 8370SOL     OW36571   2.704   2.587   8.293  0.0223 -0.3499  0.2279
 8370SOL    HW136572   2.740   2.619   8.375 -2.2980  1.4983  0.5505
 8370SOL    HW236573   2.610   2.604   8.303  0.3607  0.2397  2.2619
 8371SOL     OW36574   4.206   1.058  13.215 -0.4277  0.2181  0.2883
 8371SOL    HW136575   4.153   1.117  13.269  2.2677  1.0622  2.0461
 8371SOL    HW236576   4.296   1.072  13.245  0.0516 -0.0096 -1.0182
 8372SOL     OW36577   3.973   0.961   2.044  0.2130  0.0083 -0.5804
 8372SOL    HW136578   3.954   0.875   2.081  0.5048  0.0503 -0.3369
 8372SOL    HW236579   4.000   0.933   1.957  0.5805  2.1386 -1.1475
 8373SOL     OW36580   3.429   0.008   6.876  0.6915  0.1322 -0.1572
 8373SOL    HW136581   3.399   0.042   6.960  0.0064  0.0586 -0.3711
 8373SOL    HW236582   3.497   4.673   6.906  1.1822 -0.3519 -2.2824
 8374SOL     OW36583   3.827   1.255   3.660  0.0224 -0.0253  0.0615
 8374SOL    HW136584   3.916   1.289   3.673 -0.1334  0.8004 -1.0516
 8374SOL    HW236585   3.842   1.188   3.594 -2.8035  0.1766 -0.7970
 8375SOL     OW36586   4.675   2.176  15.235  0.2135 -0.2870  0.1941
 8375SOL    HW136587   4.644   2.137  15.317  0.0025 -0.3008  0.1095
 8375SOL    HW236588   4.687   2.267  15.261  0.7026 -0.4604  0.5893
 8376SOL     OW36589   3.760   4.634  10.966 -0.0916 -0.1751  0.6132
 8376SOL    HW136590   3.720   4.674  10.888 -1.8291 -3.6006 -0.2559
 8376SOL    HW236591   3.766   4.710  11.024  2.4142  0.9836 -1.1592
 8377SOL     OW36592   0.731   3.872   2.092  0.3120 -0.6784  0.4685
 8377SOL    HW136593   0.789   3.923   2.148  0.2905 -0.3865  0.2265
 8377SOL    HW236594   0.781   3.791   2.098  1.5380  0.1484  1.3306
 8378SOL     OW36595   4.080   4.704   7.385 -0.4528  0.3855  0.4691
 8378SOL    HW136596   4.017   4.636   7.361  0.2126  0.5884 -1.8181
 8378SOL    HW236597   4.153   4.684   7.327 -1.7829 -1.0993 -0.6972
 8379SOL     OW36598   2.604   1.599   1.085 -0.9280 -0.6061 -0.1461
 8379SOL    HW136599   2.672   1.665   1.072 -0.6689 -0.3837  2.2788
 8379SOL    HW236600   2.641   1.544   1.154 -0.5983 -1.7742 -1.2665
 8380SOL     OW36601   3.650   4.232  12.626 -0.4294  0.4200 -0.0853
 8380SOL    HW136602   3.621   4.311  12.580  1.9360  1.3885  0.1452
 8380SOL    HW236603   3.638   4.164  12.559  0.8214 -0.8737  0.9952
 8381SOL     OW36604   4.395   3.713   7.139 -0.0203  0.5933 -0.1422
 8381SOL    HW136605   4.478   3.675   7.110 -0.3694 -1.0823  1.0618
 8381SOL    HW236606   4.353   3.639   7.182  1.1611 -0.7461 -1.2731
 8382SOL     OW36607   2.166   0.070   9.155  0.5267 -0.4134  0.7173
 8382SOL    HW136608   2.170   0.153   9.108  1.2873  0.9265  3.1422
 8382SOL    HW236609   2.123   0.106   9.232  0.6574  2.2936 -0.4785
 8383SOL     OW36610   2.562   0.203   7.295 -0.1552 -0.1077  0.6171
 8383SOL    HW136611   2.627   0.140   7.262 -1.8332 -0.6325 -1.6733
 8383SOL    HW236612   2.517   0.136   7.346 -1.4701 -0.2188 -0.7022
 8384SOL     OW36613   4.396   1.554   5.796 -0.1710  0.3429  0.3803
 8384SOL    HW136614   4.429   1.583   5.711 -0.0212 -1.6306 -0.2456
 8384SOL    HW236615   4.307   1.589   5.789 -0.4671 -0.6451 -0.8547
 8385SOL     OW36616   3.471   0.248   5.425  0.3275 -0.3958 -0.3891
 8385SOL    HW136617   3.458   0.158   5.456 -1.7754 -0.9683 -2.8998
 8385SOL    HW236618   3.415   0.240   5.348 -2.9167  1.9394  1.7563
 8386SOL     OW36619   2.125   0.864   1.782  0.5108 -0.0814  0.7103
 8386SOL    HW136620   2.215   0.896   1.773  0.7497 -1.0775 -0.5408
 8386SOL    HW236621   2.087   0.910   1.857 -1.1086 -0.1516 -0.0865
 8387SOL     OW36622   2.545   3.643  12.559 -0.3028  0.2620 -0.4085
 8387SOL    HW136623   2.638   3.638  12.582 -0.8883 -1.0428  1.6398
 8387SOL    HW236624   2.504   3.703  12.620 -0.0283 -0.4801  0.4995
 8388SOL     OW36625   0.465   0.284   2.774  0.0022 -0.8501  0.5924
 8388SOL    HW136626   0.375   0.316   2.767  0.6856  0.6731 -1.1694
 8388SOL    HW236627   0.466   0.219   2.845 -0.7685  1.3289  2.6089
 8389SOL     OW36628   3.531   2.950   8.527  0.2921  0.7545  0.3302
 8389SOL    HW136629   3.582   2.883   8.573  0.4312 -0.6055 -1.8326
 8389SOL    HW236630   3.596   3.002   8.481 -0.2564  0.0366 -1.2429
 8390SOL     OW36631   0.364   0.419  12.068 -0.3140  0.0030  0.0424
 8390SOL    HW136632   0.414   0.500  12.079  2.7450 -1.7601 -1.0865
 8390SOL    HW236633   0.311   0.454  11.996 -1.7049 -1.4685  0.3617
 8391SOL     OW36634   1.118   0.245  13.302 -0.3080 -0.3799  0.0539
 8391SOL    HW136635   1.171   0.317  13.269 -1.2474 -0.1585 -0.9798
 8391SOL    HW236636   1.097   0.263  13.394  1.7363 -2.5886  0.9732
 8392SOL     OW36637   3.464   2.191   1.383  0.4590 -0.4712  0.0223
 8392SOL    HW136638   3.469   2.238   1.466  1.0030  0.5725 -0.6026
 8392SOL    HW236639   3.482   2.101   1.410 -0.1354 -0.3858  0.7174
 8393SOL     OW36640   2.683   2.906   3.743  0.2652  0.3087  0.2197
 8393SOL    HW136641   2.779   2.896   3.743  0.5680  3.3372  0.4110
 8393SOL    HW236642   2.668   2.839   3.810  1.3576 -1.3915 -1.2188
 8394SOL     OW36643   4.222   3.224   7.706 -0.2847  0.6098 -0.5448
 8394SOL    HW136644   4.240   3.148   7.652  1.0880  0.4477  0.1523
 8394SOL    HW236645   4.127   3.222   7.721 -0.3868  0.3415 -1.2409
 8395SOL     OW36646   1.349   0.160  14.634  0.2320 -0.3187 -0.1138
 8395SOL    HW136647   1.425   0.130  14.684  0.7940 -0.8902 -1.3016
 8395SOL    HW236648   1.343   0.090  14.569 -3.0761 -1.7549  1.7190
 8396SOL     OW36649   0.290   2.393  15.144 -0.1963 -0.4766  0.1613
 8396SOL    HW136650   0.222   2.456  15.119  0.6045 -0.2024 -1.3456
 8396SOL    HW236651   0.358   2.450  15.179 -0.0807  1.0459 -2.5894
 8397SOL     OW36652   4.359   4.707   7.775 -0.1643 -0.4552  0.2546
 8397SOL    HW136653   4.441   0.025   7.801 -0.5093 -0.1217  0.8020
 8397SOL    HW236654   4.368   4.716   7.680  3.7800 -2.0879  0.4657
 8398SOL     OW36655   4.274   3.186  14.941  0.3392  0.3187  0.1634
 8398SOL    HW136656   4.345   3.241  14.909  0.7031  0.0349  0.4779
 8398SOL    HW236657   4.210   3.256  14.947  0.0226 -0.1451  2.2111
 8399SOL     OW36658   2.656   4.210  11.743 -0.6412  0.4933 -0.0210
 8399SOL    HW136659   2.657   4.256  11.827 -2.6720  2.1459 -0.9019
 8399SOL    HW236660   2.574   4.246  11.709 -1.0499 -1.6448 -1.2817
 8400SOL     OW36661   3.209   3.276  11.975 -0.0669 -0.1690  0.1086
 8400SOL    HW136662   3.246   3.314  12.055  3.0772  2.5238 -2.6023
 8400SOL    HW236663   3.233   3.333  11.902 -1.1310  1.4457  1.0314
 8401SOL     OW36664   1.035   4.557   2.202  0.0652 -0.0019  0.0469
 8401SOL    HW136665   1.084   4.624   2.155 -1.2390  2.5165  2.2949
 8401SOL    HW236666   0.991   4.613   2.267  1.8929 -0.1954  1.4299
 8402SOL     OW36667   3.811   3.606   1.065 -0.2342  0.7859  0.4237
 8402SOL    HW136668   3.813   3.626   0.971 -0.1496  0.0230  0.2644
 8402SOL    HW236669   3.868   3.530   1.063  0.4694  1.3194 -0.0045
 8403SOL     OW36670   3.161   3.552  10.703 -0.8328 -0.0864 -0.0341
 8403SOL    HW136671   3.187   3.609  10.775  1.5463 -1.0049 -0.1721
 8403SOL    HW236672   3.159   3.467  10.747 -2.7283  0.9838  1.9517
 8404SOL     OW36673   0.990   2.446   8.074 -0.0388 -0.4900 -0.5149
 8404SOL    HW136674   0.989   2.351   8.088 -0.5460 -0.3525  0.3517
 8404SOL    HW236675   0.901   2.457   8.040 -0.2973 -1.3678 -0.1420
 8405SOL     OW36676   3.123   0.747   6.748 -0.1527 -0.2055  0.4902
 8405SOL    HW136677   3.143   0.799   6.825  1.6454 -1.7088  1.0444
 8405SOL    HW236678   3.204   0.706   6.717 -0.4935 -0.7406  0.2915
 8406SOL     OW36679   1.364   1.593   8.743  0.3507 -0.2009  0.2818
 8406SOL    HW136680   1.313   1.623   8.818  0.5507 -0.7289  0.6241
 8406SOL    HW236681   1.376   1.501   8.766  1.3013 -0.1076  0.1268
 8407SOL     OW36682   2.651   4.645   5.561 -0.2968  0.5839 -0.2168
 8407SOL    HW136683   2.609   4.592   5.494 -1.2801  1.0905 -0.0030
 8407SOL    HW236684   2.575   4.666   5.616 -0.1983 -0.9215  0.5079
 8408SOL     OW36685   0.218   4.098   9.157 -0.0289 -0.2505  0.5308
 8408SOL    HW136686   0.227   4.118   9.250 -0.5509 -0.4039  0.6115
 8408SOL    HW236687   0.149   4.034   9.174  0.0294 -0.5224 -0.2627
 8409SOL     OW36688   4.556   1.184   4.801 -0.5555 -0.3026  0.4279
 8409SOL    HW136689   4.523   1.259   4.850  4.1087  0.6449  2.0389
 8409SOL    HW236690   4.641   1.223   4.784 -1.1002  0.4183 -0.6610
 8410SOL     OW36691   3.017   3.425   5.507  0.3355  0.4855  0.0770
 8410SOL    HW136692   2.945   3.473   5.466  0.6346  0.6528 -0.2427
 8410SOL    HW236693   2.976   3.374   5.577 -0.1161 -0.1770 -0.6652
 8411SOL     OW36694   4.318   0.648   8.477 -0.1197  0.3264  0.4279
 8411SOL    HW136695   4.352   0.719   8.532 -0.6982  0.8722  0.0878
 8411SOL    HW236696   4.399   0.604   8.453 -1.1049 -2.1914  1.7815
 8412SOL     OW36697   0.517   1.035   5.328 -0.1452 -0.1716  0.3022
 8412SOL    HW136698   0.470   1.004   5.405  0.4027  2.0625  1.5402
 8412SOL    HW236699   0.443   1.042   5.268 -1.3941  0.6608  1.9444
 8413SOL     OW36700   0.802   1.601   5.385  0.0109 -0.6186 -0.2433
 8413SOL    HW136701   0.858   1.539   5.337 -0.5585  1.0127 -3.0408
 8413SOL    HW236702   0.862   1.641   5.448 -0.3645 -0.8536  0.2573
 8414SOL     OW36703   1.588   0.077   4.257  0.5350  0.1289 -0.1356
 8414SOL    HW136704   1.594   0.154   4.314  1.8498 -0.4272  0.4820
 8414SOL    HW236705   1.528   0.025   4.309  0.7739 -0.3416 -0.3337
 8415SOL     OW36706   4.208   1.144   8.174  0.1497 -0.3882  0.1922
 8415SOL    HW136707   4.227   1.130   8.081 -1.2585 -1.1867  0.0210
 8415SOL    HW236708   4.230   1.057   8.206 -0.9692 -1.1938 -1.2381
 8416SOL     OW36709   1.875   2.250   5.635  0.4431  0.5054 -0.5226
 8416SOL    HW136710   1.968   2.242   5.652  0.5619  0.2056 -1.3160
 8416SOL    HW236711   1.843   2.271   5.723  1.8868  1.3183 -0.1921
 8417SOL     OW36712   1.177   3.879  11.836  0.1331 -0.4809  0.1567
 8417SOL    HW136713   1.088   3.844  11.836 -0.1037  0.1234 -0.2466
 8417SOL    HW236714   1.230   3.800  11.823  1.0668 -0.0965  1.5739
 8418SOL     OW36715   1.986   3.903   0.591  0.0274 -0.3496  0.5471
 8418SOL    HW136716   1.992   3.926   0.684  1.0016 -0.0020  0.4093
 8418SOL    HW236717   2.028   3.817   0.592  1.3673  0.3099  0.7553
 8419SOL     OW36718   2.466   3.373   3.834  0.1618  0.0203 -0.3135
 8419SOL    HW136719   2.410   3.365   3.911  1.7210  0.5935  0.8746
 8419SOL    HW236720   2.438   3.462   3.810  0.7940  0.5568  0.9239
 8420SOL     OW36721   4.382   2.645   9.677 -0.1467  0.4966 -0.0237
 8420SOL    HW136722   4.448   2.681   9.736  0.1348  1.3320 -0.8553
 8420SOL    HW236723   4.399   2.697   9.599  1.3426 -1.1367 -0.7763
 8421SOL     OW36724   4.512   2.750   7.226  0.3086  0.1388 -0.4532
 8421SOL    HW136725   4.552   2.742   7.139  3.9797  2.3729  1.0359
 8421SOL    HW236726   4.452   2.822   7.209 -0.9134 -0.9434 -0.7101
 8422SOL     OW36727   0.045   4.440   5.762 -0.2458  0.0778  0.9143
 8422SOL    HW136728   0.046   4.535   5.756  0.3376  0.0350  0.3922
 8422SOL    HW236729   4.722   4.422   5.682  0.9950  0.9182 -0.0394
 8423SOL     OW36730   3.519   0.615   2.662  0.2786 -0.2825 -0.2154
 8423SOL    HW136731   3.497   0.677   2.731 -0.6277 -0.3187 -0.4696
 8423SOL    HW236732   3.613   0.603   2.674  0.5354  0.0207 -1.8313
 8424SOL     OW36733   4.302   1.352  17.123 -0.2441  0.4385  0.2638
 8424SOL    HW136734   4.255   1.298  17.187  1.8847 -2.9143 -1.0255
 8424SOL    HW236735   4.301   1.437  17.167 -0.9005 -0.1355  1.3525
 8425SOL     OW36736   3.795   2.954  14.703  0.1087 -0.4366  0.0619
 8425SOL    HW136737   3.780   2.896  14.629  1.2291 -1.0584  0.3198
 8425SOL    HW236738   3.710   2.999  14.700  0.0211 -0.6661 -0.7407
 8426SOL     OW36739   3.710   1.976   9.887  0.7584 -0.1548 -0.5599
 8426SOL    HW136740   3.779   2.014   9.834  1.5836  0.6166  1.0640
 8426SOL    HW236741   3.691   1.895   9.840 -0.3000 -0.1142 -0.2052
 8427SOL     OW36742   3.973   0.120   6.620 -0.3489 -0.8632  0.4479
 8427SOL    HW136743   3.920   0.193   6.588 -0.4172 -1.3398 -0.5496
 8427SOL    HW236744   4.049   0.165   6.657  0.2353 -1.2201 -0.3133
 8428SOL     OW36745   3.542   2.783   8.910 -0.4836  0.0898  0.1796
 8428SOL    HW136746   3.451   2.764   8.888  1.3458 -4.2931 -3.5239
 8428SOL    HW236747   3.553   2.873   8.877  1.2273  0.4289  1.7078
 8429SOL     OW36748   4.123   0.604  13.382 -0.2720  0.1581  0.1137
 8429SOL    HW136749   4.208   0.625  13.342 -0.6274  0.6749 -0.3709
 8429SOL    HW236750   4.121   0.508  13.378  0.7393  0.1033  0.8281
 8430SOL     OW36751   3.506   1.494   9.430  0.3885  0.5284 -0.1905
 8430SOL    HW136752   3.601   1.505   9.440  0.4847 -0.3714 -0.0909
 8430SOL    HW236753   3.484   1.458   9.516 -1.9918 -2.8368 -2.1724
 8431SOL     OW36754   3.835   4.348   7.350 -0.4543  0.2596 -0.6376
 8431SOL    HW136755   3.831   4.418   7.285 -0.6460  1.3991  0.6069
 8431SOL    HW236756   3.745   4.322   7.367  0.7850 -3.5350  0.1733
 8432SOL     OW36757   1.629   0.665   9.583 -0.4813  0.7225 -0.2472
 8432SOL    HW136758   1.687   0.593   9.555 -1.3598  0.0527 -0.3427
 8432SOL    HW236759   1.669   0.736   9.533 -0.8957  0.0300 -1.5649
 8433SOL     OW36760   0.142   1.212   8.406 -0.0664  0.5174 -0.4227
 8433SOL    HW136761   0.062   1.173   8.442  0.6156  0.0071  0.5719
 8433SOL    HW236762   0.153   1.294   8.454  1.1252 -0.1048  0.3729
 8434SOL     OW36763   3.130   0.042   9.130  0.5794 -0.4704 -0.2065
 8434SOL    HW136764   3.054   0.087   9.095  1.1038  0.7816  0.2652
 8434SOL    HW236765   3.157   4.715   9.055 -0.0931 -0.0313 -0.7498
 8435SOL     OW36766   2.904   1.174  16.600 -0.6189 -0.4830  0.2334
 8435SOL    HW136767   2.948   1.259  16.593  0.5305 -1.0807  0.2069
 8435SOL    HW236768   2.969   1.122  16.648 -2.6040 -0.1177  3.3182
 8436SOL     OW36769   3.310   2.979   8.669 -0.7878 -0.1754  0.2165
 8436SOL    HW136770   3.401   2.969   8.639 -0.9078 -1.3142  0.2459
 8436SOL    HW236771   3.273   3.028   8.595 -1.0285  0.1273  0.5364
 8437SOL     OW36772   1.308   1.773   8.285  0.1667 -0.2005 -0.7153
 8437SOL    HW136773   1.377   1.726   8.331  0.5416 -0.3002 -1.3810
 8437SOL    HW236774   1.294   1.729   8.201  1.0124 -0.2307 -0.8399
 8438SOL     OW36775   2.691   2.547   6.262  0.6882 -0.0642  0.6300
 8438SOL    HW136776   2.721   2.482   6.199  1.1503 -0.1259  0.9172
 8438SOL    HW236777   2.720   2.625   6.216 -0.2583  0.8812  1.6356
 8439SOL     OW36778   0.820   1.052   2.230 -0.9035 -0.4268  0.1232
 8439SOL    HW136779   0.812   1.031   2.137  0.3471  1.9910 -0.5149
 8439SOL    HW236780   0.779   0.973   2.264 -0.5232 -0.8419 -0.3758
 8440SOL     OW36781   3.263   4.605   8.804  0.1405  0.0962  0.3905
 8440SOL    HW136782   3.286   4.585   8.895  0.0748 -1.7801 -0.0051
 8440SOL    HW236783   3.289   4.697   8.807  1.7194 -0.4178  2.1946
 8441SOL     OW36784   2.396   3.860   6.909  0.1869 -0.3017 -0.3083
 8441SOL    HW136785   2.427   3.932   6.854  0.5081  0.9135  1.4702
 8441SOL    HW236786   2.461   3.790   6.912  0.0314 -0.4580 -0.5771
 8442SOL     OW36787   0.043   1.774   9.638  0.4014  0.4285  0.4400
 8442SOL    HW136788   4.713   1.845   9.671  0.6559  0.3871  0.9478
 8442SOL    HW236789   0.115   1.785   9.699 -0.9083 -0.8849  2.1914
 8443SOL     OW36790   2.588   3.838   3.845  0.1152  0.3364  0.2613
 8443SOL    HW136791   2.564   3.923   3.881  3.3002  1.8484 -1.1597
 8443SOL    HW236792   2.655   3.872   3.785 -0.4822  1.9546  0.5319
 8444SOL     OW36793   0.666   4.007   3.574  0.2081  0.1746  0.3970
 8444SOL    HW136794   0.743   4.056   3.601  0.7144 -0.3649 -0.0521
 8444SOL    HW236795   0.613   4.076   3.534 -1.4589 -1.4312 -0.2136
 8445SOL     OW36796   2.109   1.251   9.695  0.1337 -0.1179 -0.3518
 8445SOL    HW136797   2.085   1.344   9.686  1.1380  0.0474 -1.2503
 8445SOL    HW236798   2.025   1.205   9.700 -0.4889  1.1533  1.0948
 8446SOL     OW36799   2.162   2.692   6.688 -0.7525 -0.1878  0.0328
 8446SOL    HW136800   2.068   2.688   6.705 -1.0936  1.4807 -1.4816
 8446SOL    HW236801   2.198   2.744   6.760  0.6079 -2.6361  1.1282
 8447SOL     OW36802   3.487   3.530   6.424  0.2233 -0.2097  0.3325
 8447SOL    HW136803   3.479   3.560   6.333 -0.6583 -1.8326 -0.1407
 8447SOL    HW236804   3.581   3.548   6.433  0.4228 -2.1557  2.1185
 8448SOL     OW36805   4.715   2.328   7.891 -0.1475  0.2459 -0.4023
 8448SOL    HW136806   0.064   2.270   7.884 -0.3823  0.0919 -1.5568
 8448SOL    HW236807   4.634   2.278   7.880  1.8202 -2.5180 -2.1225
 8449SOL     OW36808   2.892   1.140   5.112 -0.3584 -0.1698 -0.5368
 8449SOL    HW136809   2.799   1.133   5.090 -1.1187  1.3957  2.1721
 8449SOL    HW236810   2.911   1.049   5.133  0.8803  0.1363 -0.3375
 8450SOL     OW36811   3.348   1.756   3.680  0.2347 -0.3629 -0.3653
 8450SOL    HW136812   3.425   1.739   3.626  0.1771 -2.3972  0.2169
 8450SOL    HW236813   3.296   1.678   3.661  1.6158 -0.9109 -1.9234
 8451SOL     OW36814   2.575   1.216   2.581  0.5701  0.4622 -0.5489
 8451SOL    HW136815   2.567   1.223   2.676  1.3433  2.7776 -0.6568
 8451SOL    HW236816   2.490   1.253   2.558 -0.0935 -1.3337 -0.9654
 8452SOL     OW36817   2.865   2.324   6.662  0.5192  0.3271  0.1398
 8452SOL    HW136818   2.790   2.359   6.614  0.5436 -1.1034 -0.9634
 8452SOL    HW236819   2.840   2.343   6.752 -0.5007 -1.3376  0.2086
 8453SOL     OW36820   0.810   2.332   4.589  0.2975  0.0540  0.3699
 8453SOL    HW136821   0.750   2.306   4.519  1.2833  1.1089 -0.8529
 8453SOL    HW236822   0.891   2.285   4.573 -0.5831 -1.1038 -0.6558
 8454SOL     OW36823   1.520   0.868   3.489 -0.9000 -0.3751 -0.2351
 8454SOL    HW136824   1.563   0.863   3.574 -0.7509 -1.1448 -0.3545
 8454SOL    HW236825   1.572   0.804   3.441 -1.9043 -2.1715  1.1165
 8455SOL     OW36826   0.836   1.133   4.798 -0.8516 -0.5637  0.0275
 8455SOL    HW136827   0.822   1.113   4.705 -2.4967 -0.6980  0.3195
 8455SOL    HW236828   0.800   1.220   4.815 -1.1307 -0.6398 -0.1794
 8456SOL     OW36829   4.556   1.852   4.299  0.6765  0.6223 -0.3616
 8456SOL    HW136830   4.527   1.861   4.390 -0.3926  3.0205 -0.9281
 8456SOL    HW236831   4.488   1.788   4.276  0.3637  0.8548 -0.0961
 8457SOL     OW36832   0.579   0.785  15.267  0.6305 -0.3815 -0.3565
 8457SOL    HW136833   0.525   0.844  15.215  0.7952  0.0019 -0.0947
 8457SOL    HW236834   0.523   0.708  15.259 -0.4351  0.1615  1.7395
 8458SOL     OW36835   3.034   1.615   8.407 -0.3182 -0.7297 -0.0637
 8458SOL    HW136836   3.029   1.569   8.491 -0.5902 -0.4364  0.0796
 8458SOL    HW236837   2.986   1.696   8.426  0.3922 -0.1570 -0.7422
 8459SOL     OW36838   0.644   1.368   1.638 -0.0929  0.3356 -0.0099
 8459SOL    HW136839   0.705   1.439   1.619 -0.1504 -0.0075 -1.5038
 8459SOL    HW236840   0.581   1.419   1.688 -1.4218 -1.3988  0.0925
 8460SOL     OW36841   4.703   0.990   9.486  0.3288 -0.1476 -0.0942
 8460SOL    HW136842   0.007   0.936   9.413  1.1853 -0.2176  0.3077
 8460SOL    HW236843   4.615   0.999   9.450  0.2584 -2.6919 -0.5532
 8461SOL     OW36844   0.142   2.555   8.109  0.3169  0.4643  0.0570
 8461SOL    HW136845   0.147   2.566   8.014 -0.1781 -1.9645 -0.2522
 8461SOL    HW236846   0.196   2.477   8.125 -0.6706 -0.4287 -0.9782
 8462SOL     OW36847   3.383   0.556   3.644 -0.0321 -0.7472  0.3140
 8462SOL    HW136848   3.374   0.613   3.568  1.1548  1.1731  1.6177
 8462SOL    HW236849   3.338   0.477   3.615  0.6637 -0.8091 -0.5911
 8463SOL     OW36850   1.229   3.345  14.898  0.3666  0.0357  0.1322
 8463SOL    HW136851   1.323   3.350  14.882  0.2782  0.4286 -0.2784
 8463SOL    HW236852   1.217   3.406  14.970  3.8811  0.5205  0.2945
 8464SOL     OW36853   2.852   2.082   7.994  0.2749  0.1757  0.2742
 8464SOL    HW136854   2.770   2.037   7.977  0.7863 -0.3885 -0.6876
 8464SOL    HW236855   2.914   2.011   8.011  0.6761  1.0410  2.5037
 8465SOL     OW36856   0.147   4.172   4.659 -0.0186 -0.0397 -0.3736
 8465SOL    HW136857   0.135   4.209   4.746  1.5465 -1.0518  0.2615
 8465SOL    HW236858   0.162   4.252   4.608  0.4295  1.0311  1.4349
 8466SOL     OW36859   3.340   0.929   9.041  0.4230 -0.6194 -1.2001
 8466SOL    HW136860   3.365   1.021   9.039  1.6824 -0.9702 -1.5837
 8466SOL    HW236861   3.308   0.915   9.130  1.7616 -1.4939 -0.8487
 8467SOL     OW36862   0.609   4.505   5.719 -0.0943  0.2015  0.0601
 8467SOL    HW136863   0.576   4.437   5.779 -0.6418  1.6671  1.4112
 8467SOL    HW236864   0.550   4.481   5.647 -0.8720  2.5070 -0.0629
 8468SOL     OW36865   2.974   3.131   3.895 -0.0918 -0.3519 -0.0800
 8468SOL    HW136866   2.902   3.179   3.856  0.6956 -0.5524 -1.7587
 8468SOL    HW236867   2.967   3.046   3.852 -0.7945 -0.3663  0.0632
 8469SOL     OW36868   3.832   0.479   2.740  0.0465  1.1362 -0.1687
 8469SOL    HW136869   3.831   0.575   2.736 -0.3070  1.1235 -0.3969
 8469SOL    HW236870   3.864   0.461   2.652  1.8751  0.9271  0.5487
 8470SOL     OW36871   1.782   3.600   9.417  0.4373  0.2205  0.3626
 8470SOL    HW136872   1.692   3.578   9.390  0.2448  1.6807 -0.1719
 8470SOL    HW236873   1.791   3.693   9.400 -0.2629 -0.5773 -4.4688
 8471SOL     OW36874   1.589   0.756  14.131 -0.2732  0.0809  0.0748
 8471SOL    HW136875   1.593   0.728  14.223 -0.6990  1.1936  0.4318
 8471SOL    HW236876   1.533   0.833  14.140  0.9664  0.7971  1.6241
 8472SOL     OW36877   4.201   2.158   7.726 -0.2920  0.3937 -0.6484
 8472SOL    HW136878   4.166   2.135   7.811 -1.0475  1.8596 -0.5564
 8472SOL    HW236879   4.125   2.158   7.668  0.0104  1.5750 -1.0481
 8473SOL     OW36880   2.733   3.224  12.201 -0.5229  0.0896 -0.4715
 8473SOL    HW136881   2.744   3.301  12.257  0.5885  0.7949 -1.6707
 8473SOL    HW236882   2.806   3.242  12.143  0.9826 -1.7452  0.8498
 8474SOL     OW36883   4.158   0.337   2.291 -0.5694  0.0347 -0.0929
 8474SOL    HW136884   4.120   0.279   2.357 -0.2481  1.0027  0.9369
 8474SOL    HW236885   4.253   0.327   2.300 -0.4403 -0.6048 -2.0841
 8475SOL     OW36886   1.377   4.621   0.272 -0.5534  0.0170 -0.3219
 8475SOL    HW136887   1.369   4.607   0.366 -1.2224 -2.1510 -0.6970
 8475SOL    HW236888   1.317   4.552   0.244 -2.1583  1.9007 -1.5313
 8476SOL     OW36889   2.534   0.408  14.713 -0.2365 -0.4218 -0.1458
 8476SOL    HW136890   2.449   0.444  14.690  0.6766  1.1011 -1.1301
 8476SOL    HW236891   2.562   0.345  14.647 -0.4547 -1.2581  0.5507
 8477SOL     OW36892   0.537   3.950   9.075  0.3754 -0.2096 -0.1263
 8477SOL    HW136893   0.582   3.865   9.071 -0.6102 -0.7272 -0.1680
 8477SOL    HW236894   0.488   3.936   9.156 -2.0738 -0.1170 -1.6109
 8478SOL     OW36895   0.822   2.597   6.965 -0.0757  0.4300 -0.1746
 8478SOL    HW136896   0.726   2.595   6.964 -0.0723  0.3282 -0.4110
 8478SOL    HW236897   0.837   2.536   7.037  1.0219  1.5940  0.5716
 8479SOL     OW36898   2.001   0.728   5.819 -0.0011 -0.4814  0.1061
 8479SOL    HW136899   2.079   0.781   5.804 -0.8691  0.6678 -0.2936
 8479SOL    HW236900   1.939   0.788   5.859 -1.5639 -0.9228 -1.6407
 8480SOL     OW36901   4.490   0.059   6.880  0.1156 -0.2482 -0.4068
 8480SOL    HW136902   4.478   0.074   6.786 -0.0475 -0.0627 -0.3558
 8480SOL    HW236903   4.520   0.145   6.911 -0.6628  0.3094 -1.2181
 8481SOL     OW36904   1.151   4.562   1.142  0.1401  0.0581  0.6697
 8481SOL    HW136905   1.214   4.633   1.124  1.6175 -1.2678  0.5755
 8481SOL    HW236906   1.065   4.587   1.109  1.0396 -0.3280 -1.9572
 8482SOL     OW36907   2.517   3.870   6.334  0.1847  0.3141 -0.1967
 8482SOL    HW136908   2.539   3.958   6.366  2.1051 -0.6619  1.1883
 8482SOL    HW236909   2.605   3.835   6.316 -0.0626 -0.3946 -0.0257
 8483SOL     OW36910   3.566   1.924  10.123 -0.2341  0.0511 -0.3753
 8483SOL    HW136911   3.633   1.921  10.054 -0.3199 -0.3547 -0.4364
 8483SOL    HW236912   3.528   1.837  10.112  2.2882 -1.0974 -0.1415
 8484SOL     OW36913   1.663   0.955   4.488  0.2032 -0.1582 -0.2837
 8484SOL    HW136914   1.660   0.866   4.522  1.5956 -0.1138 -0.0692
 8484SOL    HW236915   1.657   1.018   4.560 -0.6846 -0.5543 -0.0127
 8485SOL     OW36916   3.122   0.370  10.636 -0.2281  0.1708  0.1351
 8485SOL    HW136917   3.178   0.423  10.580  1.6037  0.1038  1.9256
 8485SOL    HW236918   3.152   0.287  10.598 -0.6352 -0.7070  1.7189
 8486SOL     OW36919   3.066   0.140  10.816  0.7419  0.4462  0.0521
 8486SOL    HW136920   3.120   0.219  10.817 -0.2495  1.1073  1.2018
 8486SOL    HW236921   3.135   0.074  10.817  0.2830  0.0025  1.8888
 8487SOL     OW36922   3.468   3.528  11.079 -0.4747 -0.1996 -0.6149
 8487SOL    HW136923   3.548   3.476  11.092 -0.7086 -0.1264  1.1745
 8487SOL    HW236924   3.509   3.614  11.071 -0.7993  0.0248  0.1288
 8488SOL     OW36925   1.700   3.871   6.550  0.0195 -0.8046  0.4132
 8488SOL    HW136926   1.747   3.789   6.561 -0.0731 -0.8067  0.8118
 8488SOL    HW236927   1.618   3.850   6.596  0.7485 -1.3828  1.4505
 8489SOL     OW36928   2.124   2.714   8.370  0.1405  0.7134 -0.0690
 8489SOL    HW136929   2.203   2.742   8.325  0.4316  1.6573  1.0115
 8489SOL    HW236930   2.072   2.793   8.355  2.0816  1.6061 -1.9401
 8490SOL     OW36931   3.800   1.989  14.800  0.3806  0.2342  0.9131
 8490SOL    HW136932   3.734   2.052  14.769  0.4592  0.0537  0.3901
 8490SOL    HW236933   3.884   2.026  14.774 -0.1822  0.3833 -0.7158
 8491SOL     OW36934   4.156   3.218   6.850  0.6496 -0.1904 -0.3294
 8491SOL    HW136935   4.165   3.136   6.899 -2.0385  1.0602  2.2391
 8491SOL    HW236936   4.174   3.285   6.916 -0.5934 -2.2174  2.0757
 8492SOL     OW36937   3.528   4.242  15.895 -0.7541 -0.6286  0.0299
 8492SOL    HW136938   3.527   4.230  15.800  1.4714 -1.1555  0.0779
 8492SOL    HW236939   3.511   4.335  15.908 -1.2919 -0.6584 -0.4449
 8493SOL     OW36940   2.073   2.967   6.038  0.1466 -0.2537 -0.2702
 8493SOL    HW136941   2.153   2.913   6.038  0.2220 -0.1503  0.2493
 8493SOL    HW236942   2.023   2.923   6.107 -0.2819 -1.0836 -1.1186
 8494SOL     OW36943   1.537   0.066  11.522 -0.7221  0.2241  0.1764
 8494SOL    HW136944   1.515   4.717  11.467  0.3640 -0.6800  0.9709
 8494SOL    HW236945   1.601   0.032  11.585 -0.0529 -1.7167 -1.5564
 8495SOL     OW36946   0.629   0.094   5.514  0.4963 -0.1485  0.4845
 8495SOL    HW136947   0.681   0.042   5.576 -0.6628 -4.2620 -2.0255
 8495SOL    HW236948   0.659   0.055   5.432 -0.6830 -0.7902  0.3719
 8496SOL     OW36949   3.655   1.013  12.715  0.1143  0.2541  0.0270
 8496SOL    HW136950   3.658   1.085  12.778  1.3227 -0.1108  0.3948
 8496SOL    HW236951   3.751   1.006  12.719  0.0394 -0.3150  0.7559
 8497SOL     OW36952   0.910   4.056   5.591 -0.5476  0.0335 -0.4457
 8497SOL    HW136953   0.834   4.031   5.538  0.3783 -2.1542 -0.7563
 8497SOL    HW236954   0.930   4.141   5.554  0.1275 -0.6773 -1.7260
 8498SOL     OW36955   4.305   1.246   4.288 -0.7638  0.1426 -0.1453
 8498SOL    HW136956   4.362   1.304   4.238 -2.2712 -0.7222 -2.9138
 8498SOL    HW236957   4.347   1.161   4.275  0.5064  0.3314  2.7834
 8499SOL     OW36958   3.589   1.799  10.488 -0.0581 -0.2256  0.4051
 8499SOL    HW136959   3.549   1.736  10.549 -0.7920 -1.5658 -1.4400
 8499SOL    HW236960   3.606   1.737  10.417 -0.3656 -0.5667  0.6305
 8500SOL     OW36961   0.088   0.549   9.245 -0.2075 -0.0561  0.5992
 8500SOL    HW136962   0.063   0.457   9.235  1.6787 -0.4433 -0.5710
 8500SOL    HW236963   0.180   0.543   9.272  0.5100  1.9235 -1.4058
 8501SOL     OW36964   3.878   0.732  13.335 -0.5634  0.1394  0.1463
 8501SOL    HW136965   3.959   0.686  13.356 -0.9702 -0.0184  1.3398
 8501SOL    HW236966   3.899   0.819  13.369 -1.6978  1.3486 -2.2193
 8502SOL     OW36967   2.855   1.330   7.638  0.1386  0.1210 -0.0954
 8502SOL    HW136968   2.796   1.255   7.647 -0.8118  0.8482 -0.2952
 8502SOL    HW236969   2.827   1.370   7.556 -1.0216 -0.7036 -0.0902
 8503SOL     OW36970   2.410   2.753   9.651  0.3129  0.4269  0.5554
 8503SOL    HW136971   2.445   2.756   9.562  3.0412 -1.4145  1.5410
 8503SOL    HW236972   2.318   2.734   9.634  0.8501 -0.1005 -1.8529
 8504SOL     OW36973   1.622   2.250  14.341  0.4619 -0.0660  0.0072
 8504SOL    HW136974   1.661   2.163  14.339 -1.7263 -1.1207  2.0793
 8504SOL    HW236975   1.527   2.238  14.333  0.0426  1.3015  2.6253
 8505SOL     OW36976   2.677   0.855   6.608  0.4041  0.4457  0.6308
 8505SOL    HW136977   2.728   0.929   6.642  2.1682 -0.5566  0.1454
 8505SOL    HW236978   2.739   0.784   6.623 -0.2656 -0.0631  0.9850
 8506SOL     OW36979   3.215   4.289   3.013 -0.0390  0.0277  0.6703
 8506SOL    HW136980   3.307   4.297   2.989 -0.1216 -2.9120 -0.6529
 8506SOL    HW236981   3.210   4.193   3.011 -0.6553  0.0449  1.2575
 8507SOL     OW36982   2.783   2.573   6.895 -0.0073  0.4136  0.2551
 8507SOL    HW136983   2.743   2.543   6.977  1.8078 -1.9781  0.2701
 8507SOL    HW236984   2.866   2.524   6.891 -0.3970 -0.3776  2.0435
 8508SOL     OW36985   2.616   0.297   8.561  0.0307 -0.3051 -0.2847
 8508SOL    HW136986   2.600   0.228   8.626 -2.9124  0.5182 -0.1274
 8508SOL    HW236987   2.695   0.332   8.601 -0.1284 -0.3701  0.0819
 8509SOL     OW36988   3.694   1.294  11.792 -0.1947  0.3434  0.3632
 8509SOL    HW136989   3.666   1.205  11.812 -4.1873  1.6180  0.3072
 8509SOL    HW236990   3.625   1.345  11.834 -1.7683 -1.2907 -0.2662
 8510SOL     OW36991   2.078   3.800   9.045 -0.6505  0.0599 -0.5471
 8510SOL    HW136992   2.113   3.714   9.067  2.0904  0.7658 -2.1574
 8510SOL    HW236993   2.107   3.819   8.955  0.7399  0.1797 -0.0663
 8511SOL     OW36994   0.112   1.610  12.666  0.1094  0.6006  0.7169
 8511SOL    HW136995   0.091   1.702  12.679  0.1579  1.0301 -2.3597
 8511SOL    HW236996   0.109   1.603  12.571  1.0227 -3.0408  0.9291
 8512SOL     OW36997   2.322   0.973   2.437 -0.7011  0.1011 -0.1979
 8512SOL    HW136998   2.355   1.062   2.452  2.0877 -0.7519 -1.3040
 8512SOL    HW236999   2.264   0.992   2.363 -0.7237 -0.6701 -0.3805
 8513SOL     OW37000   2.229   2.358  10.740 -0.1029  0.0546  0.0146
 8513SOL    HW137001   2.294   2.308  10.690  0.7724 -0.1486  1.3696
 8513SOL    HW237002   2.150   2.368  10.686  1.2024 -0.1406 -1.9242
 8514SOL     OW37003   2.454   0.380  10.100  0.5669 -0.7176 -0.1689
 8514SOL    HW137004   2.488   0.465  10.128 -1.2989 -0.2600  0.7482
 8514SOL    HW237005   2.420   0.351  10.185  1.7125 -0.7835  0.2708
 8515SOL     OW37006   1.057   4.327   4.349 -0.0415 -0.3906  0.2365
 8515SOL    HW137007   1.009   4.380   4.285  0.4937 -1.7983 -1.3389
 8515SOL    HW237008   1.095   4.400   4.398 -1.6786  0.0336  0.8790
 8516SOL     OW37009   0.400   0.597  15.850 -0.1742 -0.0878  0.5392
 8516SOL    HW137010   0.335   0.647  15.802 -2.8153 -1.9018  2.2429
 8516SOL    HW237011   0.471   0.658  15.828  1.2497 -0.5521  3.8124
 8517SOL     OW37012   2.293   0.451   2.386  0.0819  0.2375 -0.0858
 8517SOL    HW137013   2.225   0.456   2.318  0.0174  1.7957  0.0959
 8517SOL    HW237014   2.366   0.483   2.334 -0.5090  2.1352  0.2441
 8518SOL     OW37015   0.227   4.383   2.999  0.6626  0.1184 -0.0024
 8518SOL    HW137016   0.203   4.309   3.055  2.6906 -0.4719  0.0991
 8518SOL    HW237017   0.203   4.464   3.044  0.6546 -0.8125  1.6649
 8519SOL     OW37018   0.716   1.937   2.490  0.2088  0.4425  0.1067
 8519SOL    HW137019   0.797   1.947   2.539 -0.9895 -1.4061  2.4971
 8519SOL    HW237020   0.743   1.940   2.399 -0.0254  1.0690  0.0582
 8520SOL     OW37021   1.744   0.601  13.629  0.3082  0.2243  0.2464
 8520SOL    HW137022   1.714   0.689  13.651  0.2982  0.7796 -1.9763
 8520SOL    HW237023   1.684   0.542  13.674 -1.6961  1.2694 -1.0206
 8521SOL     OW37024   3.188   4.381   6.525  0.4547  0.5481 -0.1785
 8521SOL    HW137025   3.219   4.464   6.562  1.2778 -0.4780  1.4783
 8521SOL    HW237026   3.246   4.324   6.576  0.8179  0.5617 -0.5752
 8522SOL     OW37027   0.444   2.483   6.298  0.0881  0.1429 -0.4181
 8522SOL    HW137028   0.483   2.400   6.325  2.8762  2.1228  1.7203
 8522SOL    HW237029   0.369   2.450   6.249  0.8548 -1.3850 -0.5702
 8523SOL     OW37030   0.329   1.216   4.244 -0.2736  0.0536  0.7833
 8523SOL    HW137031   0.330   1.295   4.299 -1.9170  0.7709 -0.2115
 8523SOL    HW237032   0.358   1.154   4.310 -0.2227 -1.5346 -0.7528
 8524SOL     OW37033   3.503   2.775   5.409  0.5736 -0.0366 -0.4508
 8524SOL    HW137034   3.553   2.714   5.355  1.4545  1.1430 -0.9572
 8524SOL    HW237035   3.529   2.733   5.491  2.6598 -2.0822 -2.1834
 8525SOL     OW37036   3.325   0.329   3.838 -0.0970 -0.4203  0.3100
 8525SOL    HW137037   3.309   0.412   3.793  2.2431 -1.0081 -1.6476
 8525SOL    HW237038   3.345   0.267   3.767  0.6882 -1.2525  1.2700
 8526SOL     OW37039   3.584   1.076   0.642  0.3219 -0.1751  0.1323
 8526SOL    HW137040   3.655   1.043   0.587  1.2563 -0.2862  1.4051
 8526SOL    HW237041   3.638   1.145   0.680 -0.5253  1.7715 -2.2013
 8527SOL     OW37042   2.443   1.086   2.141  0.4163 -0.2192 -0.6791
 8527SOL    HW137043   2.475   1.144   2.072 -0.3652  1.8188  0.6848
 8527SOL    HW237044   2.373   1.141   2.175 -0.2481 -1.2349 -0.3909
 8528SOL     OW37045   3.242   2.080   8.583 -0.7061 -0.4587 -0.2226
 8528SOL    HW137046   3.237   1.994   8.543  0.6050 -0.6377 -0.0052
 8528SOL    HW237047   3.180   2.125   8.526 -0.2849  0.2423 -0.1295
 8529SOL     OW37048   3.145   3.566  12.140 -0.1535  0.1351 -0.4592
 8529SOL    HW137049   3.234   3.531  12.133 -0.4131 -0.6273 -0.0141
 8529SOL    HW237050   3.159   3.631  12.209 -0.6774  0.5155 -0.7175
 8530SOL     OW37051   2.641   0.409   2.441  0.1859 -0.2352  0.0211
 8530SOL    HW137052   2.653   0.503   2.454 -2.0865  0.0150  0.1717
 8530SOL    HW237053   2.571   0.411   2.376  0.8535 -0.4159 -0.7026
 8531SOL     OW37054   4.464   2.592   3.191 -0.2850 -0.0499 -0.5057
 8531SOL    HW137055   4.444   2.589   3.097 -0.1569 -0.3393 -0.5242
 8531SOL    HW237056   4.398   2.656   3.217 -0.6861 -0.6262 -0.0980
 8532SOL     OW37057   4.147   4.554   2.054  0.1314  0.5513  0.0838
 8532SOL    HW137058   4.237   4.525   2.037 -1.2236 -2.4731 -1.9600
 8532SOL    HW237059   4.115   4.469   2.084  0.6921  0.1037 -0.5715
 8533SOL     OW37060   4.615   0.893   8.642 -0.1538 -0.6907  0.0655
 8533SOL    HW137061   4.705   0.869   8.619  0.7682  3.0257 -0.2175
 8533SOL    HW237062   4.609   0.862   8.733 -0.6486 -0.4005  0.1300
 8534SOL     OW37063   0.026   0.799   4.755  0.4899  0.3092 -0.7375
 8534SOL    HW137064   0.062   0.766   4.837 -3.4391 -2.4558 -0.1495
 8534SOL    HW237065   4.719   0.720   4.713  3.0026 -0.0756 -1.9674
 8535SOL     OW37066   1.614   4.447   9.423  0.0616 -0.0862 -0.6596
 8535SOL    HW137067   1.546   4.441   9.356  1.2674  0.2154 -1.8935
 8535SOL    HW237068   1.624   4.357   9.455  0.6108  1.8848  4.8136
 8536SOL     OW37069   1.154   1.302   4.401  0.3995  0.0112 -0.0679
 8536SOL    HW137070   1.187   1.220   4.364 -2.1911 -0.5164 -1.2660
 8536SOL    HW237071   1.069   1.308   4.357 -0.7654 -1.1929  1.9712
 8537SOL     OW37072   3.158   0.710  16.141  0.2240 -0.1402 -0.0916
 8537SOL    HW137073   3.123   0.795  16.165 -2.2434 -0.6718 -1.7642
 8537SOL    HW237074   3.127   0.713  16.051  2.7721  1.0789 -0.9238
 8538SOL     OW37075   3.298   3.474   7.511  0.3811  0.1063  0.3983
 8538SOL    HW137076   3.383   3.472   7.468  0.7565 -0.5981  1.1828
 8538SOL    HW237077   3.313   3.564   7.542 -0.2220  0.8879 -1.5971
 8539SOL     OW37078   4.148   2.924   5.669  0.4020  0.1478  0.1447
 8539SOL    HW137079   4.097   2.884   5.598  1.5596 -1.4990  0.2336
 8539SOL    HW237080   4.227   2.961   5.630 -0.3264 -0.0026 -1.4473
 8540SOL     OW37081   3.330   0.179   4.452 -0.7096  0.2643  0.2918
 8540SOL    HW137082   3.317   0.164   4.359 -2.0141 -1.4911  0.7433
 8540SOL    HW237083   3.406   0.237   4.458  0.3757 -1.3908  2.5005
 8541SOL     OW37084   1.116   2.822   0.556 -0.0134  0.5282  0.0815
 8541SOL    HW137085   1.040   2.770   0.584 -1.2926  2.5832  0.4536
 8541SOL    HW237086   1.179   2.754   0.534  1.0789  1.2489  0.9687
 8542SOL     OW37087   1.265   2.174   1.872  0.5433 -0.0527 -0.6304
 8542SOL    HW137088   1.192   2.210   1.923  0.1566 -2.0108  0.2357
 8542SOL    HW237089   1.257   2.079   1.884  1.1517 -0.0883 -0.5389
 8543SOL     OW37090   2.211   3.962   8.202  0.2714 -0.0077 -0.2140
 8543SOL    HW137091   2.199   4.051   8.237 -2.4924  0.0920 -1.3924
 8543SOL    HW237092   2.306   3.953   8.203  0.1961 -1.2127 -2.8484
 8544SOL     OW37093   2.424   3.389   6.391 -0.4120  0.0013 -0.0190
 8544SOL    HW137094   2.426   3.403   6.296  1.6163 -0.8950 -0.1083
 8544SOL    HW237095   2.390   3.474   6.419  1.6790  1.2690 -1.2719
 8545SOL     OW37096   2.633   0.191   0.397 -1.0501  0.4386  0.0007
 8545SOL    HW137097   2.667   0.217   0.312 -3.7786 -1.4851 -1.6558
 8545SOL    HW237098   2.538   0.201   0.391 -1.1029 -0.7492 -1.1451
 8546SOL     OW37099   1.288   4.033   2.960  0.0743 -0.3610 -0.4587
 8546SOL    HW137100   1.196   4.040   2.937 -0.2297  1.4688  1.2768
 8546SOL    HW237101   1.271   4.038   3.054 -1.6170  1.1520 -0.8638
 8547SOL     OW37102   4.192   2.349   8.416 -0.4205  0.2360  0.0187
 8547SOL    HW137103   4.170   2.439   8.440 -1.0262  0.0216  0.2564
 8547SOL    HW237104   4.181   2.294   8.495  0.8054 -0.2841 -0.1657
 8548SOL     OW37105   4.513   2.002  16.371  0.6743 -0.0009 -0.0063
 8548SOL    HW137106   4.447   1.938  16.346  0.1046  1.2423 -1.6408
 8548SOL    HW237107   4.562   1.955  16.439  2.2231 -1.0085 -1.8428
 8549SOL     OW37108   4.079   1.096   2.297  0.6215  0.1447  0.5306
 8549SOL    HW137109   4.016   1.162   2.270  0.2110 -1.4132 -2.3567
 8549SOL    HW237110   4.022   1.026   2.331  1.8110  0.2646  2.7853
 8550SOL     OW37111   2.637   4.458   1.786 -0.2713 -0.1925 -0.0707
 8550SOL    HW137112   2.609   4.531   1.731 -1.2004 -0.7204 -0.3081
 8550SOL    HW237113   2.646   4.493   1.875 -3.0394  0.3015  0.0238
 8551SOL     OW37114   2.928   3.070   5.546  0.0190  0.0794  0.0251
 8551SOL    HW137115   3.013   3.036   5.519 -1.3140 -1.3487 -2.3742
 8551SOL    HW237116   2.894   2.992   5.590  0.3552 -1.7622 -2.9814
 8552SOL     OW37117   4.469   2.322  16.108  0.6573 -0.1569  0.0957
 8552SOL    HW137118   4.543   2.309  16.167  1.6450 -0.6008 -1.2511
 8552SOL    HW237119   4.487   2.245  16.055  1.3170  0.2485 -0.2646
 8553SOL     OW37120   0.175   0.155   2.361 -0.1315 -0.0710  0.0016
 8553SOL    HW137121   0.182   0.248   2.384 -3.2942  0.7307 -2.2090
 8553SOL    HW237122   0.211   0.147   2.273  1.0553 -1.4492  0.6039
 8554SOL     OW37123   3.989   4.669  14.328  0.3147  0.1911  0.0304
 8554SOL    HW137124   4.013   4.634  14.413 -0.3996 -0.5717 -0.0777
 8554SOL    HW237125   3.894   4.674  14.338  0.3292  2.3512 -0.9622
 8555SOL     OW37126   4.157   4.064   7.410  0.8671  0.0238  0.3983
 8555SOL    HW137127   4.252   4.074   7.421  0.7709 -0.1609  1.3609
 8555SOL    HW237128   4.129   4.124   7.478  1.1423  0.7346 -0.1181
 8556SOL     OW37129   0.766   0.460  14.061 -0.2653  0.2787  0.6601
 8556SOL    HW137130   0.822   0.529  14.097  1.3390  0.1290 -1.5257
 8556SOL    HW237131   0.748   0.401  14.134 -1.4648 -0.5480 -0.3117
 8557SOL     OW37132   1.888   4.466   0.265  0.0241  0.3355 -0.5404
 8557SOL    HW137133   1.853   4.431   0.183  1.3268  0.7670 -1.2848
 8557SOL    HW237134   1.954   4.401   0.289  0.4010  0.4837 -1.1829
 8558SOL     OW37135   4.112   3.567   9.246  0.3683  0.0102  0.2367
 8558SOL    HW137136   4.094   3.613   9.327 -2.3868 -0.6237 -0.0340
 8558SOL    HW237137   4.198   3.601   9.221  0.6691 -1.5706 -0.9154
 8559SOL     OW37138   4.608   4.105   2.891 -0.3542 -0.0579  0.4847
 8559SOL    HW137139   4.584   4.154   2.969  1.3342  1.3982  0.0823
 8559SOL    HW237140   4.671   4.166   2.854  1.6052 -1.1017  2.0693
 8560SOL     OW37141   4.483   3.862  14.339 -0.4425 -0.2156  0.2290
 8560SOL    HW137142   4.503   3.798  14.271 -1.0968  2.3954 -2.4018
 8560SOL    HW237143   4.416   3.816  14.389  0.5533  1.4864  3.1714
 8561SOL     OW37144   1.969   3.927  10.910  0.2096  0.5405  0.0986
 8561SOL    HW137145   1.936   3.997  10.966 -1.6519 -0.6532  0.5045
 8561SOL    HW237146   2.056   3.924  10.951  1.3598 -0.4081 -2.4080
 8562SOL     OW37147   0.878   4.185   0.774  0.2821 -0.3214  0.6958
 8562SOL    HW137148   0.871   4.112   0.836 -1.7142 -2.0187 -1.5389
 8562SOL    HW237149   0.799   4.236   0.790 -0.5156 -1.1911 -0.4753
 8563SOL     OW37150   2.969   1.744   3.141 -0.2021 -0.0417 -0.2496
 8563SOL    HW137151   3.042   1.804   3.155 -0.1290  0.3038 -2.1144
 8563SOL    HW237152   2.947   1.727   3.232 -1.5989 -0.0837 -0.5966
 8564SOL     OW37153   3.422   4.377   0.546 -0.0139  0.6839 -0.3112
 8564SOL    HW137154   3.461   4.389   0.459 -1.9370  1.2398 -1.1033
 8564SOL    HW237155   3.345   4.427   0.520  0.5566  2.5790  1.6655
 8565SOL     OW37156   4.479   3.793   1.690  0.5262  0.2196 -0.4362
 8565SOL    HW137157   4.501   3.886   1.686 -0.1720  0.3967 -0.2489
 8565SOL    HW237158   4.421   3.788   1.615  0.3617 -1.9011 -0.1754
 8566SOL     OW37159   1.270   2.155  13.721  0.0498 -0.3750  0.3993
 8566SOL    HW137160   1.268   2.232  13.777 -0.7139 -1.2878  1.6218
 8566SOL    HW237161   1.204   2.184  13.658  0.6116 -0.1515 -0.0953
 8567SOL     OW37162   0.590   2.020   0.679 -0.2926  0.1953 -0.6573
 8567SOL    HW137163   0.565   1.953   0.743  0.7060 -0.1051 -0.5874
 8567SOL    HW237164   0.666   1.976   0.642  0.3997  1.0520 -0.2542
 8568SOL     OW37165   3.238   2.130   4.960  0.2937 -0.0333  0.1876
 8568SOL    HW137166   3.228   2.225   4.953  0.9818  0.1176  1.3614
 8568SOL    HW237167   3.318   2.114   4.909  0.7667  0.6978  0.6927
 8569SOL     OW37168   1.035   3.251   5.284  0.5378  0.0119  0.0163
 8569SOL    HW137169   1.070   3.295   5.206  0.1374  0.8527  0.3142
 8569SOL    HW237170   0.947   3.247   5.246  0.0742  2.1555  0.8668
 8570SOL     OW37171   2.981   1.884   6.120  0.3612  0.4013  0.3042
 8570SOL    HW137172   2.927   1.809   6.146  1.0622  0.4750  1.9522
 8570SOL    HW237173   3.046   1.887   6.190 -1.0448 -0.4525  1.6356
 8571SOL     OW37174   4.227   3.569   6.651 -0.4468 -0.3089  0.1574
 8571SOL    HW137175   4.195   3.603   6.567 -0.5089 -0.8693 -0.0447
 8571SOL    HW237176   4.265   3.647   6.692  2.2004 -0.9440 -1.0967
 8572SOL     OW37177   0.553   2.226   6.345  0.2968  0.0532  0.0524
 8572SOL    HW137178   0.614   2.271   6.403 -0.2317  0.7666  0.0454
 8572SOL    HW237179   0.618   2.208   6.276 -0.8330  1.1096 -1.3007
 8573SOL     OW37180   2.819   3.740   9.271 -0.2882 -0.3228  0.1218
 8573SOL    HW137181   2.850   3.653   9.297  0.7392 -0.0908 -0.3601
 8573SOL    HW237182   2.809   3.729   9.177 -2.3859 -0.7883  0.3845
 8574SOL     OW37183   2.833   2.074   1.674 -0.7584  0.4509 -0.1184
 8574SOL    HW137184   2.896   2.123   1.621  0.2458 -0.8437 -0.1365
 8574SOL    HW237185   2.828   2.127   1.753 -2.2741 -0.5927  0.4806
 8575SOL     OW37186   3.597   0.604   0.424 -0.6193 -0.0496 -0.1503
 8575SOL    HW137187   3.612   0.535   0.489  1.1963  0.7496  0.2715
 8575SOL    HW237188   3.520   0.566   0.381 -2.5467  1.5013  1.8850
 8576SOL     OW37189   4.316   3.629   2.187 -0.2789 -0.2374  0.5260
 8576SOL    HW137190   4.337   3.700   2.247  0.9446  2.2978 -2.8825
 8576SOL    HW237191   4.356   3.662   2.106 -0.7934  0.0588  0.3883
 8577SOL     OW37192   4.405   2.144   7.549  0.6123  0.2218  0.0470
 8577SOL    HW137193   4.398   2.051   7.531  0.0960 -0.0372  1.5727
 8577SOL    HW237194   4.336   2.165   7.612 -0.0595 -1.9405  0.0194
 8578SOL     OW37195   2.797   2.107   4.855  0.9574  0.8507  0.2625
 8578SOL    HW137196   2.724   2.169   4.855  0.1881 -0.0293 -1.9623
 8578SOL    HW237197   2.781   2.046   4.783  0.6205 -1.4793  2.3294
 8579SOL     OW37198   3.243   0.211   5.773  0.4240  0.1071  0.0548
 8579SOL    HW137199   3.300   0.136   5.788  0.6369 -0.2109 -2.3924
 8579SOL    HW237200   3.157   0.171   5.785  0.4492  0.3133  0.9421
 8580SOL     OW37201   2.538   4.507   5.031 -0.4812 -0.1388  0.3741
 8580SOL    HW137202   2.573   4.418   5.034  0.4236  0.2308  0.8896
 8580SOL    HW237203   2.457   4.495   4.982  0.4407 -3.3201 -0.3700
 8581SOL     OW37204   0.950   1.299   9.913 -0.1559 -0.3321 -0.0369
 8581SOL    HW137205   0.919   1.218   9.953 -1.7777 -0.8671 -2.3466
 8581SOL    HW237206   1.024   1.265   9.863 -0.4299 -1.4598  0.3279
 8582SOL     OW37207   2.678   2.735   4.493 -0.5841 -0.5169  0.3980
 8582SOL    HW137208   2.701   2.702   4.406 -0.5177 -2.1554  1.0401
 8582SOL    HW237209   2.624   2.667   4.534  0.6323 -1.8692 -0.2572
 8583SOL     OW37210   1.429   2.064  15.172 -0.1508 -0.2205 -0.3773
 8583SOL    HW137211   1.379   2.142  15.151  1.1812  0.5991 -0.5121
 8583SOL    HW237212   1.382   2.041  15.252  2.2271  0.7209  1.2913
 8584SOL     OW37213   2.053   3.226   2.154  0.2907 -0.1688 -0.0145
 8584SOL    HW137214   1.971   3.268   2.127  0.0270 -1.2000 -0.8141
 8584SOL    HW237215   2.062   3.149   2.099  0.9458 -1.5060  1.9722
 8585SOL     OW37216   3.385   0.813  16.800  0.0073  0.3504  0.2214
 8585SOL    HW137217   3.391   0.901  16.763  1.9362 -1.3047 -3.3697
 8585SOL    HW237218   3.479   0.795  16.797 -0.2277 -1.5165  3.7013
 8586SOL     OW37219   0.727   4.668   7.066  0.0976 -0.0021 -0.0003
 8586SOL    HW137220   0.697   4.584   7.031  0.4572 -0.4366  0.7213
 8586SOL    HW237221   0.650   4.723   7.084 -0.6296 -1.3742  1.0883
 8587SOL     OW37222   0.211   0.856  10.667  0.3737  0.5410 -0.4121
 8587SOL    HW137223   0.191   0.763  10.674 -1.4181  1.0287  1.0084
 8587SOL    HW237224   0.306   0.856  10.678  0.5328 -3.4177 -1.9711
 8588SOL     OW37225   3.747   3.059   3.994  0.1210  0.3135 -0.3249
 8588SOL    HW137226   3.697   3.095   3.921 -1.4371  0.2835  0.7238
 8588SOL    HW237227   3.839   3.081   3.980  0.7500 -1.2552  1.3287
 8589SOL     OW37228   2.512   0.054   6.257 -0.6394 -0.4131 -0.2972
 8589SOL    HW137229   2.607   0.055   6.250 -0.5089 -0.8154  1.6058
 8589SOL    HW237230   2.483   0.131   6.207  1.6779 -0.1603 -1.2444
 8590SOL     OW37231   1.987   3.174   7.069  0.3523  0.1375  0.0983
 8590SOL    HW137232   2.072   3.135   7.093  0.6434  1.0641  0.5706
 8590SOL    HW237233   2.002   3.265   7.094  0.3092  0.0671  0.3798
 8591SOL     OW37234   0.018   1.853   1.860  0.2184  0.0208 -0.6664
 8591SOL    HW137235   0.009   1.865   1.954 -1.5281  1.2717 -0.9986
 8591SOL    HW237236   0.002   1.943   1.831 -0.4785 -0.0805 -0.5818
 8592SOL     OW37237   2.777   3.096  16.333  0.3589  0.6063  0.2005
 8592SOL    HW137238   2.837   3.165  16.362  0.2028  0.3676  1.0892
 8592SOL    HW237239   2.710   3.141  16.282  0.7793 -0.2180 -1.0655
 8593SOL     OW37240   2.248   2.398  15.405  0.1201 -0.2377  0.1162
 8593SOL    HW137241   2.224   2.333  15.340 -2.0339  0.4079  0.2386
 8593SOL    HW237242   2.330   2.361  15.437  0.9538  0.6666 -0.9619
 8594SOL     OW37243   1.993   3.647  13.140  0.2048  0.8136 -0.2214
 8594SOL    HW137244   1.909   3.685  13.117  0.0102  0.3341 -0.2992
 8594SOL    HW237245   1.993   3.576  13.075 -4.4803  1.2434 -0.6690
 8595SOL     OW37246   3.217   2.720  16.144 -0.3488 -0.4640 -0.3856
 8595SOL    HW137247   3.166   2.747  16.069  0.7606 -0.0194 -0.9724
 8595SOL    HW237248   3.300   2.685  16.111  0.6180  2.0858 -0.6586
 8596SOL     OW37249   2.821   2.641   2.774  0.2845  0.0536  0.1542
 8596SOL    HW137250   2.782   2.687   2.848  1.3044  0.9607  0.1374
 8596SOL    HW237251   2.780   2.680   2.697 -1.0145 -1.0315  0.2918
 8597SOL     OW37252   1.037   2.288   4.961  0.1068 -0.1080 -0.6004
 8597SOL    HW137253   1.091   2.214   4.935 -0.0785 -0.6228  0.4934
 8597SOL    HW237254   1.067   2.346   4.891  0.5149  0.8503  0.3669
 8598SOL     OW37255   0.760   1.008  15.042 -0.0187  0.5668 -0.1936
 8598SOL    HW137256   0.813   1.034  14.966  1.1722  1.0578  0.8040
 8598SOL    HW237257   0.700   1.081  15.053  1.2583  1.5999 -0.0233
 8599SOL     OW37258   4.530   3.532  12.555  0.7394  0.0221 -0.2958
 8599SOL    HW137259   4.465   3.564  12.617  0.7354 -1.0365  0.2609
 8599SOL    HW237260   4.575   3.469  12.612  0.1725  0.6822  0.9025
 8600SOL     OW37261   0.178   3.425   7.718  0.0340  0.3230 -0.2313
 8600SOL    HW137262   0.144   3.364   7.784  1.8059 -1.1707 -0.6984
 8600SOL    HW237263   0.222   3.362   7.660  1.4920 -0.0814  1.3022
 8601SOL     OW37264   1.007   2.017   5.554  0.3491  0.2637 -0.3182
 8601SOL    HW137265   1.022   2.091   5.613  0.0620 -0.0230  0.1114
 8601SOL    HW237266   1.074   1.957   5.589 -0.5802  0.3705  1.6639
 8602SOL     OW37267   4.000   2.897  12.639  0.1147  0.4948 -0.1528
 8602SOL    HW137268   3.985   2.907  12.733  0.2309 -0.2814 -0.0493
 8602SOL    HW237269   4.095   2.892  12.644  0.1202  1.4703  0.5953
 8603SOL     OW37270   4.584   4.375   1.003 -0.0834  0.1531  0.2244
 8603SOL    HW137271   4.622   4.461   0.985  0.1068  0.1029  0.3819
 8603SOL    HW237272   4.544   4.347   0.921  1.7926 -1.4997 -0.1380
 8604SOL     OW37273   1.285   0.014   2.169 -0.4729  0.1034  0.1360
 8604SOL    HW137274   1.296   0.107   2.186  2.6952 -0.4001  1.0182
 8604SOL    HW237275   1.366   4.709   2.210 -1.9882 -1.4339  1.9486
 8605SOL     OW37276   1.367   3.625   7.905 -0.2439  0.4802  0.2097
 8605SOL    HW137277   1.339   3.715   7.924 -1.0168  0.5285 -1.1606
 8605SOL    HW237278   1.288   3.585   7.871  0.3503  1.2929 -2.1370
 8606SOL     OW37279   1.194   1.405   3.001 -0.5178  0.3810  0.3123
 8606SOL    HW137280   1.165   1.318   2.973 -0.6470  0.6523 -0.4042
 8606SOL    HW237281   1.192   1.397   3.096  0.1659  2.6618  0.5288
 8607SOL     OW37282   3.255   0.006   4.656  0.5881 -0.4154 -0.5370
 8607SOL    HW137283   3.262   0.074   4.589 -1.3842  0.8212  0.4996
 8607SOL    HW237284   3.221   0.057   4.730 -2.1198 -0.4070 -1.7825
 8608SOL     OW37285   0.744   1.068  10.020  0.5331 -0.2713 -0.2925
 8608SOL    HW137286   0.723   0.983  10.059  1.0596 -1.1260 -1.8643
 8608SOL    HW237287   0.682   1.127  10.062 -0.7211 -1.3579 -0.6397
 8609SOL     OW37288   4.218   3.826   1.161 -0.1788 -0.4611  0.5930
 8609SOL    HW137289   4.206   3.797   1.071 -1.2762 -1.3493  1.0132
 8609SOL    HW237290   4.169   3.766   1.218 -1.6821 -0.6148 -0.8715
 8610SOL     OW37291   3.888   2.367  16.681 -0.1306 -0.1914  0.0232
 8610SOL    HW137292   3.870   2.460  16.694 -1.0857 -0.4288  0.3402
 8610SOL    HW237293   3.939   2.352  16.760  1.8730  0.7130 -1.0898
 8611SOL     OW37294   0.739   3.782   6.471  0.3155  0.4063 -0.2380
 8611SOL    HW137295   0.830   3.753   6.464  0.4208 -0.0279  2.7883
 8611SOL    HW237296   0.694   3.698   6.466  0.2438  0.3865  0.6634
 8612SOL     OW37297   3.673   2.167   8.321 -0.4359 -0.2065 -0.2954
 8612SOL    HW137298   3.702   2.110   8.393 -0.3550 -0.4923 -0.5508
 8612SOL    HW237299   3.603   2.214   8.366 -0.9923 -0.5547 -0.8130
 8613SOL     OW37300   1.296   1.167   7.662  0.0033 -0.9096  0.2383
 8613SOL    HW137301   1.206   1.135   7.658 -0.2031 -0.3232  0.1146
 8613SOL    HW237302   1.341   1.105   7.719  1.2292 -0.4246 -0.2147
 8614SOL     OW37303   1.492   3.714   6.682  0.3306 -0.1267  0.2581
 8614SOL    HW137304   1.499   3.677   6.770  0.4119 -0.5816  0.0571
 8614SOL    HW237305   1.499   3.640   6.622 -1.5957 -0.8065  0.8843
 8615SOL     OW37306   3.079   3.525   6.664 -0.3641 -0.2420 -0.3837
 8615SOL    HW137307   3.104   3.436   6.690  0.1471  0.0698  0.1906
 8615SOL    HW237308   3.163   3.565   6.645 -0.8762  0.3145 -1.4596
 8616SOL     OW37309   2.867   3.121  14.249 -0.3045  0.5685  0.1489
 8616SOL    HW137310   2.792   3.066  14.270  0.0785  0.3380  0.9042
 8616SOL    HW237311   2.821   3.179  14.189  0.6285 -0.0805 -1.2045
 8617SOL     OW37312   0.403   0.526   6.826 -0.2214 -0.0635 -0.0757
 8617SOL    HW137313   0.463   0.587   6.783 -0.8521  0.1859 -0.5982
 8617SOL    HW237314   0.434   0.500   6.913 -1.7268  0.0301  0.4801
 8618SOL     OW37315   0.206   0.349   2.707  0.3813 -0.3912 -0.2602
 8618SOL    HW137316   0.155   0.285   2.756  0.2494  0.1462  0.3102
 8618SOL    HW237317   0.153   0.375   2.631 -0.7526  1.2333  1.0689
 8619SOL     OW37318   2.706   4.379   0.802 -0.3553  0.6508 -0.6278
 8619SOL    HW137319   2.632   4.429   0.839 -2.2118 -1.9576 -0.8103
 8619SOL    HW237320   2.651   4.311   0.764 -1.2689  0.6689  0.6546
 8620SOL     OW37321   1.122   2.979  14.908 -0.1244  0.1101  0.0068
 8620SOL    HW137322   1.204   3.017  14.877 -0.2551  0.3143 -0.0929
 8620SOL    HW237323   1.146   2.920  14.979  1.5199 -0.2979 -0.8977
 8621SOL     OW37324   4.126   1.473  16.138 -0.1541  0.1948  0.4526
 8621SOL    HW137325   4.200   1.458  16.196  0.7310  0.6443 -0.5476
 8621SOL    HW237326   4.165   1.462  16.051  0.2392  2.7624  0.2944
 8622SOL     OW37327   2.408   3.059   8.111  0.1040 -0.3135 -0.3956
 8622SOL    HW137328   2.400   2.998   8.184  1.9100  0.3411  0.3404
 8622SOL    HW237329   2.499   3.054   8.084 -0.1622 -3.5037 -0.6860
 8623SOL     OW37330   3.170   3.813   3.852  0.6057  0.4006  0.0755
 8623SOL    HW137331   3.129   3.727   3.840  0.7401  0.5233 -1.2626
 8623SOL    HW237332   3.263   3.792   3.841  0.7295  0.4610  0.9805
 8624SOL     OW37333   3.426   1.391  16.119 -0.2945 -0.5013  0.1422
 8624SOL    HW137334   3.347   1.364  16.167 -0.6082  0.9827  0.4645
 8624SOL    HW237335   3.475   1.311  16.099  2.5967  0.8766  1.8181
 8625SOL     OW37336   1.642   2.935   5.890 -0.1986 -0.2080  0.0696
 8625SOL    HW137337   1.633   2.922   5.795 -4.1246 -0.8130  0.5303
 8625SOL    HW237338   1.730   2.905   5.912  0.5952  2.3463  0.3533
 8626SOL     OW37339   1.687   1.625   4.316  0.4374 -0.1332  0.0529
 8626SOL    HW137340   1.593   1.640   4.309  0.6379  0.5768 -1.1168
 8626SOL    HW237341   1.700   1.582   4.231  0.8998  0.2948 -0.0910
 8627SOL     OW37342   1.474   0.351   8.661  0.5583  0.3728 -0.6646
 8627SOL    HW137343   1.383   0.377   8.645  0.0915 -0.8896 -0.0459
 8627SOL    HW237344   1.509   0.338   8.573  1.6563 -4.0416  0.4004
 8628SOL     OW37345   2.932   2.219  15.927  0.0670  0.1077 -0.5646
 8628SOL    HW137346   2.995   2.147  15.918  0.5099  0.5748 -1.1640
 8628SOL    HW237347   2.862   2.169  15.886 -0.6053 -0.5411  1.3408
 8629SOL     OW37348   1.476   2.939   3.207 -0.8117  0.7554 -0.1141
 8629SOL    HW137349   1.437   2.978   3.285  1.3564 -0.0035  1.3581
 8629SOL    HW237350   1.403   2.964   3.150  0.1408  2.9299 -0.3960
 8630SOL     OW37351   1.958   3.880   6.096 -0.0664  1.0130  0.0076
 8630SOL    HW137352   1.959   3.949   6.031  1.2688  1.6144  0.6553
 8630SOL    HW237353   2.036   3.836   6.060 -1.8633 -2.1169 -0.0378
 8631SOL     OW37354   1.977   3.041  11.560 -0.3169  0.2215  0.5257
 8631SOL    HW137355   1.919   2.978  11.604 -0.1766 -0.1524  0.1792
 8631SOL    HW237356   1.990   3.007  11.471 -2.5427  2.4367 -0.6227
 8632SOL     OW37357   0.670   1.147   5.801  0.1888 -0.1566  0.6718
 8632SOL    HW137358   0.659   1.120   5.892  1.0021 -0.2326  0.7505
 8632SOL    HW237359   0.625   1.232   5.802  0.8172  0.1777  0.8640
 8633SOL     OW37360   1.834   1.865   7.558 -0.4582 -0.2619  0.2727
 8633SOL    HW137361   1.849   1.906   7.643  1.3809 -0.6894  0.1426
 8633SOL    HW237362   1.826   1.771   7.570 -0.8347 -0.4187 -1.1552
 8634SOL     OW37363   2.395   0.252   3.852  0.2117 -0.3675 -0.4933
 8634SOL    HW137364   2.486   0.233   3.831  0.0924  0.0330 -1.3628
 8634SOL    HW237365   2.394   0.338   3.809  2.0090 -0.3525 -0.4951
 8635SOL     OW37366   3.486   0.942   8.275 -0.0136 -0.6532  0.0660
 8635SOL    HW137367   3.408   0.981   8.314  0.9849  0.5591  0.8383
 8635SOL    HW237368   3.560   0.971   8.328  0.3492 -1.8790  0.2124
 8636SOL     OW37369   2.634   0.062   8.743  0.1631 -0.3317 -0.1370
 8636SOL    HW137370   2.708   0.001   8.738 -2.2607 -3.3923  1.3135
 8636SOL    HW237371   2.564   4.723   8.752 -1.0911  1.1003  0.3142
 8637SOL     OW37372   4.711   2.541  14.002 -0.2505 -0.1983 -0.4463
 8637SOL    HW137373   4.722   2.623  13.954  2.1696 -0.6160 -0.5883
 8637SOL    HW237374   0.044   2.562  14.074 -1.1540 -3.0722  1.1374
 8638SOL     OW37375   0.729   3.957   3.240 -0.2390 -0.2659 -0.0348
 8638SOL    HW137376   0.639   3.946   3.211  0.2386  0.8419 -1.9750
 8638SOL    HW237377   0.730   3.893   3.311 -0.6361 -0.0921  0.1226
 8639SOL     OW37378   2.633   0.128   1.699  0.2190  0.2442  0.5289
 8639SOL    HW137379   2.708   0.084   1.739  0.2939 -1.4701 -1.5267
 8639SOL    HW237380   2.596   0.053   1.654  1.6057 -0.6531  0.8829
 8640SOL     OW37381   1.602   4.232   9.551  0.0847  0.5949  0.6894
 8640SOL    HW137382   1.601   4.139   9.530  1.5725  1.0149 -1.2045
 8640SOL    HW237383   1.657   4.229   9.629 -2.1586  0.4980  2.2589
 8641SOL     OW37384   2.898   1.283   2.165 -0.1677  0.2701  0.4290
 8641SOL    HW137385   2.974   1.314   2.215 -0.5546 -0.5167  1.4943
 8641SOL    HW237386   2.915   1.346   2.095 -0.8940  0.0187  0.0374
 8642SOL     OW37387   4.691   4.201  14.122  0.2184 -0.1913  0.3556
 8642SOL    HW137388   0.035   4.145  14.155 -0.7780 -0.7578  1.5157
 8642SOL    HW237389   0.005   4.237  14.043  0.5027  0.8257  0.9678
 8643SOL     OW37390   0.519   1.179   8.581  0.4711  0.6197  0.5351
 8643SOL    HW137391   0.499   1.203   8.672  0.9827 -0.4039  0.9206
 8643SOL    HW237392   0.492   1.258   8.535 -0.1622 -0.1628 -0.4373
 8644SOL     OW37393   0.843   2.642   5.555  0.1094 -0.2134  0.4393
 8644SOL    HW137394   0.878   2.599   5.477 -1.8233  1.1105 -1.1676
 8644SOL    HW237395   0.877   2.731   5.547  0.4857 -0.3071  0.9773
 8645SOL     OW37396   4.397   3.812   5.271  0.3177  0.2585 -0.0982
 8645SOL    HW137397   4.461   3.874   5.306 -1.4459  0.7387  2.2473
 8645SOL    HW237398   4.420   3.731   5.316  2.9897 -0.6075 -2.9911
 8646SOL     OW37399   0.803   4.451  14.362  0.1039 -0.1034 -0.4157
 8646SOL    HW137400   0.837   4.521  14.306  0.8591  0.2045  0.4363
 8646SOL    HW237401   0.709   4.467  14.356  0.7912  3.2576 -1.9922
 8647SOL     OW37402   0.533   1.211   6.845 -0.0552 -0.4600  0.1124
 8647SOL    HW137403   0.473   1.137   6.850  0.7025 -1.1177 -0.5045
 8647SOL    HW237404   0.589   1.186   6.772  0.9890  0.1738  0.6856
 8648SOL     OW37405   2.035   1.578   3.867 -0.2669  0.2236 -0.0823
 8648SOL    HW137406   1.961   1.539   3.821 -0.9360  0.5225  0.7480
 8648SOL    HW237407   2.081   1.634   3.804  1.8860  0.6673  1.8824
 8649SOL     OW37408   2.013   1.476   0.739  0.1782  0.4221 -0.3253
 8649SOL    HW137409   1.941   1.482   0.802 -0.2898 -1.7414 -0.6590
 8649SOL    HW237410   1.995   1.545   0.675  0.5301  1.7999  1.0472
 8650SOL     OW37411   0.737   2.994   3.168 -0.0398 -0.0800  0.1235
 8650SOL    HW137412   0.719   3.047   3.246  2.7209  1.4216 -0.2441
 8650SOL    HW237413   0.755   3.060   3.101  0.6890 -0.3375  0.0758
 8651SOL     OW37414   2.450   0.791   3.625  0.3549 -0.2176  0.1450
 8651SOL    HW137415   2.367   0.771   3.668 -0.0851 -0.5380 -0.8617
 8651SOL    HW237416   2.463   0.720   3.563  0.2360 -0.4922  0.4380
 8652SOL     OW37417   2.840   0.392   8.651  0.1933 -0.5208  0.2982
 8652SOL    HW137418   2.840   0.484   8.626 -2.2933 -0.3660  0.8746
 8652SOL    HW237419   2.925   0.385   8.694  0.3795 -0.1475 -0.0076
 8653SOL     OW37420   2.660   3.637   2.967  0.2334 -0.1850  0.2958
 8653SOL    HW137421   2.657   3.697   3.042  0.3488 -0.4031  0.4752
 8653SOL    HW237422   2.568   3.616   2.954  0.5049  0.2481 -2.1817
 8654SOL     OW37423   1.145   2.557  16.895 -0.2078 -0.2413  0.0734
 8654SOL    HW137424   1.058   2.559  16.856 -0.7591 -1.6318  1.1951
 8654SOL    HW237425   1.150   2.481  16.954 -0.3269 -1.0192 -0.9245
 8655SOL     OW37426   0.688   4.633   9.173  0.0061  0.2092 -0.6030
 8655SOL    HW137427   0.772   4.652   9.130  0.7958  0.2111  0.9309
 8655SOL    HW237428   0.679   4.547   9.131 -1.9994 -0.6871  1.6881
 8656SOL     OW37429   3.499   0.440  13.248 -0.2096 -0.4844 -0.2730
 8656SOL    HW137430   3.423   0.392  13.214  0.7880 -1.0474 -1.7059
 8656SOL    HW237431   3.567   0.375  13.229 -0.8620 -1.4818  0.8060
 8657SOL     OW37432   0.917   4.138   8.958 -0.0790  0.0123 -0.7612
 8657SOL    HW137433   0.954   4.224   8.973  0.6585  0.2369 -3.9083
 8657SOL    HW237434   0.883   4.121   9.046 -0.0946  3.1327 -0.1706
 8658SOL     OW37435   2.199   2.650   7.450 -0.0090 -0.1737  0.4113
 8658SOL    HW137436   2.171   2.638   7.359 -0.0617  1.1424  0.2504
 8658SOL    HW237437   2.249   2.730   7.430  0.9740 -0.7745  0.4701
 8659SOL     OW37438   1.684   3.359  10.838 -0.0711  0.2185  0.5593
 8659SOL    HW137439   1.639   3.365  10.922  0.3027  3.6234  0.5301
 8659SOL    HW237440   1.763   3.410  10.857  0.3349 -0.0752 -0.3331
 8660SOL     OW37441   1.870   0.347   2.563  0.0416 -0.4585  0.2309
 8660SOL    HW137442   1.853   0.374   2.472 -3.2561  0.0476  0.9683
 8660SOL    HW237443   1.872   0.254   2.543  0.0430 -0.3510 -0.2782
 8661SOL     OW37444   0.026   3.790   5.275 -0.1874 -0.1015  0.2987
 8661SOL    HW137445   4.680   3.851   5.288 -0.9285 -0.8449 -0.3095
 8661SOL    HW237446   0.022   3.754   5.364 -0.7472  0.2853  0.4300
 8662SOL     OW37447   1.897   2.450   7.449 -0.5918 -0.4508  0.6710
 8662SOL    HW137448   1.847   2.383   7.402  0.0549 -0.8857  0.6074
 8662SOL    HW237449   1.987   2.429   7.424  0.2242  0.9840  2.3736
 8663SOL     OW37450   0.160   1.531   7.315 -0.2734 -0.4607  0.7380
 8663SOL    HW137451   0.139   1.524   7.222 -1.7466  0.8036  0.9818
 8663SOL    HW237452   0.110   1.613   7.321  0.3871 -0.1637  2.0357
 8664SOL     OW37453   0.850   0.290   5.718  0.0112 -0.5945  0.4170
 8664SOL    HW137454   0.798   0.349   5.663  0.5489  0.9195  1.5047
 8664SOL    HW237455   0.879   0.229   5.651 -0.8632 -1.1601  0.5522
 8665SOL     OW37456   1.068   4.320   6.303  0.2499 -0.1599 -0.4414
 8665SOL    HW137457   0.978   4.286   6.300  0.3067 -0.4122  0.6161
 8665SOL    HW237458   1.077   4.353   6.392 -2.3208 -0.3412 -0.0964
 8666SOL     OW37459   0.265   0.481   2.304 -0.1836 -0.6665  0.1192
 8666SOL    HW137460   0.174   0.487   2.274 -0.2156 -0.3463  0.2718
 8666SOL    HW237461   0.308   0.443   2.228  1.0234 -1.4034  1.1751
 8667SOL     OW37462   1.164   2.812   3.352  0.2551 -0.0411 -0.0498
 8667SOL    HW137463   1.071   2.819   3.375  0.0439  1.2481 -1.3079
 8667SOL    HW237464   1.195   2.902   3.359 -0.7120  0.3186 -0.3583
 8668SOL     OW37465   4.687   1.070   2.788  0.2433  0.1348 -0.4281
 8668SOL    HW137466   4.723   1.099   2.872  0.2511 -1.1695  0.0318
 8668SOL    HW237467   0.040   1.034   2.748  0.4785  0.5862 -0.3647
 8669SOL     OW37468   2.831   3.849   6.899  0.2716 -0.6226  0.4983
 8669SOL    HW137469   2.854   3.936   6.866 -1.3885 -0.4515 -0.2212
 8669SOL    HW237470   2.750   3.873   6.946  0.6930 -0.0350  0.9296
 8670SOL     OW37471   2.112   0.975  17.083 -0.2656  0.1666  0.2796
 8670SOL    HW137472   2.187   0.952  17.029  0.0530  0.0490  0.7711
 8670SOL    HW237473   2.162   0.998  17.162 -1.2840  2.2327  0.3343
 8671SOL     OW37474   4.725   0.677   7.501 -0.5810  0.1146 -0.6227
 8671SOL    HW137475   4.700   0.587   7.481  0.2689 -0.1577 -0.4596
 8671SOL    HW237476   4.653   0.728   7.539 -1.3654 -0.8169 -0.8484
 8672SOL     OW37477   4.237   2.484  14.546  0.4056  0.5266  0.8574
 8672SOL    HW137478   4.145   2.486  14.572 -0.3764  0.9869 -1.8997
 8672SOL    HW237479   4.269   2.564  14.586 -0.3591  0.2512  2.0426
 8673SOL     OW37480   0.134   0.593  12.933 -0.1490 -0.2016 -0.2420
 8673SOL    HW137481   0.108   0.684  12.918  0.8492  0.1989  0.4446
 8673SOL    HW237482   0.228   0.612  12.944 -0.2134 -0.4077  0.7368
 8674SOL     OW37483   0.533   2.737   4.606  0.4475  0.2206 -0.2570
 8674SOL    HW137484   0.502   2.827   4.620 -2.3050 -0.5579 -1.4389
 8674SOL    HW237485   0.551   2.746   4.512 -2.0394 -0.9355 -0.8338
 8675SOL     OW37486   0.395   4.538   2.300 -0.3353  0.0540 -0.2565
 8675SOL    HW137487   0.408   4.605   2.233  0.8322 -0.2798 -0.3788
 8675SOL    HW237488   0.300   4.539   2.291 -0.3541  0.6418  0.0316
 8676SOL     OW37489   0.523   2.666  11.055  0.9896  0.4264 -0.2333
 8676SOL    HW137490   0.545   2.621  10.973  0.9825  2.8431 -1.5454
 8676SOL    HW237491   0.492   2.740  11.002 -1.7607  2.3694  4.1128
 8677SOL     OW37492   3.250   1.285   9.352 -0.0831 -0.0366  0.1536
 8677SOL    HW137493   3.187   1.255   9.418 -0.0561  0.4814  0.4175
 8677SOL    HW237494   3.314   1.325   9.411 -0.1858  3.7292 -2.2857
 8678SOL     OW37495   0.958   1.807  11.701  0.6166  0.3118 -0.0155
 8678SOL    HW137496   0.883   1.755  11.674  0.8282  0.5759 -1.1368
 8678SOL    HW237497   0.982   1.858  11.623  1.5543  0.0810  0.1230
 8679SOL     OW37498   1.483   2.820  16.546  0.4744 -0.1454 -0.3029
 8679SOL    HW137499   1.432   2.885  16.498 -0.6770 -1.5576 -0.9722
 8679SOL    HW237500   1.499   2.754  16.479  1.8644  0.4681 -0.5799
 8680SOL     OW37501   0.856   3.876  11.298  0.3805  0.3933 -0.7061
 8680SOL    HW137502   0.782   3.827  11.264 -0.0745  0.7931 -0.2872
 8680SOL    HW237503   0.810   3.950  11.336 -0.9628 -1.5247  1.4227
 8681SOL     OW37504   2.866   3.179   4.400  0.4850  1.0256 -0.2444
 8681SOL    HW137505   2.830   3.128   4.327 -0.4931  1.3897 -0.0142
 8681SOL    HW237506   2.911   3.110   4.450 -1.7535  0.5353  1.1122
 8682SOL     OW37507   3.733   1.162   6.394 -0.0158  0.6353 -0.0086
 8682SOL    HW137508   3.760   1.225   6.461 -1.1148  1.2690 -0.1721
 8682SOL    HW237509   3.814   1.122   6.361  0.4104 -0.0492  1.8585
 8683SOL     OW37510   4.296   4.148   4.036 -0.1451 -0.3976 -0.0371
 8683SOL    HW137511   4.258   4.136   4.123  0.7523 -0.1437  0.3911
 8683SOL    HW237512   4.339   4.065   4.019  1.8527  0.6327  0.0215
 8684SOL     OW37513   4.201   3.909  14.157  0.3824  0.1631 -0.0263
 8684SOL    HW137514   4.205   3.840  14.090  0.2845  2.1390 -2.0458
 8684SOL    HW237515   4.145   3.855  14.214  0.7207  0.2025  0.3437
 8685SOL     OW37516   4.683   3.860   3.485  0.8021  0.0320  0.0939
 8685SOL    HW137517   4.700   3.838   3.577 -1.4050 -1.4894  0.1341
 8685SOL    HW237518   4.671   3.774   3.445  0.2184  1.9386 -3.7343
 8686SOL     OW37519   4.080   1.726   9.124  0.1058 -0.2183  0.3207
 8686SOL    HW137520   4.127   1.695   9.046 -2.1148 -0.2410 -1.0103
 8686SOL    HW237521   4.130   1.796   9.166 -1.9854  0.4752  1.6185
 8687SOL     OW37522   1.876   2.791   7.367 -0.1068  0.1707  0.1438
 8687SOL    HW137523   1.969   2.772   7.377  0.2795  0.0508 -3.4511
 8687SOL    HW237524   1.874   2.847   7.289 -1.5844 -0.5799 -0.3630
 8688SOL     OW37525   1.774   4.325   3.369 -0.1286  0.1803  0.1054
 8688SOL    HW137526   1.818   4.401   3.406  1.0239  1.1946 -3.2737
 8688SOL    HW237527   1.799   4.330   3.276  0.2638  1.9202  0.2945
 8689SOL     OW37528   0.019   2.067   5.842 -0.2088  0.5184  0.1368
 8689SOL    HW137529   4.669   2.008   5.845  0.1506 -0.0116 -1.5079
 8689SOL    HW237530   0.045   2.066   5.934 -0.2453  0.1772  0.1436
 8690SOL     OW37531   4.270   0.153   2.634  0.0380  0.5678  0.5114
 8690SOL    HW137532   4.208   0.114   2.572  0.0199  1.8116 -0.2621
 8690SOL    HW237533   4.223   0.124   2.712 -0.2947  0.2491  0.1947
 8691SOL     OW37534   1.329   3.828   0.692  0.1597  0.2357 -0.1580
 8691SOL    HW137535   1.253   3.771   0.680  0.8762 -0.8409  0.4037
 8691SOL    HW237536   1.299   3.899   0.748  0.6966  0.3755 -0.0432
 8692SOL     OW37537   1.468   1.053  12.150  0.2215 -0.0007 -0.2340
 8692SOL    HW137538   1.384   1.047  12.104 -0.2168  1.6162  0.3403
 8692SOL    HW237539   1.512   1.114  12.091  0.7155 -1.4156 -1.3319
 8693SOL     OW37540   0.236   4.202   2.210  0.1229  0.1317 -0.0611
 8693SOL    HW137541   0.166   4.137   2.213 -0.0504  0.3188 -0.0244
 8693SOL    HW237542   0.206   4.263   2.278  1.1125 -1.0307  1.4071
 8694SOL     OW37543   0.190   1.033   5.276 -0.1683 -0.2343 -0.5590
 8694SOL    HW137544   0.173   0.942   5.299  0.3697  0.0675  1.0456
 8694SOL    HW237545   0.192   1.078   5.361 -0.8628 -0.0578 -0.6413
 8695SOL     OW37546   0.158   3.713  13.359 -0.5946  0.4683  0.9791
 8695SOL    HW137547   0.145   3.773  13.286  0.4163  0.5668  0.8770
 8695SOL    HW237548   0.187   3.774  13.427  2.3335  1.7772 -1.4704
 8696SOL     OW37549   3.032   1.768   5.885 -0.5746 -0.2859 -0.2413
 8696SOL    HW137550   2.993   1.843   5.840  0.4802  0.2871 -0.2043
 8696SOL    HW237551   3.026   1.816   5.967  1.7651  1.2614 -0.9712
 8697SOL     OW37552   4.085   1.640   1.067 -0.4367  0.4762  0.2206
 8697SOL    HW137553   4.099   1.579   0.995  0.9150  1.5590 -0.4445
 8697SOL    HW237554   4.130   1.597   1.140 -0.1809 -0.3500 -0.4267
 8698SOL     OW37555   1.597   3.991  13.530  0.1816 -0.5226  0.5112
 8698SOL    HW137556   1.513   4.018  13.568  0.5001 -1.3614  1.8180
 8698SOL    HW237557   1.654   3.988  13.607 -0.8032 -0.9740  1.2173
 8699SOL     OW37558   0.767   4.715   5.726 -0.0595  0.5425 -0.2144
 8699SOL    HW137559   0.842   4.701   5.783  0.5185  1.7203 -0.6985
 8699SOL    HW237560   0.723   4.630   5.721  1.2502  0.1753 -5.5186
 8700SOL     OW37561   1.861   4.457   9.567  0.0543  0.0103 -0.0226
 8700SOL    HW137562   1.866   4.375   9.616  0.7893  0.7934  1.1979
 8700SOL    HW237563   1.767   4.461   9.547 -0.2462  0.2114  1.4485
 8701SOL     OW37564   3.407   4.292   3.920  0.3909 -0.7249 -0.0651
 8701SOL    HW137565   3.489   4.324   3.881  1.5341 -2.2212  1.1086
 8701SOL    HW237566   3.444   4.237   3.989  0.7939 -0.4326 -0.0417
 8702SOL     OW37567   3.908   4.085   4.419  0.2182  0.5166  0.0869
 8702SOL    HW137568   3.843   4.051   4.481  0.7489  0.4023  0.5801
 8702SOL    HW237569   3.855   4.139   4.360  0.8118 -0.1140 -1.0130
 8703SOL     OW37570   1.268   1.635  16.061  0.5895 -0.2928 -0.3336
 8703SOL    HW137571   1.332   1.686  16.111  1.9686  0.7643 -3.1651
 8703SOL    HW237572   1.277   1.555  16.113 -1.1168  0.0744  0.5079
 8704SOL     OW37573   0.793   2.418   4.277  0.2640  0.6186  0.1795
 8704SOL    HW137574   0.775   2.332   4.314 -2.1923  0.2106 -2.0118
 8704SOL    HW237575   0.766   2.394   4.189 -0.3438  2.9720 -0.2725
 8705SOL     OW37576   3.573   2.905  15.860  0.2468  0.0556  0.3471
 8705SOL    HW137577   3.583   2.856  15.941  0.0850 -0.5953 -0.0267
 8705SOL    HW237578   3.578   2.997  15.887  0.7459 -0.4350  1.8884
 8706SOL     OW37579   2.497   1.713   9.103 -0.0100 -0.6642  0.0869
 8706SOL    HW137580   2.569   1.720   9.166 -1.4915 -0.6476  1.7584
 8706SOL    HW237581   2.548   1.701   9.022 -0.2929 -1.1179 -0.0254
 8707SOL     OW37582   2.959   4.183  15.468  0.0435 -0.0915  0.1279
 8707SOL    HW137583   3.050   4.189  15.440  0.1681  1.0299  0.7836
 8707SOL    HW237584   2.958   4.114  15.535 -2.1960  0.3336  0.5116
 8708SOL     OW37585   4.293   3.340   0.421 -0.0103 -0.3321 -0.2666
 8708SOL    HW137586   4.205   3.330   0.456 -0.4994  1.7079 -0.8935
 8708SOL    HW237587   4.298   3.293   0.338 -1.4761 -0.8873 -0.0357
 8709SOL     OW37588   2.864   4.237   5.066  0.4375  0.4651 -0.0612
 8709SOL    HW137589   2.777   4.260   5.097  0.0190 -1.3574  0.1354
 8709SOL    HW237590   2.862   4.240   4.970  0.1727 -0.7006 -0.0907
 8710SOL     OW37591   3.164   4.477  16.117  0.1090  0.2385 -0.4925
 8710SOL    HW137592   3.199   4.458  16.204 -1.9742  0.9598  0.5045
 8710SOL    HW237593   3.077   4.443  16.136  0.8831  0.9000  4.3884
 8711SOL     OW37594   0.204   4.650   2.518 -0.2018  0.3104 -0.5964
 8711SOL    HW137595   0.294   4.630   2.492  1.4889  1.3127  4.4703
 8711SOL    HW237596   0.181   4.721   2.458  0.0560 -0.4302 -1.5776
 8712SOL     OW37597   0.413   4.276  17.316 -0.5109  0.0219 -0.6457
 8712SOL    HW137598   0.500   4.302  17.285 -0.5614 -0.1103 -0.8974
 8712SOL    HW237599   0.398   4.199  17.262  2.7081 -1.6158  0.7543
 8713SOL     OW37600   1.188   2.592   8.181 -0.1813  0.2231  0.2391
 8713SOL    HW137601   1.238   2.514   8.203  1.5066  1.1374 -0.3882
 8713SOL    HW237602   1.103   2.566   8.147  0.0194 -0.4552  0.2703
 8714SOL     OW37603   2.824   0.295   0.991  0.0661  0.0312 -0.2079
 8714SOL    HW137604   2.875   0.216   0.973 -0.2747 -0.8671  2.7286
 8714SOL    HW237605   2.884   0.341   0.932 -2.6506  0.0333 -2.9526
 8715SOL     OW37606   1.460   4.107   6.262  0.2380 -0.1330  0.1111
 8715SOL    HW137607   1.499   4.140   6.343 -0.7769 -1.8528  1.3033
 8715SOL    HW237608   1.486   4.016   6.277  1.1373 -0.1908 -1.7567
 8716SOL     OW37609   2.777   2.708   7.210 -0.0502 -0.7304  0.6712
 8716SOL    HW137610   2.757   2.802   7.206  0.8192 -0.5338  0.9715
 8716SOL    HW237611   2.856   2.703   7.155 -0.5621 -1.3568 -0.0076
 8717SOL     OW37612   1.402   3.725   8.801 -0.6087 -0.1261  0.1226
 8717SOL    HW137613   1.489   3.731   8.762 -0.1302 -0.4470  1.1353
 8717SOL    HW237614   1.414   3.641   8.847  0.8660  0.8812  1.5777
 8718SOL     OW37615   4.270   0.193   3.247 -0.5559 -0.5557  0.5455
 8718SOL    HW137616   4.297   0.186   3.155 -0.2568  2.5128  0.4080
 8718SOL    HW237617   4.272   0.105   3.283 -2.7781 -1.2859 -1.0543
 8719SOL     OW37618   3.933   3.115   8.611 -0.2490  0.2691  0.1362
 8719SOL    HW137619   3.924   3.041   8.672 -1.3458  0.5657  0.3385
 8719SOL    HW237620   3.859   3.168   8.639  0.2450 -1.3545  4.4659
 8720SOL     OW37621   1.066   3.941   4.514 -0.2532 -0.1888 -0.1705
 8720SOL    HW137622   1.084   3.991   4.434  0.1628  0.2608  0.2123
 8720SOL    HW237623   1.022   4.012   4.561  0.8894  0.6490 -0.3920
 8721SOL     OW37624   3.457   2.652  12.399 -0.2595 -0.0548  0.1960
 8721SOL    HW137625   3.520   2.722  12.415 -0.1910 -0.0556 -0.0649
 8721SOL    HW237626   3.465   2.612  12.485  0.8446 -0.7450 -0.2301
 8722SOL     OW37627   1.528   0.976  11.740 -0.0044  0.3971 -0.5584
 8722SOL    HW137628   1.576   1.014  11.814  1.0242 -1.3378 -0.3499
 8722SOL    HW237629   1.440   0.967  11.778  0.1936  0.3018 -0.1172
 8723SOL     OW37630   2.559   0.841  15.932 -0.2687 -0.1076  0.3246
 8723SOL    HW137631   2.509   0.781  15.987 -2.0385  1.5061  0.4790
 8723SOL    HW237632   2.491   0.904  15.909  0.1620  0.1304 -0.3109
 8724SOL     OW37633   3.381   4.468  15.928  0.3402  0.0302 -0.2615
 8724SOL    HW137634   3.408   4.450  16.018 -1.1606 -1.9627 -0.2195
 8724SOL    HW237635   3.291   4.438  15.939  0.4074 -0.8991 -2.3217
 8725SOL     OW37636   4.200   4.672  13.524 -0.0686  0.3565 -0.7895
 8725SOL    HW137637   4.281   4.626  13.545 -0.5233  0.4520  1.1550
 8725SOL    HW237638   4.234   0.031  13.493 -0.2089  0.3617 -0.9283
 8726SOL     OW37639   0.507   0.416   3.483 -0.4562 -0.2377  0.2389
 8726SOL    HW137640   0.566   0.342   3.498  0.2979  0.2404 -0.3298
 8726SOL    HW237641   0.578   0.479   3.500 -0.6253 -0.2907  1.1693
 8727SOL     OW37642   0.691   3.834   6.156 -0.4274  0.4035  0.0940
 8727SOL    HW137643   0.644   3.778   6.094 -0.0750 -0.4002  0.5593
 8727SOL    HW237644   0.620   3.867   6.212 -2.1495 -1.2212 -1.1177
 8728SOL     OW37645   4.314   0.905   3.952  0.4873  0.1584  0.2925
 8728SOL    HW137646   4.355   0.975   3.902 -2.5753  1.9908  0.4033
 8728SOL    HW237647   4.391   0.851   3.970  0.0668 -1.1754 -1.9475
 8729SOL     OW37648   3.119   0.991   8.833  0.4800  0.1434  0.1988
 8729SOL    HW137649   3.090   0.905   8.865 -2.3317  0.7182 -0.7897
 8729SOL    HW237650   3.195   0.991   8.891 -0.2133 -0.2450  1.1174
 8730SOL     OW37651   0.884   0.352   4.043 -0.3273  1.4964  0.2344
 8730SOL    HW137652   0.932   0.433   4.061 -0.0792  1.1748  1.0292
 8730SOL    HW237653   0.958   0.300   4.011 -2.3247 -2.1204  1.4254
 8731SOL     OW37654   2.143   2.659   9.317  0.5472 -0.1181  0.4657
 8731SOL    HW137655   2.128   2.733   9.257 -0.0748 -0.7822 -0.1892
 8731SOL    HW237656   2.069   2.602   9.299  0.0144  1.2496 -1.7003
 8732SOL     OW37657   3.230   1.517   7.370 -0.2078 -0.6907 -0.8165
 8732SOL    HW137658   3.158   1.560   7.416  0.1549 -0.4176 -0.5187
 8732SOL    HW237659   3.197   1.511   7.280 -0.0777 -0.4465 -0.8806
 8733SOL     OW37660   3.147   0.499   9.104 -0.4114 -0.5325 -0.2847
 8733SOL    HW137661   3.228   0.495   9.053  0.1992 -2.0889  0.8208
 8733SOL    HW237662   3.176   0.437   9.170 -0.0569 -1.3663 -1.2360
 8734SOL     OW37663   1.326   4.411   9.937  0.1343  0.1252  0.8047
 8734SOL    HW137664   1.268   4.374   9.870  0.5638  1.1929 -0.1518
 8734SOL    HW237665   1.363   4.334   9.981 -1.2032 -0.6182  0.6269
 8735SOL     OW37666   4.144   4.063  14.912 -0.3896  0.3041 -0.0194
 8735SOL    HW137667   4.213   4.008  14.950  0.5642  0.3132 -1.7405
 8735SOL    HW237668   4.075   4.057  14.978 -0.5582  0.6499 -0.1653
 8736SOL     OW37669   2.606   1.502   8.080 -0.2790  0.4213  0.4392
 8736SOL    HW137670   2.621   1.550   8.161 -0.8028 -0.3276  0.9734
 8736SOL    HW237671   2.658   1.557   8.020 -1.9131  0.1380 -1.2506
 8737SOL     OW37672   2.379   1.594   7.802 -0.3727  0.2232 -0.3178
 8737SOL    HW137673   2.339   1.641   7.729 -0.7490 -1.2420 -1.0522
 8737SOL    HW237674   2.316   1.603   7.874 -1.4718  0.6823 -1.3333
 8738SOL     OW37675   1.612   4.142  13.307 -0.4635  0.0522  0.0001
 8738SOL    HW137676   1.610   4.076  13.376 -0.3267 -0.0900 -0.1321
 8738SOL    HW237677   1.701   4.151  13.273 -1.0718 -0.5202 -1.6895
 8739SOL     OW37678   3.867   3.991   1.440 -0.0135 -0.7198 -0.2258
 8739SOL    HW137679   3.887   4.023   1.352  4.1042  0.7977  1.2800
 8739SOL    HW237680   3.903   3.902   1.436 -0.5988 -0.9368 -0.5435
 8740SOL     OW37681   1.834   4.615   3.463  0.5492 -0.2785  0.0996
 8740SOL    HW137682   1.757   4.630   3.408 -0.4791  2.1244  2.1433
 8740SOL    HW237683   1.907   4.651   3.412 -0.5123  0.5502 -0.8345
 8741SOL     OW37684   0.957   2.174   8.172  0.1037  0.3576  0.0940
 8741SOL    HW137685   0.924   2.132   8.093 -2.2522  2.0494  0.1865
 8741SOL    HW237686   1.035   2.123   8.193  0.2191 -0.3932 -2.2700
 8742SOL     OW37687   2.891   2.489   7.483 -0.0074 -0.2589 -0.1901
 8742SOL    HW137688   2.979   2.502   7.519  0.8748  1.1009 -2.8987
 8742SOL    HW237689   2.853   2.423   7.541  0.9974 -1.6867 -1.1585
 8743SOL     OW37690   3.680   1.249   5.429  0.6757 -0.1532  0.9228
 8743SOL    HW137691   3.607   1.187   5.433 -0.4396  1.1480  0.6690
 8743SOL    HW237692   3.644   1.330   5.465 -2.7603 -0.4771 -1.7411
 8744SOL     OW37693   2.010   1.388   3.474  0.0259  0.8765  0.0236
 8744SOL    HW137694   1.992   1.296   3.457  0.2019  0.9701 -0.7127
 8744SOL    HW237695   1.999   1.426   3.387 -1.9424 -0.0494 -0.1279
 8745SOL     OW37696   1.423   0.548   3.791  0.0414  0.1937 -0.3692
 8745SOL    HW137697   1.399   0.636   3.820 -2.1203 -1.3998  2.6761
 8745SOL    HW237698   1.367   0.533   3.715 -1.4090 -1.0294  0.9440
 8746SOL     OW37699   2.167   1.920   5.870 -0.0091 -0.7806  0.6839
 8746SOL    HW137700   2.193   1.918   5.778  4.3290 -0.6327  1.9421
 8746SOL    HW237701   2.220   1.999   5.883 -0.6812  0.0290 -1.5650
 8747SOL     OW37702   1.993   2.735   5.734  0.6637  0.3070 -0.2818
 8747SOL    HW137703   1.924   2.801   5.727  1.2483  0.9620  0.1669
 8747SOL    HW237704   1.979   2.713   5.826  1.6087 -1.2304 -0.5048
 8748SOL     OW37705   3.872   4.254   3.204 -0.2922  0.5753  0.5053
 8748SOL    HW137706   3.883   4.242   3.298  0.7307 -1.9615  0.0571
 8748SOL    HW237707   3.944   4.202   3.170 -1.0108  0.4670 -0.8517
 8749SOL     OW37708   0.412   4.077  13.302 -0.2082 -0.2955  0.5679
 8749SOL    HW137709   0.461   3.999  13.276  0.2356 -0.5335  2.0985
 8749SOL    HW237710   0.477   4.125  13.354  0.2169 -0.8644  0.5653
 8750SOL     OW37711   0.169   4.705  16.023 -0.1600  0.0692  0.3282
 8750SOL    HW137712   0.210   4.673  15.942 -1.3252  1.3638 -0.7746
 8750SOL    HW237713   0.245   0.021  16.064  1.7516 -1.8064 -1.3122
 8751SOL     OW37714   0.770   1.653  17.636  0.0773 -0.4468 -0.5477
 8751SOL    HW137715   0.777   1.558  17.637 -0.6073 -0.5165 -1.9313
 8751SOL    HW237716   0.747   1.675  17.546 -0.2679 -0.6514 -0.5082
 8752SOL     OW37717   3.783   3.165   9.297 -0.1179  0.0399 -0.1208
 8752SOL    HW137718   3.722   3.178   9.370 -0.0683  0.9000 -0.2373
 8752SOL    HW237719   3.865   3.174   9.345 -0.7909  0.7163  0.8894
 8753SOL     OW37720   2.096   2.932   9.151  0.0285 -0.0423  0.3617
 8753SOL    HW137721   2.023   2.896   9.101 -0.6737  1.1036  0.5465
 8753SOL    HW237722   2.067   3.019   9.180  2.7488  1.3962 -1.2856
 8754SOL     OW37723   4.273   2.150  11.382  0.3785 -0.3141 -0.0791
 8754SOL    HW137724   4.319   2.070  11.408 -1.4988 -1.6098 -0.7821
 8754SOL    HW237725   4.332   2.225  11.385  0.3547 -0.2916 -0.1724
 8755SOL     OW37726   0.908   4.226   7.919 -0.1629 -0.4613 -0.6016
 8755SOL    HW137727   0.887   4.178   7.839 -0.7236  1.9459 -1.9057
 8755SOL    HW237728   0.821   4.231   7.959 -1.0199 -3.2667 -2.1192
 8756SOL     OW37729   4.111   2.872   0.859 -0.6151 -0.2311  0.5266
 8756SOL    HW137730   4.129   2.827   0.942 -2.9431 -0.3907  0.9543
 8756SOL    HW237731   4.020   2.848   0.842 -1.0631  1.2283  0.8288
 8757SOL     OW37732   2.767   2.737   8.518 -0.1244 -0.0149  0.2800
 8757SOL    HW137733   2.742   2.734   8.611 -1.6469  0.1434 -0.1246
 8757SOL    HW237734   2.749   2.826   8.488 -0.9910  0.1881  1.4188
 8758SOL     OW37735   3.066   1.719  14.868 -0.2210 -0.2289 -0.0065
 8758SOL    HW137736   2.978   1.693  14.841  0.3821  0.0680 -2.2346
 8758SOL    HW237737   3.044   1.728  14.961  0.9266 -0.3252  0.2802
 8759SOL     OW37738   2.378   0.177   2.434 -0.2270 -0.0489  0.4641
 8759SOL    HW137739   2.287   0.155   2.416 -0.6950  1.4129  0.9997
 8759SOL    HW237740   2.375   0.273   2.433 -1.3364 -0.0863  0.0043
 8760SOL     OW37741   0.513   0.697  13.618  0.1302 -0.5886 -0.1262
 8760SOL    HW137742   0.506   0.677  13.711 -2.1285  0.2388 -0.1330
 8760SOL    HW237743   0.595   0.747  13.611 -1.1509  1.7306  1.5697
 8761SOL     OW37744   3.229   3.139  12.581  0.3873  0.6257  0.0431
 8761SOL    HW137745   3.185   3.177  12.657 -1.7156  1.3006 -1.5166
 8761SOL    HW237746   3.281   3.066  12.614  0.8431  0.8052 -0.2907
 8762SOL     OW37747   2.050   2.595   3.797 -0.2928  0.0673 -0.1991
 8762SOL    HW137748   2.057   2.535   3.871 -1.9971 -0.9130 -0.8392
 8762SOL    HW237749   2.076   2.676   3.842 -0.4903  0.4385 -0.7431
 8763SOL     OW37750   2.579   1.129  16.375 -0.1014  0.3560  0.0425
 8763SOL    HW137751   2.498   1.177  16.391  0.0711  1.1865 -1.6063
 8763SOL    HW237752   2.591   1.102  16.466  0.3196 -0.7046 -0.3253
 8764SOL     OW37753   1.758   1.186   3.647 -0.0755 -0.4222 -0.0640
 8764SOL    HW137754   1.772   1.264   3.701 -0.7378 -1.0613  1.0307
 8764SOL    HW237755   1.696   1.209   3.578 -0.4548  0.2302  0.4921
 8765SOL     OW37756   1.874   1.803  14.637 -0.1445  0.0056  0.3975
 8765SOL    HW137757   1.798   1.816  14.582 -0.3089  2.1028  1.1238
 8765SOL    HW237758   1.890   1.889  14.676  2.5545 -0.6502  0.7425
 8766SOL     OW37759   2.306   0.973   2.902  0.4650  0.1332 -0.4012
 8766SOL    HW137760   2.323   0.937   2.989 -1.3700 -1.3476 -0.6518
 8766SOL    HW237761   2.248   0.908   2.860 -2.4929  2.5261  0.0096
 8767SOL     OW37762   1.677   1.447   6.073 -0.4975  0.2859 -0.0680
 8767SOL    HW137763   1.721   1.515   6.124 -0.2634 -1.0431  1.5015
 8767SOL    HW237764   1.600   1.495   6.042  0.3357  2.7961  1.6891
 8768SOL     OW37765   0.916   1.002   3.176 -0.2071 -0.2611 -0.8832
 8768SOL    HW137766   0.990   1.014   3.236 -2.0530 -1.2794  1.5654
 8768SOL    HW237767   0.843   0.996   3.237 -0.7716  1.5734 -1.3815
 8769SOL     OW37768   1.501   0.802   7.422  0.6664  0.3734  0.4540
 8769SOL    HW137769   1.461   0.881   7.385  2.2492  0.5202 -0.9654
 8769SOL    HW237770   1.547   0.762   7.349 -2.1415 -1.4234 -0.3307
 8770SOL     OW37771   1.566   1.447   6.627 -0.3914 -0.2104 -0.0435
 8770SOL    HW137772   1.644   1.498   6.608  1.0228 -0.8469  4.1138
 8770SOL    HW237773   1.506   1.485   6.562 -0.2070 -0.1671 -0.1899
 8771SOL     OW37774   0.079   0.228   6.173 -0.3689  0.0574 -0.2942
 8771SOL    HW137775   0.025   0.247   6.249  1.9311  1.0605  1.0794
 8771SOL    HW237776   0.140   0.172   6.221 -0.8647  0.3138  0.6285
 8772SOL     OW37777   3.765   1.007  10.703  0.2964 -0.6981 -0.1439
 8772SOL    HW137778   3.695   1.010  10.769  1.4788 -1.4510  1.1518
 8772SOL    HW237779   3.713   0.990  10.624 -1.7111  1.8239  0.6352
 8773SOL     OW37780   2.380   0.969   1.711  0.1381  0.2095  0.1673
 8773SOL    HW137781   2.430   0.889   1.697 -4.1265 -2.8914  2.5232
 8773SOL    HW237782   2.403   1.019   1.633 -1.0986 -0.5069 -0.6501
 8774SOL     OW37783   3.719   2.676   5.253 -0.7161  0.4177  0.0694
 8774SOL    HW137784   3.815   2.678   5.252 -0.7437  0.9318 -1.3775
 8774SOL    HW237785   3.700   2.589   5.217  1.4773  0.6325 -1.6579
 8775SOL     OW37786   3.787   1.993  10.333  0.3029  0.2038  0.5260
 8775SOL    HW137787   3.741   2.040  10.402  0.2024  0.7758  0.0773
 8775SOL    HW237788   3.714   1.951  10.288  1.2538 -0.7520 -0.1423
 8776SOL     OW37789   2.995   4.550   5.424  0.1975 -0.3049  0.1908
 8776SOL    HW137790   3.016   4.485   5.357  0.7126 -1.3236  1.3321
 8776SOL    HW237791   3.060   4.543   5.494  0.5696  0.9811 -0.0254
 8777SOL     OW37792   1.755   3.863   4.308 -0.1563 -0.2137  0.1779
 8777SOL    HW137793   1.765   3.940   4.252  0.4836  0.2173  0.8913
 8777SOL    HW237794   1.660   3.863   4.315 -0.2323 -1.3617 -0.8362
 8778SOL     OW37795   4.144   0.815   7.057 -0.3237  0.0654 -0.8823
 8778SOL    HW137796   4.215   0.856   7.008 -0.4051  3.4573  1.8573
 8778SOL    HW237797   4.110   0.747   6.998 -2.7358  0.7167 -0.2372
 8779SOL     OW37798   4.383   1.367   7.906  0.5454  0.4122  0.4538
 8779SOL    HW137799   4.426   1.282   7.917 -1.2953 -0.1931  2.8237
 8779SOL    HW237800   4.352   1.361   7.816  0.1779  1.6008  0.5054
 8780SOL     OW37801   2.108   2.227   4.421  0.1137  0.5795  0.2232
 8780SOL    HW137802   2.200   2.252   4.409  0.3132 -0.1130  0.2809
 8780SOL    HW237803   2.072   2.314   4.437 -0.4612  0.5569 -0.9932
 8781SOL     OW37804   1.999   0.696   4.667  0.4975  0.2982  0.0031
 8781SOL    HW137805   2.058   0.768   4.649  1.8367 -0.7537  0.2222
 8781SOL    HW237806   1.922   0.747   4.692  1.6623  1.9098  0.2827
 8782SOL     OW37807   3.876   1.240  11.498  0.5140 -0.2765 -0.2324
 8782SOL    HW137808   3.884   1.155  11.455 -1.7867 -1.3041  1.3471
 8782SOL    HW237809   3.912   1.300  11.433 -1.1570 -0.9164 -1.7467
 8783SOL     OW37810   2.793   3.337   9.028 -0.3242 -0.1967 -0.1443
 8783SOL    HW137811   2.798   3.263   9.089  0.2093  0.8427  1.0675
 8783SOL    HW237812   2.880   3.375   9.023 -1.3677  2.0518 -0.9992
 8784SOL     OW37813   1.312   2.339  12.837  0.4245  0.0647  0.1251
 8784SOL    HW137814   1.224   2.330  12.799  0.2965 -2.3009  0.9707
 8784SOL    HW237815   1.326   2.250  12.868 -1.0431  0.4182  1.8277
 8785SOL     OW37816   1.236   0.716   5.473  1.0193  0.1403 -0.1631
 8785SOL    HW137817   1.173   0.769   5.425 -0.8622  0.6685  2.8562
 8785SOL    HW237818   1.244   0.639   5.417 -3.2289  0.1068 -0.6825
 8786SOL     OW37819   3.680   4.033  12.806  0.1700  0.6893  0.7003
 8786SOL    HW137820   3.670   4.100  12.739 -1.4486 -0.1616  0.0786
 8786SOL    HW237821   3.700   3.956  12.752  0.6960  1.5772 -0.3567
 8787SOL     OW37822   1.390   0.469   6.830 -0.3013 -0.5079  0.4534
 8787SOL    HW137823   1.469   0.433   6.789  0.2682  1.4660 -0.1876
 8787SOL    HW237824   1.418   0.554   6.864 -2.8144  0.8590 -0.9382
 8788SOL     OW37825   4.359   4.360   4.316  0.2013 -0.2166  0.2937
 8788SOL    HW137826   4.326   4.271   4.304 -0.5338 -0.2913  2.7812
 8788SOL    HW237827   4.349   4.396   4.228 -2.0001 -0.7170  0.3608
 8789SOL     OW37828   3.269   1.054   8.624  0.2472  0.2000  0.1147
 8789SOL    HW137829   3.356   1.047   8.662 -0.1818 -1.5820  0.7987
 8789SOL    HW237830   3.203   1.051   8.694 -0.4388 -1.2679 -0.5809
 8790SOL     OW37831   2.738   1.803  15.477 -0.0307 -0.4437 -0.0659
 8790SOL    HW137832   2.657   1.784  15.523 -0.8410  0.4141 -1.1421
 8790SOL    HW237833   2.707   1.827  15.389  0.1004  0.3105  0.0937
 8791SOL     OW37834   1.158   0.886   6.983 -0.2365 -0.3362  0.1261
 8791SOL    HW137835   1.154   0.907   6.889  1.4013  1.6776  0.4833
 8791SOL    HW237836   1.252   0.898   6.998 -0.1079  1.0519 -1.7830
 8792SOL     OW37837   2.053   4.361   1.582  0.1561  0.4935 -0.0322
 8792SOL    HW137838   2.110   4.296   1.541 -1.1636 -2.1766  2.3471
 8792SOL    HW237839   2.026   4.319   1.664  0.3952  0.9256  0.2716
 8793SOL     OW37840   3.963   4.201   7.588 -0.1490  0.4630 -0.0240
 8793SOL    HW137841   3.916   4.126   7.624 -0.3421  0.0735 -1.1164
 8793SOL    HW237842   3.892   4.220   7.527 -0.2657 -0.5024 -0.1842
 8794SOL     OW37843   3.693   4.626   8.191 -0.2113  0.1146  0.2324
 8794SOL    HW137844   3.713   4.696   8.129  2.5164 -0.0420  0.9550
 8794SOL    HW237845   3.604   4.605   8.161  0.5267 -1.2043 -1.0263
 8795SOL     OW37846   2.094   3.575  11.553  0.6381 -0.5498  0.0640
 8795SOL    HW137847   2.017   3.533  11.515  0.0174  2.0635 -1.5904
 8795SOL    HW237848   2.147   3.500  11.580  2.4768  0.6194 -0.3131
 8796SOL     OW37849   4.506   0.154  13.714  0.3842  0.0671 -0.6731
 8796SOL    HW137850   4.474   0.148  13.804 -0.1585  0.4602 -0.8385
 8796SOL    HW237851   4.598   0.181  13.725  0.1531 -0.6485  2.7508
 8797SOL     OW37852   1.350   0.485  16.766  0.0919  0.1010 -0.0495
 8797SOL    HW137853   1.348   0.575  16.801  0.7427  0.4655 -0.9612
 8797SOL    HW237854   1.274   0.449  16.812 -1.0068 -0.0018 -1.9367
 8798SOL     OW37855   4.231   2.001   2.217 -0.6264 -0.0919  0.0371
 8798SOL    HW137856   4.309   2.008   2.161 -0.8952  2.0040 -0.0862
 8798SOL    HW237857   4.257   2.062   2.286  3.3859 -0.4222 -1.1848
 8799SOL     OW37858   0.756   1.283  15.300 -0.6201  0.0431  0.6465
 8799SOL    HW137859   0.732   1.256  15.211 -0.1375  1.5222  0.0689
 8799SOL    HW237860   0.851   1.272  15.299 -0.6300 -0.0541  1.1155
 8800SOL     OW37861   3.113   3.146  11.030  0.4130  0.3648  0.5160
 8800SOL    HW137862   3.071   3.198  11.098 -1.0474 -1.4743  1.0486
 8800SOL    HW237863   3.055   3.073  11.009  2.6402 -1.2355 -0.0887
 8801SOL     OW37864   2.367   0.252   0.383  0.4350 -0.5343 -0.5484
 8801SOL    HW137865   2.344   0.241   0.291  0.2814  0.9816 -0.7061
 8801SOL    HW237866   2.289   0.295   0.419 -0.1996 -0.8858 -1.5097
 8802SOL     OW37867   4.384   1.301   5.997  0.0928 -0.1679 -0.7433
 8802SOL    HW137868   4.361   1.381   6.044 -0.7972  0.3480 -2.0743
 8802SOL    HW237869   4.472   1.279   6.026  0.8727  0.2645 -2.8412
 8803SOL     OW37870   3.793   0.823   4.418  0.4157 -0.0977  0.3368
 8803SOL    HW137871   3.746   0.905   4.404 -0.0055  0.0737  2.7323
 8803SOL    HW237872   3.802   0.788   4.329 -0.2628  0.8116 -0.0803
 8804SOL     OW37873   4.349   2.106   4.446 -0.1152 -0.3163  0.3403
 8804SOL    HW137874   4.338   2.014   4.421  1.0043 -0.5861  0.8571
 8804SOL    HW237875   4.443   2.115   4.464 -0.0181  2.6393 -1.6493
 8805SOL     OW37876   0.155   3.694   7.764  0.2088 -0.0315  0.0765
 8805SOL    HW137877   0.169   3.599   7.765 -0.1040 -0.0953 -1.7560
 8805SOL    HW237878   0.087   3.707   7.698 -1.0387 -2.2896  0.9021
 8806SOL     OW37879   3.311   2.611  17.289 -0.1331  0.0766  0.6638
 8806SOL    HW137880   3.345   2.609  17.378 -0.2722 -0.7290  0.7008
 8806SOL    HW237881   3.256   2.690  17.284  0.9549  0.8642  1.1350
 8807SOL     OW37882   0.965   4.104   4.719 -0.4550 -0.3229  0.1611
 8807SOL    HW137883   0.887   4.064   4.757 -1.4903  1.3712 -0.1565
 8807SOL    HW237884   0.919   4.188   4.716 -0.3807 -0.4672 -4.4897
 8808SOL     OW37885   2.774   4.154   9.421  0.2809  0.2403  0.1200
 8808SOL    HW137886   2.688   4.189   9.446  0.2968 -0.5728  1.3380
 8808SOL    HW237887   2.795   4.116   9.506 -1.4774 -3.1681 -0.9363
 8809SOL     OW37888   0.781   0.525   2.278 -0.0548 -0.7513 -0.0127
 8809SOL    HW137889   0.807   0.516   2.186  1.1809  1.2407  0.1425
 8809SOL    HW237890   0.702   0.471   2.281 -0.4212 -0.2655 -0.8424
 8810SOL     OW37891   4.334   2.208   6.827 -0.3033  0.0567  0.4778
 8810SOL    HW137892   4.335   2.299   6.799 -0.0241  1.4169  4.8109
 8810SOL    HW237893   4.250   2.206   6.874 -0.8705 -0.6958 -0.5694
 8811SOL     OW37894   1.359   2.631   3.467  0.0408 -0.9323 -0.3121
 8811SOL    HW137895   1.386   2.659   3.554  0.1422  0.1699 -0.7013
 8811SOL    HW237896   1.298   2.696   3.432 -1.1307 -2.6650 -1.5293
 8812SOL     OW37897   2.404   3.324  11.918  0.0348  0.2035  0.2256
 8812SOL    HW137898   2.333   3.382  11.893  2.4343  2.2825 -1.7889
 8812SOL    HW237899   2.447   3.331  11.833  1.4977 -0.7599  0.8782
 8813SOL     OW37900   0.456   0.816   4.052  0.6113 -0.1258  0.2562
 8813SOL    HW137901   0.484   0.905   4.071 -0.8794  0.2550  0.6286
 8813SOL    HW237902   0.386   0.807   4.117 -0.2027  2.5056 -0.2806
 8814SOL     OW37903   3.682   0.976   8.935  0.0862 -0.2723  0.0814
 8814SOL    HW137904   3.772   0.949   8.954  0.3122  1.1652  1.0374
 8814SOL    HW237905   3.638   0.964   9.019  1.0335  0.7760  0.7209
 8815SOL     OW37906   1.693   3.420   4.162 -0.0061 -0.2491  0.1828
 8815SOL    HW137907   1.719   3.328   4.159 -0.7025 -0.4971  2.3093
 8815SOL    HW237908   1.677   3.439   4.069  0.7108 -0.4386  0.0207
 8816SOL     OW37909   0.680   2.210   7.213 -0.0679 -0.3505 -0.2149
 8816SOL    HW137910   0.591   2.211   7.248 -0.1812  0.0168 -0.5106
 8816SOL    HW237911   0.700   2.117   7.207  0.7230  0.0469 -3.7532
 8817SOL     OW37912   0.493   4.471   2.946 -0.0691  0.0039  0.4385
 8817SOL    HW137913   0.527   4.512   3.026  0.3048  0.3825  0.0881
 8817SOL    HW237914   0.400   4.477   2.964 -0.0168 -0.5909  0.9323
 8818SOL     OW37915   2.552   1.628   7.264  0.6444  0.1874 -0.0750
 8818SOL    HW137916   2.575   1.583   7.183 -1.2479  1.7427 -1.5023
 8818SOL    HW237917   2.592   1.587   7.341  0.3773 -1.0113 -0.5710
 8819SOL     OW37918   1.137   3.135   2.280  0.0027 -0.0484 -0.0082
 8819SOL    HW137919   1.207   3.072   2.294  0.6409  1.0457  1.8330
 8819SOL    HW237920   1.060   3.083   2.305 -0.1783 -0.7104 -1.9808
 8820SOL     OW37921   2.099   2.208   7.246  0.1382  0.1176  0.0284
 8820SOL    HW137922   2.095   2.170   7.334 -1.2323 -0.9551 -0.4963
 8820SOL    HW237923   2.053   2.142   7.194 -0.3302  0.5587 -0.1183
 8821SOL     OW37924   1.494   3.474   6.577 -0.3256 -0.0405  0.2104
 8821SOL    HW137925   1.464   3.423   6.502 -0.7635  0.3933  0.0959
 8821SOL    HW237926   1.506   3.407   6.645  0.3459 -2.7274 -2.5767
 8822SOL     OW37927   2.861   0.931   4.420  0.6124  0.5005  0.5770
 8822SOL    HW137928   2.952   0.945   4.393  0.6035  0.5757  0.5873
 8822SOL    HW237929   2.870   0.852   4.474  1.8065 -0.0217 -0.3805
 8823SOL     OW37930   3.001   2.329   8.004 -0.8230  0.3024  0.7754
 8823SOL    HW137931   2.985   2.343   8.098  2.0500  1.2391  1.1126
 8823SOL    HW237932   2.941   2.257   7.987 -0.2904 -0.5804  2.5950
 8824SOL     OW37933   1.415   3.941   4.549  0.7066 -0.6114  0.3161
 8824SOL    HW137934   1.421   3.928   4.454  2.0242  2.1735 -0.0061
 8824SOL    HW237935   1.327   3.920   4.579  0.3448  0.7755  0.2442
 8825SOL     OW37936   0.220   0.165   6.842 -0.1882  0.0394 -0.0454
 8825SOL    HW137937   0.196   0.257   6.827 -0.0249  0.0132 -0.4792
 8825SOL    HW237938   0.151   0.133   6.900 -1.7289  1.6024 -0.9945
 8826SOL     OW37939   2.005   0.677   8.670 -0.0843 -0.4868 -0.0860
 8826SOL    HW137940   2.065   0.748   8.651 -0.6505 -0.0150 -0.1127
 8826SOL    HW237941   2.060   0.603   8.696  1.6369  0.5824 -0.6927
 8827SOL     OW37942   0.136   1.529   3.550  0.2078  0.0750  1.0023
 8827SOL    HW137943   0.117   1.619   3.578  0.4632  0.6318 -0.5761
 8827SOL    HW237944   0.048   1.497   3.532  0.3261  1.2808 -1.8639
 8828SOL     OW37945   2.642   1.061   2.351  0.6122  0.2080 -0.0438
 8828SOL    HW137946   2.577   1.072   2.282  0.3083  4.0414  0.8472
 8828SOL    HW237947   2.617   1.123   2.419  2.7038  0.7812  0.2295
 8829SOL     OW37948   3.553   1.120  13.544  0.2192  0.4992 -0.8610
 8829SOL    HW137949   3.570   1.070  13.464 -0.4738 -2.0594  0.5920
 8829SOL    HW237950   3.634   1.169  13.554  1.0036 -1.2749  1.5099
 8830SOL     OW37951   3.503   3.017   8.069  0.0824 -0.3291  0.2928
 8830SOL    HW137952   3.498   3.098   8.019  2.5139 -0.0178  0.5836
 8830SOL    HW237953   3.415   2.992   8.039  1.0438 -1.7112 -1.3831
 8831SOL     OW37954   4.101   3.365  15.058  0.4301  0.2301  0.0255
 8831SOL    HW137955   4.109   3.293  15.121  2.6486 -0.0392 -0.5553
 8831SOL    HW237956   4.017   3.405  15.082  1.2409  2.4069 -0.8410
 8832SOL     OW37957   3.169   1.089   6.160 -0.3175 -0.0377  0.4635
 8832SOL    HW137958   3.081   1.095   6.124 -0.4202 -2.2521  0.3492
 8832SOL    HW237959   3.220   1.044   6.093  2.6286  0.1567  2.5941
 8833SOL     OW37960   3.290   0.653  14.641  0.2437  0.2976  0.1355
 8833SOL    HW137961   3.314   0.728  14.587 -1.5156  1.1556  0.5568
 8833SOL    HW237962   3.201   0.675  14.668  1.4510  1.0613  3.4745
 8834SOL     OW37963   2.117   4.371   3.690  0.0770  0.1535  0.3384
 8834SOL    HW137964   2.119   4.289   3.739 -1.5943 -0.3710 -0.4665
 8834SOL    HW237965   2.029   4.372   3.652 -0.5487 -1.8203  1.7326
 8835SOL     OW37966   1.677   1.677  16.373 -0.3256  0.4070  0.0738
 8835SOL    HW137967   1.695   1.741  16.304 -0.7426  2.1100  1.5589
 8835SOL    HW237968   1.747   1.688  16.438 -0.0883  3.3790 -0.6896
 8836SOL     OW37969   3.490   1.614   5.364  0.2322 -0.0787 -0.0274
 8836SOL    HW137970   3.477   1.564   5.445  0.4434  0.2739  0.2246
 8836SOL    HW237971   3.456   1.699   5.393 -0.1225  0.4206 -1.9284
 8837SOL     OW37972   0.110   3.536  16.354 -0.1446  0.0139  0.8673
 8837SOL    HW137973   0.187   3.526  16.410  1.1850 -0.6914 -1.0748
 8837SOL    HW237974   0.135   3.621  16.317  1.6474 -0.3893  1.1412
 8838SOL     OW37975   3.315   1.541   1.659 -0.3760 -0.5322 -0.0222
 8838SOL    HW137976   3.347   1.510   1.744 -2.4382 -1.9403  0.2366
 8838SOL    HW237977   3.231   1.583   1.674  0.6036  1.2153  0.5656
 8839SOL     OW37978   1.035   2.931  13.620  0.0612  0.5124 -0.1661
 8839SOL    HW137979   1.120   2.931  13.663 -0.5846 -0.3875  1.1006
 8839SOL    HW237980   1.053   2.951  13.528 -1.0675  0.0881 -0.4868
 8840SOL     OW37981   4.001   1.997   1.358  0.4416  0.5549 -0.4052
 8840SOL    HW137982   3.989   1.953   1.442 -0.1744  0.5936 -0.4762
 8840SOL    HW237983   3.933   2.064   1.363 -1.1917 -1.2620  1.7361
 8841SOL     OW37984   1.307   2.607   3.181 -0.1065  0.4456  0.8438
 8841SOL    HW137985   1.293   2.655   3.262  2.3183 -0.0706  1.5702
 8841SOL    HW237986   1.229   2.622   3.128 -0.2021  2.7722  1.6635
 8842SOL     OW37987   2.052   1.707   2.021 -0.2514  0.0972 -0.2283
 8842SOL    HW137988   1.965   1.667   2.024  0.5076 -1.5605 -0.4251
 8842SOL    HW237989   2.075   1.705   2.113  1.4812 -1.7876 -0.6953
 8843SOL     OW37990   1.201   0.804   6.313  0.0525 -0.0112  0.0498
 8843SOL    HW137991   1.247   0.849   6.242 -0.1373  2.3562  1.4353
 8843SOL    HW237992   1.258   0.738   6.351 -0.3746  0.8399  2.1443
 8844SOL     OW37993   4.723   2.154   3.803  0.6249 -0.0026 -0.8356
 8844SOL    HW137994   4.659   2.187   3.739 -0.9225 -2.0473 -0.3367
 8844SOL    HW237995   4.720   2.060   3.787 -1.6430  0.4408 -2.9331
 8845SOL     OW37996   1.639   2.343   2.720 -0.6250 -0.0555  0.0716
 8845SOL    HW137997   1.669   2.369   2.633  1.6966  0.9745  1.1964
 8845SOL    HW237998   1.559   2.393   2.736  0.2797  2.0456 -2.0223
 8846SOL     OW37999   2.856   0.737   6.980 -0.4403  0.0915 -0.3686
 8846SOL    HW138000   2.951   0.741   6.989 -0.6880  0.7123  1.9722
 8846SOL    HW238001   2.838   0.712   6.889 -0.4117 -0.8993 -0.0954
 8847SOL     OW38002   1.343   0.275   2.134 -0.1598 -0.1048  0.2287
 8847SOL    HW138003   1.285   0.350   2.138  0.9055  0.6947  0.6341
 8847SOL    HW238004   1.425   0.322   2.146 -0.6544  1.2027 -1.5779
 8848SOL     OW38005   0.661   2.820   4.233  0.4395 -0.0667  0.7008
 8848SOL    HW138006   0.567   2.805   4.242  0.2397  0.6653 -0.1258
 8848SOL    HW238007   0.666   2.896   4.175  1.5251 -2.7893 -2.7629
 8849SOL     OW38008   2.591   4.474  11.863  0.3113 -0.7019  0.1883
 8849SOL    HW138009   2.567   4.493  11.772 -1.3031  0.3006  0.8072
 8849SOL    HW238010   2.660   4.539  11.873  1.7889 -2.4066  0.9221
 8850SOL     OW38011   2.246   1.551  17.176 -0.0218 -0.1051  0.0845
 8850SOL    HW138012   2.192   1.610  17.123  2.0248  2.1835  0.5449
 8850SOL    HW238013   2.210   1.464  17.158  1.0343 -0.3220 -0.9742
 8851SOL     OW38014   3.484   3.484   2.381  0.5525  0.5002 -0.3309
 8851SOL    HW138015   3.506   3.563   2.332  0.1223  1.0465  0.3498
 8851SOL    HW238016   3.464   3.416   2.317  0.0413  0.6019 -0.2804
 8852SOL     OW38017   4.602   0.422   7.460 -0.1964 -0.0092 -0.1255
 8852SOL    HW138018   4.550   0.462   7.391  1.1583  1.3985 -0.3348
 8852SOL    HW238019   4.554   0.340   7.468 -1.9876  1.2069  1.8281
 8853SOL     OW38020   0.825   3.396   4.044  0.1161  0.0773 -0.1731
 8853SOL    HW138021   0.854   3.340   4.116 -0.0500 -0.4668 -0.5329
 8853SOL    HW238022   0.792   3.324   3.990  0.7891 -1.9415  2.1268
 8854SOL     OW38023   1.030   2.440   1.876 -0.3260 -0.0380 -0.4885
 8854SOL    HW138024   1.010   2.347   1.888  0.9092 -0.2196  0.2751
 8854SOL    HW238025   0.954   2.485   1.912  0.0436  0.6259 -0.5398
 8855SOL     OW38026   0.510   0.949  17.456 -0.0032  0.1805  0.2200
 8855SOL    HW138027   0.543   0.878  17.400 -1.5135 -0.1570 -0.2586
 8855SOL    HW238028   0.418   0.943  17.430 -0.3567  1.2426  1.2365
 8856SOL     OW38029   2.732   3.139   1.869  0.0528  0.2409 -0.1956
 8856SOL    HW138030   2.689   3.134   1.954 -0.8358 -2.7550 -0.8381
 8856SOL    HW238031   2.817   3.100   1.889  0.3783  0.3349 -1.3687
 8857SOL     OW38032   2.306   2.073  13.144 -0.3463 -0.2061 -0.0599
 8857SOL    HW138033   2.401   2.084  13.134 -0.5333  0.4536 -1.1298
 8857SOL    HW238034   2.313   2.028  13.229 -1.5562 -0.1764  0.0526
 8858SOL     OW38035   4.156   2.650  12.194 -0.3675  0.3240 -0.4764
 8858SOL    HW138036   4.247   2.632  12.218 -0.9658 -1.6136  0.3448
 8858SOL    HW238037   4.119   2.611  12.273  0.5315  1.4267  0.4885
 8859SOL     OW38038   2.374   2.598   0.285 -0.0135 -0.4269  0.8694
 8859SOL    HW138039   2.429   2.665   0.243 -1.4085 -0.5324 -1.1286
 8859SOL    HW238040   2.396   2.607   0.378 -1.0530  2.2617  0.8679
 8860SOL     OW38041   1.638   3.334   9.266  0.4387 -0.9374  0.1760
 8860SOL    HW138042   1.623   3.428   9.271 -0.2532 -0.9049 -2.2994
 8860SOL    HW238043   1.582   3.314   9.190 -0.3151 -1.0855  0.7671
 8861SOL     OW38044   3.833   4.054  10.710 -0.9473 -0.2995  0.1468
 8861SOL    HW138045   3.883   4.078  10.788  1.0278  1.1057 -1.5576
 8861SOL    HW238046   3.741   4.073  10.730 -0.6790  2.0561 -0.8180
 8862SOL     OW38047   0.936   3.214   5.566  0.0417 -0.6204  0.4436
 8862SOL    HW138048   0.963   3.198   5.475 -0.2459 -2.2337  0.6458
 8862SOL    HW238049   0.889   3.133   5.585 -0.1272 -0.8972 -1.1124
 8863SOL     OW38050   1.769   4.017   2.294 -0.7865  0.1807 -0.5855
 8863SOL    HW138051   1.714   4.086   2.331 -0.2612  0.1046  0.3295
 8863SOL    HW238052   1.718   3.937   2.305 -0.4268  0.1182  0.5941
 8864SOL     OW38053   0.849   2.062  15.209 -0.1712 -0.8550  0.4590
 8864SOL    HW138054   0.809   1.982  15.175 -0.7250  0.2726 -1.5660
 8864SOL    HW238055   0.938   2.049  15.176 -0.3882  1.4320 -1.0589
 8865SOL     OW38056   4.399   3.849   7.708 -0.5833 -0.2777  0.2006
 8865SOL    HW138057   4.420   3.930   7.753  1.3735 -0.3028 -0.6978
 8865SOL    HW238058   4.444   3.779   7.756 -2.6072 -2.5476 -1.1587
 8866SOL     OW38059   4.200   4.139   4.314 -0.2092 -0.0979  0.3660
 8866SOL    HW138060   4.252   4.063   4.340 -0.1140 -0.0593  0.2859
 8866SOL    HW238061   4.112   4.115   4.345 -0.5916  1.6540  0.6362
 8867SOL     OW38062   3.198   1.679   9.529  0.2423 -0.5506  0.1606
 8867SOL    HW138063   3.160   1.592   9.519 -2.8475  0.2766  4.8243
 8867SOL    HW238064   3.243   1.699   9.446 -0.6006  0.8411  0.0421
 8868SOL     OW38065   2.114   3.397   8.855  0.6095 -0.0965 -0.1137
 8868SOL    HW138066   2.123   3.302   8.859 -2.4239 -0.3144  1.5778
 8868SOL    HW238067   2.069   3.412   8.771 -0.9667  1.0171  0.9154
 8869SOL     OW38068   2.742   2.995   8.104  0.1251 -0.2795  0.0723
 8869SOL    HW138069   2.814   3.030   8.052  0.0617  0.7738  0.7028
 8869SOL    HW238070   2.791   2.994   8.186 -0.2257 -0.0393  0.2875
 8870SOL     OW38071   1.839   0.654   6.872 -0.0781  0.3102 -0.0193
 8870SOL    HW138072   1.931   0.664   6.847  0.2731 -0.8964  0.7794
 8870SOL    HW238073   1.837   0.683   6.963  1.1279  1.5850 -0.4139
 8871SOL     OW38074   4.017   2.770  10.131  0.3261  0.0477 -0.1986
 8871SOL    HW138075   3.966   2.847  10.107  0.1895 -0.7190 -2.3215
 8871SOL    HW238076   4.106   2.804  10.142 -0.1336  0.5641  2.0618
 8872SOL     OW38077   4.470   3.335   7.373 -0.3647  0.0661 -0.4656
 8872SOL    HW138078   4.539   3.373   7.426 -1.3442  1.1311  0.0481
 8872SOL    HW238079   4.402   3.389   7.412 -0.6161 -1.0061  0.5780
 8873SOL     OW38080   2.031   0.089   7.561  0.1319 -0.1418 -0.0492
 8873SOL    HW138081   2.045   0.090   7.656 -1.6989  0.9610  0.2162
 8873SOL    HW238082   1.976   0.016   7.535 -0.8590  0.7370 -0.4374
 8874SOL     OW38083   0.846   2.069  16.334  0.3618 -0.4780  0.2606
 8874SOL    HW138084   0.786   2.080  16.260 -1.0416  3.1714  1.9474
 8874SOL    HW238085   0.905   1.998  16.310  3.1279  2.3665 -1.2909
 8875SOL     OW38086   3.744   0.306   6.226  1.0512  0.2646 -0.5700
 8875SOL    HW138087   3.680   0.251   6.271  1.8946  0.0096  0.3247
 8875SOL    HW238088   3.817   0.319   6.286  0.5674 -0.5295  0.2055
 8876SOL     OW38089   1.262   4.006  10.753  0.4869 -0.3363  0.3139
 8876SOL    HW138090   1.214   4.080  10.792 -0.0391 -0.4161 -0.1818
 8876SOL    HW238091   1.306   3.976  10.833  2.3935 -1.9581 -1.3445
 8877SOL     OW38092   0.609   1.022   6.356 -1.2171 -0.2221  0.0163
 8877SOL    HW138093   0.641   0.991   6.441 -0.4657  0.7763  0.0953
 8877SOL    HW238094   0.514   1.028   6.365 -1.1264 -1.3015  1.6057
 8878SOL     OW38095   0.602   0.276  12.186  1.0968 -0.4979 -0.3248
 8878SOL    HW138096   0.651   0.356  12.202 -0.5504 -0.0008  2.2252
 8878SOL    HW238097   0.680   0.224  12.204  1.9737  0.8227 -0.3538
 8879SOL     OW38098   4.646   4.166  15.673 -0.8949 -0.1414 -0.1432
 8879SOL    HW138099   4.665   4.223  15.747 -1.9091  1.2220 -0.9275
 8879SOL    HW238100   0.000   4.182  15.623 -0.1893  1.7086  1.6188
 8880SOL     OW38101   1.109   1.895   2.191  0.1196  0.3927 -0.0079
 8880SOL    HW138102   1.139   1.920   2.104  1.0455 -2.6286 -0.5415
 8880SOL    HW238103   1.137   1.804   2.188  2.1290  0.9040  2.7061
 8881SOL     OW38104   3.487   1.893  14.997  0.2325  0.2486  0.3685
 8881SOL    HW138105   3.543   1.870  15.071  1.3585  3.6584  0.5797
 8881SOL    HW238106   3.523   1.843  14.925 -0.3549  0.2699  0.0568
 8882SOL     OW38107   3.054   0.281   5.121  0.0397 -0.0055 -0.3502
 8882SOL    HW138108   3.022   0.282   5.212 -1.1375 -1.5049 -0.7411
 8882SOL    HW238109   3.148   0.285   5.139  0.0286  1.3922 -0.6355
 8883SOL     OW38110   3.592   2.675   4.678  0.0539  0.3495 -0.1844
 8883SOL    HW138111   3.538   2.626   4.616 -1.3304  1.0292  0.5106
 8883SOL    HW238112   3.566   2.764   4.656  1.3791  0.5512 -0.9636
 8884SOL     OW38113   0.926   1.167   2.447 -0.5621  0.0208 -0.3648
 8884SOL    HW138114   0.885   1.098   2.499 -1.9010 -0.5876 -2.2617
 8884SOL    HW238115   0.875   1.155   2.367  0.1028  2.3957 -1.1524
 8885SOL     OW38116   0.220   3.457  16.049 -0.0381 -0.4816  0.4468
 8885SOL    HW138117   0.255   3.470  15.961 -0.3191  0.3479  0.4581
 8885SOL    HW238118   0.257   3.532  16.095  2.0663 -0.2274 -1.6423
 8886SOL     OW38119   2.217   2.971   4.467  0.1008  0.1649 -0.8146
 8886SOL    HW138120   2.240   2.932   4.551 -0.3862  0.0627 -0.7250
 8886SOL    HW238121   2.308   2.984   4.442 -0.2103  2.5519 -0.7099
 8887SOL     OW38122   4.215   2.409  13.302 -0.3123 -0.3510 -0.2194
 8887SOL    HW138123   4.221   2.481  13.364 -2.2367 -0.6399  0.3024
 8887SOL    HW238124   4.288   2.358  13.336  0.2859  1.6482  1.4841
 8888SOL     OW38125   3.068   2.593   2.990 -0.0189 -0.1773 -0.0990
 8888SOL    HW138126   2.994   2.615   2.934 -0.1153  2.0179  0.8990
 8888SOL    HW238127   3.136   2.653   2.960  0.4747  0.9747  3.4024
 8889SOL     OW38128   1.607   4.283   6.773 -0.0305 -0.2190  0.2438
 8889SOL    HW138129   1.568   4.343   6.836 -1.4997  1.4344 -2.2153
 8889SOL    HW238130   1.594   4.332   6.691 -0.9511 -0.7330  0.0779
 8890SOL     OW38131   1.229   3.640   4.414  0.1260  0.7486  0.1467
 8890SOL    HW138132   1.181   3.687   4.346 -0.8862 -1.3183 -0.5779
 8890SOL    HW238133   1.318   3.644   4.378  0.5072 -0.5043  0.9351
 8891SOL     OW38134   1.760   2.772  16.585 -0.2785 -0.2214  0.2847
 8891SOL    HW138135   1.677   2.818  16.584  0.5797  1.3122 -0.0819
 8891SOL    HW238136   1.789   2.794  16.674 -0.0412  0.3063  0.0767
 8892SOL     OW38137   4.370   1.892   0.203  0.5053 -0.1465  0.2917
 8892SOL    HW138138   4.381   1.872   0.296  1.7383 -0.8875 -0.0110
 8892SOL    HW238139   4.436   1.958   0.181 -1.0760  1.8135  1.4423
 8893SOL     OW38140   0.495   3.969   2.330  0.6746  0.4259 -0.1958
 8893SOL    HW138141   0.546   3.971   2.411 -1.8549  0.8204  1.3842
 8893SOL    HW238142   0.410   4.004   2.357 -0.4086  0.0131 -3.0571
 8894SOL     OW38143   3.924   1.106   7.996  0.7172 -0.7211  0.3479
 8894SOL    HW138144   3.966   1.069   7.918  0.5087 -1.7248  0.7129
 8894SOL    HW238145   3.951   1.198   7.993  3.3358 -1.4744  1.2366
 8895SOL     OW38146   1.947   2.741   1.789  0.2451 -0.1024 -0.1083
 8895SOL    HW138147   2.016   2.759   1.726 -1.9926  2.3878 -1.8666
 8895SOL    HW238148   1.997   2.763   1.868  0.6715  2.0016 -0.9652
 8896SOL     OW38149   1.887   3.377   3.724 -0.5880  0.1562 -0.2854
 8896SOL    HW138150   1.918   3.296   3.764 -0.2885 -0.4525 -1.7226
 8896SOL    HW238151   1.877   3.348   3.633 -1.2077 -0.5258 -0.0001
 8897SOL     OW38152   1.194   2.450   7.858 -0.0411 -0.1173 -0.1847
 8897SOL    HW138153   1.110   2.464   7.902 -0.7745 -0.3527 -1.5287
 8897SOL    HW238154   1.248   2.398   7.917 -1.2431 -0.1727  0.8600
 8898SOL     OW38155   3.949   4.000  16.212 -0.2935  0.3703 -0.3411
 8898SOL    HW138156   4.021   4.053  16.177  0.1017  0.6997  0.9816
 8898SOL    HW238157   3.877   4.055  16.181 -1.7839 -0.8871  0.8767
 8899SOL     OW38158   4.311   4.261   5.042  0.2532 -0.3980 -0.5336
 8899SOL    HW138159   4.286   4.171   5.063 -2.5384  0.4031 -0.4237
 8899SOL    HW238160   4.294   4.304   5.126 -1.0143  0.9567 -1.4772
 8900SOL     OW38161   2.566   0.814   6.357  0.2131 -0.1457 -0.2573
 8900SOL    HW138162   2.598   0.825   6.447 -0.0468 -0.4406 -0.1274
 8900SOL    HW238163   2.495   0.751   6.373  0.0282  0.4027  1.1254
 8901SOL     OW38164   3.401   2.801   4.879  0.0961 -0.0877  0.4307
 8901SOL    HW138165   3.478   2.744   4.884 -0.7035 -1.3516 -1.4462
 8901SOL    HW238166   3.424   2.867   4.944  3.3747 -1.8064  1.0426
 8902SOL     OW38167   1.803   0.900   7.829 -0.8677 -0.0548  0.5521
 8902SOL    HW138168   1.725   0.860   7.868 -1.1231 -0.2130 -0.1129
 8902SOL    HW238169   1.793   0.871   7.738  1.0099 -3.5329  1.4824
 8903SOL     OW38170   1.393   2.600  12.543 -0.2359  0.2306  0.0861
 8903SOL    HW138171   1.408   2.683  12.497  0.0452  0.0180 -0.1964
 8903SOL    HW238172   1.444   2.538  12.492 -2.3563 -1.4281 -0.0193
 8904SOL     OW38173   1.436   1.693   4.686  0.3169 -0.2436  0.5009
 8904SOL    HW138174   1.389   1.672   4.605  3.3647 -3.6615 -0.3529
 8904SOL    HW238175   1.470   1.608   4.713  1.0348 -0.3066 -0.6186
 8905SOL     OW38176   4.180   2.029   3.276 -0.3961  0.0755 -0.3165
 8905SOL    HW138177   4.251   2.068   3.225 -2.2969 -0.7226 -3.5926
 8905SOL    HW238178   4.159   2.091   3.346  1.4421  1.8318 -1.3208
 8906SOL     OW38179   1.981   2.816  12.487  0.2107  0.4945 -0.1934
 8906SOL    HW138180   1.914   2.885  12.490 -0.9201 -0.5226 -1.9907
 8906SOL    HW238181   2.031   2.847  12.412 -0.3949 -1.5652 -1.4214
 8907SOL     OW38182   3.008   1.219   8.009  0.5484  0.2057 -0.3828
 8907SOL    HW138183   2.916   1.197   7.996 -0.0921  2.3130  0.5266
 8907SOL    HW238184   3.028   1.263   7.926  1.9825 -0.1422 -0.2195
 8908SOL     OW38185   4.601   2.695   6.523  0.0376  0.2764  0.6206
 8908SOL    HW138186   4.523   2.657   6.482 -0.2549 -0.2293  1.6359
 8908SOL    HW238187   4.607   2.662   6.613  0.1803  0.6066  0.7314
 8909SOL     OW38188   3.957   3.235   2.319 -0.1224  0.4583 -0.7986
 8909SOL    HW138189   3.902   3.312   2.336  2.0619  2.1465 -1.4270
 8909SOL    HW238190   4.031   3.254   2.377 -0.6135  0.3984 -0.1459
 8910SOL     OW38191   1.032   2.826   3.065 -0.3386  0.1615 -0.2894
 8910SOL    HW138192   0.962   2.797   3.124  1.4270 -0.2065  1.6232
 8910SOL    HW238193   1.056   2.740   3.031 -2.6597 -0.4438 -0.4187
 8911SOL     OW38194   1.376   3.240   2.769  0.2279 -0.0560 -0.1620
 8911SOL    HW138195   1.338   3.281   2.691  0.9910 -0.0791 -0.5467
 8911SOL    HW238196   1.288   3.212   2.796 -0.6712  0.2234 -2.6971
 8912SOL     OW38197   1.921   0.723   2.259 -0.0504 -0.5589  0.2795
 8912SOL    HW138198   1.861   0.781   2.213 -1.4750 -0.9524  1.6386
 8912SOL    HW238199   1.937   0.654   2.195 -2.9461 -0.9940  0.0290
 8913SOL     OW38200   1.009   0.356   5.917  0.2101 -0.2842 -0.4274
 8913SOL    HW138201   1.099   0.347   5.886 -0.0369  2.1414 -1.7773
 8913SOL    HW238202   0.961   0.325   5.841 -0.2959  1.6591 -0.8922
 8914SOL     OW38203   2.497   1.324   7.906  0.4399  0.4204 -0.5608
 8914SOL    HW138204   2.430   1.383   7.870 -1.4886  0.6170  3.3190
 8914SOL    HW238205   2.511   1.375   7.985 -0.5503 -0.2691  0.0727
 8915SOL     OW38206   4.117   0.297   4.597 -0.0911  0.4950 -0.8319
 8915SOL    HW138207   4.102   0.263   4.686 -0.3459  1.2071 -0.6025
 8915SOL    HW238208   4.212   0.296   4.605 -0.1524 -0.5782 -0.2174
 8916SOL     OW38209   3.307   3.735   7.586  0.5291 -0.5265 -0.2074
 8916SOL    HW138210   3.303   3.822   7.549 -1.4575 -1.4718 -2.1764
 8916SOL    HW238211   3.307   3.755   7.680 -0.9700 -2.4540  0.2160
 8917SOL     OW38212   1.083   0.493   7.950 -0.0730 -0.5275  0.1142
 8917SOL    HW138213   1.047   0.407   7.972  2.4974 -1.8220 -0.6771
 8917SOL    HW238214   1.007   0.518   7.898 -0.3141  1.9564  1.6975
 8918SOL     OW38215   1.129   3.477   3.530  0.2721  0.1282  0.2626
 8918SOL    HW138216   1.171   3.469   3.444  0.9531  0.6224  0.5525
 8918SOL    HW238217   1.098   3.390   3.556 -2.6603  1.5290  1.4938
 8919SOL     OW38218   0.232   2.580   5.620 -0.2631  0.2494  0.6315
 8919SOL    HW138219   0.292   2.561   5.547  1.3104 -0.0873  2.0300
 8919SOL    HW238220   0.184   2.657   5.590 -1.5527 -0.0087  2.0568
 8920SOL     OW38221   4.467   1.190  16.905  0.5266  0.1545 -0.0473
 8920SOL    HW138222   4.442   1.113  16.956  1.9867 -0.1893  0.1408
 8920SOL    HW238223   4.438   1.267  16.954 -2.0126 -2.9046  3.2320
 8921SOL     OW38224   2.387   3.112   7.830  0.4789  0.0153 -0.0113
 8921SOL    HW138225   2.374   3.107   7.925 -1.3939 -5.1998 -0.5666
 8921SOL    HW238226   2.382   3.018   7.813  0.7831  0.0118 -0.0811
 8922SOL     OW38227   4.327   1.466   3.798  0.2792  0.3483 -0.3892
 8922SOL    HW138228   4.277   1.417   3.862  0.5126  0.7030  0.0675
 8922SOL    HW238229   4.406   1.416   3.776  0.6098  0.5714  0.3062
 8923SOL     OW38230   1.430   4.566   6.029 -0.3672 -0.4602  0.0285
 8923SOL    HW138231   1.343   4.525   6.026 -0.1863 -0.9345  1.4868
 8923SOL    HW238232   1.407   4.659   6.038  0.8755  0.0592 -2.1447
 8924SOL     OW38233   1.753   0.563   5.897  0.0652  0.2991 -0.0570
 8924SOL    HW138234   1.725   0.560   5.805  0.6793 -1.6460 -0.1810
 8924SOL    HW238235   1.726   0.648   5.930 -2.3840  0.6218 -2.8044
 8925SOL     OW38236   3.397   0.677  16.500 -0.4232  0.3925 -0.1165
 8925SOL    HW138237   3.428   0.719  16.581  0.3207 -2.4792  1.1159
 8925SOL    HW238238   3.325   0.627  16.540  0.3713  1.5449  2.7997
 8926SOL     OW38239   3.578   4.239   8.034 -0.2866  0.1081 -0.0592
 8926SOL    HW138240   3.561   4.330   8.060 -1.1146  0.1502 -0.7639
 8926SOL    HW238241   3.589   4.252   7.940 -0.1248 -2.5668 -0.4055
 8927SOL     OW38242   2.889   1.669   3.966 -0.1460  0.3686  0.3324
 8927SOL    HW138243   2.910   1.703   4.053 -1.2272 -0.6899  1.0082
 8927SOL    HW238244   2.977   1.642   3.941 -0.7020 -0.0910 -1.1071
 8928SOL     OW38245   3.814   0.150  11.367  0.2634  0.4001  0.6244
 8928SOL    HW138246   3.799   0.186  11.279 -0.1035 -0.1012  0.4842
 8928SOL    HW238247   3.794   0.058  11.354  0.8280  0.5520 -1.3673
 8929SOL     OW38248   0.078   2.958   3.988  0.0597 -0.1847 -0.3341
 8929SOL    HW138249   0.024   2.952   4.067  1.3441  0.7050  0.6145
 8929SOL    HW238250   0.025   3.025   3.944 -2.3001 -1.9208 -0.1415
 8930SOL     OW38251   3.607   4.356   8.928  0.2937 -0.1401 -0.7949
 8930SOL    HW138252   3.555   4.317   8.998  0.6763 -0.8285 -0.8987
 8930SOL    HW238253   3.645   4.427   8.980 -0.3713 -0.1233 -0.3292
 8931SOL     OW38254   0.509   2.579  15.152 -0.2458  0.1273 -0.2341
 8931SOL    HW138255   0.546   2.523  15.220  1.1598  0.1204 -0.9878
 8931SOL    HW238256   0.551   2.565  15.067 -1.6453 -0.1056 -0.8862
 8932SOL     OW38257   0.083   4.558  13.583 -0.0564  0.0977  0.2325
 8932SOL    HW138258   0.131   4.523  13.658 -0.1308 -0.3786  0.0606
 8932SOL    HW238259   0.071   4.474  13.539  0.0574  0.3667 -0.3108
 8933SOL     OW38260   4.062   2.833  12.001 -0.3437 -0.6868 -0.2353
 8933SOL    HW138261   4.051   2.768  12.070 -2.8419 -0.2321 -0.2213
 8933SOL    HW238262   4.153   2.817  11.975  0.2480  0.1479  1.3624
 8934SOL     OW38263   0.147   3.298   2.925 -0.1014 -0.2256  0.5682
 8934SOL    HW138264   0.184   3.385   2.911  0.4886 -0.4537  0.7048
 8934SOL    HW238265   0.087   3.316   2.998 -0.3446  1.8715 -0.1521
 8935SOL     OW38266   0.846   1.788   2.233 -0.2178  0.0434  0.4267
 8935SOL    HW138267   0.920   1.848   2.222 -1.0680  1.3985  2.1530
 8935SOL    HW238268   0.898   1.714   2.264  0.6868  0.7110  0.5165
 8936SOL     OW38269   1.756   2.798   7.842  0.5392  0.8113 -0.3804
 8936SOL    HW138270   1.758   2.730   7.774  0.4466  0.2619  0.1604
 8936SOL    HW238271   1.797   2.865   7.787 -3.1642  1.6497 -2.1758
 8937SOL     OW38272   1.625   2.739   4.412  0.2987  0.4148 -0.1980
 8937SOL    HW138273   1.555   2.764   4.351  0.2973  1.6331  0.3021
 8937SOL    HW238274   1.668   2.668   4.365 -0.9343 -0.1019 -0.5644
 8938SOL     OW38275   2.574   4.308   5.873  0.3836 -1.0777  0.0864
 8938SOL    HW138276   2.550   4.384   5.925  1.1385 -1.3245  0.7959
 8938SOL    HW238277   2.661   4.324   5.838 -0.5926  0.6222 -1.5772
 8939SOL     OW38278   0.296   1.974   8.711  0.1737  0.0935  0.6743
 8939SOL    HW138279   0.255   1.900   8.667  1.9505  1.9373 -3.9862
 8939SOL    HW238280   0.267   1.953   8.800  1.6320  1.3410  1.4617
 8940SOL     OW38281   1.277   3.066   9.223  1.2456  0.0851 -0.4219
 8940SOL    HW138282   1.183   3.078   9.212  1.1844 -0.4906 -0.5671
 8940SOL    HW238283   1.297   3.155   9.250 -0.5326  0.2923  0.2067
 8941SOL     OW38284   2.480   3.947   0.569 -0.1038 -0.1133  0.4896
 8941SOL    HW138285   2.509   3.859   0.544  0.7565  0.3954 -0.3167
 8941SOL    HW238286   2.550   3.967   0.631 -1.0812  2.1390  0.8577
 8942SOL     OW38287   2.860   0.651   8.841 -0.2563  0.2988 -0.0270
 8942SOL    HW138288   2.781   0.675   8.890 -1.3785 -2.2441 -0.6358
 8942SOL    HW238289   2.879   0.561   8.866  1.8978  0.3944 -1.2852
 8943SOL     OW38290   2.944   3.106  13.916 -0.0376  0.0140  0.3131
 8943SOL    HW138291   3.033   3.071  13.922  0.5359  1.1586 -1.4724
 8943SOL    HW238292   2.914   3.081  14.003  0.0319  0.5166  0.4788
 8944SOL     OW38293   2.679   0.002   4.010 -0.3146  0.5344  0.1747
 8944SOL    HW138294   2.643   4.668   3.944  2.5302 -1.0001  0.0068
 8944SOL    HW238295   2.768   4.694   4.023  0.5958  1.6770 -3.0137
 8945SOL     OW38296   1.001   0.500  14.897  0.5574 -0.1227  0.1461
 8945SOL    HW138297   1.088   0.462  14.905  0.0967 -0.8714  1.5508
 8945SOL    HW238298   1.028   0.592  14.884  1.5059 -0.4601 -0.3046
 8946SOL     OW38299   2.540   3.713   9.999  0.4964  0.0550  0.7007
 8946SOL    HW138300   2.542   3.684  10.090  3.3268 -0.2111  0.5525
 8946SOL    HW238301   2.465   3.663   9.969  1.1391 -1.8360  2.2132
 8947SOL     OW38302   0.588   2.540  10.815  0.3103 -0.1934  0.0884
 8947SOL    HW138303   0.536   2.499  10.746  0.7125  0.7075 -0.7423
 8947SOL    HW238304   0.676   2.539  10.779 -0.1742  2.2150 -1.1563
 8948SOL     OW38305   1.538   2.246   7.131  0.4589 -0.0127  0.5795
 8948SOL    HW138306   1.485   2.251   7.051  1.8134 -0.3972 -0.3434
 8948SOL    HW238307   1.475   2.229   7.201  1.5611 -2.6138  0.9692
 8949SOL     OW38308   2.843   4.509  15.431  0.6121  0.2407 -1.0140
 8949SOL    HW138309   2.848   4.423  15.472  0.8369  1.1715  0.9541
 8949SOL    HW238310   2.877   4.562  15.503  1.0795  1.4315 -2.1036
 8950SOL     OW38311   4.469   4.117   9.084 -0.0680 -0.0300 -0.4741
 8950SOL    HW138312   4.436   4.084   9.000  0.3646  1.3615 -1.2124
 8950SOL    HW238313   4.410   4.063   9.136 -0.6451  1.5629  0.5226
 8951SOL     OW38314   3.693   4.180  11.669 -0.8433  0.3829 -0.1128
 8951SOL    HW138315   3.650   4.266  11.671 -0.5445  0.5968 -2.2262
 8951SOL    HW238316   3.691   4.152  11.760  1.6329 -2.0898 -0.8021
 8952SOL     OW38317   3.239   1.000   1.673 -0.2103  0.3025  0.5133
 8952SOL    HW138318   3.274   1.081   1.637  1.5819 -0.9721 -0.5919
 8952SOL    HW238319   3.221   1.031   1.762  2.5967 -1.3184  1.6261
 8953SOL     OW38320   4.312   3.236   2.377 -0.0718  0.5072  0.1510
 8953SOL    HW138321   4.263   3.318   2.389  0.4371  0.7796  0.3545
 8953SOL    HW238322   4.375   3.245   2.448  2.4877 -0.6079 -1.9708
 8954SOL     OW38323   0.463   3.148   8.506 -0.0128 -0.4013 -0.0654
 8954SOL    HW138324   0.540   3.118   8.555  1.0767  1.4910 -0.6347
 8954SOL    HW238325   0.502   3.233   8.488  2.4650 -1.8866 -1.7005
 8955SOL     OW38326   0.644   2.724   3.750 -0.2067  0.4564 -0.0933
 8955SOL    HW138327   0.685   2.733   3.664  2.4248 -0.5009  1.0549
 8955SOL    HW238328   0.671   2.801   3.800  3.1696 -0.2717 -0.7828
 8956SOL     OW38329   0.125   2.101   9.525  0.2286  0.7972  0.0765
 8956SOL    HW138330   0.184   2.135   9.457 -1.3105  0.9746 -1.1639
 8956SOL    HW238331   0.114   2.011   9.494  3.6013  0.5219 -0.3627
 8957SOL     OW38332   2.204   4.455   4.310 -0.2720 -0.5351 -0.5412
 8957SOL    HW138333   2.295   4.462   4.280 -0.2281  0.0948 -0.2786
 8957SOL    HW238334   2.167   4.542   4.295 -0.6607 -0.9438 -1.8809
 8958SOL     OW38335   2.437   3.518   8.404  0.4403  0.1024 -0.0185
 8958SOL    HW138336   2.489   3.511   8.484 -0.2006 -0.5978  0.3398
 8958SOL    HW238337   2.368   3.576   8.437 -1.1938 -2.0813  0.3746
 8959SOL     OW38338   0.699   2.158   8.340 -0.1037 -0.9019  0.2577
 8959SOL    HW138339   0.628   2.210   8.303 -1.3686 -2.6327  0.2923
 8959SOL    HW238340   0.766   2.161   8.271 -0.3446  2.2625  0.1815
 8960SOL     OW38341   2.643   3.940   8.161 -0.0861 -0.0534 -0.8419
 8960SOL    HW138342   2.611   4.027   8.136  0.6082  0.5358  0.3519
 8960SOL    HW238343   2.706   3.967   8.228  1.8968  1.9582 -3.5019
 8961SOL     OW38344   3.315   2.783   5.204  0.3088  0.2314 -0.2391
 8961SOL    HW138345   3.365   2.778   5.285 -1.6430 -1.1455  0.8572
 8961SOL    HW238346   3.389   2.799   5.144  0.3208 -0.3146 -0.3666
 8962SOL     OW38347   3.960   2.280  12.683  0.3702 -0.0003  0.5756
 8962SOL    HW138348   3.996   2.192  12.672  1.7820  0.5807  0.5436
 8962SOL    HW238349   3.904   2.274  12.760 -1.5932  0.0272 -0.8480
 8963SOL     OW38350   3.781   4.082   6.151 -0.1206  0.2622 -0.1873
 8963SOL    HW138351   3.790   4.126   6.067 -2.5717 -1.4732 -1.3465
 8963SOL    HW238352   3.689   4.055   6.146  0.3646 -1.1836 -1.2643
 8964SOL     OW38353   3.193   4.461   2.176 -0.1489  0.5813 -0.0300
 8964SOL    HW138354   3.161   4.442   2.264 -1.6426 -0.0672 -0.7136
 8964SOL    HW238355   3.163   4.381   2.133  0.8088 -0.0618  0.5179
 8965SOL     OW38356   2.953   4.641   2.553 -0.0805  0.6439 -0.2141
 8965SOL    HW138357   2.904   4.700   2.611 -1.2256  1.5819 -2.1241
 8965SOL    HW238358   2.955   4.694   2.473 -0.2541  2.0478  0.7118
 8966SOL     OW38359   1.360   3.130  14.583 -0.4219 -0.1191  0.6263
 8966SOL    HW138360   1.309   3.137  14.503  0.4798 -1.7020 -0.0854
 8966SOL    HW238361   1.444   3.109  14.542 -0.0394  0.1512  1.2581
 8967SOL     OW38362   1.736   0.457   1.210  0.3113  0.7930 -0.1989
 8967SOL    HW138363   1.710   0.391   1.275  0.4756  2.7236  1.8229
 8967SOL    HW238364   1.663   0.442   1.150 -0.9323  1.9551  1.0166
 8968SOL     OW38365   1.209   2.363   7.590 -0.3313 -0.2409  0.0983
 8968SOL    HW138366   1.227   2.407   7.674 -0.2423  0.6951 -0.4058
 8968SOL    HW238367   1.211   2.436   7.528  0.5856  0.2722  0.7196
 8969SOL     OW38368   0.988   1.998   7.957  0.0560 -0.7339 -0.0684
 8969SOL    HW138369   0.992   2.055   7.880 -0.7327 -0.9072 -0.2373
 8969SOL    HW238370   1.082   2.006   7.971 -0.1536 -0.3952  1.1498
 8970SOL     OW38371   2.584   1.227   3.576 -0.2053 -0.0033 -0.0140
 8970SOL    HW138372   2.508   1.171   3.592 -0.7035  0.9437  0.9286
 8970SOL    HW238373   2.592   1.236   3.481 -0.6592 -1.5604 -0.2062
 8971SOL     OW38374   0.363   3.086   9.874 -0.2850 -0.0846  0.1538
 8971SOL    HW138375   0.281   3.134   9.886 -0.3470 -0.1035 -0.2062
 8971SOL    HW238376   0.349   3.066   9.782 -1.9304 -3.4554  1.1634
 8972SOL     OW38377   2.514   4.681   0.218 -0.4621  0.0003 -0.0025
 8972SOL    HW138378   2.479   0.027   0.166  1.5774  0.0179 -1.3530
 8972SOL    HW238379   2.608   4.698   0.217 -0.8372  2.1256  0.8103
 8973SOL     OW38380   1.569   1.326   5.471  0.2368 -0.1427  0.5491
 8973SOL    HW138381   1.598   1.365   5.553 -0.0271  0.7406  0.2206
 8973SOL    HW238382   1.476   1.309   5.487 -0.4077  1.9581 -0.9570
 8974SOL     OW38383   3.446   1.187   4.863  0.0477  0.0506  0.0422
 8974SOL    HW138384   3.527   1.224   4.898 -1.4023  2.3398  0.9548
 8974SOL    HW238385   3.438   1.245   4.787  1.1799 -0.3625 -0.3935
 8975SOL     OW38386   1.138   1.403   7.072  0.0140 -0.5932 -0.1175
 8975SOL    HW138387   1.175   1.426   7.157 -1.9253  0.9514  0.3123
 8975SOL    HW238388   1.140   1.308   7.079 -0.6859 -0.6887 -1.2120
 8976SOL     OW38389   2.028   0.799  13.392 -0.1413 -0.6637 -0.1811
 8976SOL    HW138390   2.038   0.886  13.353  0.4732 -0.3444  0.7035
 8976SOL    HW238391   1.978   0.752  13.325 -0.8412 -0.1293 -0.0345
 8977SOL     OW38392   2.816   1.866  10.153  0.2279  0.5853  0.2118
 8977SOL    HW138393   2.905   1.867  10.187  0.2000 -0.4874  0.3056
 8977SOL    HW238394   2.831   1.914  10.071  0.9226  0.5919  0.3460
 8978SOL     OW38395   3.016   4.009   1.756  0.1229 -0.7007 -0.5949
 8978SOL    HW138396   2.941   4.007   1.696 -0.1415  1.6773 -0.3812
 8978SOL    HW238397   3.086   4.034   1.696 -0.2144 -0.6922 -0.9824
 8979SOL     OW38398   3.503   0.711   6.014  0.3522 -0.4109 -0.0588
 8979SOL    HW138399   3.487   0.702   5.920  1.5146  3.9708 -0.6837
 8979SOL    HW238400   3.576   0.656   6.040  0.2185  1.1329  3.6258
 8980SOL     OW38401   1.255   0.733  13.087  0.0145  0.0382  0.4480
 8980SOL    HW138402   1.237   0.732  12.993  2.0927 -1.3364  0.0616
 8980SOL    HW238403   1.350   0.722  13.081 -0.1983 -0.0510 -2.6330
 8981SOL     OW38404   4.701   3.676  14.830  0.4820 -0.0850 -0.6377
 8981SOL    HW138405   4.717   3.588  14.796 -1.5939 -0.5855 -0.2819
 8981SOL    HW238406   4.686   3.721  14.747 -3.3454  1.2022  0.7302
 8982SOL     OW38407   0.536   4.365   4.742 -0.1435  0.3132 -0.2177
 8982SOL    HW138408   0.595   4.436   4.717  0.5147  0.0198  0.4981
 8982SOL    HW238409   0.467   4.394   4.682 -1.9548 -0.5760  1.4178
 8983SOL     OW38410   4.571   0.362   8.564 -0.0718  0.0116  0.0471
 8983SOL    HW138411   4.538   0.314   8.641  0.1092  0.8265  0.6408
 8983SOL    HW238412   4.656   0.389   8.598  1.2147  0.6986 -3.7169
 8984SOL     OW38413   0.806   3.318   3.066 -0.2731  0.3644  0.5584
 8984SOL    HW138414   0.821   3.380   2.994 -0.4309 -0.6732 -0.3678
 8984SOL    HW238415   0.739   3.266   3.023  2.2511 -2.6792  0.3485
 8985SOL     OW38416   1.681   4.418  13.818  0.5605 -0.4774  0.2420
 8985SOL    HW138417   1.620   4.412  13.892 -0.1790  0.4022 -0.2991
 8985SOL    HW238418   1.629   4.452  13.745 -1.6502 -2.9159  0.6924
 8986SOL     OW38419   3.297   3.099   3.062  0.3039 -0.3354 -0.0978
 8986SOL    HW138420   3.220   3.065   3.107 -0.4133 -1.8929 -2.4878
 8986SOL    HW238421   3.360   3.069   3.127 -1.7850 -1.1235  1.5536
 8987SOL     OW38422   1.429   4.695   4.572 -0.6858 -0.1705  0.8242
 8987SOL    HW138423   1.368   0.005   4.507  1.0204 -1.2023 -1.3352
 8987SOL    HW238424   1.494   0.039   4.578 -2.3617  1.3936  1.0895
 8988SOL     OW38425   3.085   4.627  11.577 -1.0056 -0.2841  0.2939
 8988SOL    HW138426   3.174   4.656  11.598  0.1177 -2.7946 -0.9945
 8988SOL    HW238427   3.084   4.534  11.597  0.1840 -0.3250  0.2014
 8989SOL     OW38428   3.797   2.191   1.381  0.8543  0.4771  0.5447
 8989SOL    HW138429   3.705   2.178   1.357  1.4515  0.8283 -1.9575
 8989SOL    HW238430   3.827   2.216   1.294  2.3133  0.1280  0.9414
 8990SOL     OW38431   4.416   2.620  12.281 -0.0649  0.4491  0.5576
 8990SOL    HW138432   4.463   2.552  12.330  3.6952  2.1774 -0.6335
 8990SOL    HW238433   4.490   2.641  12.223 -2.3839 -0.9636 -2.8820
 8991SOL     OW38434   3.306   1.153   8.375 -0.0474 -0.0256  0.4213
 8991SOL    HW138435   3.239   1.221   8.365 -1.1207 -1.1433  0.0953
 8991SOL    HW238436   3.280   1.122   8.462  0.5186  0.5225  0.7846
 8992SOL     OW38437   1.591   4.479   8.449 -0.2398  0.1435 -0.0032
 8992SOL    HW138438   1.543   4.562   8.444 -0.0379  0.2399 -0.3712
 8992SOL    HW238439   1.529   4.427   8.500 -0.2661 -0.9288 -1.1458
 8993SOL     OW38440   1.352   4.232  16.325  0.3012 -0.3272  0.3174
 8993SOL    HW138441   1.390   4.237  16.413  0.6857 -1.2452  0.2017
 8993SOL    HW238442   1.374   4.321  16.299  1.7534 -0.4119  1.2602
 8994SOL     OW38443   1.366   0.583   8.053  0.6508 -0.1946  0.2944
 8994SOL    HW138444   1.446   0.531   8.048  1.5628  1.1028  1.3295
 8994SOL    HW238445   1.358   0.612   7.962  1.6104 -1.2057 -0.1175
 8995SOL     OW38446   3.238   0.027  16.420  0.4533 -0.6625  0.1131
 8995SOL    HW138447   3.156   0.026  16.372  0.0573 -1.8718  0.8284
 8995SOL    HW238448   3.245   4.661  16.447 -0.1447 -1.0515 -1.1148
 8996SOL     OW38449   3.897   0.612   7.244  0.2069 -0.3726 -0.1808
 8996SOL    HW138450   3.818   0.609   7.299 -1.0880 -0.4272 -2.0519
 8996SOL    HW238451   3.868   0.667   7.172  0.7163  0.5767  0.3368
 8997SOL     OW38452   3.068   2.888   5.215  0.0024  0.0751 -0.1175
 8997SOL    HW138453   3.151   2.841   5.210 -0.9533 -1.4445 -1.4923
 8997SOL    HW238454   3.092   2.972   5.256  1.1312 -0.2008 -0.1947
 8998SOL     OW38455   2.901   0.477   4.887  0.3425 -0.0542 -0.4576
 8998SOL    HW138456   2.833   0.481   4.820  1.6753  1.0908 -1.7421
 8998SOL    HW238457   2.984   0.479   4.839  0.5521 -0.5602 -0.1138
 8999SOL     OW38458   0.979   3.399   9.093  0.3149  0.4925  0.3085
 8999SOL    HW138459   1.003   3.490   9.077  2.1936 -0.2621 -1.0637
 8999SOL    HW238460   1.018   3.342   9.027 -0.0298 -0.0809  0.5978
 9000SOL     OW38461   0.904   1.809  12.294  0.6110  0.6179  0.1371
 9000SOL    HW138462   0.813   1.782  12.290  0.5633  1.1272 -2.0465
 9000SOL    HW238463   0.896   1.861  12.374  0.8106 -1.0267  1.2164
 9001SOL     OW38464   2.529   1.569   3.260 -0.3356  0.3811 -0.3032
 9001SOL    HW138465   2.448   1.579   3.311 -0.1416 -1.0731  0.2917
 9001SOL    HW238466   2.547   1.475   3.268  0.1020  0.5071  0.1757
 9002SOL     OW38467   4.224   2.569   8.684 -0.0095  0.2736  0.6059
 9002SOL    HW138468   4.315   2.540   8.685  0.0334  0.3077 -1.4420
 9002SOL    HW238469   4.186   2.481   8.692 -2.2424  1.0811 -0.8375
 9003SOL     OW38470   0.728   4.086   6.456 -0.9158  0.0278 -0.4970
 9003SOL    HW138471   0.751   3.993   6.444  0.5417  0.4661 -1.0754
 9003SOL    HW238472   0.643   4.076   6.499 -1.2368 -0.5133 -1.2695
 9004SOL     OW38473   2.703   0.741  16.219 -0.5631 -0.3644 -0.3434
 9004SOL    HW138474   2.739   0.790  16.144  3.4391 -3.2376 -0.2567
 9004SOL    HW238475   2.769   0.673  16.226 -0.7858 -0.7749 -2.1122
 9005SOL     OW38476   0.954   1.068   0.046 -0.3595 -0.0413 -0.1488
 9005SOL    HW138477   0.908   1.060  17.667 -1.0715  2.3212  0.0144
 9005SOL    HW238478   0.969   0.974   0.057 -0.1090  0.0382  0.2017
 9006SOL     OW38479   1.856   2.364   8.411  0.3503 -0.2413  0.1685
 9006SOL    HW138480   1.939   2.391   8.451  0.7733  0.8036 -1.4210
 9006SOL    HW238481   1.881   2.297   8.348  0.8096 -1.1192  1.2849
 9007SOL     OW38482   4.122   2.731   5.866 -0.2079 -0.4393 -0.1426
 9007SOL    HW138483   4.144   2.785   5.790 -1.9230 -1.5905 -1.4531
 9007SOL    HW238484   4.213   2.728   5.894 -0.0221 -1.7057 -0.8872
 9008SOL     OW38485   0.899   0.499   1.341 -0.3762 -0.1823 -0.5096
 9008SOL    HW138486   0.930   0.412   1.367  1.0809 -0.0491 -1.8234
 9008SOL    HW238487   0.905   0.497   1.245  0.1111  1.1601 -0.5103
 9009SOL     OW38488   3.186   4.548  13.756 -0.5935 -0.5421  0.5177
 9009SOL    HW138489   3.193   4.634  13.714 -1.1474 -0.3742  0.7664
 9009SOL    HW238490   3.223   4.494  13.687  0.6967  1.7097 -0.5717
 9010SOL     OW38491   0.144   3.734   2.421  0.0300 -0.0307 -0.1463
 9010SOL    HW138492   0.063   3.736   2.370  0.9385 -1.4353 -1.6244
 9010SOL    HW238493   0.210   3.718   2.354 -0.0167  1.2370 -0.5019
 9011SOL     OW38494   3.157   0.370  10.956 -0.2885 -0.2148 -0.2797
 9011SOL    HW138495   3.068   0.370  10.922  0.3488  1.5449 -1.9850
 9011SOL    HW238496   3.200   0.447  10.918  0.9433 -1.2120 -0.9516
 9012SOL     OW38497   0.793   2.399   6.711  0.1128  0.0676 -0.2421
 9012SOL    HW138498   0.852   2.331   6.680 -0.7320 -0.6530 -0.2729
 9012SOL    HW238499   0.842   2.453   6.773  0.6541 -0.7998  0.0856
 9013SOL     OW38500   4.198   4.568   8.536  0.1367 -0.7265 -0.6142
 9013SOL    HW138501   4.274   4.612   8.573 -1.3517  0.5972  0.8553
 9013SOL    HW238502   4.208   4.478   8.567  0.2475  0.5666  3.0409
 9014SOL     OW38503   3.093   3.553   3.752  0.1841 -0.3979  0.5119
 9014SOL    HW138504   3.038   3.619   3.711 -0.1134 -2.8232 -2.9399
 9014SOL    HW238505   3.027   3.498   3.795  0.5071 -1.9449 -0.9968
 9015SOL     OW38506   0.468   1.594   4.197  1.1374 -1.0068 -0.4654
 9015SOL    HW138507   0.500   1.530   4.261 -0.2974  0.0375  1.2769
 9015SOL    HW238508   0.375   1.586   4.217  0.8021  0.9953 -1.2021
 9016SOL     OW38509   0.442   2.350   0.529 -0.0700  0.1825  0.3500
 9016SOL    HW138510   0.480   2.321   0.612 -1.3254 -0.0930  0.8267
 9016SOL    HW238511   0.370   2.406   0.558 -0.1622  0.5573 -0.5737
 9017SOL     OW38512   2.615   2.237   7.325  0.0651  0.0887 -0.2791
 9017SOL    HW138513   2.603   2.218   7.232  1.8007 -0.8166 -0.3206
 9017SOL    HW238514   2.613   2.332   7.330 -1.0471  0.1419 -1.8479
 9018SOL     OW38515   0.263   1.009   9.140  0.0146 -0.6273  0.3044
 9018SOL    HW138516   0.218   1.014   9.224  1.5917  1.1503  1.0347
 9018SOL    HW238517   0.301   0.922   9.149  3.9558  1.1471  0.7662
 9019SOL     OW38518   0.653   2.068   5.027  0.2430 -0.5584  0.0848
 9019SOL    HW138519   0.580   2.060   5.088  1.4673 -1.1661  1.4817
 9019SOL    HW238520   0.694   2.145   5.067 -1.6239  2.0402 -2.9328
 9020SOL     OW38521   3.123   2.371   5.513  0.1960  0.5229  0.2121
 9020SOL    HW138522   3.114   2.416   5.429  0.2024 -1.3697 -0.8002
 9020SOL    HW238523   3.214   2.396   5.530  1.2731 -2.0779 -1.6593
 9021SOL     OW38524   2.510   0.239   1.437 -0.6242 -0.1846 -0.4185
 9021SOL    HW138525   2.481   0.164   1.489  1.2088 -0.7238 -0.1780
 9021SOL    HW238526   2.551   0.285   1.510 -2.2037 -0.5634  0.7033
 9022SOL     OW38527   2.474   2.367   5.942  0.0011 -0.1354 -0.0018
 9022SOL    HW138528   2.522   2.424   5.882  1.1570 -1.2869 -0.1798
 9022SOL    HW238529   2.538   2.329   6.003  1.9066  1.6773 -0.8459
 9023SOL     OW38530   3.006   1.888   8.099 -0.6867 -0.3710  0.2985
 9023SOL    HW138531   3.076   1.866   8.038 -2.0452 -1.9674 -0.6829
 9023SOL    HW238532   2.963   1.807   8.125 -2.2879  0.1979 -0.5854
 9024SOL     OW38533   4.022   0.294  14.760 -0.2045  0.1029 -0.2075
 9024SOL    HW138534   3.978   0.212  14.783 -0.7624  0.9105  1.6156
 9024SOL    HW238535   4.080   0.252  14.697 -0.0098  1.3126 -0.8542
 9025SOL     OW38536   1.468   1.843   7.567 -0.0211 -0.0382 -0.0893
 9025SOL    HW138537   1.506   1.878   7.647 -0.5484  0.7096 -0.1701
 9025SOL    HW238538   1.417   1.770   7.604 -0.0751  0.2099  0.3194
 9026SOL     OW38539   2.026   0.934  15.403  0.5555 -0.5439 -0.2144
 9026SOL    HW138540   2.062   0.852  15.369 -2.5331 -2.4577  1.1807
 9026SOL    HW238541   2.112   0.974  15.415 -0.0102  1.1810 -1.7989
 9027SOL     OW38542   1.866   1.022  16.894  0.0574  0.0932 -0.6416
 9027SOL    HW138543   1.813   0.991  16.968 -2.2293  1.2570 -1.7892
 9027SOL    HW238544   1.793   1.030  16.834 -1.1732 -2.5855  0.4748
 9028SOL     OW38545   4.689   1.110   0.579 -0.4812  0.2928 -0.3487
 9028SOL    HW138546   4.622   1.178   0.570 -1.1320 -0.3579 -0.3866
 9028SOL    HW238547   4.688   1.105   0.675  0.5014  0.7596 -0.3183
 9029SOL     OW38548   4.198   3.519  16.232 -0.3645  0.4428  0.1119
 9029SOL    HW138549   4.293   3.515  16.243 -0.2241 -2.3695 -2.0319
 9029SOL    HW238550   4.184   3.431  16.197  1.0933 -0.0526  0.7835
 9030SOL     OW38551   3.230   4.121   4.400  0.2596  0.6109 -0.0738
 9030SOL    HW138552   3.240   4.073   4.318 -2.0846 -0.5857  0.3449
 9030SOL    HW238553   3.156   4.072   4.435  0.8216 -0.6586 -0.6423
 9031SOL     OW38554   4.549   2.302   6.518  0.0168 -0.8487 -0.3908
 9031SOL    HW138555   4.575   2.284   6.609 -0.4836 -0.0241 -0.0884
 9031SOL    HW238556   4.456   2.282   6.526  0.3040 -1.9577  0.2257
 9032SOL     OW38557   2.997   4.547  11.281  0.3905  0.3181  0.1154
 9032SOL    HW138558   3.035   4.590  11.357 -1.3624  1.1836  0.4997
 9032SOL    HW238559   3.018   4.621  11.223  1.6029  0.3572  0.6030
 9033SOL     OW38560   1.373   3.392   7.688  0.3878 -0.9199 -0.7283
 9033SOL    HW138561   1.294   3.423   7.733 -0.1313 -1.6413 -1.1429
 9033SOL    HW238562   1.339   3.315   7.641 -0.6336  1.7204 -4.3895
 9034SOL     OW38563   0.944   0.011   9.122  0.8222 -0.3671  0.3959
 9034SOL    HW138564   1.018   4.685   9.153 -0.7066 -2.0441  1.2778
 9034SOL    HW238565   0.937   0.087   9.180  4.2717  0.0803  0.2259
 9035SOL     OW38566   1.362   1.829  16.818 -0.3577 -0.6486 -0.0602
 9035SOL    HW138567   1.412   1.907  16.793 -0.9226 -0.3569 -0.2839
 9035SOL    HW238568   1.338   1.793  16.733 -2.8716  2.1217 -0.5271
 9036SOL     OW38569   4.530   3.796   5.570 -0.4195  0.1608  0.2751
 9036SOL    HW138570   4.625   3.787   5.580 -0.3378  0.9635  0.2068
 9036SOL    HW238571   4.501   3.722   5.622  1.8947 -0.4592  0.7007
 9037SOL     OW38572   0.971   4.182   5.832  0.1702  0.4649 -0.1015
 9037SOL    HW138573   0.973   4.129   5.752 -1.2536  2.0617 -1.1966
 9037SOL    HW238574   0.981   4.109   5.893 -0.6675  1.0327  0.7158
 9038SOL     OW38575   1.536   0.951   2.176  0.0900  0.1997 -0.1939
 9038SOL    HW138576   1.524   1.019   2.110 -1.0320 -0.5629 -0.7765
 9038SOL    HW238577   1.534   1.004   2.256  0.4475 -0.5819  0.3361
 9039SOL     OW38578   3.658   1.792  15.195 -0.5863 -0.1200  0.5461
 9039SOL    HW138579   3.750   1.773  15.179 -0.6071  0.1334  0.1062
 9039SOL    HW238580   3.652   1.769  15.287 -0.5515 -1.4011  0.2303
 9040SOL     OW38581   4.123   2.308   8.704 -0.0015  0.0856  0.0956
 9040SOL    HW138582   4.166   2.308   8.789 -2.8382 -1.3102  1.5321
 9040SOL    HW238583   4.137   2.216   8.679 -0.7832  0.2831 -1.0864
 9041SOL     OW38584   0.517   4.439   6.301 -0.0100 -0.1742  0.6807
 9041SOL    HW138585   0.478   4.351   6.300  0.2901 -0.3072  0.7383
 9041SOL    HW238586   0.516   4.460   6.207 -0.2537  0.3080  0.7926
 9042SOL     OW38587   2.326   2.341   2.848 -0.1521 -0.1766 -0.2351
 9042SOL    HW138588   2.243   2.386   2.834 -0.3029 -0.4196 -0.1392
 9042SOL    HW238589   2.380   2.349   2.769 -0.1722 -1.5990 -0.3915
 9043SOL     OW38590   1.497   3.468   2.429  0.5617  0.8922  0.0804
 9043SOL    HW138591   1.417   3.423   2.455  0.4052  1.1653  0.0656
 9043SOL    HW238592   1.457   3.547   2.393 -2.0964 -0.8662 -0.7497
 9044SOL     OW38593   0.265   2.787   7.061 -0.0402  0.2886 -0.2478
 9044SOL    HW138594   0.281   2.792   7.156  0.5068  1.9657 -0.4270
 9044SOL    HW238595   0.330   2.854   7.038  0.8115 -1.2002 -2.0878
 9045SOL     OW38596   3.348   3.003  10.981 -0.5545  0.0083 -0.2478
 9045SOL    HW138597   3.361   3.033  11.071 -1.4063  2.0110 -0.8064
 9045SOL    HW238598   3.253   3.015  10.981 -0.9249 -2.7315  0.1300
 9046SOL     OW38599   3.889   3.887   2.720  0.6020  0.1384  0.5513
 9046SOL    HW138600   3.887   3.981   2.704  1.0358  0.1534  0.5779
 9046SOL    HW238601   3.962   3.871   2.660  0.4058  0.8184  0.1319
 9047SOL     OW38602   4.242   2.445   9.455 -0.5365 -0.3544 -0.1449
 9047SOL    HW138603   4.198   2.517   9.499 -0.0193 -1.4747  2.1693
 9047SOL    HW238604   4.322   2.483   9.418 -0.4996 -1.0592 -0.8019
 9048SOL     OW38605   4.486   2.263  16.799 -0.2967 -0.5822 -0.8338
 9048SOL    HW138606   4.539   2.338  16.772  2.6710 -2.5804 -0.5018
 9048SOL    HW238607   4.549   2.194  16.781 -1.2066 -1.2128 -1.5698
 9049SOL     OW38608   0.481   0.943  16.132  0.3920 -0.2404  0.7472
 9049SOL    HW138609   0.419   0.970  16.064  1.5050 -1.7313 -0.8867
 9049SOL    HW238610   0.437   0.863  16.161 -1.7964  0.7443  0.1026
 9050SOL     OW38611   2.621   3.212   8.429  0.0453  0.5355 -0.5076
 9050SOL    HW138612   2.538   3.234   8.474  1.2954  2.6451  0.7888
 9050SOL    HW238613   2.616   3.270   8.353  2.7439 -0.5631 -1.5070
 9051SOL     OW38614   0.504   3.704  13.478 -0.5760  0.0523  0.8817
 9051SOL    HW138615   0.517   3.748  13.394  0.1969  0.6489  1.3203
 9051SOL    HW238616   0.440   3.753  13.529 -0.0934 -1.1717  2.6344
 9052SOL     OW38617   2.101   2.558   7.691 -0.2623 -0.8822  0.4363
 9052SOL    HW138618   2.011   2.589   7.677 -0.0324 -0.2430  0.3324
 9052SOL    HW238619   2.143   2.600   7.616 -1.3073 -0.0777  0.2929
 9053SOL     OW38620   3.385   3.414   1.788  0.2663 -0.1281 -0.1425
 9053SOL    HW138621   3.347   3.480   1.846 -0.6565 -1.1960  0.4716
 9053SOL    HW238622   3.478   3.435   1.797  0.2155  0.2171 -0.4169
 9054SOL     OW38623   3.172   1.638  12.807  0.2311 -0.4661 -0.3692
 9054SOL    HW138624   3.164   1.631  12.902  0.4384 -0.0246 -0.3171
 9054SOL    HW238625   3.248   1.695  12.790 -0.9215  0.7853 -1.3108
 9055SOL     OW38626   3.986   2.240   9.423  0.1571  0.0953 -0.1006
 9055SOL    HW138627   3.944   2.313   9.468 -2.3374 -1.0855 -0.4909
 9055SOL    HW238628   4.076   2.236   9.456  0.1992  1.5898 -0.0347
 9056SOL     OW38629   1.557   2.036   5.935  0.2210 -0.0036 -0.6770
 9056SOL    HW138630   1.512   2.048   5.851 -1.9002  0.7051  0.5605
 9056SOL    HW238631   1.640   1.996   5.910 -0.1077 -0.6293 -0.7667
 9057SOL     OW38632   1.864   4.467   1.382 -0.1645  0.6859  0.8757
 9057SOL    HW138633   1.902   4.404   1.320  0.4330  2.9735 -1.0728
 9057SOL    HW238634   1.917   4.438   1.457 -0.9810  0.1127  1.2257
 9058SOL     OW38635   2.045   0.120  16.472 -0.0488 -0.0442 -0.2325
 9058SOL    HW138636   2.105   0.194  16.472  0.5435 -0.5125 -2.5153
 9058SOL    HW238637   1.963   0.169  16.470  1.4296  2.3722 -2.2313
 9059SOL     OW38638   4.340   4.229   6.293  0.0367  0.2058 -0.2185
 9059SOL    HW138639   4.290   4.306   6.320 -1.8903 -0.3686 -2.1710
 9059SOL    HW238640   4.279   4.194   6.228  0.9426 -0.1757 -0.8702
 9060SOL     OW38641   2.574   2.736  14.351 -0.0145 -0.6972  0.4794
 9060SOL    HW138642   2.497   2.771  14.395  2.9220  3.4888  2.3176
 9060SOL    HW238643   2.606   2.681  14.423  0.3776  0.4068  1.1504
 9061SOL     OW38644   2.537   3.097   4.878  0.4300 -0.6870  0.2908
 9061SOL    HW138645   2.617   3.092   4.930  0.3280 -0.0537  0.5014
 9061SOL    HW238646   2.567   3.088   4.787  0.5917 -2.1258  0.4767
 9062SOL     OW38647   0.640   3.696   9.068 -0.7061 -0.3671 -1.2352
 9062SOL    HW138648   0.593   3.613   9.069 -1.1808 -0.0932 -0.8830
 9062SOL    HW238649   0.681   3.695   8.982  0.2835 -0.2365 -0.7708
 9063SOL     OW38650   0.182   1.622   5.380  0.0805 -0.0636  0.0247
 9063SOL    HW138651   0.088   1.609   5.370  0.2901  0.5563 -2.9272
 9063SOL    HW238652   0.217   1.606   5.292 -0.2007  1.5437 -0.3908
 9064SOL     OW38653   4.313   3.680   9.646  0.6123 -0.6524  0.8360
 9064SOL    HW138654   4.330   3.774   9.649  1.3706 -0.7646  0.2664
 9064SOL    HW238655   4.352   3.670   9.559  0.8433  0.2142  0.8414
 9065SOL     OW38656   0.909   3.440   8.581 -0.1812 -0.4683  0.2095
 9065SOL    HW138657   0.943   3.374   8.642 -0.5177 -3.8664 -3.3246
 9065SOL    HW238658   0.948   3.420   8.496  0.1656 -1.0517  0.5071
 9066SOL     OW38659   2.593   3.015  11.193  1.1171 -0.0851  0.2713
 9066SOL    HW138660   2.629   3.066  11.266  0.4651  0.6386  0.0894
 9066SOL    HW238661   2.502   3.004  11.222  0.8193  1.1475 -0.2115
 9067SOL     OW38662   4.411   3.017  10.359 -0.2669 -0.0237  0.2673
 9067SOL    HW138663   4.336   2.990  10.412 -2.5285  1.5759 -2.0741
 9067SOL    HW238664   4.443   3.091  10.410  0.1171 -1.9743  2.8914
 9068SOL     OW38665   2.248   0.867  16.885 -0.0218 -0.1000  0.5175
 9068SOL    HW138666   2.283   0.782  16.912 -1.0712 -0.9488 -0.8319
 9068SOL    HW238667   2.301   0.885  16.808 -2.8495  3.6413 -0.5822
 9069SOL     OW38668   1.216   1.116   9.094 -0.0618 -0.1690 -0.4636
 9069SOL    HW138669   1.244   1.205   9.072  1.3140 -0.2040  1.2239
 9069SOL    HW238670   1.136   1.143   9.139  1.0174  0.6194  0.9666
 9070SOL     OW38671   3.442   0.202  11.496  0.2026  0.3550  0.1709
 9070SOL    HW138672   3.508   0.254  11.450  1.1688  1.6467  3.0451
 9070SOL    HW238673   3.419   0.246  11.578 -1.1426 -1.5055  0.7871
 9071SOL     OW38674   0.355   0.465   4.745 -0.3912  0.0529  0.6652
 9071SOL    HW138675   0.322   0.461   4.655  0.8766 -2.2060  0.3116
 9071SOL    HW238676   0.274   0.469   4.796 -0.6470  0.9792  0.1820
 9072SOL     OW38677   1.710   3.736   8.332  0.8421  0.0888 -0.0240
 9072SOL    HW138678   1.658   3.815   8.345 -2.4734 -1.8660 -1.6144
 9072SOL    HW238679   1.797   3.774   8.343  1.8638 -2.8768  2.0240
 9073SOL     OW38680   0.433   2.324  10.659 -0.0976  0.2762 -0.4009
 9073SOL    HW138681   0.486   2.348  10.583 -0.5115  1.0079 -0.4605
 9073SOL    HW238682   0.435   2.228  10.658  3.6210  0.3483  2.0760
 9074SOL     OW38683   2.040   3.430   2.959  1.0978 -0.2285  0.3885
 9074SOL    HW138684   2.132   3.404   2.966  1.3781  0.1274 -2.1093
 9074SOL    HW238685   2.018   3.463   3.047  1.1071 -1.5393  0.8740
 9075SOL     OW38686   1.650   2.198   4.820  0.4357  0.4815 -0.2213
 9075SOL    HW138687   1.621   2.164   4.904  2.3305  2.0508  1.0692
 9075SOL    HW238688   1.731   2.147   4.816  0.8862  1.4850 -3.8133
 9076SOL     OW38689   0.540   0.442   7.580  0.0394 -0.1198 -0.2264
 9076SOL    HW138690   0.461   0.489   7.555  0.0900  0.5337  0.8474
 9076SOL    HW238691   0.516   0.415   7.668  1.4668 -1.5783 -0.2765
 9077SOL     OW38692   3.541   4.395  11.720  0.0158 -0.2828  0.0163
 9077SOL    HW138693   3.533   4.465  11.784  0.8217  0.7308 -0.9813
 9077SOL    HW238694   3.449   4.388  11.695  0.3215 -2.7433 -0.4313
 9078SOL     OW38695   4.206   0.150   6.920 -0.4022 -0.1492  0.2507
 9078SOL    HW138696   4.211   0.188   6.832  0.1203 -0.0453  0.3265
 9078SOL    HW238697   4.299   0.132   6.930 -0.4369  0.2232  1.2002
 9079SOL     OW38698   3.179   4.300   3.344 -0.3749 -0.1774  0.1457
 9079SOL    HW138699   3.230   4.228   3.305 -0.5154 -0.2293  0.0569
 9079SOL    HW238700   3.101   4.301   3.288  1.5113 -0.0832 -2.5190
 9080SOL     OW38701   0.303   4.547   4.678 -0.1958 -0.2230 -0.3633
 9080SOL    HW138702   0.209   4.565   4.666 -0.0982  0.2820 -0.3883
 9080SOL    HW238703   0.333   4.620   4.733 -3.2773 -0.2809  1.4008
 9081SOL     OW38704   0.914   0.880   4.134  0.4176 -0.0377 -0.6345
 9081SOL    HW138705   0.934   0.885   4.227 -0.6936 -0.0989 -0.4001
 9081SOL    HW238706   0.822   0.856   4.140 -0.1287  1.3842 -3.2168
 9082SOL     OW38707   0.839   0.400   0.598  0.2706  0.2645  0.3260
 9082SOL    HW138708   0.873   0.453   0.670 -0.1463  0.2736  0.5144
 9082SOL    HW238709   0.826   0.309   0.626 -1.5212  0.5325  0.3489
 9083SOL     OW38710   2.679   1.856   1.415 -0.1099 -0.5274  0.1028
 9083SOL    HW138711   2.676   1.952   1.420  0.5600 -0.5525  1.2315
 9083SOL    HW238712   2.768   1.838   1.446  0.0797 -1.0458 -0.7398
 9084SOL     OW38713   1.097   4.522   2.793  0.2098  0.6496 -0.1021
 9084SOL    HW138714   1.044   4.447   2.767  1.4609 -0.8712  1.7074
 9084SOL    HW238715   1.149   4.496   2.869 -2.1919  3.2089  2.4280
 9085SOL     OW38716   1.775   0.321   0.580  0.2885 -0.0036 -0.0721
 9085SOL    HW138717   1.709   0.356   0.640  0.4045  0.0002  0.0532
 9085SOL    HW238718   1.783   0.395   0.521 -2.5624 -0.0690 -0.5635
 9086SOL     OW38719   2.380   0.554   9.318  0.1842  0.0164  0.7748
 9086SOL    HW138720   2.387   0.579   9.226  0.3553 -0.8168  0.5624
 9086SOL    HW238721   2.446   0.618   9.346 -0.6676  1.6704 -1.0449
 9087SOL     OW38722   1.915   4.666   9.376  0.5520 -0.3394 -0.0499
 9087SOL    HW138723   1.855   0.012   9.399 -0.3614 -0.5880 -1.6581
 9087SOL    HW238724   1.902   4.600   9.444 -0.5840  1.0752  1.1044
 9088SOL     OW38725   2.432   3.455  13.843 -0.0829  0.2743  0.3459
 9088SOL    HW138726   2.349   3.495  13.868  0.7958  1.2492  1.7207
 9088SOL    HW238727   2.420   3.462  13.749  1.3976  0.1233  0.1436
 9089SOL     OW38728   2.985   3.565  11.941  0.2889 -0.3764 -0.3169
 9089SOL    HW138729   3.054   3.563  11.874  1.7002 -0.3853  1.1326
 9089SOL    HW238730   3.038   3.550  12.019 -0.3070 -0.0612  0.1503
 9090SOL     OW38731   2.830   1.822  13.508  0.5813 -0.1887  0.4992
 9090SOL    HW138732   2.916   1.834  13.548  0.9803  1.5953 -0.9369
 9090SOL    HW238733   2.798   1.738  13.542 -0.1187 -0.2494 -0.2985
 9091SOL     OW38734   0.411   1.430   6.820  0.8427 -0.2393  0.2857
 9091SOL    HW138735   0.466   1.353   6.827 -2.4034 -2.6688 -1.0583
 9091SOL    HW238736   0.404   1.465   6.909  3.0603 -0.4074  0.5222
 9092SOL     OW38737   0.393   2.215   5.088 -0.0648 -0.0742 -0.2701
 9092SOL    HW138738   0.423   2.297   5.049  1.5061 -1.3532 -1.7715
 9092SOL    HW238739   0.317   2.194   5.035 -0.4349  0.8861 -0.1011
 9093SOL     OW38740   1.142   1.327   9.350  0.1228 -0.2200 -0.2770
 9093SOL    HW138741   1.171   1.249   9.396  2.5307 -0.0500 -1.4672
 9093SOL    HW238742   1.067   1.289   9.304  0.5685 -0.2082 -1.0215
 9094SOL     OW38743   0.564   2.278   0.768 -0.3917  0.1060 -0.4710
 9094SOL    HW138744   0.523   2.194   0.748 -1.1170  0.4076 -0.2446
 9094SOL    HW238745   0.651   2.248   0.796 -0.4951  0.5268  0.2942
 9095SOL     OW38746   4.659   2.250   4.203  0.0388 -0.3575  0.1298
 9095SOL    HW138747   4.640   2.157   4.199 -1.0760 -0.1521  0.6329
 9095SOL    HW238748   4.724   2.253   4.133 -0.0616  0.1512  0.0570
 9096SOL     OW38749   0.800   0.782  16.913 -0.2618  0.9620  0.4108
 9096SOL    HW138750   0.754   0.852  16.866  0.9101  0.4415 -1.5004
 9096SOL    HW238751   0.763   0.788  17.001 -2.0528  1.4654 -0.3829
 9097SOL     OW38752   3.793   1.980   8.153 -0.1997 -0.1757 -0.5563
 9097SOL    HW138753   3.719   2.011   8.206 -0.5284 -2.2836  0.2161
 9097SOL    HW238754   3.865   2.034   8.184 -1.9505  1.3619  0.8207
 9098SOL     OW38755   2.181   1.728   6.617 -0.3915  0.0902 -0.8929
 9098SOL    HW138756   2.124   1.779   6.674 -0.0162 -0.8958  0.3534
 9098SOL    HW238757   2.266   1.723   6.660 -1.0730 -0.2996  0.4047
 9099SOL     OW38758   3.185   3.555   4.998 -0.3376  0.3694  0.2747
 9099SOL    HW138759   3.255   3.619   4.981 -0.4190 -0.2380 -2.2937
 9099SOL    HW238760   3.120   3.608   5.045  0.6882  1.1397  0.8333
 9100SOL     OW38761   3.843   2.526   6.459  0.0345 -0.2651  0.3881
 9100SOL    HW138762   3.764   2.526   6.514 -0.1973  1.4394  0.0620
 9100SOL    HW238763   3.854   2.621   6.467 -0.0282 -0.0074 -2.7519
 9101SOL     OW38764   1.473   0.235  11.783  0.1684 -0.1839  0.1483
 9101SOL    HW138765   1.467   0.313  11.838 -2.8400 -0.7782  0.7085
 9101SOL    HW238766   1.556   0.204  11.819 -0.0660 -1.0452 -0.0539
 9102SOL     OW38767   2.450   3.326  10.391 -0.0995  0.0636  0.0071
 9102SOL    HW138768   2.355   3.327  10.401  0.3460  0.1317  4.4356
 9102SOL    HW238769   2.476   3.240  10.423 -1.1044 -0.6069 -0.9946
 9103SOL     OW38770   3.658   4.115   7.497  0.0044  0.2165  0.4935
 9103SOL    HW138771   3.700   4.030   7.514  1.5815  0.9217  0.1419
 9103SOL    HW238772   3.624   4.135   7.584 -0.0728 -0.9519  0.7336
 9104SOL     OW38773   1.989   0.552   6.134  0.1343 -0.1303  0.1031
 9104SOL    HW138774   1.912   0.525   6.083  1.7091 -1.9735 -1.2897
 9104SOL    HW238775   1.984   0.647   6.122  0.0054 -0.0813  0.5458
 9105SOL     OW38776   0.269   1.922   6.224  0.0961 -0.1068 -0.0142
 9105SOL    HW138777   0.275   2.000   6.280 -3.3183  0.5955 -0.5975
 9105SOL    HW238778   0.291   1.852   6.285 -1.1808  1.7616  2.5798
 9106SOL     OW38779   3.055   1.258   6.540  0.0872  0.2598  0.1378
 9106SOL    HW138780   3.021   1.229   6.455 -2.0284  0.0058  1.0658
 9106SOL    HW238781   3.117   1.329   6.522 -0.8998  1.2673  0.6968
 9107SOL     OW38782   2.843   1.283   8.420  0.0001  0.3016 -0.1020
 9107SOL    HW138783   2.795   1.272   8.338  0.9917 -0.9227 -0.5149
 9107SOL    HW238784   2.781   1.326   8.479 -1.8687 -0.6065 -1.3904
 9108SOL     OW38785   4.386   4.167   5.392 -0.6381  0.2821  0.1093
 9108SOL    HW138786   4.335   4.244   5.367 -1.7220 -0.6505 -0.4904
 9108SOL    HW238787   4.325   4.135   5.458 -2.0354  1.9074 -0.3788
 9109SOL     OW38788   2.079   4.019  15.766  0.4958  0.1383 -0.0791
 9109SOL    HW138789   1.992   3.979  15.769  0.3633  0.4672  0.4693
 9109SOL    HW238790   2.114   3.943  15.812 -2.7842 -1.3705 -0.0936
 9110SOL     OW38791   3.226   0.198  12.425 -0.5444  0.0204  0.1500
 9110SOL    HW138792   3.198   0.136  12.358 -0.4166  1.2915 -1.0612
 9110SOL    HW238793   3.175   0.158  12.497 -0.0777  0.2289  0.5960
 9111SOL     OW38794   3.012   3.158   8.712 -0.7745  0.4508  0.2097
 9111SOL    HW138795   2.926   3.180   8.677 -2.3714 -2.4568  2.4004
 9111SOL    HW238796   3.047   3.247   8.703  1.7649 -0.3435  2.3843
 9112SOL     OW38797   0.234   1.593  17.486 -0.6144  0.1247  0.3778
 9112SOL    HW138798   0.322   1.632  17.487 -0.2506 -0.7130  0.3125
 9112SOL    HW238799   0.179   1.669  17.506  2.4028  2.5714 -0.5248
 9113SOL     OW38800   3.445   2.427   1.003  0.2466  0.1599  0.6176
 9113SOL    HW138801   3.374   2.476   0.961 -1.0311 -1.2550  1.1291
 9113SOL    HW238802   3.394   2.377   1.067  1.6361 -1.4427  0.4722
 9114SOL     OW38803   3.438   3.243   6.591  0.2577 -0.2177  0.6749
 9114SOL    HW138804   3.469   3.228   6.680  1.3922 -4.3661 -0.4166
 9114SOL    HW238805   3.496   3.311   6.557  1.4709 -1.5113  0.1715
 9115SOL     OW38806   0.669   3.059   8.680  0.1467  0.4340 -0.1249
 9115SOL    HW138807   0.659   2.989   8.615  0.8433  1.0779 -0.9180
 9115SOL    HW238808   0.748   3.029   8.724  0.0044  1.7616  1.0009
 9116SOL     OW38809   2.807   3.575  12.747 -0.1904  0.5616  0.4180
 9116SOL    HW138810   2.857   3.647  12.707  0.5632  0.9849  2.1410
 9116SOL    HW238811   2.859   3.545  12.821  1.9132 -3.0393 -2.5462
 9117SOL     OW38812   2.855   1.970   2.378 -0.3866 -0.4905  0.0030
 9117SOL    HW138813   2.867   2.063   2.395 -0.4965 -0.0964 -2.0627
 9117SOL    HW238814   2.773   1.961   2.425 -0.0549 -1.9737  0.3050
 9118SOL     OW38815   0.255   0.079   6.326  0.2645 -0.2237 -0.2459
 9118SOL    HW138816   0.342   0.085   6.285  1.3918 -0.4324  2.1301
 9118SOL    HW238817   0.243   4.712   6.348 -3.1132 -0.1074 -1.5924
 9119SOL     OW38818   4.612   4.312   6.340  0.4400 -0.2850 -0.1416
 9119SOL    HW138819   4.535   4.276   6.295  1.4319  2.0277 -3.7107
 9119SOL    HW238820   4.653   4.364   6.270  1.3460 -0.8298 -0.0056
 9120SOL     OW38821   0.103   0.405   8.631  0.0125  0.0483  0.3957
 9120SOL    HW138822   0.167   0.438   8.568  0.4802  0.5631  1.1428
 9120SOL    HW238823   0.151   0.337   8.678  0.5510 -0.0860 -0.3543
 9121SOL     OW38824   3.784   3.485   4.396  0.0157  0.0199  0.1501
 9121SOL    HW138825   3.872   3.498   4.361  0.4184  0.9234  1.4847
 9121SOL    HW238826   3.742   3.426   4.334  1.7580 -1.5030  0.4409
 9122SOL     OW38827   0.134   4.145   8.661  0.2729 -1.1589 -0.3924
 9122SOL    HW138828   0.064   4.084   8.685  0.2816 -0.7491  0.6495
 9122SOL    HW238829   0.130   4.193   8.744  1.4915 -1.7592  0.0138
 9123SOL     OW38830   4.425   2.738  17.082 -0.1036 -0.4232 -0.0601
 9123SOL    HW138831   4.504   2.792  17.079  0.7720 -1.6755  0.2997
 9123SOL    HW238832   4.460   2.649  17.077 -0.7969 -0.7037  0.1588
 9124SOL     OW38833   2.386   2.364   8.497  0.0492 -0.2607  0.3018
 9124SOL    HW138834   2.477   2.368   8.527 -0.0327  0.9140  0.4072
 9124SOL    HW238835   2.349   2.290   8.544  1.0660 -0.4086  0.8729
 9125SOL     OW38836   0.238   0.490  16.048 -0.3107 -0.0139 -0.3683
 9125SOL    HW138837   0.154   0.472  16.005 -0.0160 -1.8868 -0.1333
 9125SOL    HW238838   0.294   0.526  15.979  0.8137 -1.7261 -0.3383
 9126SOL     OW38839   3.514   0.392   2.284 -0.1921 -0.1028 -0.0400
 9126SOL    HW138840   3.466   0.473   2.302  0.1036 -0.2700  1.4833
 9126SOL    HW238841   3.511   0.343   2.367 -1.4956 -1.0371 -0.6411
 9127SOL     OW38842   2.117   4.205   2.730  0.3167 -0.2172  0.0926
 9127SOL    HW138843   2.195   4.192   2.677 -0.2316  3.4330 -1.6030
 9127SOL    HW238844   2.050   4.179   2.667  2.0389 -1.8915 -1.0536
 9128SOL     OW38845   0.481   2.639   3.964 -0.6994  0.2947 -0.2025
 9128SOL    HW138846   0.535   2.656   3.887  1.3053 -0.8368  0.9767
 9128SOL    HW238847   0.506   2.705   4.029 -1.2117 -1.1219  1.4238
 9129SOL     OW38848   0.184   4.371   1.972 -0.4693  0.1134  0.1242
 9129SOL    HW138849   0.207   4.456   2.010  1.1777 -0.4118  0.2936
 9129SOL    HW238850   0.177   4.314   2.049  0.4565 -0.9607 -0.5932
 9130SOL     OW38851   3.506   3.098  11.202  0.2643 -0.6540 -0.0456
 9130SOL    HW138852   3.582   3.066  11.252 -1.0417 -4.8201 -0.7166
 9130SOL    HW238853   3.551   3.108  11.118  0.2101 -2.4709 -0.2952
 9131SOL     OW38854   1.045   4.056  11.684  0.1289  0.4724  0.5215
 9131SOL    HW138855   1.106   4.129  11.675 -0.3105  0.7768 -0.0115
 9131SOL    HW238856   1.098   3.978  11.699 -1.1226  0.1140  3.0286
 9132SOL     OW38857   3.804   3.371   9.984  0.6562 -0.0712 -0.0605
 9132SOL    HW138858   3.803   3.392   9.890 -1.3954 -1.0381 -0.2604
 9132SOL    HW238859   3.713   3.362  10.011  0.2670  2.0232 -0.6710
 9133SOL     OW38860   0.793   0.546   7.540  0.8293 -0.2182 -0.0301
 9133SOL    HW138861   0.714   0.496   7.561  0.0087  0.9554 -0.3499
 9133SOL    HW238862   0.755   0.632   7.557 -1.4265 -1.4846  1.3007
 9134SOL     OW38863   2.538   0.836  14.512 -0.0486 -0.1369 -0.4701
 9134SOL    HW138864   2.624   0.876  14.524  0.7939 -2.0788 -0.0379
 9134SOL    HW238865   2.478   0.908  14.531 -0.4097 -1.1672  2.3429
 9135SOL     OW38866   3.797   4.543  16.723  0.4876  0.1437  0.0822
 9135SOL    HW138867   3.771   4.460  16.682  0.7534  1.1577 -2.1337
 9135SOL    HW238868   3.808   4.502  16.809 -0.1818 -0.5037 -0.1409
 9136SOL     OW38869   2.229   3.905   1.369 -0.1515 -0.1719 -0.1056
 9136SOL    HW138870   2.270   3.821   1.352  0.2065  0.2875 -1.4841
 9136SOL    HW238871   2.306   3.961   1.375 -1.7400  1.7086  3.1518
 9137SOL     OW38872   2.690   2.529   9.327  0.1639 -0.5148 -0.0452
 9137SOL    HW138873   2.663   2.443   9.293  0.7198  0.3713 -2.6931
 9137SOL    HW238874   2.726   2.564   9.246  0.4039 -1.1619 -0.2176
 9138SOL     OW38875   4.302   2.218   8.195  0.0550 -0.0790 -0.4161
 9138SOL    HW138876   4.268   2.289   8.142 -1.7350  0.6483  1.6757
 9138SOL    HW238877   4.292   2.255   8.283  1.0082  2.1913 -1.2810
 9139SOL     OW38878   3.365   2.075   8.808  0.6361  0.0369  0.1554
 9139SOL    HW138879   3.321   2.057   8.725 -0.6877  0.9128  0.6705
 9139SOL    HW238880   3.427   2.003   8.819 -0.0860 -0.4534  1.0508
 9140SOL     OW38881   0.567   2.239  15.149  0.0324 -0.3244  0.2627
 9140SOL    HW138882   0.657   2.207  15.161  0.2069  0.0602 -0.0340
 9140SOL    HW238883   0.570   2.316  15.206  0.8319  1.0367 -1.6312
 9141SOL     OW38884   2.260   4.112   6.510  0.1224 -0.2284  1.1258
 9141SOL    HW138885   2.188   4.151   6.461  1.4631  1.0616  0.1703
 9141SOL    HW238886   2.242   4.019   6.495  0.3574 -0.2889  1.2230
 9142SOL     OW38887   0.206   2.840  11.436  0.6530 -0.1447  0.1577
 9142SOL    HW138888   0.265   2.764  11.440 -1.3903 -1.6642  0.9582
 9142SOL    HW238889   0.186   2.842  11.343  0.7658 -0.1336  0.1331
 9143SOL     OW38890   3.816   1.334  17.640 -0.2932 -0.7067  0.6169
 9143SOL    HW138891   3.772   1.417  17.655  0.3231 -0.0380 -1.1798
 9143SOL    HW238892   3.748   1.287  17.592  1.1049 -1.6622 -0.4602
 9144SOL     OW38893   2.107   1.150  13.925  0.1542 -0.2777  0.1033
 9144SOL    HW138894   2.138   1.233  13.889 -0.8630  0.6557  1.3891
 9144SOL    HW238895   2.143   1.165  14.012 -2.0896 -0.0746  1.0039
 9145SOL     OW38896   0.289   0.203   8.743 -0.6182 -0.1002  0.4047
 9145SOL    HW138897   0.357   0.267   8.762 -1.4688  0.6344  0.9345
 9145SOL    HW238898   0.340   0.121   8.744 -0.2433  0.1207 -1.2403
 9146SOL     OW38899   2.933   4.694   6.325  0.0433 -0.7229  0.3086
 9146SOL    HW138900   2.913   4.639   6.249 -1.8747 -1.0626  1.0489
 9146SOL    HW238901   2.850   0.014   6.337  0.6556  0.3028  0.5976
 9147SOL     OW38902   2.670   3.945   1.033 -0.1146 -0.6271  0.2897
 9147SOL    HW138903   2.620   3.864   1.041 -0.6304 -0.2310  1.1199
 9147SOL    HW238904   2.751   3.918   1.077  0.3380 -1.1587 -0.8622
 9148SOL     OW38905   1.104   3.350   9.503  0.1247  0.0108  0.0445
 9148SOL    HW138906   1.071   3.440   9.506 -1.3422 -0.5700  1.5733
 9148SOL    HW238907   1.024   3.305   9.476  0.6632 -0.6687 -0.4200
 9149SOL     OW38908   0.159   2.726   3.599  0.2214 -0.2724 -0.5477
 9149SOL    HW138909   0.206   2.809   3.604 -2.1269  1.0161  0.3340
 9149SOL    HW238910   0.220   2.666   3.641 -0.3215  0.2829  1.0306
 9150SOL     OW38911   4.531   3.433   4.871 -0.0883  0.1370 -0.0929
 9150SOL    HW138912   4.558   3.343   4.851  0.4035  0.2024  0.2842
 9150SOL    HW238913   4.443   3.415   4.904  0.4699 -3.1196 -0.4110
 9151SOL     OW38914   2.022   2.222   0.237 -0.0156 -0.7220  0.1722
 9151SOL    HW138915   2.049   2.205   0.147 -2.4129 -1.0610 -0.4855
 9151SOL    HW238916   2.107   2.236   0.279  0.3574  0.6160 -1.0220
 9152SOL     OW38917   2.516   0.367  17.117  0.2316  0.2392  0.3168
 9152SOL    HW138918   2.530   0.314  17.195  0.0647 -0.7843 -0.3464
 9152SOL    HW238919   2.550   0.315  17.044  1.2007 -0.6144  1.3824
 9153SOL     OW38920   2.968   0.067  13.417  0.3255 -0.2360 -0.9382
 9153SOL    HW138921   2.935   0.137  13.474  0.9002  1.5280 -2.7538
 9153SOL    HW238922   2.934   4.710  13.449 -0.2008  1.3745  2.6740
 9154SOL     OW38923   3.357   1.192   9.077 -0.0454 -0.1212  0.1165
 9154SOL    HW138924   3.307   1.215   9.155  0.7389  0.1053  0.5488
 9154SOL    HW238925   3.333   1.260   9.014 -0.7999  0.6576  1.2645
 9155SOL     OW38926   0.316   1.251   3.724  0.1203 -0.5807 -0.0626
 9155SOL    HW138927   0.313   1.294   3.810  1.4687 -0.6151  0.0013
 9155SOL    HW238928   0.355   1.315   3.664  0.5105 -0.6981  0.0665
 9156SOL     OW38929   4.044   0.829   9.744 -0.9274 -0.3103 -0.3397
 9156SOL    HW138930   3.967   0.885   9.747 -1.7850 -1.5664  1.2134
 9156SOL    HW238931   4.013   0.761   9.804 -0.7104  1.3634  1.6994
 9157SOL     OW38932   1.462   0.971   6.981  0.3236  0.1389 -0.2132
 9157SOL    HW138933   1.487   1.029   6.909 -1.0509  1.0017 -0.0037
 9157SOL    HW238934   1.535   0.994   7.038  0.2083 -2.0277  0.8122
 9158SOL     OW38935   0.402   1.161   5.771 -0.3257 -0.3029 -0.3298
 9158SOL    HW138936   0.485   1.114   5.763 -0.6115 -0.6723 -1.1642
 9158SOL    HW238937   0.434   1.247   5.797 -4.6037  0.5972  1.8644
 9159SOL     OW38938   3.964   3.832   5.323 -0.0413  0.2166 -0.1211
 9159SOL    HW138939   4.056   3.827   5.351 -0.1854  1.5543  0.5723
 9159SOL    HW238940   3.920   3.792   5.398 -0.1575  0.3314 -0.1288
 9160SOL     OW38941   3.551   3.092  12.109 -0.3752  0.8393  0.0560
 9160SOL    HW138942   3.510   3.026  12.053  0.2615 -0.3333  0.9874
 9160SOL    HW238943   3.488   3.090  12.181 -2.6986  0.1681 -1.9872
 9161SOL     OW38944   1.187   3.171   1.473  0.2290  0.0051  0.3975
 9161SOL    HW138945   1.202   3.164   1.378  0.9072 -1.5548  0.6117
 9161SOL    HW238946   1.273   3.131   1.491  0.0455 -0.3559  0.4768
 9162SOL     OW38947   1.041   0.368  12.541 -0.1746 -0.3427 -0.0580
 9162SOL    HW138948   1.052   0.431  12.612  1.9296 -2.0992  1.1660
 9162SOL    HW238949   1.065   0.423  12.467 -0.5153  0.7053  0.6157
 9163SOL     OW38950   3.457   1.132  15.808  0.2347  0.3812  0.0016
 9163SOL    HW138951   3.379   1.166  15.765 -0.4900  1.4234  2.1796
 9163SOL    HW238952   3.413   1.075  15.871  1.1095 -1.7270 -1.2645
 9164SOL     OW38953   3.802   4.078   5.247 -0.3582  0.1204  0.2958
 9164SOL    HW138954   3.750   4.008   5.285  1.5712 -1.8626 -0.6905
 9164SOL    HW238955   3.774   4.068   5.156 -1.2055 -1.0760  0.6972
 9165SOL     OW38956   0.466   1.293  12.182  0.6379 -0.3256  0.3634
 9165SOL    HW138957   0.551   1.324  12.212  0.7970 -0.3528 -0.0661
 9165SOL    HW238958   0.413   1.373  12.181  1.7288  0.3907  0.6700
 9166SOL     OW38959   0.422   3.757   5.378  0.4340 -0.0527  0.3573
 9166SOL    HW138960   0.435   3.713   5.462 -2.3950 -1.4614  0.0706
 9166SOL    HW238961   0.495   3.732   5.321  0.4527 -0.0571  0.3830
 9167SOL     OW38962   2.106   3.608   5.725  0.0913 -0.4755  0.0048
 9167SOL    HW138963   2.137   3.611   5.635  1.1987  0.5710  0.4312
 9167SOL    HW238964   2.127   3.694   5.760 -2.6598  0.4636 -0.6310
 9168SOL     OW38965   0.636   1.807   6.214 -0.2073 -0.8657  0.4836
 9168SOL    HW138966   0.576   1.766   6.151  0.1471 -1.9929  0.8669
 9168SOL    HW238967   0.587   1.806   6.296  2.3072  0.1092  1.9888
 9169SOL     OW38968   2.203   1.765   2.723  0.6113  0.0904 -0.7789
 9169SOL    HW138969   2.261   1.739   2.652  0.7137  2.2975 -1.5008
 9169SOL    HW238970   2.194   1.686   2.776  2.1757 -0.1433 -0.8712
 9170SOL     OW38971   0.434   3.926   9.315  0.0102 -0.3110 -0.1415
 9170SOL    HW138972   0.411   3.993   9.380  0.1958  0.0699 -0.4647
 9170SOL    HW238973   0.398   3.842   9.342  2.4159 -2.0049 -2.1412
 9171SOL     OW38974   1.823   1.615   3.427 -0.3585 -0.2100 -0.4592
 9171SOL    HW138975   1.736   1.645   3.452 -1.0588 -1.7137 -1.0968
 9171SOL    HW238976   1.801   1.612   3.334  2.1001  0.4423 -1.0673
 9172SOL     OW38977   2.019   2.069  16.012 -0.0697  0.5198 -0.2134
 9172SOL    HW138978   2.023   2.020  16.094  1.1993 -0.4112 -0.8456
 9172SOL    HW238979   1.928   2.044  15.993  0.4906  0.4676 -2.8462
 9173SOL     OW38980   2.625   1.932   6.420 -0.0438 -0.6551  0.0212
 9173SOL    HW138981   2.610   1.978   6.502  0.6205  1.0125 -0.7898
 9173SOL    HW238982   2.537   1.941   6.383  0.3933  0.5460 -0.7271
 9174SOL     OW38983   4.656   0.676   7.058 -0.0928  0.2814  0.2651
 9174SOL    HW138984   4.669   0.740   7.128 -0.5770  0.4671  0.1852
 9174SOL    HW238985   4.672   0.736   6.986  0.4289 -0.2068 -0.0321
 9175SOL     OW38986   1.098   3.483   4.763 -0.2694  0.0825  0.2408
 9175SOL    HW138987   1.009   3.516   4.779 -0.0034  1.3288 -0.8320
 9175SOL    HW238988   1.103   3.418   4.832 -1.9306  2.2227  2.3810
 9176SOL     OW38989   0.929   1.394  12.337  0.1525  0.0668 -0.5860
 9176SOL    HW138990   0.999   1.459  12.328 -0.0282 -0.0073 -2.6614
 9176SOL    HW238991   0.967   1.344  12.409  0.2793  1.0334  0.0217
 9177SOL     OW38992   0.331   2.462  11.175  0.0077  0.6208 -0.4690
 9177SOL    HW138993   0.335   2.432  11.084 -1.9143 -1.1749  0.0244
 9177SOL    HW238994   0.346   2.376  11.216  0.2133  1.5375  1.3709
 9178SOL     OW38995   2.650   3.850   7.117  0.2340  0.6334  0.5207
 9178SOL    HW138996   2.683   3.816   7.201 -0.1770 -0.4863  0.2243
 9178SOL    HW238997   2.567   3.802   7.112 -0.1183  1.2319  0.6154
 9179SOL     OW38998   4.352   1.354   4.890  0.1414 -0.2618 -0.6582
 9179SOL    HW138999   4.270   1.304   4.892 -0.9768  1.6912  1.4320
 9179SOL    HW239000   4.357   1.383   4.799  1.7644 -1.0255 -0.8155
 9180SOL     OW39001   3.757   3.118   9.758 -0.1692 -0.0581 -0.3863
 9180SOL    HW139002   3.808   3.138   9.837 -0.4602 -0.2652 -0.1460
 9180SOL    HW239003   3.780   3.029   9.733 -1.1141 -0.9783  2.0085
 9181SOL     OW39004   3.292   1.409   5.661  0.9854 -0.4716 -0.1649
 9181SOL    HW139005   3.306   1.325   5.705  1.4920 -0.1890  0.2059
 9181SOL    HW239006   3.224   1.388   5.597 -1.1235  0.0471  1.9120
 9182SOL     OW39007   3.240   1.761   8.262 -0.0091 -0.2514  0.1121
 9182SOL    HW139008   3.170   1.716   8.309 -0.6847 -1.0304 -1.6334
 9182SOL    HW239009   3.271   1.804   8.342  2.3711 -1.7589  0.0251
 9183SOL     OW39010   1.836   0.526  11.766  0.7196  0.1597 -0.2164
 9183SOL    HW139011   1.771   0.547  11.833  0.5163 -1.0016 -0.0493
 9183SOL    HW239012   1.806   0.438  11.743  1.9990 -0.1353 -0.7358
 9184SOL     OW39013   2.624   0.442   6.116  0.8325  0.7265 -0.3547
 9184SOL    HW139014   2.565   0.427   6.190 -0.6093  0.3058 -1.5746
 9184SOL    HW239015   2.574   0.392   6.051  1.5923  1.4737 -1.5201
 9185SOL     OW39016   1.540   1.458   5.735  0.1232  0.4042  0.1704
 9185SOL    HW139017   1.448   1.472   5.757  0.1300  0.8075 -0.0607
 9185SOL    HW239018   1.583   1.536   5.768  0.8702 -0.2581  0.7740
 9186SOL     OW39019   3.605   3.377   5.857 -0.0870  0.2063 -0.2298
 9186SOL    HW139020   3.550   3.314   5.810  0.4328 -0.4503  0.0458
 9186SOL    HW239021   3.684   3.333   5.825  0.3127 -0.7554  2.1056
 9187SOL     OW39022   4.593   0.053   3.099  1.1213  0.5462  0.0863
 9187SOL    HW139023   4.575   0.098   3.016  1.0295 -0.1606 -0.2887
 9187SOL    HW239024   4.591   0.119   3.168 -0.0037  0.8891 -0.2596
 9188SOL     OW39025   3.053   0.748   3.711 -0.2472  0.3288 -0.3770
 9188SOL    HW139026   2.960   0.729   3.699 -0.0425 -0.7168 -0.3074
 9188SOL    HW239027   3.056   0.843   3.703  0.5356  0.1260 -2.4258
 9189SOL     OW39028   0.824   1.570   8.389 -0.4183 -0.1065 -0.0698
 9189SOL    HW139029   0.838   1.664   8.380  2.0265 -0.6253 -1.8495
 9189SOL    HW239030   0.826   1.557   8.484 -1.2258 -0.4744 -0.0982
 9190SOL     OW39031   4.049   3.462  15.559 -0.6971  0.3739  0.2287
 9190SOL    HW139032   4.100   3.523  15.612  0.3233 -0.3964  0.1276
 9190SOL    HW239033   3.983   3.430  15.621 -0.3918 -2.2684 -0.8167
 9191SOL     OW39034   4.380   4.045  15.628 -0.1055  0.7573  0.2827
 9191SOL    HW139035   4.341   4.092  15.702  0.2277  0.4512  0.6478
 9191SOL    HW239036   4.467   4.084  15.632  0.7629 -0.9880 -2.1065
 9192SOL     OW39037   2.019   0.571   7.123  0.1971 -0.2044 -0.0772
 9192SOL    HW139038   2.020   0.531   7.210 -0.5610  0.5675  0.2859
 9192SOL    HW239039   1.985   0.658   7.141  0.2255 -0.0511 -0.7483
 9193SOL     OW39040   4.084   1.335   8.729  0.1647  0.3015 -0.5300
 9193SOL    HW139041   4.031   1.269   8.773  1.4107  0.7738  1.6958
 9193SOL    HW239042   4.162   1.323   8.784 -1.7694 -2.5026  1.6219
 9194SOL     OW39043   3.927   1.565   7.256 -0.7644  0.7261  0.2378
 9194SOL    HW139044   3.988   1.565   7.329 -2.9152  0.4933  2.0338
 9194SOL    HW239045   3.867   1.501   7.293  0.7107 -0.4822  0.4999
 9195SOL     OW39046   0.520   1.119   3.083 -0.4495 -0.1369 -0.3858
 9195SOL    HW139047   0.485   1.167   3.009 -0.5485 -1.9001 -1.4954
 9195SOL    HW239048   0.500   1.030   3.054 -2.9856  0.5770 -0.8724
 9196SOL     OW39049   2.909   2.698   8.807  0.0552 -0.5276  0.2463
 9196SOL    HW139050   2.892   2.762   8.876 -0.2258 -0.9979  0.6073
 9196SOL    HW239051   3.003   2.703   8.790  0.4904  0.0012  2.9173
 9197SOL     OW39052   2.923   4.307   7.465  0.0888 -0.5223 -0.5585
 9197SOL    HW139053   2.989   4.252   7.508 -1.8368 -1.1515  1.5743
 9197SOL    HW239054   2.871   4.239   7.421  0.9466 -1.1964 -0.5311
 9198SOL     OW39055   4.133   4.228  17.606 -0.3534  0.0080  0.5696
 9198SOL    HW139056   4.115   4.250  17.697 -2.2175 -0.2114  0.2437
 9198SOL    HW239057   4.128   4.319  17.576 -1.2618  0.5791  2.4733
 9199SOL     OW39058   4.692   3.103  13.674 -0.8939 -0.0704 -0.1054
 9199SOL    HW139059   0.023   3.168  13.631  1.2454 -0.9917  1.3008
 9199SOL    HW239060   0.020   3.026  13.655  2.2757  2.2448 -0.4840
 9200SOL     OW39061   3.244   1.880  10.753 -0.1650 -0.0790 -0.4759
 9200SOL    HW139062   3.166   1.914  10.708 -0.8350 -1.6192 -0.5051
 9200SOL    HW239063   3.197   1.829  10.820  1.3399  0.8623  1.3047
 9201SOL     OW39064   1.009   3.770   5.308  0.3751  0.0441  0.0283
 9201SOL    HW139065   0.937   3.761   5.245 -1.3756  1.8599  1.7929
 9201SOL    HW239066   1.072   3.712   5.264  0.9828  0.4857  0.3147
 9202SOL     OW39067   1.444   4.450   4.764 -0.3500  0.0205  0.2089
 9202SOL    HW139068   1.351   4.475   4.769 -0.0658  0.7091  2.1504
 9202SOL    HW239069   1.447   4.366   4.717  0.3813 -0.1965  0.6437
 9203SOL     OW39070   3.023   1.489   4.367  0.0564  0.1024  0.7682
 9203SOL    HW139071   3.053   1.435   4.293 -0.2850  0.0585  0.6612
 9203SOL    HW239072   3.044   1.578   4.339 -1.9140  0.3044 -0.0493
 9204SOL     OW39073   3.977   4.073   8.295  0.3603  0.1070  0.1698
 9204SOL    HW139074   3.909   4.138   8.276 -0.8455 -1.0969  0.3291
 9204SOL    HW239075   3.995   4.078   8.389 -0.6798 -1.3315  0.4510
 9205SOL     OW39076   0.090   4.327   4.891  0.2794  0.1116  0.1336
 9205SOL    HW139077   0.071   4.380   4.969  0.5060 -0.3757  0.5236
 9205SOL    HW239078   0.001   4.318   4.857  0.7028  3.4254 -1.8066
 9206SOL     OW39079   4.518   2.455  15.052 -0.4639  0.2858 -0.2784
 9206SOL    HW139080   4.447   2.462  15.115  1.0983  1.5039  1.3629
 9206SOL    HW239081   4.543   2.546  15.033 -0.1125  0.5380  1.3542
 9207SOL     OW39082   3.164   1.288   7.516  0.0713 -0.2843 -0.3511
 9207SOL    HW139083   3.215   1.248   7.445  1.5317  0.6711  0.1505
 9207SOL    HW239084   3.085   1.304   7.465 -0.4323 -0.3972  0.3933
 9208SOL     OW39085   1.483   0.332   8.381 -0.4110  0.3032 -0.8760
 9208SOL    HW139086   1.528   0.378   8.310 -2.0644 -1.2671 -2.9391
 9208SOL    HW239087   1.401   0.306   8.340 -0.1360 -1.4495 -0.3139
 9209SOL     OW39088   0.799   2.084  10.730 -0.3936 -0.3254  0.3904
 9209SOL    HW139089   0.834   2.161  10.685  1.6758 -1.5958 -0.2202
 9209SOL    HW239090   0.875   2.057  10.782  1.2339  2.9843 -0.2965
 9210SOL     OW39091   1.032   3.567   1.102  0.2544 -0.4457  0.2860
 9210SOL    HW139092   1.095   3.585   1.171  0.8801 -1.1825 -0.0819
 9210SOL    HW239093   0.950   3.535   1.139 -0.4659 -1.1748 -1.9244
 9211SOL     OW39094   3.055   4.355   0.756  0.4878  0.3080 -0.5879
 9211SOL    HW139095   3.002   4.350   0.835 -0.4046 -1.4699 -1.2998
 9211SOL    HW239096   3.088   4.444   0.766  1.5024 -0.1952  0.5447
 9212SOL     OW39097   3.350   1.364   2.526  0.1704  0.2118  0.3215
 9212SOL    HW139098   3.336   1.429   2.458 -3.0666  0.5892  1.3779
 9212SOL    HW239099   3.321   1.422   2.596 -2.8521 -3.0197  1.7391
 9213SOL     OW39100   0.790   2.419   6.036 -0.8621 -0.0032 -0.6920
 9213SOL    HW139101   0.730   2.482   6.076  0.7728  1.4843 -0.5782
 9213SOL    HW239102   0.873   2.432   6.083 -1.8844  0.1571  1.0419
 9214SOL     OW39103   3.994   3.119  17.402 -0.1628  0.3811  0.2561
 9214SOL    HW139104   4.032   3.038  17.437  0.4937  0.6650  0.2016
 9214SOL    HW239105   4.042   3.103  17.320  1.0075  0.2461  0.9701
 9215SOL     OW39106   3.600   4.600  15.596  0.3088  0.2079 -0.1439
 9215SOL    HW139107   3.539   4.663  15.636  0.4814  0.0033  0.4456
 9215SOL    HW239108   3.589   4.637  15.509 -2.5823  1.6469  0.8086
 9216SOL     OW39109   0.473   3.596  11.253 -0.5539 -0.7220 -0.1838
 9216SOL    HW139110   0.404   3.559  11.307 -2.2820  2.4687 -0.1926
 9216SOL    HW239111   0.528   3.518  11.251  0.2939 -0.1082 -1.3072
 9217SOL     OW39112   0.033   2.861  14.090  0.3767  0.0827  1.1084
 9217SOL    HW139113   0.093   2.807  14.141  1.7158 -1.5848 -2.2167
 9217SOL    HW239114   0.068   2.848  14.002 -0.5667  4.1566  0.1433
 9218SOL     OW39115   4.410   4.528   4.792 -0.2113 -0.2956  0.0440
 9218SOL    HW139116   4.461   4.453   4.762 -2.9410 -2.4722  0.8774
 9218SOL    HW239117   4.347   4.547   4.723 -0.8424  2.3844  1.3533
 9219SOL     OW39118   3.906   0.100  10.089 -0.0083 -0.1483 -0.1484
 9219SOL    HW139119   3.817   0.133  10.079 -1.2182 -3.1504  0.8734
 9219SOL    HW239120   3.873   0.018  10.123 -0.0969  0.2007  0.6003
 9220SOL     OW39121   1.281   1.998   5.234  0.1057 -0.3653 -0.0938
 9220SOL    HW139122   1.201   2.013   5.183 -0.1165 -2.7154 -0.4195
 9220SOL    HW239123   1.302   2.089   5.255 -4.0855  0.5962  0.0546
 9221SOL     OW39124   0.824   3.780   1.139  0.0985  0.2664  0.4968
 9221SOL    HW139125   0.915   3.788   1.167 -0.2727  0.7633  1.5816
 9221SOL    HW239126   0.792   3.700   1.181 -1.6000 -0.3378 -1.9545
 9222SOL     OW39127   2.964   0.663  10.463  0.2408  0.4074  0.1142
 9222SOL    HW139128   2.940   0.723  10.533  0.1674 -0.4305  0.8150
 9222SOL    HW239129   2.872   0.639  10.448  0.0299  0.9656  0.5274
 9223SOL     OW39130   4.703   0.175   7.018 -0.4853  0.2802  0.1377
 9223SOL    HW139131   4.645   0.174   7.094  0.9858 -0.5506  1.2622
 9223SOL    HW239132   0.024   0.253   7.048 -1.3796  0.3799  1.2824
 9224SOL     OW39133   3.417   0.561  14.883 -0.2880  0.1962  0.0302
 9224SOL    HW139134   3.381   0.575  14.795 -2.2574  1.1478  0.9873
 9224SOL    HW239135   3.402   0.467  14.898 -1.2963  0.7000  2.1873
 9225SOL     OW39136   3.613   3.951   7.243 -0.2091 -0.6726 -0.6288
 9225SOL    HW139137   3.533   3.902   7.225  0.1272 -0.8642 -1.5730
 9225SOL    HW239138   3.580   4.022   7.299 -0.3797 -1.4071  0.2118
 9226SOL     OW39139   4.418   0.124   2.109  0.1002  0.3366  0.1872
 9226SOL    HW139140   4.513   0.124   2.106  0.1537  0.1959  1.4861
 9226SOL    HW239141   4.408   0.199   2.169 -0.0669 -2.3643  3.5546
 9227SOL     OW39142   3.324   1.801   2.549  0.0632  0.2605 -0.5656
 9227SOL    HW139143   3.232   1.797   2.526  0.1286  1.3658 -0.9792
 9227SOL    HW239144   3.335   1.894   2.531 -1.0144  0.6938  0.9862
 9228SOL     OW39145   2.235   4.121   4.666  0.3983 -0.0610  0.2435
 9228SOL    HW139146   2.179   4.045   4.658 -0.4151  0.5393  0.2320
 9228SOL    HW239147   2.212   4.172   4.744 -1.5508 -0.4196 -0.1081
 9229SOL     OW39148   1.168   1.207   5.616 -0.0796 -0.5730 -0.2621
 9229SOL    HW139149   1.148   1.136   5.555  1.1615 -0.3134 -0.9611
 9229SOL    HW239150   1.247   1.170   5.655  0.1008 -1.3827 -1.4051
 9230SOL     OW39151   1.289   1.372   4.618 -0.2852 -0.3650  0.6450
 9230SOL    HW139152   1.367   1.406   4.575  0.8660 -3.8771 -0.0676
 9230SOL    HW239153   1.244   1.355   4.535 -1.4215 -1.1617  1.4321
 9231SOL     OW39154   1.656   2.983   5.267  0.1815 -0.1693  0.0780
 9231SOL    HW139155   1.749   2.963   5.275  0.3587  0.2111 -1.1120
 9231SOL    HW239156   1.664   3.076   5.287 -0.4919 -0.7801  3.1855
 9232SOL     OW39157   4.088   0.527   5.620  0.2018 -0.5496  0.7102
 9232SOL    HW139158   4.132   0.605   5.587 -1.0387 -0.7216 -1.3299
 9232SOL    HW239159   3.998   0.557   5.615  0.5809  0.4437 -0.1275
 9233SOL     OW39160   4.032   0.887  12.811  0.0303  0.1078 -0.2709
 9233SOL    HW139161   3.977   0.808  12.814  0.4914 -0.2094 -0.2615
 9233SOL    HW239162   4.084   0.871  12.889  2.1360  0.7729 -1.5250
 9234SOL     OW39163   4.562   0.797   3.998 -0.0252  0.4095 -0.1260
 9234SOL    HW139164   4.555   0.769   4.089  2.6177 -1.6616 -0.5707
 9234SOL    HW239165   4.566   0.713   3.952 -0.9103  0.7101 -0.7427
 9235SOL     OW39166   2.360   1.455   1.684  0.2978 -0.2489 -0.1956
 9235SOL    HW139167   2.393   1.533   1.728 -1.8565  1.6372 -1.9241
 9235SOL    HW239168   2.353   1.394   1.757  0.4330  1.7519  1.4755
 9236SOL     OW39169   1.334   2.629  12.846  0.7653 -0.1968  0.5591
 9236SOL    HW139170   1.346   2.534  12.846  0.1107 -0.2731  1.9338
 9236SOL    HW239171   1.374   2.651  12.761 -1.0175 -1.4619 -0.6202
 9237SOL     OW39172   2.911   1.834   0.881  0.4437  0.1081  0.5487
 9237SOL    HW139173   2.865   1.782   0.948 -0.0947  1.8238  1.5083
 9237SOL    HW239174   2.834   1.864   0.834  0.5959  0.5681  0.5968
 9238SOL     OW39175   4.185   3.240   8.944  0.6510 -0.2473 -0.0002
 9238SOL    HW139176   4.218   3.212   9.030  0.0412 -0.0946  0.2859
 9238SOL    HW239177   4.112   3.293   8.975  0.7147 -0.8792  1.2281
 9239SOL     OW39178   1.841   2.492   4.855  0.1374  0.0041  0.1978
 9239SOL    HW139179   1.775   2.515   4.790  2.5238 -0.4737 -2.4113
 9239SOL    HW239180   1.807   2.527   4.937  0.8481  0.3446  0.3432
 9240SOL     OW39181   0.574   2.687   0.149 -0.0273 -0.5052  0.1705
 9240SOL    HW139182   0.605   2.600   0.125  1.9051 -0.0219  0.8878
 9240SOL    HW239183   0.544   2.663   0.237  0.7993  3.0312  1.4019
 9241SOL     OW39184   4.332   0.298   7.397 -0.2005 -0.1954 -0.0239
 9241SOL    HW139185   4.265   0.270   7.460  1.3451 -0.1204  1.6575
 9241SOL    HW239186   4.291   0.287   7.311 -0.0310  0.1944 -0.1569
 9242SOL     OW39187   0.189   4.022   0.419  0.1305 -0.2764  0.2551
 9242SOL    HW139188   0.094   4.032   0.417  0.4229  2.6107  0.8556
 9242SOL    HW239189   0.185   3.938   0.465 -1.3900 -0.0100  0.6003
 9243SOL     OW39190   1.735   4.459   9.954 -0.3227  0.5282 -0.0062
 9243SOL    HW139191   1.717   4.515  10.030 -0.2354  0.1760  0.2706
 9243SOL    HW239192   1.794   4.398   9.999  1.0561  1.1238 -0.9792
 9244SOL     OW39193   2.723   2.554  10.016  0.1068 -0.5516 -0.2268
 9244SOL    HW139194   2.684   2.635   9.984  0.1079 -0.6026 -0.3551
 9244SOL    HW239195   2.711   2.482   9.954 -1.9439  1.0393 -1.6616
 9245SOL     OW39196   2.623   1.806   5.921  0.4773 -0.3913 -0.0621
 9245SOL    HW139197   2.695   1.779   5.863  2.3313 -0.9323  2.5125
 9245SOL    HW239198   2.617   1.725   5.972 -0.1017 -1.4634 -1.8179
 9246SOL     OW39199   3.548   3.166   7.263  0.1803  0.1642  0.1058
 9246SOL    HW139200   3.573   3.203   7.178  1.2655  0.7847  0.6911
 9246SOL    HW239201   3.634   3.126   7.280  0.4716  0.1698 -1.3429
 9247SOL     OW39202   0.199   0.922   2.884  0.6297 -0.2506 -0.1901
 9247SOL    HW139203   0.258   0.865   2.836 -2.0578 -3.0759 -0.1217
 9247SOL    HW239204   0.230   0.913   2.974 -0.7528  1.0454  0.4433
 9248SOL     OW39205   2.053   3.999   3.159 -0.1747  0.1117 -0.2332
 9248SOL    HW139206   2.118   3.980   3.226  0.4261  0.6684 -0.6575
 9248SOL    HW239207   2.108   4.056   3.106  0.0383 -1.3762 -1.6178
 9249SOL     OW39208   2.884   2.674   5.697  0.0358  0.5906  0.6081
 9249SOL    HW139209   2.908   2.646   5.609 -0.8256  0.3438  0.4512
 9249SOL    HW239210   2.910   2.594   5.741 -2.0543 -0.9491 -0.9486
 9250SOL     OW39211   3.255   4.036   3.260  0.3647 -0.3231 -0.4262
 9250SOL    HW139212   3.212   3.970   3.205  0.6715 -1.1798  0.3685
 9250SOL    HW239213   3.347   4.009   3.262  0.0007 -1.4802  0.6099
 9251SOL     OW39214   2.200   0.726   2.115  0.3646 -0.0661  0.3106
 9251SOL    HW139215   2.277   0.761   2.071 -1.0677  0.4074 -1.7772
 9251SOL    HW239216   2.151   0.799   2.154 -0.7428 -1.5860  1.7738
 9252SOL     OW39217   3.326   0.615   2.094 -0.0723 -0.1975  0.3440
 9252SOL    HW139218   3.329   0.710   2.084 -1.6209 -0.2109 -0.3763
 9252SOL    HW239219   3.270   0.589   2.020 -0.2474  0.4041  0.2650
 9253SOL     OW39220   1.673   1.738   9.776  0.6498  0.1575 -0.0937
 9253SOL    HW139221   1.579   1.743   9.794  0.3263 -0.9882 -1.3760
 9253SOL    HW239222   1.686   1.801   9.705 -0.0694  0.1440 -0.2367
 9254SOL     OW39223   1.310   3.437  11.210 -0.2832 -0.1351 -0.2732
 9254SOL    HW139224   1.321   3.482  11.294  1.1172 -0.7880 -0.1100
 9254SOL    HW239225   1.285   3.350  11.241 -3.9252  1.1127  0.4261
 9255SOL     OW39226   4.379   2.252   5.639 -0.0035  0.0414  0.2550
 9255SOL    HW139227   4.307   2.275   5.698  0.9383  0.6725  1.1398
 9255SOL    HW239228   4.436   2.328   5.636  0.6384 -0.4398  0.2952
 9256SOL     OW39229   4.446   1.101  15.137  0.0822  0.3816  0.3711
 9256SOL    HW139230   4.497   1.077  15.059  1.7430  2.5783  0.8156
 9256SOL    HW239231   4.427   1.015  15.175 -0.6621  0.0340 -0.7618
 9257SOL     OW39232   0.056   1.983  11.983  0.3955 -0.4381  0.2719
 9257SOL    HW139233   0.052   2.046  11.911 -0.9428 -0.6673  0.1473
 9257SOL    HW239234   4.699   2.000  12.028  0.2545  0.1877 -0.2167
 9258SOL     OW39235   4.213   1.286  12.387 -0.5281  0.2613  0.6179
 9258SOL    HW139236   4.147   1.217  12.380 -0.0344 -0.2114  0.6392
 9258SOL    HW239237   4.241   1.292  12.295  1.3434 -2.4462  1.0000
 9259SOL     OW39238   0.351   3.399   5.920  0.1235  0.4287  0.6013
 9259SOL    HW139239   0.357   3.400   6.015 -0.0574  2.9707  0.5839
 9259SOL    HW239240   0.281   3.461   5.901  0.0722  0.2896  0.3393
 9260SOL     OW39241   3.067   0.002   9.630  0.6128  0.1934  1.1736
 9260SOL    HW139242   3.140   0.007   9.568 -1.9761  1.8109 -1.7398
 9260SOL    HW239243   3.087   4.646   9.675  0.2066 -0.2536  0.5315
 9261SOL     OW39244   3.909   3.343  15.774  0.4100  0.0804  0.0962
 9261SOL    HW139245   3.995   3.308  15.799  0.2681 -1.4937 -1.6290
 9261SOL    HW239246   3.909   3.414  15.838 -1.4447 -0.6841  0.9465
 9262SOL     OW39247   2.808   2.123   2.858 -0.6056  0.1728 -0.0925
 9262SOL    HW139248   2.787   2.053   2.920  0.6851 -0.4967 -0.4162
 9262SOL    HW239249   2.885   2.164   2.898 -1.7598  0.3678  1.9129
 9263SOL     OW39250   3.850   3.815   4.018  0.0600  0.0387  0.1421
 9263SOL    HW139251   3.799   3.742   3.983 -0.9178  0.8211 -0.0812
 9263SOL    HW239252   3.938   3.777   4.021 -0.5686 -1.5660 -1.5546
 9264SOL     OW39253   2.687   0.710   6.100 -0.6700  0.2289  0.0969
 9264SOL    HW139254   2.668   0.616   6.103 -1.6810  0.3108 -3.3230
 9264SOL    HW239255   2.646   0.757   6.173 -0.3208 -0.4498  0.7349
 9265SOL     OW39256   2.580   3.452   7.599  0.0365  0.7945  0.3485
 9265SOL    HW139257   2.552   3.542   7.615 -0.6550  0.5958  0.2522
 9265SOL    HW239258   2.673   3.471   7.589  0.1373  0.1591  0.0145
 9266SOL     OW39259   3.115   0.146   4.903 -0.2055 -0.2309  0.2389
 9266SOL    HW139260   3.080   0.208   4.968 -1.5103  0.0113 -0.7054
 9266SOL    HW239261   3.143   0.077   4.963  1.4900  1.7653  1.7509
 9267SOL     OW39262   2.665   3.803   5.340 -0.4947 -0.1098 -0.6752
 9267SOL    HW139263   2.642   3.859   5.266 -1.8591  1.3667  0.8467
 9267SOL    HW239264   2.663   3.874   5.404  0.2957  0.5949 -1.4462
 9268SOL     OW39265   3.990   0.634   3.189 -0.1542  0.4168  0.1585
 9268SOL    HW139266   3.945   0.574   3.249 -0.6182  0.1080 -0.4987
 9268SOL    HW239267   3.982   0.721   3.230 -0.8284  0.3179  0.2421
 9269SOL     OW39268   4.097   2.931   7.007 -0.1037  0.4498 -0.1820
 9269SOL    HW139269   4.033   2.964   7.071  0.9170  0.0396  1.0409
 9269SOL    HW239270   4.046   2.906   6.929 -2.9670  2.5509  0.9945
 9270SOL     OW39271   0.281   4.318  14.113 -0.3824 -0.0781 -0.5200
 9270SOL    HW139272   0.308   4.312  14.205 -2.2339  0.3188  0.0475
 9270SOL    HW239273   0.287   4.225  14.093  0.8378  0.3197 -1.9959
 9271SOL     OW39274   0.496   3.068  12.196 -0.0872  0.5513  0.2136
 9271SOL    HW139275   0.573   3.059  12.140  0.5922  0.2391  1.1976
 9271SOL    HW239276   0.500   2.988  12.249 -0.9143  0.8436  0.7245
 9272SOL     OW39277   2.148   3.305  14.684  0.2584  0.9951  0.4605
 9272SOL    HW139278   2.057   3.277  14.690  0.7164 -0.6472  0.0313
 9272SOL    HW239279   2.182   3.275  14.769  0.8798 -0.3716 -0.2597
 9273SOL     OW39280   4.398   3.108   5.295  0.8160  0.1410  0.1500
 9273SOL    HW139281   4.468   3.043   5.289 -0.5525 -1.5045  1.9576
 9273SOL    HW239282   4.465   3.175   5.286  2.1271 -1.0364  1.0979
 9274SOL     OW39283   4.300   2.805  15.802 -0.8288  0.1804  0.3805
 9274SOL    HW139284   4.273   2.783  15.713 -1.3196  1.1924  0.2723
 9274SOL    HW239285   4.385   2.762  15.795  0.4177  2.5345  0.8563
 9275SOL     OW39286   1.354   0.118   6.040 -0.1182 -0.0698 -0.1298
 9275SOL    HW139287   1.357   0.181   6.111  0.3557  1.1829 -1.2742
 9275SOL    HW239288   1.299   0.165   5.977  0.0470 -1.3017 -1.2088
 9276SOL     OW39289   3.746   3.150   4.910 -0.0448  0.3023 -0.5898
 9276SOL    HW139290   3.708   3.224   4.863  0.7980  1.1226  0.0163
 9276SOL    HW239291   3.711   3.169   4.998  0.1607  0.1008 -0.4656
 9277SOL     OW39292   0.451   3.449   6.189 -0.8707 -0.0210  0.1267
 9277SOL    HW139293   0.480   3.484   6.273 -2.0130  2.7355 -0.6007
 9277SOL    HW239294   0.377   3.394   6.215 -0.2349 -1.9676 -2.2511
 9278SOL     OW39295   4.459   3.953  11.719 -0.2950 -0.2273 -0.3244
 9278SOL    HW139296   4.519   3.940  11.792  1.7934 -1.8591 -2.3714
 9278SOL    HW239297   4.496   4.025  11.667 -0.0049  0.6698  1.1217
 9279SOL     OW39298   0.705   4.094  13.165  0.3771 -0.2135  0.6318
 9279SOL    HW139299   0.676   4.185  13.154  4.8142  1.0677 -0.6587
 9279SOL    HW239300   0.630   4.047  13.128 -2.2974  3.3284  1.5507
 9280SOL     OW39301   0.704   1.186   5.481  0.1359  0.0608 -0.3039
 9280SOL    HW139302   0.656   1.147   5.408  0.9834 -2.7068  0.6498
 9280SOL    HW239303   0.681   1.132   5.557  3.7253 -0.4473  0.4101
 9281SOL     OW39304   0.431   0.188  16.322  0.0746  0.3994  0.4233
 9281SOL    HW139305   0.340   0.215  16.333  0.5671  1.4269  2.1242
 9281SOL    HW239306   0.430   0.141  16.239 -0.1601  0.0609  0.6159
 9282SOL     OW39307   3.646   3.127   3.749 -0.4630  0.9979 -0.4697
 9282SOL    HW139308   3.708   3.080   3.694 -1.0722  0.1088 -0.4083
 9282SOL    HW239309   3.642   3.211   3.704  1.5988  1.9730  1.1915
 9283SOL     OW39310   0.156   1.410  10.719  0.3503 -0.3504 -0.2351
 9283SOL    HW139311   0.112   1.327  10.698 -1.9158  1.0678 -1.1368
 9283SOL    HW239312   0.156   1.412  10.815  2.0905 -2.4571 -0.2014
 9284SOL     OW39313   2.134   3.502   3.262  0.4101  0.4290  0.0738
 9284SOL    HW139314   2.064   3.517   3.326  0.7056 -0.2578  0.5619
 9284SOL    HW239315   2.196   3.570   3.289  0.3593  0.1326  0.9469
 9285SOL     OW39316   3.247   2.574   0.909 -0.7448  0.5817 -0.1327
 9285SOL    HW139317   3.261   2.663   0.941 -1.0697 -0.2493  2.3297
 9285SOL    HW239318   3.151   2.567   0.908 -0.6950 -0.1402  0.2460
 9286SOL     OW39319   3.079   0.820   9.931 -0.3816 -0.3238 -0.3220
 9286SOL    HW139320   3.056   0.803  10.023 -1.2570  0.4774 -0.3869
 9286SOL    HW239321   3.111   0.735   9.902  1.5641  0.6657 -1.0762
 9287SOL     OW39322   1.419   0.592   0.889  0.0240  0.0375  0.1137
 9287SOL    HW139323   1.448   0.661   0.948 -0.9653  1.2312 -0.7947
 9287SOL    HW239324   1.323   0.602   0.892  0.2720  2.4774 -0.1482
 9288SOL     OW39325   3.267   1.778   1.944 -0.5656 -0.0308 -0.0962
 9288SOL    HW139326   3.300   1.846   2.003 -1.2658  1.2816 -1.2104
 9288SOL    HW239327   3.351   1.753   1.905 -1.0691 -1.8202 -0.0151
 9289SOL     OW39328   2.910   3.472   8.514 -0.3548 -0.1630 -0.5184
 9289SOL    HW139329   2.844   3.514   8.569 -0.9722  1.3564 -2.4299
 9289SOL    HW239330   2.971   3.544   8.497  0.4014 -0.9343 -1.0967
 9290SOL     OW39331   0.704   2.368  16.481  0.1652 -0.3625  0.2047
 9290SOL    HW139332   0.644   2.413  16.539 -1.0463 -0.0389 -1.2991
 9290SOL    HW239333   0.654   2.377  16.400 -1.3990  0.2381  1.2338
 9291SOL     OW39334   3.745   4.552   9.025 -0.2011 -0.0753  0.6394
 9291SOL    HW139335   3.813   4.569   9.090 -1.4644 -0.9435  2.1711
 9291SOL    HW239336   3.740   4.642   8.991 -0.5240 -0.8973 -1.5115
 9292SOL     OW39337   4.191   1.802  14.170  0.1311  0.3042 -0.0499
 9292SOL    HW139338   4.224   1.835  14.254  1.0192 -2.9549  0.8693
 9292SOL    HW239339   4.249   1.854  14.115  0.5361  0.3526  0.4199
 9293SOL     OW39340   0.062   3.783   3.717 -0.4368  0.1126  0.3920
 9293SOL    HW139341   0.127   3.791   3.786  0.4372 -0.2901 -0.3933
 9293SOL    HW239342   0.007   3.717   3.758 -1.3513 -0.4985 -1.8198
 9294SOL     OW39343   2.169   0.782   7.163 -0.2525  0.0305  0.1242
 9294SOL    HW139344   2.227   0.723   7.212  0.0169 -0.3727 -0.6739
 9294SOL    HW239345   2.171   0.750   7.073  0.2519 -0.2648  0.2385
 9295SOL     OW39346   0.730   0.527   8.078  0.4761 -0.5990  0.3048
 9295SOL    HW139347   0.777   0.507   8.159  0.5791  1.2351  0.6906
 9295SOL    HW239348   0.657   0.465   8.079 -0.5685  0.5737 -2.7956
 9296SOL     OW39349   3.859   1.084  15.062  0.2644  0.2976 -0.5312
 9296SOL    HW139350   3.827   1.116  15.146  0.2727  1.4843 -0.9833
 9296SOL    HW239351   3.797   1.017  15.032 -0.9020  0.1219  2.2737
 9297SOL     OW39352   1.806   1.471   3.689 -0.6014 -0.0957 -0.1031
 9297SOL    HW139353   1.812   1.477   3.594 -0.7134  0.5212 -0.0727
 9297SOL    HW239354   1.719   1.512   3.691 -0.6676 -0.2123 -0.5542
 9298SOL     OW39355   0.149   1.830   3.178  0.0789  0.7191 -0.3988
 9298SOL    HW139356   0.106   1.746   3.159  0.8799 -0.0814  1.3464
 9298SOL    HW239357   0.197   1.850   3.098  0.0441 -0.6482 -0.7723
 9299SOL     OW39358   1.936   4.656   7.141  0.0006  0.1482  0.8533
 9299SOL    HW139359   1.859   4.665   7.197  1.7188  0.3893  3.1622
 9299SOL    HW239360   1.897   4.653   7.053  0.8798  1.9571  0.4008
 9300SOL     OW39361   2.975   0.166   4.368  0.2296 -0.3021 -0.4694
 9300SOL    HW139362   2.986   0.245   4.422  1.4600 -0.4773 -0.4716
 9300SOL    HW239363   2.986   0.203   4.281  0.8560  1.5645  0.3915
 9301SOL     OW39364   3.813   0.619   5.558  0.1310  0.3656 -0.5122
 9301SOL    HW139365   3.787   0.689   5.498 -1.4644  0.2001 -0.0287
 9301SOL    HW239366   3.740   0.557   5.556 -0.3511  0.9377 -0.8064
 9302SOL     OW39367   3.121   0.262   1.770 -0.4708  0.2614  0.7969
 9302SOL    HW139368   3.194   0.305   1.726  0.4386 -1.2554  0.8445
 9302SOL    HW239369   3.120   0.174   1.732  2.5137  1.1409 -1.2450
 9303SOL     OW39370   1.517   1.915   4.137  0.0908 -0.5134  0.2308
 9303SOL    HW139371   1.487   2.004   4.119  0.4559 -0.1428  1.4833
 9303SOL    HW239372   1.580   1.913   4.208  1.5249 -2.8105 -1.0795
 9304SOL     OW39373   4.003   4.036   3.101  0.1605  0.0551 -0.6187
 9304SOL    HW139374   3.969   3.958   3.057 -1.4784  1.3224 -1.5555
 9304SOL    HW239375   4.031   3.989   3.180  0.1196  2.7022  0.9706
 9305SOL     OW39376   3.347   1.700   9.763  0.2772  0.0233 -0.1315
 9305SOL    HW139377   3.303   1.781   9.787  2.9099  1.0340  1.2826
 9305SOL    HW239378   3.324   1.701   9.671 -3.1671 -1.5656  0.7377
 9306SOL     OW39379   1.089   1.171   5.903 -0.0984  0.3879 -0.0814
 9306SOL    HW139380   1.075   1.261   5.876 -0.5258  1.0612  2.3922
 9306SOL    HW239381   1.131   1.186   5.988 -1.5057 -0.7846  0.8092
 9307SOL     OW39382   4.028   2.227   7.164  0.5906 -0.0603  0.7724
 9307SOL    HW139383   4.095   2.186   7.218 -0.8207  1.6151  3.8081
 9307SOL    HW239384   3.947   2.201   7.209  0.5225  0.9660  1.2367
 9308SOL     OW39385   1.707   2.620   7.215  0.0507  0.0518  0.3512
 9308SOL    HW139386   1.679   2.551   7.275  0.2837 -1.1658 -0.9455
 9308SOL    HW239387   1.698   2.698   7.269 -1.1149 -0.1872  0.4926
 9309SOL     OW39388   3.385   1.749   4.137 -0.2067  0.1366 -0.3258
 9309SOL    HW139389   3.462   1.699   4.108  0.6945 -0.0353  2.3640
 9309SOL    HW239390   3.366   1.816   4.072  0.3845  2.1035  1.5403
 9310SOL     OW39391   3.528   4.635  14.161 -0.2876 -0.4928  0.2599
 9310SOL    HW139392   3.478   4.553  14.150 -1.3905  0.1287  0.6071
 9310SOL    HW239393   3.517   4.643  14.256 -2.3212  1.2518 -0.1324
 9311SOL     OW39394   0.593   3.606   5.993  0.1167 -0.8222 -0.2321
 9311SOL    HW139395   0.672   3.553   5.994  0.8179  0.2108  0.0966
 9311SOL    HW239396   0.534   3.554   6.048 -1.9621  0.6849 -1.0452
 9312SOL     OW39397   0.212   3.466   5.474  0.6563 -0.3603 -0.1622
 9312SOL    HW139398   0.247   3.405   5.409 -3.6752 -3.9380  0.8875
 9312SOL    HW239399   0.297   3.481   5.517 -0.6446  1.5067  1.7525
 9313SOL     OW39400   1.994   2.822   4.369  0.4307  0.5259  0.2467
 9313SOL    HW139401   2.070   2.863   4.410  0.8786 -0.0197 -0.0562
 9313SOL    HW239402   1.945   2.800   4.449 -0.3986  0.8723 -0.1628
 9314SOL     OW39403   1.605   0.811   5.874  0.2037 -0.7058 -0.4670
 9314SOL    HW139404   1.574   0.818   5.965 -0.2460  0.3143 -0.6958
 9314SOL    HW239405   1.526   0.809   5.820  0.5813  0.0166 -1.0272
 9315SOL     OW39406   2.852   4.175   6.307  0.1566  0.1050 -0.3509
 9315SOL    HW139407   2.775   4.230   6.289  1.0299  1.1494 -0.8845
 9315SOL    HW239408   2.841   4.145   6.397  2.4459  2.5182  0.7156
 9316SOL     OW39409   0.881   2.950   7.853  0.6100  0.7290 -0.0815
 9316SOL    HW139410   0.900   3.035   7.812  1.3434  0.6997  0.1870
 9316SOL    HW239411   0.890   2.977   7.944  0.3184 -1.0345  0.4643
 9317SOL     OW39412   2.460   1.054   7.514  0.1215  1.0658 -0.0457
 9317SOL    HW139413   2.526   1.120   7.530 -1.3007  2.4979 -0.0726
 9317SOL    HW239414   2.447   1.071   7.421 -0.2366 -2.7671 -0.7009
 9318SOL     OW39415   0.454   0.641   4.345  0.3679  0.2009 -0.0145
 9318SOL    HW139416   0.509   0.681   4.413 -1.9840  1.6842  1.0115
 9318SOL    HW239417   0.464   0.548   4.364 -0.4113 -0.2692 -1.9256
 9319SOL     OW39418   4.077   3.468   9.619 -1.0642  0.0248 -0.8933
 9319SOL    HW139419   3.990   3.493   9.650 -0.2964  0.9523  0.4816
 9319SOL    HW239420   4.101   3.551   9.579 -0.9625  1.4442  2.1707
 9320SOL     OW39421   3.568   2.168  16.481  0.2766 -0.1809  0.3852
 9320SOL    HW139422   3.591   2.159  16.388  0.2040 -0.9419  0.4447
 9320SOL    HW239423   3.473   2.183  16.475 -0.2111 -2.5201  2.4527
 9321SOL     OW39424   1.831   3.084  14.605 -0.4965  0.2156 -0.0485
 9321SOL    HW139425   1.851   3.010  14.662  0.1530 -0.2594 -0.9014
 9321SOL    HW239426   1.845   3.158  14.665  2.2420  1.8575 -2.7211
 9322SOL     OW39427   3.336   0.269  16.496  0.1687  0.2104  0.1918
 9322SOL    HW139428   3.317   0.179  16.468 -0.0753  0.0749  0.7711
 9322SOL    HW239429   3.420   0.250  16.539  1.4448  1.1665 -1.8763
 9323SOL     OW39430   1.130   4.072   3.459 -0.1606 -0.1356  0.6757
 9323SOL    HW139431   1.159   4.151   3.504 -0.4711  0.3029  0.1214
 9323SOL    HW239432   1.079   4.118   3.392  0.0130  0.1396  0.7344
 9324SOL     OW39433   2.641   1.001   4.548  0.1382 -0.1167  0.6715
 9324SOL    HW139434   2.720   0.979   4.499 -1.1694  0.7801 -1.8467
 9324SOL    HW239435   2.679   1.014   4.635  2.6606 -1.4316 -0.2248
 9325SOL     OW39436   4.277   2.536   0.866  0.0573 -0.2322  0.7980
 9325SOL    HW139437   4.365   2.566   0.888 -0.3088  1.7215 -0.3953
 9325SOL    HW239438   4.242   2.529   0.954 -0.8121 -0.3022  0.4497
 9326SOL     OW39439   0.518   2.004   7.909 -0.6772  0.2665  0.3944
 9326SOL    HW139440   0.547   2.088   7.945  2.3494 -0.5475 -0.1318
 9326SOL    HW239441   0.519   1.946   7.985  2.1035  1.0477  0.9307
 9327SOL     OW39442   4.452   0.255   0.361 -0.1675  0.5686  1.0828
 9327SOL    HW139443   4.505   0.321   0.317  0.4374 -0.7126 -0.1065
 9327SOL    HW239444   4.510   0.183   0.337 -1.4407 -0.3794  0.8466
 9328SOL     OW39445   0.974   1.456   0.839 -0.8517  0.4156  0.1408
 9328SOL    HW139446   1.051   1.512   0.840 -0.3114 -0.3469  1.6642
 9328SOL    HW239447   1.007   1.370   0.867 -1.4249 -0.6427 -2.4671
 9329SOL     OW39448   1.316   3.513   0.763 -1.0324  0.0467  0.4422
 9329SOL    HW139449   1.272   3.598   0.754  0.6178  0.7428 -0.9316
 9329SOL    HW239450   1.363   3.504   0.681  0.0690  0.9206  0.9833
 9330SOL     OW39451   1.286   3.158  15.803 -0.4993 -0.1246 -0.5953
 9330SOL    HW139452   1.307   3.157  15.709 -1.8201  1.1694 -0.9052
 9330SOL    HW239453   1.369   3.189  15.838 -0.7046 -0.0792 -0.1488
 9331SOL     OW39454   3.151   4.222   0.538 -0.9363  0.0695 -0.3446
 9331SOL    HW139455   3.241   4.253   0.526 -0.2063 -1.2495  1.7130
 9331SOL    HW239456   3.121   4.270   0.615 -0.1500  1.0754 -0.6518
 9332SOL     OW39457   3.830   3.903   3.680  0.3439 -0.1522  0.0765
 9332SOL    HW139458   3.857   3.877   3.768 -0.1048 -0.1201  0.2263
 9332SOL    HW239459   3.861   3.822   3.640 -0.6466  0.6930 -2.3566
 9333SOL     OW39460   2.549   0.394   0.939 -0.2506  0.3552 -0.4500
 9333SOL    HW139461   2.624   0.345   0.972  1.4409  2.4861 -1.1437
 9333SOL    HW239462   2.594   0.444   0.871 -0.6181  1.0737 -0.1580
 9334SOL     OW39463   1.763   3.064   0.630  0.1998 -0.3337  0.6202
 9334SOL    HW139464   1.830   3.126   0.660  2.1002 -2.2814  0.3849
 9334SOL    HW239465   1.693   3.119   0.596 -0.6557  0.3654  3.5431
 9335SOL     OW39466   0.363   4.222   6.291  0.0936  0.1777 -0.3139
 9335SOL    HW139467   0.273   4.232   6.261 -0.2992  1.7939  1.3670
 9335SOL    HW239468   0.381   4.134   6.258 -1.5094 -0.3910  0.3256
 9336SOL     OW39469   2.067   4.459  13.692  0.0443  0.4307  0.0287
 9336SOL    HW139470   2.037   4.374  13.724 -2.6295  1.5384  0.4299
 9336SOL    HW239471   2.001   4.514  13.734  1.0213  1.5552  0.0726
 9337SOL     OW39472   3.357   2.153  17.287  0.2591  0.0179 -0.2001
 9337SOL    HW139473   3.324   2.159  17.197  0.3775  1.3937 -0.1480
 9337SOL    HW239474   3.344   2.245  17.311 -1.7930 -0.7404  1.5218
 9338SOL     OW39475   0.327   4.653   5.108 -0.2842  0.5141  0.3966
 9338SOL    HW139476   0.275   4.591   5.158 -0.7804 -0.1711 -0.9803
 9338SOL    HW239477   0.415   4.638   5.143  0.1982 -0.4000 -1.1951
 9339SOL     OW39478   0.926   4.502   3.786 -0.1504 -0.0942  0.2788
 9339SOL    HW139479   0.924   4.408   3.802  0.2853 -0.3087 -0.9706
 9339SOL    HW239480   0.858   4.522   3.851  0.5770  0.3279  0.9122
 9340SOL     OW39481   3.645   0.477   3.614  0.2558  0.2501 -0.5583
 9340SOL    HW139482   3.660   0.502   3.705 -0.6357  1.3386 -0.7036
 9340SOL    HW239483   3.550   0.487   3.612  0.0925 -0.5441  3.5541
 9341SOL     OW39484   2.821   3.701  12.453  0.0889 -0.4143  0.1878
 9341SOL    HW139485   2.812   3.652  12.371 -1.3939  0.8816 -0.4142
 9341SOL    HW239486   2.782   3.784  12.426 -1.5484 -1.4059 -0.5440
 9342SOL     OW39487   0.267   3.696   6.615  0.0793  0.3904  0.1651
 9342SOL    HW139488   0.195   3.758   6.626  0.5818  0.8369  0.9611
 9342SOL    HW239489   0.339   3.755   6.639  0.4866 -1.3360  3.0961
 9343SOL     OW39490   2.246   0.567   8.131 -0.0444  0.3260 -0.4262
 9343SOL    HW139491   2.280   0.486   8.093  0.4213  0.3254 -0.0146
 9343SOL    HW239492   2.171   0.583   8.074 -0.1563 -0.0309 -0.3825
 9344SOL     OW39493   2.520   0.057   9.160 -0.6119  0.1722 -0.5099
 9344SOL    HW139494   2.553   0.081   9.073  0.4391 -0.0386 -0.1777
 9344SOL    HW239495   2.538   0.140   9.205  1.0551  0.1263 -1.0614
 9345SOL     OW39496   4.120   3.176  15.866 -0.2768 -0.0096 -0.3902
 9345SOL    HW139497   4.137   3.104  15.805 -0.4691  0.1688 -0.6543
 9345SOL    HW239498   4.092   3.128  15.943 -2.1467  0.8380 -0.5333
 9346SOL     OW39499   3.123   0.419   9.831 -0.5376 -0.4712 -0.5806
 9346SOL    HW139500   3.074   0.496   9.802 -1.0301 -0.1666  1.0223
 9346SOL    HW239501   3.053   0.354   9.825 -0.4117 -0.6793  0.2035
 9347SOL     OW39502   2.669   3.275   6.541  0.4056  0.7165 -0.0575
 9347SOL    HW139503   2.615   3.312   6.471 -0.2900  1.3117  0.8065
 9347SOL    HW239504   2.663   3.188   6.502 -1.3558  0.0959  1.6567
 9348SOL     OW39505   2.355   4.658   7.695 -0.4028 -0.0146 -0.1595
 9348SOL    HW139506   2.311   4.577   7.718 -0.8465  0.2408 -0.1045
 9348SOL    HW239507   2.282   4.713   7.725  0.5275  0.0196  2.0153
 9349SOL     OW39508   0.451   0.871  15.804 -0.0619 -0.5031 -0.0767
 9349SOL    HW139509   0.447   0.894  15.711  1.8184 -0.4665 -0.1399
 9349SOL    HW239510   0.419   0.949  15.848  2.8098  1.3394 -1.2756
 9350SOL     OW39511   1.218   3.376   3.288 -0.1396 -0.6406  0.4662
 9350SOL    HW139512   1.312   3.358   3.289 -0.2296 -1.2685 -2.6180
 9350SOL    HW239513   1.204   3.309   3.221 -2.7911  0.5193 -0.1350
 9351SOL     OW39514   3.700   1.392   7.287  0.0262 -0.5609 -0.5197
 9351SOL    HW139515   3.639   1.438   7.345 -2.8648 -2.7729 -1.8569
 9351SOL    HW239516   3.637   1.349   7.230  0.6472 -0.0792 -1.5635
 9352SOL     OW39517   0.902   1.083   6.827 -0.1106 -0.1291 -0.3405
 9352SOL    HW139518   0.978   1.026   6.814 -0.2079 -0.9431  2.7929
 9352SOL    HW239519   0.838   1.025   6.868  1.1362 -1.6031 -0.4662
 9353SOL     OW39520   4.085   3.153  10.299  0.3569 -0.1940  0.1554
 9353SOL    HW139521   4.124   3.186  10.379 -0.4615  2.7162 -0.6473
 9353SOL    HW239522   4.014   3.097  10.332 -1.7924  2.2912 -0.2226
 9354SOL     OW39523   4.563   3.848   2.996 -0.2199  0.2075 -0.0621
 9354SOL    HW139524   4.651   3.821   3.019 -0.7886  0.0882  1.9610
 9354SOL    HW239525   4.579   3.929   2.948  0.2152  1.3666  2.0794
 9355SOL     OW39526   1.005   4.278   5.394 -0.0419  0.5702 -0.4133
 9355SOL    HW139527   1.031   4.340   5.462 -0.8761 -1.9663  2.2478
 9355SOL    HW239528   0.957   4.337   5.336 -0.8572  0.5259  0.2131
 9356SOL     OW39529   2.799   2.034   5.989  0.3953 -0.4131 -0.7609
 9356SOL    HW139530   2.858   1.993   6.052 -0.8413  0.4426  0.9688
 9356SOL    HW239531   2.729   1.969   5.977  0.8590 -0.8519 -1.0571
 9357SOL     OW39532   2.235   0.057   3.937 -0.0414  0.3041  0.2683
 9357SOL    HW139533   2.297   0.125   3.909 -2.9518  2.1797 -1.5556
 9357SOL    HW239534   2.281   0.048   4.021  1.8176 -1.6458 -0.9569
 9358SOL     OW39535   1.508   1.191   9.651 -0.5376  0.4355  0.0912
 9358SOL    HW139536   1.523   1.139   9.730  1.7805 -0.2171 -0.7677
 9358SOL    HW239537   1.534   1.275   9.689  0.6167  2.1700 -4.4207
 9359SOL     OW39538   0.661   3.309   4.661  0.1347 -0.3350  0.0274
 9359SOL    HW139539   0.709   3.370   4.718  1.2340 -0.2434 -0.9943
 9359SOL    HW239540   0.569   3.315   4.686  0.0726 -0.4719 -0.1749
 9360SOL     OW39541   3.036   0.811   5.573 -0.0216  0.7763  0.1498
 9360SOL    HW139542   2.955   0.794   5.526 -0.8227 -0.1893  1.8687
 9360SOL    HW239543   3.016   0.888   5.626  0.7434  0.8473  0.3410
 9361SOL     OW39544   3.999   1.764   4.415  0.0566  0.0203 -0.2587
 9361SOL    HW139545   4.000   1.854   4.382 -1.9752  0.3471  0.5960
 9361SOL    HW239546   3.928   1.728   4.361  0.2876 -1.8898  0.7262
 9362SOL     OW39547   1.191   1.196  12.259  0.6092 -0.7546 -0.0508
 9362SOL    HW139548   1.240   1.278  12.264 -0.2723 -0.3454  1.5736
 9362SOL    HW239549   1.135   1.201  12.181  2.6308 -1.2003 -1.5396
 9363SOL     OW39550   0.344   3.997   3.388  0.6103  0.5207  0.3192
 9363SOL    HW139551   0.407   4.068   3.378  0.3001  0.6012 -1.0946
 9363SOL    HW239552   0.305   4.024   3.471  0.0296  2.7901 -0.6801
 9364SOL     OW39553   0.302   1.073  14.966 -0.1006  0.6384  0.0678
 9364SOL    HW139554   0.230   1.092  14.907 -0.4109 -0.5107  0.0914
 9364SOL    HW239555   0.372   1.123  14.924  1.0905 -0.5813  0.6086
 9365SOL     OW39556   0.026   3.026   6.553  0.3383 -0.0279 -0.6282
 9365SOL    HW139557   4.675   3.083   6.562  0.1742 -0.9628  3.9314
 9365SOL    HW239558   0.038   2.993   6.642  1.3169  1.6974 -0.1088
 9366SOL     OW39559   0.672   3.755  11.545  0.2903 -0.3702 -0.4044
 9366SOL    HW139560   0.742   3.695  11.521  2.6270  1.1745  2.5963
 9366SOL    HW239561   0.641   3.775  11.457  2.6384 -2.9000 -1.8063
 9367SOL     OW39562   0.390   2.838   4.285  0.5988 -0.3724 -0.2891
 9367SOL    HW139563   0.364   2.930   4.288  1.1930 -0.2504  1.1172
 9367SOL    HW239564   0.304   2.795   4.283  0.6025 -0.3440 -1.2531
 9368SOL     OW39565   2.928   0.513   6.145 -0.3308 -0.2377 -0.1675
 9368SOL    HW139566   2.832   0.516   6.136 -0.1813  0.8218 -1.3429
 9368SOL    HW239567   2.943   0.419   6.134  3.8380  0.5289 -0.6562
 9369SOL     OW39568   2.762   3.582   3.358  0.0953  0.3481  0.2417
 9369SOL    HW139569   2.831   3.625   3.409  1.4811  0.1204 -1.4392
 9369SOL    HW239570   2.774   3.630   3.276 -0.5696 -1.0339 -0.6653
 9370SOL     OW39571   0.885   0.074  17.067  1.0789 -0.1202  0.0488
 9370SOL    HW139572   0.977   0.084  17.092  0.5442  2.8043  0.8975
 9370SOL    HW239573   0.884   0.097  16.974 -0.7249  3.2139  0.8821
 9371SOL     OW39574   4.484   2.928   3.546 -0.0654  0.4535 -0.0449
 9371SOL    HW139575   4.577   2.939   3.524  0.2336 -1.6899  0.2034
 9371SOL    HW239576   4.476   2.845   3.592 -2.5561 -0.1717 -1.6153
 9372SOL     OW39577   0.070   2.735   0.654  0.0955  0.6353 -0.3729
 9372SOL    HW139578   0.097   2.770   0.738  0.6365 -0.6187 -0.0297
 9372SOL    HW239579   0.123   2.784   0.591  1.3488 -2.5535 -1.7633
 9373SOL     OW39580   4.294   1.765   8.938  0.6661  0.5046 -0.1775
 9373SOL    HW139581   4.291   1.839   8.878 -1.9477 -0.7056 -1.5382
 9373SOL    HW239582   4.352   1.802   9.004  1.4211  0.5292 -0.8496
 9374SOL     OW39583   3.182   0.945  12.421  0.3569 -0.3264  0.1580
 9374SOL    HW139584   3.146   0.891  12.492 -2.6355  1.2585 -0.1545
 9374SOL    HW239585   3.222   1.013  12.475  2.2724 -1.1729 -0.2075
 9375SOL     OW39586   0.476   2.274  13.010  0.4915  0.5884  0.5375
 9375SOL    HW139587   0.410   2.224  12.963  1.4338 -1.3076  1.2602
 9375SOL    HW239588   0.422   2.319  13.076  1.5407  2.4687  0.1197
 9376SOL     OW39589   0.416   1.182  15.200 -0.0606 -0.3409 -0.4011
 9376SOL    HW139590   0.374   1.110  15.152 -1.2172  0.2426 -0.2553
 9376SOL    HW239591   0.484   1.201  15.135 -1.3393  4.9222 -0.2016
 9377SOL     OW39592   1.934   3.169   4.562  0.1562 -0.1821  0.6916
 9377SOL    HW139593   2.003   3.130   4.509  0.5312  0.0717  0.9966
 9377SOL    HW239594   1.948   3.259   4.533  0.1348 -0.1809  0.6853
 9378SOL     OW39595   2.594   4.662   3.737  0.0392 -0.5992  0.4076
 9378SOL    HW139596   2.509   4.626   3.713 -0.3606  0.6504 -0.0365
 9378SOL    HW239597   2.585   0.031   3.742  2.4359 -0.3457  0.0790
 9379SOL     OW39598   1.302   2.076   3.801  0.0122  0.1892  0.3862
 9379SOL    HW139599   1.225   2.090   3.746 -0.1402  0.6598  0.7186
 9379SOL    HW239600   1.255   2.085   3.884  0.3727  0.4244  0.5646
 9380SOL     OW39601   1.285   1.331   7.320 -0.2774 -0.0280  0.1479
 9380SOL    HW139602   1.250   1.249   7.285 -0.7020  0.2872 -0.1675
 9380SOL    HW239603   1.379   1.322   7.307 -0.7632 -1.2581 -2.5175
 9381SOL     OW39604   4.555   3.312   7.115 -0.5362  0.5684 -1.0694
 9381SOL    HW139605   4.569   3.406   7.100 -3.2642  1.3591  1.3074
 9381SOL    HW239606   4.528   3.316   7.207  1.4534  0.2608 -0.4784
 9382SOL     OW39607   1.044   1.097  10.729 -0.3051  0.0628 -0.1611
 9382SOL    HW139608   1.101   1.021  10.726  1.5605  1.4052  1.7028
 9382SOL    HW239609   0.958   1.058  10.713  0.3002 -1.2458 -0.1758
 9383SOL     OW39610   3.308   3.930   7.770  0.4685 -0.3367 -0.0978
 9383SOL    HW139611   3.398   3.961   7.758 -0.0542  0.9460 -0.7542
 9383SOL    HW239612   3.301   3.938   7.866  3.3527  0.1297  0.0769
 9384SOL     OW39613   4.205   0.749   1.974 -0.5299 -0.6844 -0.4300
 9384SOL    HW139614   4.284   0.762   1.921 -0.9159 -2.1277 -1.3671
 9384SOL    HW239615   4.140   0.792   1.918 -1.7677  0.9112  2.2269
 9385SOL     OW39616   4.231   2.059   7.985  0.0540 -0.0568  0.3434
 9385SOL    HW139617   4.208   1.968   8.003  0.9732 -0.0907  1.3509
 9385SOL    HW239618   4.239   2.097   8.073  1.1496 -0.2429  0.3154
 9386SOL     OW39619   4.125   3.693   0.901  0.2180 -0.0927  0.3534
 9386SOL    HW139620   4.038   3.713   0.868  1.0106 -1.1939 -2.3906
 9386SOL    HW239621   4.104   3.613   0.948  0.3501  0.6281  1.6368
 9387SOL     OW39622   0.762   2.935   7.122 -0.0398  0.5516 -0.6479
 9387SOL    HW139623   0.789   2.855   7.166  2.0979  1.4152 -0.4162
 9387SOL    HW239624   0.698   2.896   7.062  0.3955  0.2437 -0.9087
 9388SOL     OW39625   3.283   3.882   8.544 -0.2053 -0.3242  0.5462
 9388SOL    HW139626   3.309   3.881   8.636  0.6862 -1.4392  0.2801
 9388SOL    HW239627   3.275   3.974   8.517  0.3265 -1.0816 -2.1699
 9389SOL     OW39628   2.903   1.625   8.124 -0.3024  0.0374 -0.0358
 9389SOL    HW139629   2.964   1.569   8.075 -0.3945  0.4314 -0.6135
 9389SOL    HW239630   2.900   1.578   8.207 -3.4485  2.0193  0.9527
 9390SOL     OW39631   3.316   2.313   5.849 -0.1365  0.2049  0.0678
 9390SOL    HW139632   3.274   2.257   5.914  0.0640  0.1476  0.1505
 9390SOL    HW239633   3.272   2.393   5.879  0.3617  1.2046 -1.8684
 9391SOL     OW39634   1.457   1.543  16.900 -0.2538  0.1370  0.1659
 9391SOL    HW139635   1.465   1.638  16.896  0.5516  0.1075  0.9461
 9391SOL    HW239636   1.364   1.525  16.886 -0.5484  3.1813 -1.6768
 9392SOL     OW39637   1.009   0.937  16.833 -0.4873 -0.4396  0.5951
 9392SOL    HW139638   1.008   1.011  16.894  3.4882  0.8582 -0.8602
 9392SOL    HW239639   0.981   0.862  16.885 -0.4270  0.8977  2.5277
 9393SOL     OW39640   1.772   0.187   3.951 -0.4442  0.4179  0.1053
 9393SOL    HW139641   1.859   0.226   3.943 -0.1424 -0.1086  0.8247
 9393SOL    HW239642   1.706   0.257   3.943  1.3088  2.1379  0.8033
 9394SOL     OW39643   2.291   2.096   7.590  0.5984  0.6124 -0.5171
 9394SOL    HW139644   2.217   2.125   7.536  2.5568  1.3415 -2.7836
 9394SOL    HW239645   2.274   2.137   7.675 -0.5105 -2.4082  0.7376
 9395SOL     OW39646   3.193   4.425   1.831 -0.0149 -0.6539  0.6075
 9395SOL    HW139647   3.159   4.375   1.906 -0.0248 -0.5972  0.6409
 9395SOL    HW239648   3.286   4.404   1.828 -0.3796 -2.2053 -0.1436
 9396SOL     OW39649   1.401   2.461   2.950 -0.3939  0.4775  0.1083
 9396SOL    HW139650   1.487   2.501   2.940  1.1990 -2.8772  0.4470
 9396SOL    HW239651   1.355   2.522   3.008  1.0435 -0.8094  2.6095
 9397SOL     OW39652   4.229   4.168   8.240 -0.0015 -0.1515 -0.1461
 9397SOL    HW139653   4.257   4.099   8.301 -1.5091 -1.0252 -0.4480
 9397SOL    HW239654   4.139   4.146   8.217  0.0992  1.2752 -1.8567
 9398SOL     OW39655   1.200   0.526   2.589  0.0299  0.1848 -0.1585
 9398SOL    HW139656   1.119   0.491   2.552 -0.4220  0.0860  0.9392
 9398SOL    HW239657   1.267   0.469   2.552 -1.4059 -0.6834 -1.4445
 9399SOL     OW39658   0.770   4.037   1.348  0.1583  0.4845  0.0229
 9399SOL    HW139659   0.706   4.060   1.281 -0.5485 -2.8995 -0.4529
 9399SOL    HW239660   0.852   4.048   1.300 -0.0844  1.8157 -0.1059
 9400SOL     OW39661   4.286   2.830  10.811 -0.3338  0.1636  0.3733
 9400SOL    HW139662   4.338   2.859  10.886  1.3771 -0.8567 -0.3958
 9400SOL    HW239663   4.254   2.912  10.773 -1.7406 -0.2610  0.6708
 9401SOL     OW39664   2.450   2.886  10.321  0.3371  0.3636 -0.6632
 9401SOL    HW139665   2.378   2.823  10.327  0.1666  0.7017  0.8365
 9401SOL    HW239666   2.464   2.896  10.227 -0.0384  2.3339 -0.5062
 9402SOL     OW39667   0.718   4.445   3.951  0.0398 -0.1451  0.0555
 9402SOL    HW139668   0.725   4.352   3.969  4.6235 -0.1522 -1.8171
 9402SOL    HW239669   0.652   4.444   3.881 -0.1452 -0.8297  0.2472
 9403SOL     OW39670   1.985   4.720   2.266 -0.2600 -0.3118 -0.4151
 9403SOL    HW139671   2.057   0.055   2.252  0.9572 -1.6503  0.0796
 9403SOL    HW239672   1.921   0.014   2.198 -1.8983 -2.8343  0.3829
 9404SOL     OW39673   0.485   1.405   7.594  0.0038  0.3127 -0.4954
 9404SOL    HW139674   0.460   1.317   7.566  3.4949 -0.5035 -0.9950
 9404SOL    HW239675   0.482   1.390   7.688  0.3001 -1.6961 -0.8078
 9405SOL     OW39676   2.264   3.287   7.451  0.1584 -0.1408  0.2755
 9405SOL    HW139677   2.340   3.243   7.488 -0.4905 -2.4694 -1.1942
 9405SOL    HW239678   2.220   3.312   7.533 -2.6564 -1.8944 -0.6852
 9406SOL     OW39679   1.412   1.651   2.015  0.0595 -0.1438 -0.4005
 9406SOL    HW139680   1.452   1.564   2.014 -2.1734 -1.1686 -1.2948
 9406SOL    HW239681   1.349   1.628   2.083 -1.3648 -1.0244 -1.9931
 9407SOL     OW39682   0.841   0.574  12.878 -0.1797  0.5070 -0.1953
 9407SOL    HW139683   0.885   0.558  12.961  0.6302 -0.4182 -0.8109
 9407SOL    HW239684   0.903   0.540  12.814  1.7067  0.1709  1.8241
 9408SOL     OW39685   4.595   4.532   3.212 -0.8437  0.2572 -0.0656
 9408SOL    HW139686   4.587   4.581   3.130 -0.2066 -0.7571 -0.7427
 9408SOL    HW239687   4.647   4.594   3.263  2.0461 -0.2439 -2.3949
 9409SOL     OW39688   0.265   1.982   4.073  0.1374  0.8290  0.4188
 9409SOL    HW139689   0.338   1.924   4.094 -0.7342  0.0738  1.3510
 9409SOL    HW239690   0.275   2.047   4.143  1.0224  1.8134 -0.6217
 9410SOL     OW39691   4.195   1.707   2.627 -0.3175 -0.7821  0.1857
 9410SOL    HW139692   4.192   1.791   2.673  0.1814  0.4828 -2.1100
 9410SOL    HW239693   4.275   1.670   2.664  0.2924  1.4638  1.0725
 9411SOL     OW39694   1.011   1.813   6.049  0.1569  0.5082  0.3955
 9411SOL    HW139695   1.091   1.801   6.100 -1.5580 -2.0151  2.4822
 9411SOL    HW239696   1.008   1.908   6.037 -1.0544  0.7025  2.2937
 9412SOL     OW39697   0.991   4.722   2.629 -0.2764  0.2361  0.4606
 9412SOL    HW139698   1.079   0.003   2.592 -0.1420 -0.8075  0.5824
 9412SOL    HW239699   1.000   4.647   2.688  0.3786  0.3052  0.4488
 9413SOL     OW39700   1.099   0.352   6.201  0.0060  0.8935  0.0165
 9413SOL    HW139701   1.049   0.366   6.120 -2.7420 -0.1656  1.5325
 9413SOL    HW239702   1.064   0.264   6.215 -0.7074  1.4867  1.8879
 9414SOL     OW39703   2.765   0.816   8.595 -0.4007 -0.4208 -0.2484
 9414SOL    HW139704   2.843   0.762   8.580  0.8489  0.6218  2.4609
 9414SOL    HW239705   2.799   0.870   8.666 -0.6680 -2.5854  1.5547
 9415SOL     OW39706   1.457   2.425   9.048  0.5376  0.6383  0.0954
 9415SOL    HW139707   1.489   2.505   9.089 -1.9334  2.3934 -1.4108
 9415SOL    HW239708   1.532   2.389   9.001 -0.6815 -0.3812 -1.0762
 9416SOL     OW39709   0.076   0.064   5.923  0.7302 -0.6870 -0.4286
 9416SOL    HW139710   0.069   0.096   6.013 -0.3627  0.9716 -1.1109
 9416SOL    HW239711   0.157   0.101   5.888  0.6924  1.9689  2.2787
 9417SOL     OW39712   2.000   2.576   1.002  0.1324 -0.0651 -0.0654
 9417SOL    HW139713   2.054   2.602   0.927  0.4381  2.1652  0.9145
 9417SOL    HW239714   1.940   2.513   0.963  1.9983 -0.9963 -1.4217
 9418SOL     OW39715   1.856   0.544   8.034 -0.5048 -0.4930  0.1149
 9418SOL    HW139716   1.895   0.631   8.036  2.5217 -1.8326  0.3889
 9418SOL    HW239717   1.823   0.539   8.124  1.4296 -0.1358  0.8430
 9419SOL     OW39718   2.983   0.739   6.412  0.0272  0.3214  0.7298
 9419SOL    HW139719   3.069   0.781   6.412 -0.2466  0.8795  1.0815
 9419SOL    HW239720   2.976   0.690   6.330 -1.9878  0.9024  0.5489
 9420SOL     OW39721   1.952   4.714   0.378 -0.4313 -0.5819  0.2755
 9420SOL    HW139722   1.865   0.009   0.414  0.5142  0.5034  1.9114
 9420SOL    HW239723   1.926   4.653   0.309  2.8744 -1.8671  0.1668
 9421SOL     OW39724   0.987   0.957   0.783  0.2468  0.1292  0.4339
 9421SOL    HW139725   0.973   0.929   0.693  1.1740 -0.0491  0.3454
 9421SOL    HW239726   0.920   1.025   0.780  0.1469  0.1584  3.0776
 9422SOL     OW39727   0.538   4.059   3.894  0.0197  0.6627  0.2327
 9422SOL    HW139728   0.627   4.092   3.908  0.6659 -0.1668 -1.8544
 9422SOL    HW239729   0.547   3.978   3.843  0.8800  2.8058 -3.0185
 9423SOL     OW39730   1.315   3.534  11.453  0.1930 -0.0282  0.1971
 9423SOL    HW139731   1.351   3.610  11.501 -0.1456 -0.3437  0.9540
 9423SOL    HW239732   1.261   3.510  11.528  1.4093  1.4064  1.5704
 9424SOL     OW39733   4.390   3.262   7.906 -0.5121 -0.1958 -0.5051
 9424SOL    HW139734   4.320   3.246   7.843 -1.3804 -0.9346  0.6653
 9424SOL    HW239735   4.344   3.272   7.989 -0.0182 -0.8657 -0.1520
 9425SOL     OW39736   2.955   0.839   2.697 -0.4713 -0.5084 -0.8172
 9425SOL    HW139737   2.901   0.873   2.626 -0.1290 -1.0954 -1.3576
 9425SOL    HW239738   2.931   0.747   2.691 -0.9607 -0.3325 -1.4504
 9426SOL     OW39739   4.418   3.867   8.180 -0.3559  0.1916 -0.3172
 9426SOL    HW139740   4.422   3.895   8.271 -3.2071  0.5824 -0.2904
 9426SOL    HW239741   4.435   3.950   8.135  1.2910 -0.5320 -1.0108
 9427SOL     OW39742   1.807   1.788   6.876  0.2743 -0.2864  0.3000
 9427SOL    HW139743   1.759   1.830   6.948 -1.1995 -1.0692 -0.2290
 9427SOL    HW239744   1.803   1.696   6.904  1.0315 -0.4077  0.0100
 9428SOL     OW39745   2.501   1.240   3.298  0.0621 -0.2645  0.1317
 9428SOL    HW139746   2.516   1.233   3.204  0.9404 -2.1597  0.3955
 9428SOL    HW239747   2.416   1.197   3.299  0.8571 -1.8203  1.8348
 9429SOL     OW39748   0.110   3.009   0.807  0.3202 -1.0183 -0.4291
 9429SOL    HW139749   0.122   2.930   0.860 -0.3684 -0.8737 -0.0600
 9429SOL    HW239750   0.129   3.076   0.873 -0.3247 -0.0126 -1.2724
 9430SOL     OW39751   0.663   0.545   5.869  0.2533 -0.4912 -0.6038
 9430SOL    HW139752   0.751   0.584   5.869  0.5076 -1.0708  0.6703
 9430SOL    HW239753   0.675   0.479   5.800 -2.3266  1.3486 -2.8266
 9431SOL     OW39754   2.644   3.392   4.912  0.4324  0.0323  0.6677
 9431SOL    HW139755   2.623   3.299   4.920  2.3239 -0.5363 -0.8969
 9431SOL    HW239756   2.690   3.401   4.829 -2.2083  0.2439 -0.7604
 9432SOL     OW39757   1.835   3.286  17.213  0.0233 -0.9086  0.2582
 9432SOL    HW139758   1.741   3.301  17.209  0.0931 -0.6440 -0.2679
 9432SOL    HW239759   1.850   3.378  17.235 -3.1973 -0.6004  1.1117
 9433SOL     OW39760   4.048   4.567  14.566  0.3876 -0.4178  0.0459
 9433SOL    HW139761   4.046   4.555  14.661 -0.7457 -2.0401 -0.1859
 9433SOL    HW239762   4.073   4.480  14.534 -0.9504 -0.5922 -0.5185
 9434SOL     OW39763   2.115   3.396   8.259 -0.3383  0.9845  0.2124
 9434SOL    HW139764   2.084   3.473   8.211  0.2220  1.7069  1.0212
 9434SOL    HW239765   2.200   3.383   8.216  0.7865  0.5685  2.5791
 9435SOL     OW39766   3.084   4.397  16.753 -0.3696 -0.1019 -0.1154
 9435SOL    HW139767   3.165   4.448  16.746 -0.4588  0.3982  2.2904
 9435SOL    HW239768   3.106   4.329  16.817 -0.0936  0.3338  0.2618
 9436SOL     OW39769   3.343   2.514   6.200 -0.6589  0.3801 -0.6986
 9436SOL    HW139770   3.260   2.504   6.247 -0.6659 -2.2447 -1.2577
 9436SOL    HW239771   3.314   2.514   6.108  0.9949 -1.7850 -1.2162
 9437SOL     OW39772   3.106   1.098   2.436  0.2476 -0.6836  0.0282
 9437SOL    HW139773   3.097   1.104   2.531 -1.9515 -0.7683 -0.1685
 9437SOL    HW239774   3.201   1.091   2.425  0.1414 -1.5075 -0.3890
 9438SOL     OW39775   3.426   3.377   9.258 -0.0043  0.4928 -0.4521
 9438SOL    HW139776   3.391   3.294   9.292 -0.1798  0.5499 -0.4949
 9438SOL    HW239777   3.366   3.443   9.293 -0.4606 -1.0399  1.6717
 9439SOL     OW39778   1.803   3.356   5.983 -0.3042 -0.0547  0.5117
 9439SOL    HW139779   1.845   3.281   5.940 -1.0004  0.2552 -0.7158
 9439SOL    HW239780   1.874   3.400   6.030  0.6962 -1.1057  0.0006
 9440SOL     OW39781   4.409   0.703  12.258 -0.1393  0.5356 -0.0626
 9440SOL    HW139782   4.336   0.764  12.253  0.0943  0.7539 -0.8208
 9440SOL    HW239783   4.477   0.767  12.279  0.4794 -0.2316  0.2884
 9441SOL     OW39784   3.599   2.593   6.131 -0.3428  0.1528  0.1505
 9441SOL    HW139785   3.578   2.685   6.142  0.5983  0.3418  0.3788
 9441SOL    HW239786   3.526   2.548   6.172 -0.7418  0.3466 -0.3536
 9442SOL     OW39787   0.132   1.357  10.981 -0.6239 -0.2164  0.0831
 9442SOL    HW139788   0.160   1.376  11.071  3.3649  3.3566 -1.9425
 9442SOL    HW239789   0.038   1.343  10.995 -0.5815 -0.0269  0.5755
 9443SOL     OW39790   1.993   1.173   7.206 -0.6093 -0.1714  0.5275
 9443SOL    HW139791   2.027   1.110   7.270  4.4679 -1.1413 -3.0915
 9443SOL    HW239792   1.963   1.249   7.255  0.2853  1.1169 -0.9512
 9444SOL     OW39793   4.381   0.796  12.593 -0.2339  0.5476 -0.3271
 9444SOL    HW139794   4.343   0.709  12.587  1.3608 -0.5051  4.3987
 9444SOL    HW239795   4.474   0.782  12.613 -0.6342  0.2014  1.2395
 9445SOL     OW39796   1.232   0.979   2.756  0.5393 -0.2634  0.2845
 9445SOL    HW139797   1.197   0.914   2.695  1.6577  0.2346 -0.8929
 9445SOL    HW239798   1.207   0.946   2.842  0.8418 -0.2864  0.3637
 9446SOL     OW39799   1.840   0.941   5.895 -0.1352 -0.0334  0.5910
 9446SOL    HW139800   1.747   0.925   5.875 -0.1268 -2.5179  2.4800
 9446SOL    HW239801   1.841   0.992   5.976 -4.3104  0.4486  0.3577
 9447SOL     OW39802   4.685   2.556  17.642  0.7971  0.4824  0.3036
 9447SOL    HW139803   4.696   2.504   0.017  0.6506  1.0321  0.6838
 9447SOL    HW239804   4.609   2.608  17.668  0.1699 -0.5820  0.5941
 9448SOL     OW39805   3.387   3.386  14.623 -0.0161 -0.0868  0.6443
 9448SOL    HW139806   3.336   3.305  14.625 -0.0423 -0.0956 -0.3623
 9448SOL    HW239807   3.390   3.403  14.529 -1.2611 -1.3262  0.3857
 9449SOL     OW39808   2.453   1.533  10.089  0.1235 -0.1878  0.5194
 9449SOL    HW139809   2.466   1.563  10.179 -2.2925 -0.7251  1.0482
 9449SOL    HW239810   2.468   1.612  10.037 -0.6633 -0.7857 -0.6080
 9450SOL     OW39811   2.577   0.356   5.056  0.5431 -0.4609 -0.3693
 9450SOL    HW139812   2.598   0.287   4.993 -0.3664  0.9854 -2.2278
 9450SOL    HW239813   2.557   0.306   5.135 -0.9159  0.4000 -0.2010
 9451SOL     OW39814   0.109   1.738   5.734  0.5556  0.6124 -0.7366
 9451SOL    HW139815   0.041   1.791   5.693 -1.1590 -1.8369 -1.0540
 9451SOL    HW239816   0.176   1.766   5.671 -0.7863 -0.9940 -2.8797
 9452SOL     OW39817   4.168   0.558   8.689 -0.2812  0.7645  0.2100
 9452SOL    HW139818   4.261   0.564   8.713 -0.4513 -0.9666  1.3832
 9452SOL    HW239819   4.171   0.573   8.595 -0.4475 -0.6564 -0.0331
 9453SOL     OW39820   4.332   1.817  16.354 -0.5471 -0.6416 -0.0566
 9453SOL    HW139821   4.258   1.841  16.410 -0.1114 -0.6068  0.5000
 9453SOL    HW239822   4.332   1.722  16.344  1.5965 -0.6824  0.4547
 9454SOL     OW39823   2.252   2.241   3.235  0.4791  0.4132 -0.0151
 9454SOL    HW139824   2.327   2.223   3.292 -0.6196 -4.1648  0.0331
 9454SOL    HW239825   2.253   2.181   3.161  0.7600 -0.6318  0.8282
 9455SOL     OW39826   1.796   2.568   2.249  0.1905  0.0107  0.2450
 9455SOL    HW139827   1.772   2.480   2.221 -0.0130 -0.1723  0.9821
 9455SOL    HW239828   1.791   2.621   2.170 -2.3503 -0.4019  0.1166
 9456SOL     OW39829   2.701   3.085   2.458  0.2045 -1.2268  0.4009
 9456SOL    HW139830   2.654   3.154   2.413  2.4725  0.1749  0.2097
 9456SOL    HW239831   2.791   3.117   2.455 -0.4812  0.9091  2.3778
 9457SOL     OW39832   3.353   0.079   2.116 -0.4690 -0.6138  0.9697
 9457SOL    HW139833   3.416   0.146   2.089 -0.6510 -1.2810 -1.1281
 9457SOL    HW239834   3.357   0.018   2.042  1.3704  0.6402  0.0357
 9458SOL     OW39835   0.681   1.876   9.401 -0.9011  0.3632  0.2037
 9458SOL    HW139836   0.586   1.871   9.411 -1.1114 -0.3498 -2.1496
 9458SOL    HW239837   0.673   1.864   9.307  2.2738  2.9214 -0.3791
 9459SOL     OW39838   3.886   2.996  12.416  0.4640 -0.0543  0.2063
 9459SOL    HW139839   3.921   2.927  12.472 -0.1916 -1.5466 -1.2313
 9459SOL    HW239840   3.960   3.055  12.399  1.5247 -0.5861  3.0890
 9460SOL     OW39841   3.921   1.436   5.173  0.2119 -0.5722  0.1693
 9460SOL    HW139842   3.831   1.429   5.138  0.3847 -1.2707 -0.1373
 9460SOL    HW239843   3.956   1.522   5.149 -2.4250  1.2913  2.9251
 9461SOL     OW39844   1.102   3.104   0.056  0.6396  0.3095  0.4665
 9461SOL    HW139845   1.038   3.102  17.690 -0.8635  1.2751  1.8138
 9461SOL    HW239846   1.074   3.174   0.116 -0.1062  1.9440 -1.7931
 9462SOL     OW39847   4.072   4.138   5.254 -0.7083 -0.1188  0.4380
 9462SOL    HW139848   4.074   4.141   5.159  1.2481  0.1499  0.4767
 9462SOL    HW239849   3.981   4.110   5.261 -0.4970 -0.5608  1.3502
 9463SOL     OW39850   3.199   2.924   8.048  0.2513 -0.2468 -0.2968
 9463SOL    HW139851   3.145   2.976   7.988  2.6113  0.4429 -1.8743
 9463SOL    HW239852   3.145   2.937   8.126  0.9975 -0.4224  0.2501
 9464SOL     OW39853   2.256   4.373   8.593  0.1491 -0.4071  0.7658
 9464SOL    HW139854   2.161   4.358   8.590  0.0543  0.2094  0.6337
 9464SOL    HW239855   2.290   4.284   8.596 -1.1333 -0.9380 -0.0866
 9465SOL     OW39856   4.157   3.798   7.791 -0.5502 -0.0270  0.2176
 9465SOL    HW139857   4.249   3.819   7.775 -0.0275 -0.6088  2.5428
 9465SOL    HW239858   4.159   3.764   7.880  0.8644 -0.5123 -0.0077
 9466SOL     OW39859   1.852   4.452   5.081  0.1601 -0.6115  0.0136
 9466SOL    HW139860   1.914   4.520   5.107  1.1225 -1.4618 -0.0155
 9466SOL    HW239861   1.797   4.482   5.009  0.8509 -0.4714 -0.4605
 9467SOL     OW39862   2.448   4.417   7.484  0.1850 -0.1625  0.0472
 9467SOL    HW139863   2.505   4.386   7.413  1.0290  0.6012  0.4007
 9467SOL    HW239864   2.516   4.450   7.543  0.3638  1.1266 -0.8879
 9468SOL     OW39865   4.493   0.931   7.494  0.4487 -0.4060 -0.1963
 9468SOL    HW139866   4.557   0.995   7.527 -1.5214 -0.6958  4.2658
 9468SOL    HW239867   4.450   0.979   7.423 -0.8345  0.3496  1.0719
 9469SOL     OW39868   3.207   4.573   3.453 -0.4375  0.2616 -0.0705
 9469SOL    HW139869   3.218   4.478   3.464 -1.0954  0.3430  1.1847
 9469SOL    HW239870   3.153   4.595   3.528  2.2176 -0.7411  2.1293
 9470SOL     OW39871   0.844   0.800   6.604 -0.1322 -0.8601  0.3387
 9470SOL    HW139872   0.911   0.858   6.568  1.3188 -1.6474  1.7780
 9470SOL    HW239873   0.794   0.769   6.528 -2.6005 -1.3813  2.1767
 9471SOL     OW39874   0.837   2.864   1.047  0.2614 -0.0761  0.3730
 9471SOL    HW139875   0.907   2.911   1.000  1.4745 -2.9694 -0.6816
 9471SOL    HW239876   0.831   2.919   1.126  0.6143  0.6749 -0.1150
 9472SOL     OW39877   3.210   2.478   6.436  0.0499  0.1190 -0.2846
 9472SOL    HW139878   3.157   2.398   6.436  1.0524 -0.5492  1.0049
 9472SOL    HW239879   3.187   2.525   6.516 -0.0841  0.2601 -0.4055
 9473SOL     OW39880   0.464   4.560  12.191  0.3599  0.0700  0.1780
 9473SOL    HW139881   0.537   4.524  12.240 -1.0188  0.4574  2.4853
 9473SOL    HW239882   0.506   4.631  12.141 -0.8812  1.1562  0.6808
 9474SOL     OW39883   3.434   0.807   5.367  0.3914 -0.1413  0.5491
 9474SOL    HW139884   3.391   0.742   5.312  0.8477  0.2431 -0.2643
 9474SOL    HW239885   3.401   0.787   5.455 -2.9762  0.5245 -0.5657
 9475SOL     OW39886   4.620   3.642   3.885 -0.3601 -0.3425  0.3122
 9475SOL    HW139887   4.529   3.615   3.901 -0.0146 -1.1797  0.8585
 9475SOL    HW239888   4.666   3.640   3.969 -0.9307  0.6209  0.6494
 9476SOL     OW39889   0.231   0.556   2.929  0.2631 -0.3124 -0.4504
 9476SOL    HW139890   0.264   0.600   2.851 -1.5829 -1.8635 -2.1243
 9476SOL    HW239891   0.174   0.489   2.891  0.7479 -0.9179 -0.1176
 9477SOL     OW39892   1.084   2.095  16.910 -1.0283  0.1445 -0.3222
 9477SOL    HW139893   1.154   2.147  16.950 -0.9571  0.1497 -0.4549
 9477SOL    HW239894   1.003   2.121  16.955  0.6166 -1.9407  3.8079
 9478SOL     OW39895   2.861   3.098   3.537  0.0570  0.4060 -0.4540
 9478SOL    HW139896   2.810   3.129   3.463  1.4317 -0.8889 -1.9301
 9478SOL    HW239897   2.817   3.013   3.542  0.5785  0.2208  0.9325
 9479SOL     OW39898   3.758   2.346   1.625 -0.4726  0.0016 -0.2615
 9479SOL    HW139899   3.795   2.315   1.542 -1.9427 -2.1972 -0.1131
 9479SOL    HW239900   3.677   2.294   1.631  0.2032 -1.1839 -1.2782
 9480SOL     OW39901   1.935   2.273   9.449 -0.4174 -0.1095 -0.0120
 9480SOL    HW139902   1.873   2.234   9.511  1.3417 -1.1323  1.0944
 9480SOL    HW239903   1.872   2.306   9.385 -1.2473  1.3385  1.5627
 9481SOL     OW39904   4.290   0.307  15.740 -0.4460  0.4646 -0.3644
 9481SOL    HW139905   4.222   0.241  15.757  0.2756  0.2750  1.7276
 9481SOL    HW239906   4.354   0.251  15.783  0.3082  1.1177 -0.6303
 9482SOL     OW39907   3.069   1.022   9.743 -0.1905  0.1026  0.1199
 9482SOL    HW139908   3.036   1.096   9.794 -0.2962  0.4042 -0.3844
 9482SOL    HW239909   3.056   0.963   9.818 -0.0983 -0.2173 -0.1200
 9483SOL     OW39910   4.092   1.450  13.222  0.0506  0.5001  0.3233
 9483SOL    HW139911   4.077   1.426  13.131 -0.3284  1.7108  0.0557
 9483SOL    HW239912   4.121   1.541  13.210 -1.0440  0.6022 -1.4643
 9484SOL     OW39913   3.330   2.239   2.217 -0.0983  0.4280 -0.7041
 9484SOL    HW139914   3.259   2.271   2.274 -0.5621 -1.1251 -0.3943
 9484SOL    HW239915   3.387   2.316   2.209  0.7125 -0.2593 -1.4932
 9485SOL     OW39916   4.501   3.094   6.956  0.0646  0.3522 -0.0025
 9485SOL    HW139917   4.443   3.053   7.020 -0.5232 -0.5968 -1.1583
 9485SOL    HW239918   4.520   3.179   6.996  0.1503 -0.4313  1.6334
 9486SOL     OW39919   0.243   1.199   6.132  0.2070 -0.1446 -0.0317
 9486SOL    HW139920   0.325   1.227   6.090 -0.8873  1.5723 -1.0073
 9486SOL    HW239921   0.197   1.223   6.052 -0.2556  0.7129  0.4837
 9487SOL     OW39922   4.569   4.374  10.326  0.4536 -0.2279  0.4293
 9487SOL    HW139923   4.540   4.283  10.321  0.6386 -0.2367 -0.4342
 9487SOL    HW239924   4.484   4.417  10.337  0.4328 -0.7709  2.4581
 9488SOL     OW39925   3.616   2.196   4.144 -0.0399  0.0998  0.0631
 9488SOL    HW139926   3.534   2.224   4.103 -0.4279 -0.2962  0.5814
 9488SOL    HW239927   3.623   2.102   4.159  1.3667  0.4935  1.8907
 9489SOL     OW39928   1.558   0.397   4.252 -1.0086 -0.4213  0.4904
 9489SOL    HW139929   1.647   0.420   4.278 -0.8317 -0.7673  0.1909
 9489SOL    HW239930   1.564   0.370   4.160 -3.1800 -1.1193  0.5483
 9490SOL     OW39931   0.622   0.971   6.640  0.0745 -0.2527  0.0805
 9490SOL    HW139932   0.551   0.921   6.681  1.7453 -1.1037  1.9075
 9490SOL    HW239933   0.701   0.921   6.658  0.6366 -0.1833 -2.0969
 9491SOL     OW39934   0.825   3.430   6.695 -0.2323 -0.3412  0.1307
 9491SOL    HW139935   0.807   3.428   6.789 -0.2456 -0.8796  0.1160
 9491SOL    HW239936   0.848   3.341   6.670  2.3542  0.1826  0.6183
 9492SOL     OW39937   1.535   3.263   6.757 -0.2409  0.3361  0.1377
 9492SOL    HW139938   1.498   3.175   6.764 -0.2836  0.5876  3.2678
 9492SOL    HW239939   1.514   3.314   6.835 -0.4315 -0.4858  0.6284
 9493SOL     OW39940   1.248   0.618  10.052 -0.6138 -0.6404  0.0298
 9493SOL    HW139941   1.277   0.638  10.141  0.4756  1.2523 -0.7303
 9493SOL    HW239942   1.304   0.542  10.037  0.3087  0.0534 -0.0928
 9494SOL     OW39943   2.286   4.115   8.621 -0.1535  0.6898 -1.1396
 9494SOL    HW139944   2.352   4.046   8.615  1.3187  1.9773  0.0611
 9494SOL    HW239945   2.236   4.070   8.689  1.5689  1.0418  0.3558
 9495SOL     OW39946   2.980   3.990   9.308  0.0484 -0.0201 -0.2391
 9495SOL    HW139947   2.920   3.915   9.305 -1.4545  1.2403 -1.1471
 9495SOL    HW239948   2.917   4.061   9.322  2.3228  2.3020 -1.8376
 9496SOL     OW39949   4.012   3.025  16.406  0.0806  0.0190 -0.1046
 9496SOL    HW139950   4.018   2.941  16.451  1.2656 -0.5327 -1.3050
 9496SOL    HW239951   4.008   3.088  16.478 -2.2186 -0.3518  0.1151
 9497SOL     OW39952   2.328   4.204   4.940  1.0887  0.4521 -0.3478
 9497SOL    HW139953   2.407   4.171   4.896  0.2430  0.0786 -1.5741
 9497SOL    HW239954   2.328   4.167   5.029  1.3745  1.9669  0.2845
 9498SOL     OW39955   4.276   2.470   1.396  0.3581 -0.2414  0.9046
 9498SOL    HW139956   4.244   2.384   1.367 -3.3648  1.4242  0.0168
 9498SOL    HW239957   4.243   2.478   1.486  0.7543 -2.8122  1.2931
 9499SOL     OW39958   2.825   0.517   9.421 -0.1622 -0.0741  0.2394
 9499SOL    HW139959   2.803   0.424   9.427  0.0085 -0.1564 -0.4348
 9499SOL    HW239960   2.746   0.554   9.381 -0.6230 -0.1442  1.0907
 9500SOL     OW39961   2.943   1.892  17.490 -0.3671 -0.1891  0.1274
 9500SOL    HW139962   3.003   1.903  17.416 -0.1047  2.6962  0.7551
 9500SOL    HW239963   2.874   1.952  17.463 -1.1828 -0.5151  1.4959
 9501SOL     OW39964   1.266   2.704   8.464  0.0601 -0.1080  0.5136
 9501SOL    HW139965   1.350   2.738   8.433 -0.0493 -0.8744 -0.6348
 9501SOL    HW239966   1.228   2.665   8.385  2.3011  1.1033 -1.1783
 9502SOL     OW39967   0.680   3.896   5.583  0.0302 -0.3862  0.1095
 9502SOL    HW139968   0.684   3.804   5.608 -2.3111 -1.1855 -2.4331
 9502SOL    HW239969   0.586   3.896   5.561  0.3765 -0.2346 -1.4202
 9503SOL     OW39970   0.478   1.554   4.564 -0.6255  0.2295 -0.1533
 9503SOL    HW139971   0.504   1.646   4.560 -0.7433  0.2287 -0.9042
 9503SOL    HW239972   0.548   1.521   4.507  0.1617 -0.6359  1.2972
 9504SOL     OW39973   4.124   1.856   3.550  0.3173 -0.3843  0.1264
 9504SOL    HW139974   4.196   1.889   3.497 -0.3836  1.9612  0.6415
 9504SOL    HW239975   4.046   1.893   3.509  0.6040 -0.4350 -0.4633
 9505SOL     OW39976   1.204   4.437   8.378 -0.9786  0.0638 -0.1042
 9505SOL    HW139977   1.136   4.492   8.417 -0.3797  0.9232 -0.2625
 9505SOL    HW239978   1.227   4.483   8.297 -0.4185  2.9941  1.7261
 9506SOL     OW39979   2.163   1.341   6.577  0.3649 -0.6594  0.5938
 9506SOL    HW139980   2.217   1.266   6.599  1.9893  0.6072  0.9154
 9506SOL    HW239981   2.188   1.343   6.485 -0.5362  1.0643  0.3817
 9507SOL     OW39982   3.691   2.210   5.864  0.1795 -0.3652 -0.0974
 9507SOL    HW139983   3.717   2.235   5.775  0.5591  1.2884  0.4927
 9507SOL    HW239984   3.617   2.162   5.825  0.6830 -0.3312 -1.1056
 9508SOL     OW39985   0.981   3.074  14.330 -0.4069  0.2048  0.0525
 9508SOL    HW139986   0.963   3.012  14.259 -1.9664  0.5255  0.1678
 9508SOL    HW239987   0.907   3.057  14.387 -0.6754  1.7616  0.1637
 9509SOL     OW39988   1.584   2.836   5.032 -0.6052 -0.1989  0.0084
 9509SOL    HW139989   1.598   2.891   5.109 -2.4599 -0.7180  0.7161
 9509SOL    HW239990   1.670   2.840   4.990 -0.1533  1.1659  1.0614
 9510SOL     OW39991   4.224   4.494   7.912 -0.7851  0.5819  0.1387
 9510SOL    HW139992   4.193   4.528   7.828 -0.6968  0.6028  0.1147
 9510SOL    HW239993   4.269   4.574   7.938  0.8307 -0.2469 -0.0954
 9511SOL     OW39994   3.155   2.124  15.665  0.2096  0.5045 -0.4049
 9511SOL    HW139995   3.081   2.078  15.705  0.4504  0.3286 -0.1625
 9511SOL    HW239996   3.204   2.058  15.617 -0.2217  1.0652 -1.6090
 9512SOL     OW39997   0.631   2.284   8.801  0.6213  0.2593  0.2230
 9512SOL    HW139998   0.573   2.342   8.851  1.2006  1.1029 -0.0835
 9512SOL    HW239999   0.604   2.194   8.820 -0.3324  0.2500 -1.1769
 9513SOL     OW40000   0.306   3.401   7.384  0.2493 -0.2501 -0.0352
 9513SOL    HW140001   0.389   3.437   7.414  1.1168 -2.8947  0.6971
 9513SOL    HW240002   0.299   3.334   7.452 -1.7660 -0.1693 -0.1534
 9514SOL     OW40003   1.979   1.013  10.917  0.2426 -0.2625 -0.6266
 9514SOL    HW140004   1.944   1.066  10.988  0.0555 -0.2510 -0.7253
 9514SOL    HW240005   2.069   1.044  10.910  0.2298 -0.2667 -0.8074
 9515SOL     OW40006   3.857   1.868   4.680  0.6104  0.4961  0.3335
 9515SOL    HW140007   3.926   1.802   4.684 -1.1876 -1.4152  0.0423
 9515SOL    HW240008   3.908   1.942   4.648 -2.6556  2.6281  0.1141
 9516SOL     OW40009   1.809   2.743  15.876 -0.0034 -0.0013  0.0109
 9516SOL    HW140010   1.747   2.712  15.810  1.2387 -3.5191  0.4894
 9516SOL    HW240011   1.869   2.669  15.872 -0.8869 -0.7956  1.3122
 9517SOL     OW40012   1.921   4.085  17.511 -0.4957  0.1267 -0.1010
 9517SOL    HW140013   1.876   4.027  17.573 -0.9949 -0.5492 -1.0961
 9517SOL    HW240014   1.997   4.033  17.485 -0.3661 -1.5341  3.4647
 9518SOL     OW40015   1.151   1.946  16.000 -0.2549 -0.3264 -0.0465
 9518SOL    HW140016   1.192   1.977  15.919  0.7242  1.6046  1.1863
 9518SOL    HW240017   1.221   1.982  16.055 -0.7747  0.7110 -0.0552
 9519SOL     OW40018   3.667   2.254   1.991 -0.4967  0.2168  0.0576
 9519SOL    HW140019   3.688   2.295   2.075  2.0890 -0.2033 -0.3769
 9519SOL    HW240020   3.578   2.286   1.982 -1.0518 -1.0604  0.9282
 9520SOL     OW40021   0.513   4.724  17.287 -0.0920 -0.2384 -0.2193
 9520SOL    HW140022   0.519   4.655  17.220  0.6251  2.9746 -3.4383
 9520SOL    HW240023   0.419   0.015  17.286  0.0708  0.6441 -0.0024
 9521SOL     OW40024   0.930   0.025   4.690 -0.8250 -0.3963 -0.2945
 9521SOL    HW140025   0.911   0.104   4.741 -0.2359 -2.1951  2.6485
 9521SOL    HW240026   0.941   0.059   4.601  0.7411 -1.6666 -0.5818
 9522SOL     OW40027   0.099   1.818   8.537 -0.0666 -0.9053 -0.2102
 9522SOL    HW140028   0.026   1.836   8.478  0.5040 -0.4172 -0.7705
 9522SOL    HW240029   0.170   1.809   8.473  2.2324  1.0639  2.0687
 9523SOL     OW40030   3.738   2.955   6.665  0.0153  0.0301 -0.6630
 9523SOL    HW140031   3.711   2.967   6.574 -2.0464 -2.0974 -0.3247
 9523SOL    HW240032   3.680   3.003   6.724  0.8270  0.9117 -0.5878
 9524SOL     OW40033   2.541   0.902   4.923  0.2533  0.2759 -0.1495
 9524SOL    HW140034   2.598   0.860   4.988  0.5600 -1.0772 -1.2757
 9524SOL    HW240035   2.604   0.950   4.869  0.4461 -0.2936 -0.4411
 9525SOL     OW40036   0.543   2.123   3.316 -0.5787 -0.2896 -0.3321
 9525SOL    HW140037   0.608   2.193   3.306 -0.7514  0.1933  1.9492
 9525SOL    HW240038   0.529   2.124   3.411 -2.1289 -1.2332 -0.5571
 9526SOL     OW40039   1.623   0.014   7.605 -0.1943 -0.7808  0.2032
 9526SOL    HW140040   1.565   0.037   7.533  1.2360  1.9864 -0.0510
 9526SOL    HW240041   1.686   4.683   7.562 -1.6444 -2.0719 -0.2237
 9527SOL     OW40042   3.850   2.507   6.153  0.0132  0.0554  0.2979
 9527SOL    HW140043   3.860   2.502   6.249 -2.1145  1.6349  0.6054
 9527SOL    HW240044   3.759   2.535   6.147 -0.0068  0.3407  1.7805
 9528SOL     OW40045   0.434   3.066   3.519 -0.6478  0.1153 -0.0703
 9528SOL    HW140046   0.420   2.997   3.454  1.6002 -0.4887  0.0962
 9528SOL    HW240047   0.527   3.070   3.498 -0.9732 -0.2078 -1.5932
 9529SOL     OW40048   2.876   3.009   9.379  0.0694  0.1659  0.3965
 9529SOL    HW140049   2.854   3.000   9.286 -0.2529 -2.3819  0.7076
 9529SOL    HW240050   2.928   2.929   9.388  2.3165  1.7295  1.2903
 9530SOL     OW40051   2.233   0.352   1.891 -0.3846  0.0103  0.0217
 9530SOL    HW140052   2.215   0.421   1.956  0.2234 -2.5577  2.9106
 9530SOL    HW240053   2.182   0.277   1.920  0.2448 -1.2620 -2.1757
 9531SOL     OW40054   1.623   0.678   4.521 -0.4793  0.3007 -0.4623
 9531SOL    HW140055   1.614   0.661   4.615  0.3742 -1.2841 -0.6712
 9531SOL    HW240056   1.699   0.623   4.502  0.2141  0.7995  0.8494
 9532SOL     OW40057   4.024   0.270   5.698 -0.3464  0.2709  0.3766
 9532SOL    HW140058   4.056   0.354   5.665 -2.3550 -0.1688 -2.7772
 9532SOL    HW240059   4.100   0.236   5.744 -0.4954 -1.1076 -0.4047
 9533SOL     OW40060   1.070   2.272   3.158  0.4087 -0.0389  0.9980
 9533SOL    HW140061   1.017   2.214   3.102  1.1600 -1.4092  1.7181
 9533SOL    HW240062   1.060   2.231   3.244 -2.6418 -0.1185  0.6011
 9534SOL     OW40063   3.638   2.055  10.564  0.3998 -0.3735 -0.1788
 9534SOL    HW140064   3.683   2.043  10.648  1.7763 -0.3563 -0.9002
 9534SOL    HW240065   3.624   1.961  10.549 -3.7328  0.6457 -2.5845
 9535SOL     OW40066   4.206   0.910   3.356  0.0354 -0.0584  0.1201
 9535SOL    HW140067   4.117   0.874   3.356 -0.8146  2.0455  0.6772
 9535SOL    HW240068   4.198   0.969   3.281 -1.5632  0.0914  0.4160
 9536SOL     OW40069   4.684   4.303   8.190  0.2044  0.5977  0.6326
 9536SOL    HW140070   0.020   4.340   8.254  1.4816 -0.2441 -0.1301
 9536SOL    HW240071   4.615   4.369   8.198 -1.9191 -1.6397  0.5166
 9537SOL     OW40072   0.942   3.187  12.751  0.1482  0.0578  0.1540
 9537SOL    HW140073   1.020   3.147  12.791  0.4434  0.6870  0.2077
 9537SOL    HW240074   0.879   3.175  12.822  1.5880 -0.8835  1.2841
 9538SOL     OW40075   4.486   0.750   2.684 -0.0809 -0.5059 -0.0748
 9538SOL    HW140076   4.463   0.665   2.721  0.7307 -0.2718  0.9839
 9538SOL    HW240077   4.440   0.810   2.743 -0.3469 -0.6413 -0.1461
 9539SOL     OW40078   1.396   2.788   5.747  0.1873 -0.1330 -0.1449
 9539SOL    HW140079   1.413   2.737   5.826  1.4506  1.4827  0.6196
 9539SOL    HW240080   1.337   2.731   5.697 -1.6919  0.1138  1.7571
 9540SOL     OW40081   1.293   2.327   1.241  0.6340  0.6226 -0.1040
 9540SOL    HW140082   1.284   2.239   1.203 -1.1877  0.2420  1.2129
 9540SOL    HW240083   1.286   2.378   1.160  1.0953 -0.8439 -1.0729
 9541SOL     OW40084   4.125   4.510   9.327  0.3583  0.1122  0.0039
 9541SOL    HW140085   4.074   4.511   9.408  0.9602  2.9480  0.3738
 9541SOL    HW240086   4.051   4.529   9.270  0.5991  2.9593  0.6354
 9542SOL     OW40087   4.361   1.905  14.375 -0.7502 -0.5836  0.5357
 9542SOL    HW140088   4.400   1.988  14.404 -1.5916 -0.5352  1.5231
 9542SOL    HW240089   4.337   1.868  14.459 -0.5932  0.9388  1.2578
 9543SOL     OW40090   3.200   4.148   5.626 -0.5883 -0.8024 -0.2075
 9543SOL    HW140091   3.295   4.137   5.626 -0.3658  1.1662  0.6130
 9543SOL    HW240092   3.163   4.093   5.695  0.6289 -2.4977 -0.8919
 9544SOL     OW40093   0.553   4.665  13.894 -0.7009  0.0848  0.0232
 9544SOL    HW140094   0.645   4.691  13.888 -0.5431 -0.4924 -0.0315
 9544SOL    HW240095   0.548   4.620  13.979  0.9644  0.3649  0.2823
 9545SOL     OW40096   0.738   3.047  15.823  0.3663  1.3274  0.1445
 9545SOL    HW140097   0.804   2.984  15.793 -1.0578 -0.3314  0.5380
 9545SOL    HW240098   0.707   3.074  15.737 -1.1438 -1.4821 -0.1752
 9546SOL     OW40099   3.597   1.132   9.652  0.5325 -0.5910  0.7085
 9546SOL    HW140100   3.689   1.155   9.639  0.0069  0.6649 -0.7146
 9546SOL    HW240101   3.575   1.141   9.744 -0.2320 -0.9344  0.5568
 9547SOL     OW40102   4.512   1.108  17.349 -0.0827  0.6347 -0.3303
 9547SOL    HW140103   4.423   1.095  17.316 -0.1051 -2.3365  0.9048
 9547SOL    HW240104   4.513   1.017  17.379 -0.8786  0.9801  0.7024
 9548SOL     OW40105   1.757   3.851   1.877  0.2725  0.3043  0.2712
 9548SOL    HW140106   1.742   3.887   1.789  1.7563  0.1387 -0.0439
 9548SOL    HW240107   1.723   3.925   1.929  0.1245  0.9438 -0.7292
 9549SOL     OW40108   2.749   1.242   4.412  0.0968 -0.0679 -0.2621
 9549SOL    HW140109   2.720   1.151   4.420 -0.4384  0.0301 -1.0735
 9549SOL    HW240110   2.720   1.277   4.328 -1.9841  0.3407  0.6382
 9550SOL     OW40111   2.396   0.425  17.497  0.1733  0.2087 -0.0533
 9550SOL    HW140112   2.356   0.440  17.582  0.8354  0.4810  0.2083
 9550SOL    HW240113   2.446   0.506  17.485  3.0847 -1.3281  1.9076
 9551SOL     OW40114   2.769   4.283  10.425  0.4971 -0.6211  0.3819
 9551SOL    HW140115   2.792   4.206  10.476 -0.3709  0.2910  2.1264
 9551SOL    HW240116   2.858   4.310  10.399  0.7151 -0.9395  0.8117
 9552SOL     OW40117   3.131   0.216  16.757 -1.0429 -0.4366  0.4044
 9552SOL    HW140118   3.161   0.296  16.800 -1.2314  0.4012 -1.0233
 9552SOL    HW240119   3.180   0.218  16.675  0.2274 -1.4606  1.1362
 9553SOL     OW40120   4.658   2.794   2.199  0.3960 -0.2460 -0.2159
 9553SOL    HW140121   4.666   2.884   2.229  0.2719  0.2522 -1.6940
 9553SOL    HW240122   4.567   2.784   2.170  1.6021 -3.1680 -2.9656
 9554SOL     OW40123   2.611   4.323   7.292 -0.1028  0.0945  0.3800
 9554SOL    HW140124   2.620   4.247   7.234  0.5162 -0.3394  1.0414
 9554SOL    HW240125   2.689   4.376   7.278 -0.8540  1.1044 -0.0291
 9555SOL     OW40126   0.228   0.916   3.865 -0.0256  0.0983 -0.1548
 9555SOL    HW140127   0.317   0.884   3.878 -0.9143 -2.4307 -0.4270
 9555SOL    HW240128   0.184   0.906   3.949  0.7250 -1.1051  0.0871
 9556SOL     OW40129   1.576   3.737   7.058  0.0920 -0.3031 -0.1305
 9556SOL    HW140130   1.514   3.753   7.129 -1.2689  0.4669 -1.4802
 9556SOL    HW240131   1.521   3.681   7.004  1.9213 -2.8643  0.6501
 9557SOL     OW40132   3.843   2.943   6.059 -0.1624 -0.0436  0.2185
 9557SOL    HW140133   3.775   2.895   6.012  0.1969 -0.4877  0.1523
 9557SOL    HW240134   3.794   2.993   6.125 -0.4769  0.2054 -0.2026
 9558SOL     OW40135   0.474   3.678   3.683  0.3554 -0.0638  0.3872
 9558SOL    HW140136   0.395   3.663   3.629  0.3579  2.1797 -0.2099
 9558SOL    HW240137   0.485   3.592   3.724  0.8276 -0.3990 -0.4297
 9559SOL     OW40138   2.693   1.565   6.880 -0.2260  0.3139 -0.6623
 9559SOL    HW140139   2.776   1.519   6.872  0.0045  0.4647  0.8788
 9559SOL    HW240140   2.726   1.652   6.860 -0.0416  0.5695  0.7755
 9560SOL     OW40141   3.354   3.985   5.384 -0.3872  0.4325 -0.2563
 9560SOL    HW140142   3.334   4.010   5.293  1.5184 -0.6480 -0.9785
 9560SOL    HW240143   3.286   3.925   5.413  2.4996 -2.3723  0.6440
 9561SOL     OW40144   3.889   3.628   3.629 -0.3256 -0.4358 -0.0932
 9561SOL    HW140145   3.905   3.564   3.698 -0.5597  0.2114  0.5614
 9561SOL    HW240146   3.930   3.584   3.554  2.2218 -1.1254  1.6874
 9562SOL     OW40147   3.210   1.479  14.834 -0.1498  0.2782 -0.5083
 9562SOL    HW140148   3.137   1.417  14.825 -2.2528  2.4224  1.7377
 9562SOL    HW240149   3.160   1.560  14.840 -0.7425 -0.1264  0.1763
 9563SOL     OW40150   0.204   2.810  16.426  0.2406 -0.2760 -0.2447
 9563SOL    HW140151   0.169   2.724  16.450 -1.3693  0.2274 -0.8167
 9563SOL    HW240152   0.163   2.810  16.339  0.2299  0.7697 -0.2421
 9564SOL     OW40153   2.188   4.315  16.165  0.3373  0.0824  0.0003
 9564SOL    HW140154   2.261   4.353  16.213 -0.1546  2.0386 -0.8150
 9564SOL    HW240155   2.231   4.238  16.127  1.5227  1.0346 -0.5561
 9565SOL     OW40156   0.395   0.837  17.080 -0.4948  0.3321 -0.5562
 9565SOL    HW140157   0.333   0.872  17.016  1.5383  1.5227 -1.9090
 9565SOL    HW240158   0.347   0.847  17.162  2.2395  0.6142  1.0307
 9566SOL     OW40159   0.476   1.378   6.105  0.5814  0.2534  0.4695
 9566SOL    HW140160   0.554   1.398   6.157  0.1848 -1.3590  1.6922
 9566SOL    HW240161   0.442   1.466   6.091 -2.0016 -0.6563  0.9675
 9567SOL     OW40162   0.803   2.721  13.910 -0.6299  1.2664  0.1974
 9567SOL    HW140163   0.861   2.655  13.948 -0.9760  0.1648 -1.1651
 9567SOL    HW240164   0.719   2.678  13.927  0.6901 -0.3839  2.6378
 9568SOL     OW40165   0.891   0.846   7.893 -0.2219  0.2451 -0.7429
 9568SOL    HW140166   0.972   0.839   7.943 -1.0895 -1.1702  0.5077
 9568SOL    HW240167   0.879   0.753   7.874  0.4760 -0.2215  1.1152
   4.72586   4.72586  17.70465
